<event>
 7    1  0.1138240E-011  0.5930195E+02  0.7816164E-02  0.1266605E+00
        -11   -1    0    0    0    0  0.00000000000E+00  0.00000000000E+00  0.45593999997E+02  0.45594000000E+02  0.51100000000E-03 0. -1.
         11   -1    0    0    0    0 -0.00000000000E+00 -0.00000000000E+00 -0.45593999997E+02  0.45594000000E+02  0.51100000000E-03 0.  1.
    9900012    2    1    2    0    0  0.18190240033E+02  0.27172274483E+01  0.26047109387E+02  0.59301951877E+02  0.50000014315E+02 0.  0.
        -12    1    1    2    0    0 -0.18190240033E+02 -0.27172274483E+01 -0.26047109387E+02  0.31886048123E+02  0.00000000000E+00 0.  1.
         11    1    3    3    0    0  0.44606740304E+01  0.61583236064E+01  0.25321985334E+02  0.26439090452E+02  0.51100000000E-03 0. -1.
        -11    1    3    3    0    0  0.21343558463E+02  0.40455097939E+01 -0.20786171483E+01  0.21822792829E+02  0.51100000000E-03 0.  1.
         12    1    3    3    0    0 -0.76139924603E+01 -0.74866059520E+01  0.28037412018E+01  0.11040068595E+02  0.00000000000E+00 0. -1.
</event>
<event>
 7    1  0.1138240E-011  0.5930194E+02  0.7816164E-02  0.1266605E+00
        -11   -1    0    0    0    0  0.00000000000E+00  0.00000000000E+00  0.45593999997E+02  0.45594000000E+02  0.51100000000E-03 0.  1.
         11   -1    0    0    0    0 -0.00000000000E+00 -0.00000000000E+00 -0.45593999997E+02  0.45594000000E+02  0.51100000000E-03 0. -1.
    9900012    2    1    2    0    0 -0.87229304174E+01  0.85915760466E+01 -0.29441737092E+02  0.59301943846E+02  0.49999999669E+02 0.  0.
        -12    1    1    2    0    0  0.87229304174E+01 -0.85915760466E+01  0.29441737092E+02  0.31886056154E+02  0.00000000000E+00 0.  1.
         11    1    3    3    0    0 -0.61369371731E+01 -0.20104055727E+01 -0.97758154355E+01  0.11716240699E+02  0.51100000000E-03 0. -1.
        -11    1    3    3    0    0 -0.20586926561E+02 -0.20817411691E+01 -0.55294969770E+01  0.21417995438E+02  0.51100000000E-03 0.  1.
         12    1    3    3    0    0  0.18000933316E+02  0.12683722788E+02 -0.14136424680E+02  0.26167707709E+02  0.00000000000E+00 0. -1.
</event>
<event>
 7    1  0.1138240E-011  0.5930194E+02  0.7816164E-02  0.1266605E+00
        -11   -1    0    0    0    0  0.00000000000E+00  0.00000000000E+00  0.45593999997E+02  0.45594000000E+02  0.51100000000E-03 0. -1.
         11   -1    0    0    0    0 -0.00000000000E+00 -0.00000000000E+00 -0.45593999997E+02  0.45594000000E+02  0.51100000000E-03 0.  1.
    9900012    2    1    2    0    0 -0.23258135389E+02  0.16613614230E+02 -0.14133927598E+02  0.59301938015E+02  0.49999989034E+02 0.  0.
        -12    1    1    2    0    0  0.23258135389E+02 -0.16613614230E+02  0.14133927598E+02  0.31886061985E+02  0.00000000000E+00 0.  1.
         11    1    3    3    0    0 -0.23556715289E+02 -0.24571974041E+01 -0.27749649573E+01  0.23846531929E+02  0.51100000000E-03 0. -1.
        -11    1    3    3    0    0 -0.85149588875E+01  0.10771232711E+02  0.54229694579E+01  0.14762539652E+02  0.51100000000E-03 0.  1.
        -12    1    3    3    0    0  0.88135387872E+01  0.82995789230E+01 -0.16781932099E+02  0.20692866433E+02  0.00000000000E+00 0.  1.
</event>
<event>
 7    1  0.1138240E-011  0.5930194E+02  0.7816164E-02  0.1266605E+00
        -11   -1    0    0    0    0  0.00000000000E+00  0.00000000000E+00  0.45593999997E+02  0.45594000000E+02  0.51100000000E-03 0. -1.
         11   -1    0    0    0    0 -0.00000000000E+00 -0.00000000000E+00 -0.45593999997E+02  0.45594000000E+02  0.51100000000E-03 0.  1.
    9900012    2    1    2    0    0 -0.62466498975E+01  0.30094534987E+02  0.84864137310E+01  0.59301938954E+02  0.49999990746E+02 0.  0.
        -12    1    1    2    0    0  0.62466498975E+01 -0.30094534987E+02 -0.84864137310E+01  0.31886061046E+02  0.00000000000E+00 0.  1.
         11    1    3    3    0    0  0.11395220601E+02  0.14925739853E+02 -0.77531783279E+01  0.20316016764E+02  0.51100000000E-03 0. -1.
        -11    1    3    3    0    0 -0.23541037099E+01 -0.67380011144E+01 -0.97836437067E+00  0.72041418918E+01  0.51100000000E-03 0.  1.
        -12    1    3    3    0    0 -0.15287766789E+02  0.21906796249E+02  0.17217956430E+02  0.31781780298E+02  0.00000000000E+00 0.  1.
</event>
<event>
 7    1  0.1138240E-011  0.5930198E+02  0.7816164E-02  0.1266605E+00
        -11   -1    0    0    0    0  0.00000000000E+00  0.00000000000E+00  0.45593999997E+02  0.45594000000E+02  0.51100000000E-03 0.  1.
         11   -1    0    0    0    0 -0.00000000000E+00 -0.00000000000E+00 -0.45593999997E+02  0.45594000000E+02  0.51100000000E-03 0. -1.
    9900012    2    1    2    0    0  0.18926113499E+02  0.36749472917E+01 -0.25397155817E+02  0.59301975893E+02  0.50000058114E+02 0.  0.
        -12    1    1    2    0    0 -0.18926113499E+02 -0.36749472917E+01  0.25397155817E+02  0.31886024107E+02  0.00000000000E+00 0.  1.
         11    1    3    3    0    0  0.26333245029E+01  0.13211871480E+02 -0.13555160960E+02  0.19111000363E+02  0.51100000000E-03 0. -1.
        -11    1    3    3    0    0 -0.18513093975E+01  0.80782398899E+01  0.51192410480E+01  0.97412491690E+01  0.51100000000E-03 0.  1.
        -12    1    3    3    0    0  0.18144098394E+02 -0.17615164079E+02 -0.16961235905E+02  0.30449726361E+02  0.00000000000E+00 0.  1.
</event>
<event>
 7    1  0.1138240E-011  0.5930194E+02  0.7816164E-02  0.1266605E+00
        -11   -1    0    0    0    0  0.00000000000E+00  0.00000000000E+00  0.45593999997E+02  0.45594000000E+02  0.51100000000E-03 0.  1.
         11   -1    0    0    0    0 -0.00000000000E+00 -0.00000000000E+00 -0.45593999997E+02  0.45594000000E+02  0.51100000000E-03 0. -1.
    9900012    2    1    2    0    0 -0.22688575672E+02  0.22320324443E+02  0.19371718815E+01  0.59301937462E+02  0.49999988026E+02 0.  0.
        -12    1    1    2    0    0  0.22688575672E+02 -0.22320324443E+02 -0.19371718815E+01  0.31886062538E+02  0.00000000000E+00 0.  1.
         11    1    3    3    0    0 -0.12785395375E+02  0.27808695754E+02  0.48123689252E+01  0.30983040351E+02  0.51100000000E-03 0. -1.
        -11    1    3    3    0    0  0.26786342949E+01  0.75544161760E+01  0.39729706600E+01  0.89458807041E+01  0.51100000000E-03 0.  1.
         12    1    3    3    0    0 -0.12581814591E+02 -0.13042787487E+02 -0.68481677037E+01  0.19373016408E+02  0.00000000000E+00 0. -1.
</event>
<event>
 7    1  0.1138240E-011  0.5930196E+02  0.7816164E-02  0.1266605E+00
        -11   -1    0    0    0    0  0.00000000000E+00  0.00000000000E+00  0.45593999997E+02  0.45594000000E+02  0.51100000000E-03 0.  1.
         11   -1    0    0    0    0 -0.00000000000E+00 -0.00000000000E+00 -0.45593999997E+02  0.45594000000E+02  0.51100000000E-03 0. -1.
    9900012    2    1    2    0    0  0.18578777813E+02 -0.15491167283E+02 -0.20774320886E+02  0.59301958272E+02  0.50000025978E+02 0.  0.
        -12    1    1    2    0    0 -0.18578777813E+02  0.15491167283E+02  0.20774320886E+02  0.31886041728E+02  0.00000000000E+00 0.  1.
         11    1    3    3    0    0 -0.25448159793E+01 -0.19825882209E+01  0.10429714020E+02  0.10917219390E+02  0.51100000000E-03 0. -1.
        -11    1    3    3    0    0  0.11897848444E+02  0.31247962881E+01 -0.55566618482E+00  0.12313891124E+02  0.51100000000E-03 0.  1.
         12    1    3    3    0    0  0.92257453483E+01 -0.16633375350E+02 -0.30648368720E+02  0.36070847758E+02  0.00000000000E+00 0. -1.
</event>
<event>
 7    1  0.1138240E-011  0.5930199E+02  0.7816164E-02  0.1266605E+00
        -11   -1    0    0    0    0  0.00000000000E+00  0.00000000000E+00  0.45593999997E+02  0.45594000000E+02  0.51100000000E-03 0. -1.
         11   -1    0    0    0    0 -0.00000000000E+00 -0.00000000000E+00 -0.45593999997E+02  0.45594000000E+02  0.51100000000E-03 0.  1.
    9900012    2    1    2    0    0  0.26265949843E+02  0.78017649858E+01 -0.16307977157E+02  0.59301987753E+02  0.50000079745E+02 0.  0.
        -12    1    1    2    0    0 -0.26265949843E+02 -0.78017649858E+01  0.16307977157E+02  0.31886012247E+02  0.00000000000E+00 0.  1.
         11    1    3    3    0    0 -0.23827315010E+01 -0.28261733915E+01 -0.11230440692E+02  0.11823174863E+02  0.51100000000E-03 0. -1.
        -11    1    3    3    0    0 -0.24652508685E+01  0.95348963693E+01 -0.12061966805E+02  0.15571857760E+02  0.51100000000E-03 0.  1.
         12    1    3    3    0    0  0.31113932212E+02  0.10930420080E+01  0.69844303399E+01  0.31906955131E+02  0.00000000000E+00 0. -1.
</event>
<event>
 7    1  0.1138240E-011  0.5930205E+02  0.7816164E-02  0.1266604E+00
        -11   -1    0    0    0    0  0.00000000000E+00  0.00000000000E+00  0.45593999997E+02  0.45594000000E+02  0.51100000000E-03 0. -1.
         11   -1    0    0    0    0 -0.00000000000E+00 -0.00000000000E+00 -0.45593999997E+02  0.45594000000E+02  0.51100000000E-03 0.  1.
    9900012    2    1    2    0    0 -0.95034621361E+01 -0.22147449152E+00  0.30435984925E+02  0.59302046637E+02  0.50000187134E+02 0.  0.
        -12    1    1    2    0    0  0.95034621361E+01  0.22147449152E+00 -0.30435984925E+02  0.31885953363E+02  0.00000000000E+00 0.  1.
         11    1    3    3    0    0  0.52841753443E+01 -0.78933022103E+01  0.18391834548E+02  0.20699910801E+02  0.51100000000E-03 0. -1.
        -11    1    3    3    0    0  0.44155838185E+01 -0.83686035587E+01  0.95716440634E+01  0.13459096415E+02  0.51100000000E-03 0.  1.
        -12    1    3    3    0    0 -0.19203221299E+02  0.16040431277E+02  0.24725063134E+01  0.25143039420E+02  0.00000000000E+00 0.  1.
</event>
<event>
 7    1  0.1138240E-011  0.5930192E+02  0.7816164E-02  0.1266605E+00
        -11   -1    0    0    0    0  0.00000000000E+00  0.00000000000E+00  0.45593999997E+02  0.45594000000E+02  0.51100000000E-03 0.  1.
         11   -1    0    0    0    0 -0.00000000000E+00 -0.00000000000E+00 -0.45593999997E+02  0.45594000000E+02  0.51100000000E-03 0. -1.
    9900012    2    1    2    0    0  0.30998594395E+02  0.58642915923E+01 -0.46280843649E+01  0.59301922549E+02  0.49999960828E+02 0.  0.
        -12    1    1    2    0    0 -0.30998594395E+02 -0.58642915923E+01  0.46280843649E+01  0.31886077451E+02  0.00000000000E+00 0.  1.
         11    1    3    3    0    0  0.14078175595E+02 -0.29922146608E+01  0.20290710453E+01  0.14534975274E+02  0.51100000000E-03 0. -1.
        -11    1    3    3    0    0  0.71805493347E+01 -0.15615664254E+02 -0.66463085082E+01  0.18427769151E+02  0.51100000000E-03 0.  1.
         12    1    3    3    0    0  0.97398694657E+01  0.24472170508E+02 -0.10846902001E-01  0.26339178123E+02  0.00000000000E+00 0. -1.
</event>
<event>
 7    1  0.1138240E-011  0.5930195E+02  0.7816164E-02  0.1266605E+00
        -11   -1    0    0    0    0  0.00000000000E+00  0.00000000000E+00  0.45593999997E+02  0.45594000000E+02  0.51100000000E-03 0.  1.
         11   -1    0    0    0    0 -0.00000000000E+00 -0.00000000000E+00 -0.45593999997E+02  0.45594000000E+02  0.51100000000E-03 0. -1.
    9900012    2    1    2    0    0  0.10971396181E+02  0.29060469306E+02 -0.71998509344E+01  0.59301948756E+02  0.50000008624E+02 0.  0.
        -12    1    1    2    0    0 -0.10971396181E+02 -0.29060469306E+02  0.71998509344E+01  0.31886051244E+02  0.00000000000E+00 0.  1.
         11    1    3    3    0    0  0.41310564242E+01  0.26241076874E+02 -0.39256364366E+01  0.26852753385E+02  0.51100000000E-03 0. -1.
        -11    1    3    3    0    0 -0.55099415435E+01  0.40239073209E+01  0.11366640339E+02  0.13257141426E+02  0.51100000000E-03 0.  1.
         12    1    3    3    0    0  0.12350281300E+02 -0.12045148884E+01 -0.14640854836E+02  0.19192053945E+02  0.00000000000E+00 0. -1.
</event>
<event>
 7    1  0.1138240E-011  0.5930186E+02  0.7816164E-02  0.1266605E+00
        -11   -1    0    0    0    0  0.00000000000E+00  0.00000000000E+00  0.45593999997E+02  0.45594000000E+02  0.51100000000E-03 0. -1.
         11   -1    0    0    0    0 -0.00000000000E+00 -0.00000000000E+00 -0.45593999997E+02  0.45594000000E+02  0.51100000000E-03 0.  1.
    9900012    2    1    2    0    0 -0.13041974101E+02 -0.23591871917E+02  0.17031039506E+02  0.59301861701E+02  0.49999849855E+02 0.  0.
        -12    1    1    2    0    0  0.13041974101E+02  0.23591871917E+02 -0.17031039506E+02  0.31886138299E+02  0.00000000000E+00 0.  1.
         11    1    3    3    0    0 -0.92448966898E+01 -0.15715937140E+02 -0.37067122195E+01  0.18606410474E+02  0.51100000000E-03 0. -1.
        -11    1    3    3    0    0 -0.18335754701E+01 -0.16591801991E+01 -0.94723941745E+01  0.97898482928E+01  0.51100000000E-03 0.  1.
         12    1    3    3    0    0 -0.19635019410E+01 -0.62167545773E+01  0.30210145900E+02  0.30905602933E+02  0.00000000000E+00 0. -1.
</event>
<event>
 7    1  0.1138240E-011  0.5930195E+02  0.7816164E-02  0.1266605E+00
        -11   -1    0    0    0    0  0.00000000000E+00  0.00000000000E+00  0.45593999997E+02  0.45594000000E+02  0.51100000000E-03 0. -1.
         11   -1    0    0    0    0 -0.00000000000E+00 -0.00000000000E+00 -0.45593999997E+02  0.45594000000E+02  0.51100000000E-03 0.  1.
    9900012    2    1    2    0    0  0.38089051268E+01 -0.31314688612E+02 -0.46478700185E+01  0.59301950122E+02  0.50000011114E+02 0.  0.
        -12    1    1    2    0    0 -0.38089051268E+01  0.31314688612E+02  0.46478700185E+01  0.31886049878E+02  0.00000000000E+00 0.  1.
         11    1    3    3    0    0  0.85970023260E+01 -0.23865753293E+02 -0.47386402788E+01  0.25805761783E+02  0.51100000000E-03 0. -1.
        -11    1    3    3    0    0  0.11354219566E+01  0.11716405763E+02 -0.50176253587E+01  0.12796089697E+02  0.51100000000E-03 0.  1.
         12    1    3    3    0    0 -0.59235191559E+01 -0.19165341082E+02  0.51083956189E+01  0.20700098642E+02  0.00000000000E+00 0. -1.
</event>
<event>
 7    1  0.1138240E-011  0.5930203E+02  0.7816164E-02  0.1266604E+00
        -11   -1    0    0    0    0  0.00000000000E+00  0.00000000000E+00  0.45593999997E+02  0.45594000000E+02  0.51100000000E-03 0. -1.
         11   -1    0    0    0    0 -0.00000000000E+00 -0.00000000000E+00 -0.45593999997E+02  0.45594000000E+02  0.51100000000E-03 0.  1.
    9900012    2    1    2    0    0 -0.60928003646E-01 -0.29388641239E+02  0.12370100167E+02  0.59302026215E+02  0.50000149890E+02 0.  0.
        -12    1    1    2    0    0  0.60928003646E-01  0.29388641239E+02 -0.12370100167E+02  0.31885973785E+02  0.00000000000E+00 0.  1.
         11    1    3    3    0    0  0.27425286620E+01 -0.74423435919E+01  0.10944078624E+02  0.13516020080E+02  0.51100000000E-03 0. -1.
        -11    1    3    3    0    0  0.13900559879E+02  0.43081503524E+01 -0.90503213627E+00  0.14580974173E+02  0.51100000000E-03 0.  1.
        -12    1    3    3    0    0 -0.16704016545E+02 -0.26254447999E+02  0.23310536788E+01  0.31205031962E+02  0.00000000000E+00 0.  1.
</event>
<event>
 7    1  0.1138240E-011  0.5930198E+02  0.7816164E-02  0.1266605E+00
        -11   -1    0    0    0    0  0.00000000000E+00  0.00000000000E+00  0.45593999997E+02  0.45594000000E+02  0.51100000000E-03 0.  1.
         11   -1    0    0    0    0 -0.00000000000E+00 -0.00000000000E+00 -0.45593999997E+02  0.45594000000E+02  0.51100000000E-03 0. -1.
    9900012    2    1    2    0    0 -0.25860924660E+02  0.88012470260E+01 -0.16445942842E+02  0.59301977836E+02  0.50000061658E+02 0.  0.
        -12    1    1    2    0    0  0.25860924660E+02 -0.88012470260E+01  0.16445942842E+02  0.31886022164E+02  0.00000000000E+00 0.  1.
         11    1    3    3    0    0 -0.11246632678E+02  0.11370833348E+02  0.94879117238E+01  0.18595780886E+02  0.51100000000E-03 0. -1.
        -11    1    3    3    0    0 -0.20113006167E+01 -0.10178876662E+02  0.56645058121E+00  0.10391136935E+02  0.51100000000E-03 0.  1.
         12    1    3    3    0    0 -0.12602991366E+02  0.76092903404E+01 -0.26500305147E+02  0.30315060015E+02  0.00000000000E+00 0. -1.
</event>
<event>
 7    1  0.1138240E-011  0.5930193E+02  0.7816164E-02  0.1266605E+00
        -11   -1    0    0    0    0  0.00000000000E+00  0.00000000000E+00  0.45593999997E+02  0.45594000000E+02  0.51100000000E-03 0.  1.
         11   -1    0    0    0    0 -0.00000000000E+00 -0.00000000000E+00 -0.45593999997E+02  0.45594000000E+02  0.51100000000E-03 0. -1.
    9900012    2    1    2    0    0  0.24238387464E+02 -0.18910632105E+02 -0.84622569786E+01  0.59301933660E+02  0.49999981092E+02 0.  0.
        -12    1    1    2    0    0 -0.24238387464E+02  0.18910632105E+02  0.84622569786E+01  0.31886066340E+02  0.00000000000E+00 0.  1.
         11    1    3    3    0    0  0.10225930097E+02  0.31917381121E+01 -0.40676817820E+01  0.11458746609E+02  0.51100000000E-03 0.  1.
        -11    1    3    3    0    0 -0.12442328490E+02 -0.55782743690E+01  0.60942559151E+01  0.14935482536E+02  0.51100000000E-03 0. -1.
         12    1    3    3    0    0  0.26454785857E+02 -0.16524095848E+02 -0.10488831112E+02  0.32907704514E+02  0.00000000000E+00 0. -1.
</event>
<event>
 7    1  0.1138240E-011  0.5930195E+02  0.7816164E-02  0.1266605E+00
        -11   -1    0    0    0    0  0.00000000000E+00  0.00000000000E+00  0.45593999997E+02  0.45594000000E+02  0.51100000000E-03 0. -1.
         11   -1    0    0    0    0 -0.00000000000E+00 -0.00000000000E+00 -0.45593999997E+02  0.45594000000E+02  0.51100000000E-03 0.  1.
    9900012    2    1    2    0    0 -0.14688289365E+02 -0.14850451072E+02  0.24092288796E+02  0.59301950999E+02  0.50000012714E+02 0.  0.
        -12    1    1    2    0    0  0.14688289365E+02  0.14850451072E+02 -0.24092288796E+02  0.31886049001E+02  0.00000000000E+00 0.  1.
         11    1    3    3    0    0 -0.30383169966E+01  0.56032341524E+01  0.16098346510E+02  0.17314282074E+02  0.51100000000E-03 0. -1.
        -11    1    3    3    0    0 -0.11650599724E+02 -0.16747577964E+02 -0.10625762956E+02  0.23002710281E+02  0.51100000000E-03 0.  1.
         12    1    3    3    0    0  0.62735600062E-03 -0.37061072601E+01  0.18619705242E+02  0.18984958644E+02  0.00000000000E+00 0. -1.
</event>
<event>
 7    1  0.1138240E-011  0.5930195E+02  0.7816164E-02  0.1266605E+00
        -11   -1    0    0    0    0  0.00000000000E+00  0.00000000000E+00  0.45593999997E+02  0.45594000000E+02  0.51100000000E-03 0.  1.
         11   -1    0    0    0    0 -0.00000000000E+00 -0.00000000000E+00 -0.45593999997E+02  0.45594000000E+02  0.51100000000E-03 0. -1.
    9900012    2    1    2    0    0  0.71842394269E+01  0.27375410051E+02 -0.14686510765E+02  0.59301953365E+02  0.50000017028E+02 0.  0.
        -12    1    1    2    0    0 -0.71842394269E+01 -0.27375410051E+02  0.14686510765E+02  0.31886046635E+02  0.00000000000E+00 0.  1.
         11    1    3    3    0    0 -0.36575238024E+00  0.10835737456E+02 -0.29483339462E+02  0.31413600352E+02  0.51100000000E-03 0. -1.
        -11    1    3    3    0    0 -0.28088773506E+01  0.25807934781E+01 -0.14638294227E+01  0.40857170468E+01  0.51100000000E-03 0.  1.
        -12    1    3    3    0    0  0.10358869158E+02  0.13958879116E+02  0.16260658120E+02  0.23802635965E+02  0.00000000000E+00 0.  1.
</event>
<event>
 7    1  0.1138240E-011  0.5930193E+02  0.7816164E-02  0.1266605E+00
        -11   -1    0    0    0    0  0.00000000000E+00  0.00000000000E+00  0.45593999997E+02  0.45594000000E+02  0.51100000000E-03 0. -1.
         11   -1    0    0    0    0 -0.00000000000E+00 -0.00000000000E+00 -0.45593999997E+02  0.45594000000E+02  0.51100000000E-03 0.  1.
    9900012    2    1    2    0    0 -0.25117308038E+02 -0.13434160577E+02 -0.14330587593E+02  0.59301928210E+02  0.49999971151E+02 0.  0.
        -12    1    1    2    0    0  0.25117308038E+02  0.13434160577E+02  0.14330587593E+02  0.31886071790E+02  0.00000000000E+00 0.  1.
         11    1    3    3    0    0  0.16163527625E+01 -0.99823282595E+01 -0.51339012722E+01  0.11340917788E+02  0.51100000000E-03 0. -1.
        -11    1    3    3    0    0  0.95850153304E+01 -0.19464539410E+01  0.18825826785E+01  0.99601867267E+01  0.51100000000E-03 0.  1.
         12    1    3    3    0    0 -0.36318676131E+02 -0.15053783761E+01 -0.11079268999E+02  0.38000823695E+02  0.00000000000E+00 0. -1.
</event>
<event>
 7    1  0.1138240E-011  0.5930198E+02  0.7816164E-02  0.1266605E+00
        -11   -1    0    0    0    0  0.00000000000E+00  0.00000000000E+00  0.45593999997E+02  0.45594000000E+02  0.51100000000E-03 0.  1.
         11   -1    0    0    0    0 -0.00000000000E+00 -0.00000000000E+00 -0.45593999997E+02  0.45594000000E+02  0.51100000000E-03 0. -1.
    9900012    2    1    2    0    0 -0.15020502216E+02  0.14068406534E+01 -0.28091339754E+02  0.59301983368E+02  0.50000071748E+02 0.  0.
        -12    1    1    2    0    0  0.15020502216E+02 -0.14068406534E+01  0.28091339754E+02  0.31886016632E+02  0.00000000000E+00 0.  1.
         11    1    3    3    0    0 -0.40035250325E+01  0.19254278773E+02 -0.19308071421E+02  0.27560063244E+02  0.51100000000E-03 0. -1.
        -11    1    3    3    0    0 -0.84956382946E+01 -0.29467439806E+01 -0.13222929449E+02  0.15990779643E+02  0.51100000000E-03 0.  1.
        -12    1    3    3    0    0 -0.25213388891E+01 -0.14900694139E+02  0.44396611162E+01  0.15751140481E+02  0.00000000000E+00 0.  1.
</event>
<event>
 7    1  0.1138240E-011  0.5930194E+02  0.7816164E-02  0.1266605E+00
        -11   -1    0    0    0    0  0.00000000000E+00  0.00000000000E+00  0.45593999997E+02  0.45594000000E+02  0.51100000000E-03 0.  1.
         11   -1    0    0    0    0 -0.00000000000E+00 -0.00000000000E+00 -0.45593999997E+02  0.45594000000E+02  0.51100000000E-03 0. -1.
    9900012    2    1    2    0    0  0.84181242101E+01  0.26678228147E+02 -0.15301249925E+02  0.59301938444E+02  0.49999989817E+02 0.  0.
        -12    1    1    2    0    0 -0.84181242101E+01 -0.26678228147E+02  0.15301249925E+02  0.31886061556E+02  0.00000000000E+00 0.  1.
         11    1    3    3    0    0 -0.13232146569E+02  0.32899600073E+01 -0.92203808905E+01  0.16459919918E+02  0.51100000000E-03 0. -1.
        -11    1    3    3    0    0  0.17519690763E+01  0.52370406741E+01  0.10035785372E+02  0.11454823392E+02  0.51100000000E-03 0.  1.
         12    1    3    3    0    0  0.19898301703E+02  0.18151227465E+02 -0.16116654406E+02  0.31387195134E+02  0.00000000000E+00 0. -1.
</event>
<event>
 7    1  0.1138240E-011  0.5930199E+02  0.7816164E-02  0.1266605E+00
        -11   -1    0    0    0    0  0.00000000000E+00  0.00000000000E+00  0.45593999997E+02  0.45594000000E+02  0.51100000000E-03 0.  1.
         11   -1    0    0    0    0 -0.00000000000E+00 -0.00000000000E+00 -0.45593999997E+02  0.45594000000E+02  0.51100000000E-03 0. -1.
    9900012    2    1    2    0    0 -0.16445575390E+02  0.17971629846E+02 -0.20573801234E+02  0.59301988546E+02  0.50000081190E+02 0.  0.
        -12    1    1    2    0    0  0.16445575390E+02 -0.17971629846E+02  0.20573801234E+02  0.31886011454E+02  0.00000000000E+00 0.  1.
         11    1    3    3    0    0  0.47370994343E+01  0.31021278890E+01 -0.22994230181E+02  0.23681172487E+02  0.51100000000E-03 0. -1.
        -11    1    3    3    0    0 -0.99737169249E+00  0.98053871816E+01 -0.76737710779E+01  0.12491082054E+02  0.51100000000E-03 0.  1.
        -12    1    3    3    0    0 -0.20185303132E+02  0.50641147751E+01  0.10094200024E+02  0.23129734004E+02  0.00000000000E+00 0.  1.
</event>
<event>
 7    1  0.1138240E-011  0.5930195E+02  0.7816164E-02  0.1266605E+00
        -11   -1    0    0    0    0  0.00000000000E+00  0.00000000000E+00  0.45593999997E+02  0.45594000000E+02  0.51100000000E-03 0.  1.
         11   -1    0    0    0    0 -0.00000000000E+00 -0.00000000000E+00 -0.45593999997E+02  0.45594000000E+02  0.51100000000E-03 0. -1.
    9900012    2    1    2    0    0  0.15480968741E+02  0.18163381152E+02 -0.21145960301E+02  0.59301945915E+02  0.50000003442E+02 0.  0.
        -12    1    1    2    0    0 -0.15480968741E+02 -0.18163381152E+02  0.21145960301E+02  0.31886054085E+02  0.00000000000E+00 0.  1.
         11    1    3    3    0    0  0.21067693944E+02  0.15796156025E+02 -0.30072790915E+02  0.39971727845E+02  0.51100000000E-03 0. -1.
        -11    1    3    3    0    0 -0.32157872500E+01 -0.67839679310E+01  0.25569412329E+01  0.79310438945E+01  0.51100000000E-03 0.  1.
        -12    1    3    3    0    0 -0.23709379529E+01  0.91511930582E+01  0.63698893804E+01  0.11399174176E+02  0.00000000000E+00 0.  1.
</event>
<event>
 7    1  0.1138240E-011  0.5930198E+02  0.7816164E-02  0.1266605E+00
        -11   -1    0    0    0    0  0.00000000000E+00  0.00000000000E+00  0.45593999997E+02  0.45594000000E+02  0.51100000000E-03 0.  1.
         11   -1    0    0    0    0 -0.00000000000E+00 -0.00000000000E+00 -0.45593999997E+02  0.45594000000E+02  0.51100000000E-03 0. -1.
    9900012    2    1    2    0    0 -0.25154751921E+02 -0.46058992946E+01 -0.19045798631E+02  0.59301979584E+02  0.50000064845E+02 0.  0.
        -12    1    1    2    0    0  0.25154751921E+02  0.46058992946E+01  0.19045798631E+02  0.31886020416E+02  0.00000000000E+00 0.  1.
         11    1    3    3    0    0 -0.34100161487E+02 -0.43371826683E+01 -0.21811248180E+02  0.40710719895E+02  0.51100000000E-03 0.  1.
        -11    1    3    3    0    0  0.28441953050E+01 -0.75598858485E+01 -0.14243304033E+01  0.82018314013E+01  0.51100000000E-03 0. -1.
        -12    1    3    3    0    0  0.61012142608E+01  0.72911692222E+01  0.41897799529E+01  0.10389428287E+02  0.00000000000E+00 0.  1.
</event>
<event>
 7    1  0.1138240E-011  0.5930194E+02  0.7816164E-02  0.1266605E+00
        -11   -1    0    0    0    0  0.00000000000E+00  0.00000000000E+00  0.45593999997E+02  0.45594000000E+02  0.51100000000E-03 0.  1.
         11   -1    0    0    0    0 -0.00000000000E+00 -0.00000000000E+00 -0.45593999997E+02  0.45594000000E+02  0.51100000000E-03 0. -1.
    9900012    2    1    2    0    0  0.16479116023E+02  0.33822611476E+01 -0.27087260553E+02  0.59301942865E+02  0.49999997879E+02 0.  0.
        -12    1    1    2    0    0 -0.16479116023E+02 -0.33822611476E+01  0.27087260553E+02  0.31886057135E+02  0.00000000000E+00 0.  1.
         11    1    3    3    0    0 -0.76080034731E+01  0.10740222281E+02 -0.26598827547E+01  0.13427921210E+02  0.51100000000E-03 0. -1.
        -11    1    3    3    0    0  0.99959383942E+01 -0.25240297209E+01  0.60477578337E+01  0.11952609986E+02  0.51100000000E-03 0.  1.
         12    1    3    3    0    0  0.14091181102E+02 -0.48339314127E+01 -0.30475135632E+02  0.33921411668E+02  0.00000000000E+00 0. -1.
</event>
<event>
 7    1  0.1138240E-011  0.5930194E+02  0.7816164E-02  0.1266605E+00
        -11   -1    0    0    0    0  0.00000000000E+00  0.00000000000E+00  0.45593999997E+02  0.45594000000E+02  0.51100000000E-03 0. -1.
         11   -1    0    0    0    0 -0.00000000000E+00 -0.00000000000E+00 -0.45593999997E+02  0.45594000000E+02  0.51100000000E-03 0.  1.
    9900012    2    1    2    0    0  0.10708462539E+02 -0.42637836596E+01  0.29729947349E+02  0.59301940500E+02  0.49999993566E+02 0.  0.
        -12    1    1    2    0    0 -0.10708462539E+02  0.42637836596E+01 -0.29729947349E+02  0.31886059500E+02  0.00000000000E+00 0.  1.
         11    1    3    3    0    0  0.11142588014E+02  0.15779560212E+01  0.19753819271E+02  0.22734568149E+02  0.51100000000E-03 0. -1.
        -11    1    3    3    0    0 -0.26887371647E+01 -0.18907020173E+02  0.12828043853E+02  0.23005725998E+02  0.51100000000E-03 0.  1.
         12    1    3    3    0    0  0.22546116903E+01  0.13065280492E+02 -0.28519157746E+01  0.13561646353E+02  0.00000000000E+00 0. -1.
</event>
<event>
 7    1  0.1138240E-011  0.5930196E+02  0.7816164E-02  0.1266605E+00
        -11   -1    0    0    0    0  0.00000000000E+00  0.00000000000E+00  0.45593999997E+02  0.45594000000E+02  0.51100000000E-03 0.  1.
         11   -1    0    0    0    0 -0.00000000000E+00 -0.00000000000E+00 -0.45593999997E+02  0.45594000000E+02  0.51100000000E-03 0. -1.
    9900012    2    1    2    0    0  0.93536520717E-01 -0.31003765029E+02  0.74483280101E+01  0.59301956262E+02  0.50000022313E+02 0.  0.
        -12    1    1    2    0    0 -0.93536520717E-01  0.31003765029E+02 -0.74483280101E+01  0.31886043738E+02  0.00000000000E+00 0.  1.
         11    1    3    3    0    0  0.12876606105E+02 -0.87951487078E+01 -0.14111960155E+01  0.15657365680E+02  0.51100000000E-03 0. -1.
        -11    1    3    3    0    0  0.65375725365E+01  0.19105828058E+01 -0.62509861324E+01  0.92447287259E+01  0.51100000000E-03 0.  1.
         12    1    3    3    0    0 -0.19320642121E+02 -0.24119199127E+02  0.15110510158E+02  0.34399861857E+02  0.00000000000E+00 0. -1.
</event>
<event>
 7    1  0.1138240E-011  0.5930194E+02  0.7816164E-02  0.1266605E+00
        -11   -1    0    0    0    0  0.00000000000E+00  0.00000000000E+00  0.45593999997E+02  0.45594000000E+02  0.51100000000E-03 0.  1.
         11   -1    0    0    0    0 -0.00000000000E+00 -0.00000000000E+00 -0.45593999997E+02  0.45594000000E+02  0.51100000000E-03 0. -1.
    9900012    2    1    2    0    0 -0.58689807492E+01 -0.10821947081E+02 -0.29413622047E+02  0.59301942928E+02  0.49999997994E+02 0.  0.
        -12    1    1    2    0    0  0.58689807492E+01  0.10821947081E+02  0.29413622047E+02  0.31886057072E+02  0.00000000000E+00 0.  1.
         11    1    3    3    0    0 -0.36014252851E+01  0.12020672253E+02 -0.13373095429E+02  0.18338661541E+02  0.51100000000E-03 0. -1.
        -11    1    3    3    0    0 -0.12864029102E+02 -0.74722266493E+00 -0.31084824370E+01  0.13255347969E+02  0.51100000000E-03 0.  1.
        -12    1    3    3    0    0  0.10596473638E+02 -0.22095396670E+02 -0.12932044182E+02  0.27707933418E+02  0.00000000000E+00 0.  1.
</event>
<event>
 7    1  0.1138240E-011  0.5930194E+02  0.7816164E-02  0.1266605E+00
        -11   -1    0    0    0    0  0.00000000000E+00  0.00000000000E+00  0.45593999997E+02  0.45594000000E+02  0.51100000000E-03 0. -1.
         11   -1    0    0    0    0 -0.00000000000E+00 -0.00000000000E+00 -0.45593999997E+02  0.45594000000E+02  0.51100000000E-03 0.  1.
    9900012    2    1    2    0    0 -0.13034322403E+02 -0.26702010968E+02  0.11568477211E+02  0.59301943248E+02  0.49999998578E+02 0.  0.
        -12    1    1    2    0    0  0.13034322403E+02  0.26702010968E+02 -0.11568477211E+02  0.31886056752E+02  0.00000000000E+00 0.  1.
         11    1    3    3    0    0 -0.14700769253E+02 -0.26640318845E+02  0.12818921895E+02  0.33017328233E+02  0.51100000000E-03 0. -1.
        -11    1    3    3    0    0  0.78349651422E+01 -0.10649522577E+02  0.25299390231E+01  0.13461040139E+02  0.51100000000E-03 0.  1.
        -12    1    3    3    0    0 -0.61685182913E+01  0.10587830454E+02 -0.37803837069E+01  0.12823574876E+02  0.00000000000E+00 0.  1.
</event>
<event>
 7    1  0.1138240E-011  0.5930210E+02  0.7816164E-02  0.1266604E+00
        -11   -1    0    0    0    0  0.00000000000E+00  0.00000000000E+00  0.45593999997E+02  0.45594000000E+02  0.51100000000E-03 0.  1.
         11   -1    0    0    0    0 -0.00000000000E+00 -0.00000000000E+00 -0.45593999997E+02  0.45594000000E+02  0.51100000000E-03 0. -1.
    9900012    2    1    2    0    0 -0.26969452130E+02 -0.30490609730E+01 -0.16735074546E+02  0.59302096515E+02  0.50000278099E+02 0.  0.
        -12    1    1    2    0    0  0.26969452130E+02  0.30490609730E+01  0.16735074546E+02  0.31885903485E+02  0.00000000000E+00 0.  1.
         11    1    3    3    0    0 -0.15539291641E+02  0.10098225976E+02 -0.28543124614E+02  0.34031657549E+02  0.51100000000E-03 0. -1.
        -11    1    3    3    0    0 -0.69249836687E+01  0.13599298826E+01  0.26848425975E+01  0.75507077901E+01  0.51100000000E-03 0.  1.
        -12    1    3    3    0    0 -0.45051768205E+01 -0.14507216831E+02  0.91232074706E+01  0.17719731175E+02  0.00000000000E+00 0.  1.
</event>
<event>
 7    1  0.1378916E-011  0.5930197E+02  0.7816164E-02  0.1266605E+00
        -11   -1    0    0    0    0  0.00000000000E+00  0.00000000000E+00  0.45593999997E+02  0.45594000000E+02  0.51100000000E-03 0. -1.
         11   -1    0    0    0    0 -0.00000000000E+00 -0.00000000000E+00 -0.45593999997E+02  0.45594000000E+02  0.51100000000E-03 0.  1.
    9900012    2    1    2    0    0 -0.31204455263E+01 -0.85811389002E+01  0.30550706573E+02  0.59301971755E+02  0.50000050568E+02 0.  0.
        -12    1    1    2    0    0  0.31204455263E+01  0.85811389002E+01 -0.30550706573E+02  0.31886028245E+02  0.00000000000E+00 0.  1.
         11    1    3    3    0    0  0.83361444200E+01  0.37089344414E+00  0.12834190456E+01  0.84425132778E+01  0.51100000000E-03 0. -1.
        -11    1    3    3    0    0  0.22314531640E+01 -0.66735277114E+01 -0.82587491074E+01  0.10849990434E+02  0.51100000000E-03 0.  1.
         12    1    3    3    0    0 -0.13688043110E+02 -0.22785046329E+01  0.37526036635E+02  0.40009468043E+02  0.00000000000E+00 0. -1.
</event>
<event>
 7    1  0.1138240E-011  0.5930195E+02  0.7816164E-02  0.1266605E+00
        -11   -1    0    0    0    0  0.00000000000E+00  0.00000000000E+00  0.45593999997E+02  0.45594000000E+02  0.51100000000E-03 0. -1.
         11   -1    0    0    0    0 -0.00000000000E+00 -0.00000000000E+00 -0.45593999997E+02  0.45594000000E+02  0.51100000000E-03 0.  1.
    9900012    2    1    2    0    0  0.24537929605E+00  0.27071896692E+02  0.16845547699E+02  0.59301948524E+02  0.50000008200E+02 0.  0.
        -12    1    1    2    0    0 -0.24537929605E+00 -0.27071896692E+02 -0.16845547699E+02  0.31886051476E+02  0.00000000000E+00 0.  1.
         11    1    3    3    0    0  0.48826457711E+01 -0.35475300418E+01 -0.20901350527E+01  0.63870074309E+01  0.51100000000E-03 0. -1.
        -11    1    3    3    0    0 -0.32030652812E+01  0.12902901093E+01 -0.10671039557E+02  0.11215862038E+02  0.51100000000E-03 0.  1.
         12    1    3    3    0    0 -0.14342011938E+01  0.29329136624E+02  0.29606722308E+02  0.41699079055E+02  0.00000000000E+00 0. -1.
</event>
<event>
 7    1  0.1138240E-011  0.5930192E+02  0.7816164E-02  0.1266605E+00
        -11   -1    0    0    0    0  0.00000000000E+00  0.00000000000E+00  0.45593999997E+02  0.45594000000E+02  0.51100000000E-03 0.  1.
         11   -1    0    0    0    0 -0.00000000000E+00 -0.00000000000E+00 -0.45593999997E+02  0.45594000000E+02  0.51100000000E-03 0. -1.
    9900012    2    1    2    0    0  0.45975326274E+01  0.40566726718E+01 -0.31291023830E+02  0.59301920408E+02  0.49999956923E+02 0.  0.
        -12    1    1    2    0    0 -0.45975326274E+01 -0.40566726718E+01  0.31291023830E+02  0.31886079592E+02  0.00000000000E+00 0.  1.
         11    1    3    3    0    0 -0.97484863953E+01 -0.15828406081E+02 -0.15562548289E+02  0.24243851500E+02  0.51100000000E-03 0. -1.
        -11    1    3    3    0    0  0.97080203807E+01  0.71817259873E+01  0.25288653147E+01  0.12337666226E+02  0.51100000000E-03 0.  1.
        -12    1    3    3    0    0  0.46379986420E+01  0.12703352765E+02 -0.18257340856E+02  0.22720402682E+02  0.00000000000E+00 0.  1.
</event>
<event>
 7    1  0.1138240E-011  0.5930198E+02  0.7816164E-02  0.1266605E+00
        -11   -1    0    0    0    0  0.00000000000E+00  0.00000000000E+00  0.45593999997E+02  0.45594000000E+02  0.51100000000E-03 0. -1.
         11   -1    0    0    0    0 -0.00000000000E+00 -0.00000000000E+00 -0.45593999997E+02  0.45594000000E+02  0.51100000000E-03 0.  1.
    9900012    2    1    2    0    0  0.25674103349E+02  0.15186466292E+02 -0.11266309666E+02  0.59301983085E+02  0.50000071230E+02 0.  0.
        -12    1    1    2    0    0 -0.25674103349E+02 -0.15186466292E+02  0.11266309666E+02  0.31886016915E+02  0.00000000000E+00 0.  1.
         11    1    3    3    0    0  0.20008412403E+01  0.29045154079E+01  0.99369020142E+01  0.10544268458E+02  0.51100000000E-03 0.  1.
        -11    1    3    3    0    0  0.68279412385E+00  0.82600901922E+01  0.79011171708E+01  0.11450893005E+02  0.51100000000E-03 0. -1.
        -12    1    3    3    0    0  0.22990467985E+02  0.40218606921E+01 -0.29104328851E+02  0.37306821621E+02  0.00000000000E+00 0.  1.
</event>
<event>
 7    1  0.1138240E-011  0.5930196E+02  0.7816164E-02  0.1266605E+00
        -11   -1    0    0    0    0  0.00000000000E+00  0.00000000000E+00  0.45593999997E+02  0.45594000000E+02  0.51100000000E-03 0. -1.
         11   -1    0    0    0    0 -0.00000000000E+00 -0.00000000000E+00 -0.45593999997E+02  0.45594000000E+02  0.51100000000E-03 0.  1.
    9900012    2    1    2    0    0 -0.27388843281E+02  0.14009063576E+02  0.83855338491E+01  0.59301956400E+02  0.50000022563E+02 0.  0.
        -12    1    1    2    0    0  0.27388843281E+02 -0.14009063576E+02 -0.83855338491E+01  0.31886043600E+02  0.00000000000E+00 0.  1.
         11    1    3    3    0    0 -0.32624271225E+02  0.21003473526E+01  0.37802925200E+01  0.32909651225E+02  0.51100000000E-03 0. -1.
        -11    1    3    3    0    0 -0.61095486782E+01  0.10629026280E+02 -0.30661896217E+01  0.12637416816E+02  0.51100000000E-03 0.  1.
        -12    1    3    3    0    0  0.11344976623E+02  0.12796899434E+01  0.76714309508E+01  0.13754888358E+02  0.00000000000E+00 0.  1.
</event>
<event>
 7    1  0.1138240E-011  0.5930194E+02  0.7816164E-02  0.1266605E+00
        -11   -1    0    0    0    0  0.00000000000E+00  0.00000000000E+00  0.45593999997E+02  0.45594000000E+02  0.51100000000E-03 0.  1.
         11   -1    0    0    0    0 -0.00000000000E+00 -0.00000000000E+00 -0.45593999997E+02  0.45594000000E+02  0.51100000000E-03 0. -1.
    9900012    2    1    2    0    0 -0.14300095359E+02  0.25325358205E+02 -0.13071136287E+02  0.59301935657E+02  0.49999984733E+02 0.  0.
        -12    1    1    2    0    0  0.14300095359E+02 -0.25325358205E+02  0.13071136287E+02  0.31886064343E+02  0.00000000000E+00 0.  1.
         11    1    3    3    0    0 -0.19218154810E+02  0.47711029669E+01  0.72426480109E+01  0.21084516791E+02  0.51100000000E-03 0.  1.
        -11    1    3    3    0    0 -0.46044429069E+01  0.22135427904E+02 -0.15647310568E+02  0.27495752240E+02  0.51100000000E-03 0. -1.
         12    1    3    3    0    0  0.95225023584E+01 -0.15811726657E+01 -0.46664737299E+01  0.10721666626E+02  0.00000000000E+00 0. -1.
</event>
<event>
 7    1  0.1138240E-011  0.5930194E+02  0.7816164E-02  0.1266605E+00
        -11   -1    0    0    0    0  0.00000000000E+00  0.00000000000E+00  0.45593999997E+02  0.45594000000E+02  0.51100000000E-03 0. -1.
         11   -1    0    0    0    0 -0.00000000000E+00 -0.00000000000E+00 -0.45593999997E+02  0.45594000000E+02  0.51100000000E-03 0.  1.
    9900012    2    1    2    0    0 -0.10120989067E+02  0.25325080037E+02 -0.16520484860E+02  0.59301944763E+02  0.50000001341E+02 0.  0.
        -12    1    1    2    0    0  0.10120989067E+02 -0.25325080037E+02  0.16520484860E+02  0.31886055237E+02  0.00000000000E+00 0.  1.
         11    1    3    3    0    0  0.11905158615E+02  0.85245432614E+01 -0.82044178521E+00  0.14665393429E+02  0.51100000000E-03 0. -1.
        -11    1    3    3    0    0 -0.10393475037E+02  0.93272317622E+01 -0.24533207127E+02  0.28229414232E+02  0.51100000000E-03 0.  1.
         12    1    3    3    0    0 -0.11632672645E+02  0.74733050132E+01  0.88331640529E+01  0.16407137102E+02  0.00000000000E+00 0. -1.
</event>
<event>
 7    1  0.1138240E-011  0.5930197E+02  0.7816164E-02  0.1266605E+00
        -11   -1    0    0    0    0  0.00000000000E+00  0.00000000000E+00  0.45593999997E+02  0.45594000000E+02  0.51100000000E-03 0. -1.
         11   -1    0    0    0    0 -0.00000000000E+00 -0.00000000000E+00 -0.45593999997E+02  0.45594000000E+02  0.51100000000E-03 0.  1.
    9900012    2    1    2    0    0 -0.15734478534E+02  0.11978702259E+02  0.25013117059E+02  0.59301966262E+02  0.50000040549E+02 0.  0.
        -12    1    1    2    0    0  0.15734478534E+02 -0.11978702259E+02 -0.25013117059E+02  0.31886033738E+02  0.00000000000E+00 0.  1.
         11    1    3    3    0    0  0.45567535294E+01  0.13215371975E+02  0.74865346611E+00  0.13998947869E+02  0.51100000000E-03 0. -1.
        -11    1    3    3    0    0 -0.12633312652E+02  0.12414372846E+02  0.23769378263E+02  0.29642884222E+02  0.51100000000E-03 0.  1.
        -12    1    3    3    0    0 -0.76579194115E+01 -0.13651042563E+02  0.49508533023E+00  0.15660134171E+02  0.00000000000E+00 0.  1.
</event>
<event>
 7    1  0.1138240E-011  0.5930194E+02  0.7816164E-02  0.1266605E+00
        -11   -1    0    0    0    0  0.00000000000E+00  0.00000000000E+00  0.45593999997E+02  0.45594000000E+02  0.51100000000E-03 0.  1.
         11   -1    0    0    0    0 -0.00000000000E+00 -0.00000000000E+00 -0.45593999997E+02  0.45594000000E+02  0.51100000000E-03 0. -1.
    9900012    2    1    2    0    0 -0.12926782667E+02  0.26206127374E+02 -0.12761579405E+02  0.59301941432E+02  0.49999995266E+02 0.  0.
        -12    1    1    2    0    0  0.12926782667E+02 -0.26206127374E+02  0.12761579405E+02  0.31886058568E+02  0.00000000000E+00 0.  1.
         11    1    3    3    0    0 -0.34621183471E+01  0.41974397306E+01 -0.15047644370E+02  0.16001136369E+02  0.51100000000E-03 0. -1.
        -11    1    3    3    0    0  0.29843386124E+00  0.28354476441E+02 -0.60323031078E+01  0.28990586024E+02  0.51100000000E-03 0.  1.
        -12    1    3    3    0    0 -0.97630981814E+01 -0.63457887971E+01  0.83183680727E+01  0.14310219039E+02  0.00000000000E+00 0.  1.
</event>
<event>
 7    1  0.1138240E-011  0.5930192E+02  0.7816164E-02  0.1266605E+00
        -11   -1    0    0    0    0  0.00000000000E+00  0.00000000000E+00  0.45593999997E+02  0.45594000000E+02  0.51100000000E-03 0.  1.
         11   -1    0    0    0    0 -0.00000000000E+00 -0.00000000000E+00 -0.45593999997E+02  0.45594000000E+02  0.51100000000E-03 0. -1.
    9900012    2    1    2    0    0  0.95604154638E+01 -0.30398812966E+02  0.11102921818E+01  0.59301919615E+02  0.49999955478E+02 0.  0.
        -12    1    1    2    0    0 -0.95604154638E+01  0.30398812966E+02 -0.11102921818E+01  0.31886080385E+02  0.00000000000E+00 0.  1.
         11    1    3    3    0    0  0.11496972886E+02 -0.15980642389E+02 -0.52123850955E+01  0.20364927580E+02  0.51100000000E-03 0. -1.
        -11    1    3    3    0    0 -0.11198911019E+02 -0.13040710061E+01 -0.10695537446E+02  0.15540615519E+02  0.51100000000E-03 0.  1.
        -12    1    3    3    0    0  0.92623535963E+01 -0.13114099571E+02  0.17018214723E+02  0.23396376516E+02  0.00000000000E+00 0.  1.
</event>
<event>
 7    1  0.1138240E-011  0.5930195E+02  0.7816164E-02  0.1266605E+00
        -11   -1    0    0    0    0  0.00000000000E+00  0.00000000000E+00  0.45593999997E+02  0.45594000000E+02  0.51100000000E-03 0.  1.
         11   -1    0    0    0    0 -0.00000000000E+00 -0.00000000000E+00 -0.45593999997E+02  0.45594000000E+02  0.51100000000E-03 0. -1.
    9900012    2    1    2    0    0 -0.11955043218E+02 -0.11621808811E+02 -0.27179598914E+02  0.59301951397E+02  0.50000013440E+02 0.  0.
        -12    1    1    2    0    0  0.11955043218E+02  0.11621808811E+02  0.27179598914E+02  0.31886048603E+02  0.00000000000E+00 0.  1.
         11    1    3    3    0    0 -0.79624346556E+01  0.16721708919E+01  0.19528777277E+01  0.83672129659E+01  0.51100000000E-03 0. -1.
        -11    1    3    3    0    0 -0.17634268023E+02 -0.19669792441E+02 -0.15538357582E+02  0.30648143500E+02  0.51100000000E-03 0.  1.
         12    1    3    3    0    0  0.13641659461E+02  0.63758127383E+01 -0.13594119059E+02  0.20286594931E+02  0.00000000000E+00 0. -1.
</event>
<event>
 7    1  0.1138240E-011  0.5930179E+02  0.7816164E-02  0.1266605E+00
        -11   -1    0    0    0    0  0.00000000000E+00  0.00000000000E+00  0.45593999997E+02  0.45594000000E+02  0.51100000000E-03 0.  1.
         11   -1    0    0    0    0 -0.00000000000E+00 -0.00000000000E+00 -0.45593999997E+02  0.45594000000E+02  0.51100000000E-03 0. -1.
    9900012    2    1    2    0    0  0.13048498334E+02 -0.53029750103E+01 -0.28606737877E+02  0.59301791309E+02  0.49999721476E+02 0.  0.
        -12    1    1    2    0    0 -0.13048498334E+02  0.53029750103E+01  0.28606737877E+02  0.31886208691E+02  0.00000000000E+00 0.  1.
         11    1    3    3    0    0  0.95558330381E+01  0.41959400500E+01 -0.16172733534E+02  0.19247783461E+02  0.51100000000E-03 0. -1.
        -11    1    3    3    0    0  0.66412751185E+01  0.17446937165E+01  0.11516917059E+02  0.13408574502E+02  0.51100000000E-03 0.  1.
         12    1    3    3    0    0 -0.31486098226E+01 -0.11243608777E+02 -0.23950921403E+02  0.26645433346E+02  0.00000000000E+00 0. -1.
</event>
<event>
 7    1  0.1138240E-011  0.5930193E+02  0.7816164E-02  0.1266605E+00
        -11   -1    0    0    0    0  0.00000000000E+00  0.00000000000E+00  0.45593999997E+02  0.45594000000E+02  0.51100000000E-03 0. -1.
         11   -1    0    0    0    0 -0.00000000000E+00 -0.00000000000E+00 -0.45593999997E+02  0.45594000000E+02  0.51100000000E-03 0.  1.
    9900012    2    1    2    0    0 -0.90336228963E+01 -0.30560730386E+02  0.10754487420E+01  0.59301934480E+02  0.49999982587E+02 0.  0.
        -12    1    1    2    0    0  0.90336228963E+01  0.30560730386E+02 -0.10754487420E+01  0.31886065520E+02  0.00000000000E+00 0.  1.
         11    1    3    3    0    0  0.57269691033E+01  0.85487423015E+00 -0.24962410064E+01  0.63055693226E+01  0.51100000000E-03 0. -1.
        -11    1    3    3    0    0  0.11252678300E+02 -0.15548929212E+02 -0.74574187391E+01  0.20591383224E+02  0.51100000000E-03 0.  1.
        -12    1    3    3    0    0 -0.26013270300E+02 -0.15866675404E+02  0.11029108488E+02  0.32404981933E+02  0.00000000000E+00 0.  1.
</event>
<event>
 7    1  0.1138240E-011  0.5930193E+02  0.7816164E-02  0.1266605E+00
        -11   -1    0    0    0    0  0.00000000000E+00  0.00000000000E+00  0.45593999997E+02  0.45594000000E+02  0.51100000000E-03 0.  1.
         11   -1    0    0    0    0 -0.00000000000E+00 -0.00000000000E+00 -0.45593999997E+02  0.45594000000E+02  0.51100000000E-03 0. -1.
    9900012    2    1    2    0    0 -0.18454845920E+02  0.19868289962E+02 -0.16774721068E+02  0.59301928576E+02  0.49999971820E+02 0.  0.
        -12    1    1    2    0    0  0.18454845920E+02 -0.19868289962E+02  0.16774721068E+02  0.31886071424E+02  0.00000000000E+00 0.  1.
         11    1    3    3    0    0  0.72567343037E+01  0.58771665865E+01 -0.16292826670E+02  0.18779176793E+02  0.51100000000E-03 0. -1.
        -11    1    3    3    0    0  0.47025559390E+01  0.26594130069E+01  0.52852602756E+01  0.75578096260E+01  0.51100000000E-03 0.  1.
         12    1    3    3    0    0 -0.30414136163E+02  0.11331710369E+02 -0.57671546731E+01  0.32964942157E+02  0.00000000000E+00 0. -1.
</event>
<event>
 7    1  0.1138240E-011  0.5930201E+02  0.7816164E-02  0.1266605E+00
        -11   -1    0    0    0    0  0.00000000000E+00  0.00000000000E+00  0.45593999997E+02  0.45594000000E+02  0.51100000000E-03 0.  1.
         11   -1    0    0    0    0 -0.00000000000E+00 -0.00000000000E+00 -0.45593999997E+02  0.45594000000E+02  0.51100000000E-03 0. -1.
    9900012    2    1    2    0    0 -0.13456849170E+02  0.28873926875E+02 -0.13877951519E+01  0.59302009061E+02  0.50000118605E+02 0.  0.
        -12    1    1    2    0    0  0.13456849170E+02 -0.28873926875E+02  0.13877951519E+01  0.31885990939E+02  0.00000000000E+00 0.  1.
         11    1    3    3    0    0 -0.42626995521E+01 -0.99722501241E+01 -0.54014610018E+01  0.12115781495E+02  0.51100000000E-03 0. -1.
        -11    1    3    3    0    0 -0.84391056999E+01  0.43159996902E+00 -0.68569632858E+00  0.84779103123E+01  0.51100000000E-03 0.  1.
        -12    1    3    3    0    0 -0.75504391792E+00  0.38414577031E+02  0.46993621785E+01  0.38708317254E+02  0.00000000000E+00 0.  1.
</event>
<event>
 7    1  0.1138240E-011  0.5930194E+02  0.7816164E-02  0.1266605E+00
        -11   -1    0    0    0    0  0.00000000000E+00  0.00000000000E+00  0.45593999997E+02  0.45594000000E+02  0.51100000000E-03 0.  1.
         11   -1    0    0    0    0 -0.00000000000E+00 -0.00000000000E+00 -0.45593999997E+02  0.45594000000E+02  0.51100000000E-03 0. -1.
    9900012    2    1    2    0    0  0.14127105960E+02 -0.85131714903E+01 -0.27288675625E+02  0.59301936759E+02  0.49999986744E+02 0.  0.
        -12    1    1    2    0    0 -0.14127105960E+02  0.85131714903E+01  0.27288675625E+02  0.31886063241E+02  0.00000000000E+00 0.  1.
         11    1    3    3    0    0  0.43811873102E+00 -0.86150169660E+01 -0.58501867115E+01  0.10422818725E+02  0.51100000000E-03 0. -1.
        -11    1    3    3    0    0 -0.13570377645E+02  0.20398167496E+01  0.65322315162E+00  0.13738366080E+02  0.51100000000E-03 0.  1.
         12    1    3    3    0    0  0.27259364874E+02 -0.19379712739E+01 -0.22091712065E+02  0.35140751955E+02  0.00000000000E+00 0. -1.
</event>
<event>
 7    1  0.1138240E-011  0.5930197E+02  0.7816164E-02  0.1266605E+00
        -11   -1    0    0    0    0  0.00000000000E+00  0.00000000000E+00  0.45593999997E+02  0.45594000000E+02  0.51100000000E-03 0. -1.
         11   -1    0    0    0    0 -0.00000000000E+00 -0.00000000000E+00 -0.45593999997E+02  0.45594000000E+02  0.51100000000E-03 0.  1.
    9900012    2    1    2    0    0  0.26559409937E+02 -0.21284249587E+01 -0.17515311773E+02  0.59301974918E+02  0.50000056337E+02 0.  0.
        -12    1    1    2    0    0 -0.26559409937E+02  0.21284249587E+01  0.17515311773E+02  0.31886025082E+02  0.00000000000E+00 0.  1.
         11    1    3    3    0    0  0.11560413506E+02 -0.38299940591E+00 -0.15545588067E+02  0.19376665285E+02  0.51100000000E-03 0. -1.
        -11    1    3    3    0    0 -0.83969955550E+01 -0.53026775491E+01  0.93968659123E+01  0.13672198535E+02  0.51100000000E-03 0.  1.
         12    1    3    3    0    0  0.23395991987E+02  0.35572519962E+01 -0.11366589618E+02  0.26253111098E+02  0.00000000000E+00 0. -1.
</event>
<event>
 7    1  0.1138240E-011  0.5930195E+02  0.7816164E-02  0.1266605E+00
        -11   -1    0    0    0    0  0.00000000000E+00  0.00000000000E+00  0.45593999997E+02  0.45594000000E+02  0.51100000000E-03 0.  1.
         11   -1    0    0    0    0 -0.00000000000E+00 -0.00000000000E+00 -0.45593999997E+02  0.45594000000E+02  0.51100000000E-03 0. -1.
    9900012    2    1    2    0    0 -0.28007364567E+02 -0.79395791891E+01 -0.13010409409E+02  0.59301950689E+02  0.50000012148E+02 0.  0.
        -12    1    1    2    0    0  0.28007364567E+02  0.79395791891E+01  0.13010409409E+02  0.31886049311E+02  0.00000000000E+00 0.  1.
         11    1    3    3    0    0 -0.13495294342E+02 -0.40422002474E+01 -0.11105680793E+02  0.17938742942E+02  0.51100000000E-03 0. -1.
        -11    1    3    3    0    0  0.82914408913E+01  0.55437256183E+01 -0.11193463767E+02  0.14992482021E+02  0.51100000000E-03 0.  1.
         12    1    3    3    0    0 -0.22803511117E+02 -0.94411045600E+01  0.92887351511E+01  0.26370725725E+02  0.00000000000E+00 0. -1.
</event>
<event>
 7    1  0.1523269E-011  0.5930194E+02  0.7816164E-02  0.1266605E+00
        -11   -1    0    0    0    0  0.00000000000E+00  0.00000000000E+00  0.45593999997E+02  0.45594000000E+02  0.51100000000E-03 0. -1.
         11   -1    0    0    0    0 -0.00000000000E+00 -0.00000000000E+00 -0.45593999997E+02  0.45594000000E+02  0.51100000000E-03 0.  1.
    9900012    2    1    2    0    0  0.17078426655E+02  0.19892220029E+02  0.18147942259E+02  0.59301939050E+02  0.49999990922E+02 0.  0.
        -12    1    1    2    0    0 -0.17078426655E+02 -0.19892220029E+02 -0.18147942259E+02  0.31886060950E+02  0.00000000000E+00 0.  1.
         11    1    3    3    0    0  0.34340818687E+01  0.16946085295E+02  0.24260438365E+02  0.29791468494E+02  0.51100000000E-03 0. -1.
        -11    1    3    3    0    0 -0.46942129777E+01  0.28826269575E+01  0.55161260795E+01  0.77956924543E+01  0.51100000000E-03 0.  1.
        -12    1    3    3    0    0  0.18338557764E+02  0.63507775742E-01 -0.11628622185E+02  0.21714778102E+02  0.00000000000E+00 0.  1.
</event>
<event>
 7    1  0.1138240E-011  0.5930184E+02  0.7816164E-02  0.1266605E+00
        -11   -1    0    0    0    0  0.00000000000E+00  0.00000000000E+00  0.45593999997E+02  0.45594000000E+02  0.51100000000E-03 0. -1.
         11   -1    0    0    0    0 -0.00000000000E+00 -0.00000000000E+00 -0.45593999997E+02  0.45594000000E+02  0.51100000000E-03 0.  1.
    9900012    2    1    2    0    0  0.15281423753E+02 -0.26251356282E+02  0.96990666452E+01  0.59301835095E+02  0.49999801333E+02 0.  0.
        -12    1    1    2    0    0 -0.15281423753E+02  0.26251356282E+02 -0.96990666452E+01  0.31886164905E+02  0.00000000000E+00 0.  1.
         11    1    3    3    0    0  0.78513821900E+01 -0.24997543601E+02  0.25428016382E+02  0.36511716007E+02  0.51100000000E-03 0. -1.
        -11    1    3    3    0    0  0.85049599506E+01 -0.29699034228E+01 -0.24199576459E+01  0.93279614799E+01  0.51100000000E-03 0.  1.
        -12    1    3    3    0    0 -0.10749183880E+01  0.17160907420E+01 -0.13308992091E+02  0.13462157608E+02  0.00000000000E+00 0.  1.
</event>
<event>
 7    1  0.1138240E-011  0.5930180E+02  0.7816164E-02  0.1266605E+00
        -11   -1    0    0    0    0  0.00000000000E+00  0.00000000000E+00  0.45593999997E+02  0.45594000000E+02  0.51100000000E-03 0.  1.
         11   -1    0    0    0    0 -0.00000000000E+00 -0.00000000000E+00 -0.45593999997E+02  0.45594000000E+02  0.51100000000E-03 0. -1.
    9900012    2    1    2    0    0  0.25643757728E+02 -0.63718179393E+01  0.17847340166E+02  0.59301797259E+02  0.49999732328E+02 0.  0.
        -12    1    1    2    0    0 -0.25643757728E+02  0.63718179393E+01 -0.17847340166E+02  0.31886202741E+02  0.00000000000E+00 0.  1.
         11    1    3    3    0    0  0.72648556768E+01 -0.39653615741E+01  0.75173423300E+01  0.11180905884E+02  0.51100000000E-03 0.  1.
        -11    1    3    3    0    0 -0.20423373488E+01  0.15890073662E+02 -0.49036503280E+01  0.16754443280E+02  0.51100000000E-03 0. -1.
         12    1    3    3    0    0  0.20421239400E+02 -0.18296530027E+02  0.15233648164E+02  0.31366448094E+02  0.00000000000E+00 0. -1.
</event>
<event>
 7    1  0.1138240E-011  0.5930195E+02  0.7816164E-02  0.1266605E+00
        -11   -1    0    0    0    0  0.00000000000E+00  0.00000000000E+00  0.45593999997E+02  0.45594000000E+02  0.51100000000E-03 0.  1.
         11   -1    0    0    0    0 -0.00000000000E+00 -0.00000000000E+00 -0.45593999997E+02  0.45594000000E+02  0.51100000000E-03 0. -1.
    9900012    2    1    2    0    0  0.14267607683E+02  0.25603521533E+02 -0.12554483231E+02  0.59301953004E+02  0.50000016370E+02 0.  0.
        -12    1    1    2    0    0 -0.14267607683E+02 -0.25603521533E+02  0.12554483231E+02  0.31886046996E+02  0.00000000000E+00 0.  1.
         11    1    3    3    0    0 -0.27682316267E+01  0.16811736292E+02 -0.46936797599E+01  0.17672810004E+02  0.51100000000E-03 0. -1.
        -11    1    3    3    0    0 -0.15667915337E+01  0.12991580077E+02 -0.16191407902E+02  0.20818205463E+02  0.51100000000E-03 0.  1.
        -12    1    3    3    0    0  0.18602630843E+02 -0.41997948356E+01  0.83306044316E+01  0.20810937537E+02  0.00000000000E+00 0.  1.
</event>
<event>
 7    1  0.1138240E-011  0.5930193E+02  0.7816164E-02  0.1266605E+00
        -11   -1    0    0    0    0  0.00000000000E+00  0.00000000000E+00  0.45593999997E+02  0.45594000000E+02  0.51100000000E-03 0. -1.
         11   -1    0    0    0    0 -0.00000000000E+00 -0.00000000000E+00 -0.45593999997E+02  0.45594000000E+02  0.51100000000E-03 0.  1.
    9900012    2    1    2    0    0  0.17659757105E+02 -0.19493870164E+01 -0.26477430332E+02  0.59301930194E+02  0.49999974770E+02 0.  0.
        -12    1    1    2    0    0 -0.17659757105E+02  0.19493870164E+01  0.26477430332E+02  0.31886069806E+02  0.00000000000E+00 0.  1.
         11    1    3    3    0    0  0.12699103542E+01 -0.16007949619E+01  0.76999955618E+01  0.79665016620E+01  0.51100000000E-03 0. -1.
        -11    1    3    3    0    0  0.17125864081E+02 -0.15408141015E+02 -0.18125406711E+02  0.29312734413E+02  0.51100000000E-03 0.  1.
         12    1    3    3    0    0 -0.73601733088E+00  0.15059548960E+02 -0.16052019182E+02  0.22022694118E+02  0.00000000000E+00 0. -1.
</event>
<event>
 7    1  0.1138240E-011  0.5930195E+02  0.7816164E-02  0.1266605E+00
        -11   -1    0    0    0    0  0.00000000000E+00  0.00000000000E+00  0.45593999997E+02  0.45594000000E+02  0.51100000000E-03 0. -1.
         11   -1    0    0    0    0 -0.00000000000E+00 -0.00000000000E+00 -0.45593999997E+02  0.45594000000E+02  0.51100000000E-03 0.  1.
    9900012    2    1    2    0    0 -0.14846403993E+01  0.29862269835E+02  0.11079759691E+02  0.59301946754E+02  0.50000004972E+02 0.  0.
        -12    1    1    2    0    0  0.14846403993E+01 -0.29862269835E+02 -0.11079759691E+02  0.31886053246E+02  0.00000000000E+00 0.  1.
         11    1    3    3    0    0 -0.70110878635E+01  0.56810035409E+01 -0.75897274001E+01  0.11791230493E+02  0.51100000000E-03 0. -1.
        -11    1    3    3    0    0  0.35540816153E+01 -0.59507531379E+01 -0.54874131784E+01  0.88405125806E+01  0.51100000000E-03 0.  1.
         12    1    3    3    0    0  0.19723658489E+01  0.30132019432E+02  0.24156900269E+02  0.38670203681E+02  0.00000000000E+00 0. -1.
</event>
<event>
 7    1  0.1138240E-011  0.5930182E+02  0.7816164E-02  0.1266605E+00
        -11   -1    0    0    0    0  0.00000000000E+00  0.00000000000E+00  0.45593999997E+02  0.45594000000E+02  0.51100000000E-03 0.  1.
         11   -1    0    0    0    0 -0.00000000000E+00 -0.00000000000E+00 -0.45593999997E+02  0.45594000000E+02  0.51100000000E-03 0. -1.
    9900012    2    1    2    0    0 -0.23723090078E+02  0.12278378164E+02 -0.17412199221E+02  0.59301823451E+02  0.49999780097E+02 0.  0.
        -12    1    1    2    0    0  0.23723090078E+02 -0.12278378164E+02  0.17412199221E+02  0.31886176549E+02  0.00000000000E+00 0.  1.
         11    1    3    3    0    0  0.52702488175E+01  0.50538092322E+01 -0.11464591453E+02  0.13592401105E+02  0.51100000000E-03 0. -1.
        -11    1    3    3    0    0 -0.27398458583E+02  0.11903432868E+02 -0.16449647689E+02  0.34102172308E+02  0.51100000000E-03 0.  1.
        -12    1    3    3    0    0 -0.15948803123E+01 -0.46788639368E+01  0.10502039921E+02  0.11607250038E+02  0.00000000000E+00 0.  1.
</event>
<event>
 7    1  0.1138240E-011  0.5930194E+02  0.7816164E-02  0.1266605E+00
        -11   -1    0    0    0    0  0.00000000000E+00  0.00000000000E+00  0.45593999997E+02  0.45594000000E+02  0.51100000000E-03 0.  1.
         11   -1    0    0    0    0 -0.00000000000E+00 -0.00000000000E+00 -0.45593999997E+02  0.45594000000E+02  0.51100000000E-03 0. -1.
    9900012    2    1    2    0    0  0.30486153644E+01  0.26162117980E+02 -0.17971369392E+02  0.59301943633E+02  0.49999999281E+02 0.  0.
        -12    1    1    2    0    0 -0.30486153644E+01 -0.26162117980E+02  0.17971369392E+02  0.31886056367E+02  0.00000000000E+00 0.  1.
         11    1    3    3    0    0  0.19803945564E+02  0.15274201594E+02 -0.81362705074E+01  0.26300121526E+02  0.51100000000E-03 0. -1.
        -11    1    3    3    0    0 -0.15348202189E+02  0.10888430629E+02  0.38805689117E+01  0.19214162676E+02  0.51100000000E-03 0.  1.
        -12    1    3    3    0    0 -0.14071280112E+01 -0.51424392292E-03 -0.13715667796E+02  0.13787659431E+02  0.00000000000E+00 0.  1.
</event>
<event>
 7    1  0.1138240E-011  0.5930194E+02  0.7816164E-02  0.1266605E+00
        -11   -1    0    0    0    0  0.00000000000E+00  0.00000000000E+00  0.45593999997E+02  0.45594000000E+02  0.51100000000E-03 0. -1.
         11   -1    0    0    0    0 -0.00000000000E+00 -0.00000000000E+00 -0.45593999997E+02  0.45594000000E+02  0.51100000000E-03 0.  1.
    9900012    2    1    2    0    0 -0.13572609788E+01 -0.30416725228E+02 -0.94710746209E+01  0.59301943715E+02  0.49999999429E+02 0.  0.
        -12    1    1    2    0    0  0.13572609788E+01  0.30416725228E+02  0.94710746209E+01  0.31886056285E+02  0.00000000000E+00 0.  1.
         11    1    3    3    0    0 -0.75092662747E+01 -0.89694634754E+01  0.41625389682E+01  0.12416403906E+02  0.51100000000E-03 0. -1.
        -11    1    3    3    0    0 -0.14528261944E+02 -0.18763059840E+02 -0.98404458309E+01  0.25689631840E+02  0.51100000000E-03 0.  1.
        -12    1    3    3    0    0  0.20680267240E+02 -0.26842019125E+01 -0.37931677582E+01  0.21195907970E+02  0.00000000000E+00 0.  1.
</event>
<event>
 7    1  0.1138240E-011  0.5930195E+02  0.7816164E-02  0.1266605E+00
        -11   -1    0    0    0    0  0.00000000000E+00  0.00000000000E+00  0.45593999997E+02  0.45594000000E+02  0.51100000000E-03 0.  1.
         11   -1    0    0    0    0 -0.00000000000E+00 -0.00000000000E+00 -0.45593999997E+02  0.45594000000E+02  0.51100000000E-03 0. -1.
    9900012    2    1    2    0    0  0.19774802738E+02 -0.11862391850E+01 -0.24985404791E+02  0.59301946006E+02  0.50000003608E+02 0.  0.
        -12    1    1    2    0    0 -0.19774802738E+02  0.11862391850E+01  0.24985404791E+02  0.31886053994E+02  0.00000000000E+00 0.  1.
         11    1    3    3    0    0 -0.14653465115E+01 -0.85348473658E+00 -0.19543893251E+01  0.25875305776E+01  0.51100000000E-03 0. -1.
        -11    1    3    3    0    0  0.15609140282E+02 -0.21522847050E+02 -0.25467816699E+01  0.26708880595E+02  0.51100000000E-03 0.  1.
         12    1    3    3    0    0  0.56310089675E+01  0.21190092602E+02 -0.20484233796E+02  0.30005534834E+02  0.00000000000E+00 0. -1.
</event>
<event>
 7    1  0.1138240E-011  0.5930197E+02  0.7816164E-02  0.1266605E+00
        -11   -1    0    0    0    0  0.00000000000E+00  0.00000000000E+00  0.45593999997E+02  0.45594000000E+02  0.51100000000E-03 0.  1.
         11   -1    0    0    0    0 -0.00000000000E+00 -0.00000000000E+00 -0.45593999997E+02  0.45594000000E+02  0.51100000000E-03 0. -1.
    9900012    2    1    2    0    0 -0.16705930302E+02 -0.76924229982E+01 -0.26047219386E+02  0.59301966747E+02  0.50000041435E+02 0.  0.
        -12    1    1    2    0    0  0.16705930302E+02  0.76924229982E+01  0.26047219386E+02  0.31886033253E+02  0.00000000000E+00 0.  1.
         11    1    3    3    0    0 -0.42906852759E+01 -0.15349587341E+02 -0.10912457819E+02  0.19315836704E+02  0.51100000000E-03 0. -1.
        -11    1    3    3    0    0 -0.46651264440E+01 -0.12343599900E+02  0.86839207884E+00  0.13224294624E+02  0.51100000000E-03 0.  1.
        -12    1    3    3    0    0 -0.77501185823E+01  0.20000764243E+02 -0.16003153646E+02  0.26761835419E+02  0.00000000000E+00 0.  1.
</event>
<event>
 7    1  0.1138240E-011  0.5930222E+02  0.7816164E-02  0.1266604E+00
        -11   -1    0    0    0    0  0.00000000000E+00  0.00000000000E+00  0.45593999997E+02  0.45594000000E+02  0.51100000000E-03 0. -1.
         11   -1    0    0    0    0 -0.00000000000E+00 -0.00000000000E+00 -0.45593999997E+02  0.45594000000E+02  0.51100000000E-03 0.  1.
    9900012    2    1    2    0    0  0.83356458398E+01  0.23586053658E+02  0.19771639527E+02  0.59302224985E+02  0.50000512396E+02 0.  0.
        -12    1    1    2    0    0 -0.83356458398E+01 -0.23586053658E+02 -0.19771639527E+02  0.31885775015E+02  0.00000000000E+00 0.  1.
         11    1    3    3    0    0  0.88864513995E+01  0.26206161020E+02  0.25176417643E+02  0.37411013078E+02  0.51100000000E-03 0. -1.
        -11    1    3    3    0    0  0.21423722557E+01  0.28279056014E+01  0.71283060633E+01  0.79623838494E+01  0.51100000000E-03 0.  1.
        -12    1    3    3    0    0 -0.26931778155E+01 -0.54480129635E+01 -0.12533084180E+02  0.13928828057E+02  0.00000000000E+00 0.  1.
</event>
<event>
 7    1  0.1138240E-011  0.5930222E+02  0.7816164E-02  0.1266604E+00
        -11   -1    0    0    0    0  0.00000000000E+00  0.00000000000E+00  0.45593999997E+02  0.45594000000E+02  0.51100000000E-03 0. -1.
         11   -1    0    0    0    0 -0.00000000000E+00 -0.00000000000E+00 -0.45593999997E+02  0.45594000000E+02  0.51100000000E-03 0.  1.
    9900012    2    1    2    0    0  0.17175775668E+02 -0.72586977552E+01  0.25865167237E+02  0.59302221993E+02  0.50000506939E+02 0.  0.
        -12    1    1    2    0    0 -0.17175775668E+02  0.72586977552E+01 -0.25865167237E+02  0.31885778007E+02  0.00000000000E+00 0.  1.
         11    1    3    3    0    0 -0.29310552947E+01 -0.16112623113E+01  0.22908460545E+02  0.23151345883E+02  0.51100000000E-03 0. -1.
        -11    1    3    3    0    0 -0.36468303614E+00 -0.11320802292E+02 -0.63199718223E+01  0.12970566771E+02  0.51100000000E-03 0.  1.
         12    1    3    3    0    0  0.20471513999E+02  0.56733668483E+01  0.92766785145E+01  0.23180309340E+02  0.00000000000E+00 0. -1.
</event>
<event>
 7    1  0.1138240E-011  0.5930196E+02  0.7816164E-02  0.1266605E+00
        -11   -1    0    0    0    0  0.00000000000E+00  0.00000000000E+00  0.45593999997E+02  0.45594000000E+02  0.51100000000E-03 0.  1.
         11   -1    0    0    0    0 -0.00000000000E+00 -0.00000000000E+00 -0.45593999997E+02  0.45594000000E+02  0.51100000000E-03 0. -1.
    9900012    2    1    2    0    0 -0.17318399687E+02  0.26159800034E+02 -0.56971412233E+01  0.59301960364E+02  0.50000029793E+02 0.  0.
        -12    1    1    2    0    0  0.17318399687E+02 -0.26159800034E+02  0.56971412233E+01  0.31886039636E+02  0.00000000000E+00 0.  1.
         11    1    3    3    0    0  0.11221329183E+02  0.34757877716E+01  0.29774426152E+01  0.12118766194E+02  0.51100000000E-03 0. -1.
        -11    1    3    3    0    0  0.19150763567E+01 -0.46928271658E+01 -0.28647091955E+01  0.58220875376E+01  0.51100000000E-03 0.  1.
         12    1    3    3    0    0 -0.30454805227E+02  0.27376839428E+02 -0.58098746431E+01  0.41361106633E+02  0.00000000000E+00 0. -1.
</event>
<event>
 7    1  0.1138240E-011  0.5930195E+02  0.7816164E-02  0.1266605E+00
        -11   -1    0    0    0    0  0.00000000000E+00  0.00000000000E+00  0.45593999997E+02  0.45594000000E+02  0.51100000000E-03 0.  1.
         11   -1    0    0    0    0 -0.00000000000E+00 -0.00000000000E+00 -0.45593999997E+02  0.45594000000E+02  0.51100000000E-03 0. -1.
    9900012    2    1    2    0    0 -0.24379164387E+02 -0.20324022554E+02  0.30513201905E+01  0.59301951265E+02  0.50000013199E+02 0.  0.
        -12    1    1    2    0    0  0.24379164387E+02  0.20324022554E+02 -0.30513201905E+01  0.31886048735E+02  0.00000000000E+00 0.  1.
         11    1    3    3    0    0 -0.13650759651E+02 -0.29428866125E+02 -0.37801092230E+01  0.32660230043E+02  0.51100000000E-03 0. -1.
        -11    1    3    3    0    0 -0.57771542379E+01 -0.57868704479E+01  0.72712315502E+01  0.10942311876E+02  0.51100000000E-03 0.  1.
        -12    1    3    3    0    0 -0.49512504988E+01  0.14891714019E+02 -0.43980213670E+00  0.15699409347E+02  0.00000000000E+00 0.  1.
</event>
<event>
 7    1  0.1138240E-011  0.5930195E+02  0.7816164E-02  0.1266605E+00
        -11   -1    0    0    0    0  0.00000000000E+00  0.00000000000E+00  0.45593999997E+02  0.45594000000E+02  0.51100000000E-03 0.  1.
         11   -1    0    0    0    0 -0.00000000000E+00 -0.00000000000E+00 -0.45593999997E+02  0.45594000000E+02  0.51100000000E-03 0. -1.
    9900012    2    1    2    0    0 -0.24029175851E+02 -0.20884820232E+02 -0.17729335981E+01  0.59301948163E+02  0.50000007541E+02 0.  0.
        -12    1    1    2    0    0  0.24029175851E+02  0.20884820232E+02  0.17729335981E+01  0.31886051837E+02  0.00000000000E+00 0.  1.
         11    1    3    3    0    0 -0.28731188637E+02  0.21100257483E+01 -0.79375184940E+01  0.29882061663E+02  0.51100000000E-03 0. -1.
        -11    1    3    3    0    0 -0.32627409964E+01 -0.54901410158E+00  0.44444816556E+01  0.55407862927E+01  0.51100000000E-03 0.  1.
         12    1    3    3    0    0  0.79647537819E+01 -0.22445831879E+02  0.17201032403E+01  0.23879100207E+02  0.00000000000E+00 0. -1.
</event>
<event>
 7    1  0.1138240E-011  0.5930197E+02  0.7816164E-02  0.1266605E+00
        -11   -1    0    0    0    0  0.00000000000E+00  0.00000000000E+00  0.45593999997E+02  0.45594000000E+02  0.51100000000E-03 0.  1.
         11   -1    0    0    0    0 -0.00000000000E+00 -0.00000000000E+00 -0.45593999997E+02  0.45594000000E+02  0.51100000000E-03 0. -1.
    9900012    2    1    2    0    0  0.28772336803E+02  0.76899231724E+01  0.11390203835E+02  0.59301968154E+02  0.50000044001E+02 0.  0.
        -12    1    1    2    0    0 -0.28772336803E+02 -0.76899231724E+01 -0.11390203835E+02  0.31886031846E+02  0.00000000000E+00 0.  1.
         11    1    3    3    0    0  0.87658386330E+01  0.40465676899E+01 -0.13835269829E+02  0.16870961102E+02  0.51100000000E-03 0.  1.
        -11    1    3    3    0    0  0.14337449536E+02  0.11767365932E+02  0.39526302239E+01  0.18964615634E+02  0.51100000000E-03 0. -1.
        -12    1    3    3    0    0  0.56690486336E+01 -0.81240104497E+01  0.21272843440E+02  0.23466391418E+02  0.00000000000E+00 0.  1.
</event>
<event>
 7    1  0.1138240E-011  0.5930191E+02  0.7816164E-02  0.1266605E+00
        -11   -1    0    0    0    0  0.00000000000E+00  0.00000000000E+00  0.45593999997E+02  0.45594000000E+02  0.51100000000E-03 0.  1.
         11   -1    0    0    0    0 -0.00000000000E+00 -0.00000000000E+00 -0.45593999997E+02  0.45594000000E+02  0.51100000000E-03 0. -1.
    9900012    2    1    2    0    0  0.23165239146E+02 -0.52804520638E+01 -0.21265266657E+02  0.59301905151E+02  0.49999929099E+02 0.  0.
        -12    1    1    2    0    0 -0.23165239146E+02  0.52804520638E+01  0.21265266657E+02  0.31886094849E+02  0.00000000000E+00 0.  1.
         11    1    3    3    0    0  0.15421466743E+02 -0.96880192408E+01 -0.13708657350E+01  0.18263587447E+02  0.51100000000E-03 0. -1.
        -11    1    3    3    0    0  0.36672217103E+01  0.12530995367E+02  0.54236662470E+01  0.14138264242E+02  0.51100000000E-03 0.  1.
         12    1    3    3    0    0  0.40765506934E+01 -0.81234281899E+01 -0.25318067169E+02  0.26900053462E+02  0.00000000000E+00 0. -1.
</event>
<event>
 7    1  0.1138240E-011  0.5930195E+02  0.7816164E-02  0.1266605E+00
        -11   -1    0    0    0    0  0.00000000000E+00  0.00000000000E+00  0.45593999997E+02  0.45594000000E+02  0.51100000000E-03 0.  1.
         11   -1    0    0    0    0 -0.00000000000E+00 -0.00000000000E+00 -0.45593999997E+02  0.45594000000E+02  0.51100000000E-03 0. -1.
    9900012    2    1    2    0    0  0.16060403369E+02 -0.30497321782E+01 -0.27376684807E+02  0.59301948288E+02  0.50000007770E+02 0.  0.
        -12    1    1    2    0    0 -0.16060403369E+02  0.30497321782E+01  0.27376684807E+02  0.31886051712E+02  0.00000000000E+00 0.  1.
         11    1    3    3    0    0 -0.78513073739E+01 -0.41892419603E+01 -0.53902208641E+01  0.10404194198E+02  0.51100000000E-03 0. -1.
        -11    1    3    3    0    0 -0.59237022131E+01  0.78940638635E+01  0.19439611312E+01  0.10059099231E+02  0.51100000000E-03 0.  1.
        -12    1    3    3    0    0  0.29835412956E+02 -0.67545540814E+01 -0.23930425074E+02  0.38838654860E+02  0.00000000000E+00 0.  1.
</event>
<event>
 7    1  0.1138240E-011  0.5930203E+02  0.7816164E-02  0.1266604E+00
        -11   -1    0    0    0    0  0.00000000000E+00  0.00000000000E+00  0.45593999997E+02  0.45594000000E+02  0.51100000000E-03 0.  1.
         11   -1    0    0    0    0 -0.00000000000E+00 -0.00000000000E+00 -0.45593999997E+02  0.45594000000E+02  0.51100000000E-03 0. -1.
    9900012    2    1    2    0    0 -0.20009222998E+02  0.19232561320E+02  0.15698867797E+02  0.59302033337E+02  0.50000162879E+02 0.  0.
        -12    1    1    2    0    0  0.20009222998E+02 -0.19232561320E+02 -0.15698867797E+02  0.31885966663E+02  0.00000000000E+00 0.  1.
         11    1    3    3    0    0 -0.93909427333E+00  0.15338688979E+01 -0.27241164457E+01  0.32642705955E+01  0.51100000000E-03 0. -1.
        -11    1    3    3    0    0  0.67415878073E+01  0.39153433663E+00 -0.11216640415E+02  0.13092567653E+02  0.51100000000E-03 0.  1.
         12    1    3    3    0    0 -0.25811716532E+02  0.17307158085E+02  0.29639624658E+02  0.42945195088E+02  0.00000000000E+00 0. -1.
</event>
<event>
 7    1  0.1138240E-011  0.5930185E+02  0.7816164E-02  0.1266605E+00
        -11   -1    0    0    0    0  0.00000000000E+00  0.00000000000E+00  0.45593999997E+02  0.45594000000E+02  0.51100000000E-03 0.  1.
         11   -1    0    0    0    0 -0.00000000000E+00 -0.00000000000E+00 -0.45593999997E+02  0.45594000000E+02  0.51100000000E-03 0. -1.
    9900012    2    1    2    0    0 -0.23782420535E+02 -0.19004976292E+02 -0.94833403273E+01  0.59301852630E+02  0.49999833312E+02 0.  0.
        -12    1    1    2    0    0  0.23782420535E+02  0.19004976292E+02  0.94833403273E+01  0.31886147370E+02  0.00000000000E+00 0.  1.
         11    1    3    3    0    0  0.45677766363E+01  0.10625178919E+01 -0.40037891626E+00  0.47067856555E+01  0.51100000000E-03 0. -1.
        -11    1    3    3    0    0  0.12502167349E+01 -0.12512958685E+02  0.12075355779E+02  0.17434201857E+02  0.51100000000E-03 0.  1.
         12    1    3    3    0    0 -0.29600413906E+02 -0.75545354992E+01 -0.21158317190E+02  0.37160865118E+02  0.00000000000E+00 0. -1.
</event>
<event>
 7    1  0.1138240E-011  0.5930201E+02  0.7816164E-02  0.1266605E+00
        -11   -1    0    0    0    0  0.00000000000E+00  0.00000000000E+00  0.45593999997E+02  0.45594000000E+02  0.51100000000E-03 0.  1.
         11   -1    0    0    0    0 -0.00000000000E+00 -0.00000000000E+00 -0.45593999997E+02  0.45594000000E+02  0.51100000000E-03 0. -1.
    9900012    2    1    2    0    0  0.26677421905E+02  0.22800738090E+01 -0.17315683483E+02  0.59302008240E+02  0.50000117107E+02 0.  0.
        -12    1    1    2    0    0 -0.26677421905E+02 -0.22800738090E+01  0.17315683483E+02  0.31885991760E+02  0.00000000000E+00 0.  1.
         11    1    3    3    0    0  0.21338460502E+01 -0.85410051547E+01 -0.17136769997E+01  0.89687656418E+01  0.51100000000E-03 0. -1.
        -11    1    3    3    0    0  0.23298078925E+02 -0.10763399921E+02 -0.12309565719E+02  0.28463602511E+02  0.51100000000E-03 0.  1.
         12    1    3    3    0    0  0.12454969293E+01  0.21584478885E+02 -0.32924407647E+01  0.21869640087E+02  0.00000000000E+00 0. -1.
</event>
<event>
 7    1  0.1138240E-011  0.5930195E+02  0.7816164E-02  0.1266605E+00
        -11   -1    0    0    0    0  0.00000000000E+00  0.00000000000E+00  0.45593999997E+02  0.45594000000E+02  0.51100000000E-03 0. -1.
         11   -1    0    0    0    0 -0.00000000000E+00 -0.00000000000E+00 -0.45593999997E+02  0.45594000000E+02  0.51100000000E-03 0.  1.
    9900012    2    1    2    0    0  0.24945278207E+02 -0.19761428839E+02  0.19847692708E+01  0.59301948447E+02  0.50000008060E+02 0.  0.
        -12    1    1    2    0    0 -0.24945278207E+02  0.19761428839E+02 -0.19847692708E+01  0.31886051553E+02  0.00000000000E+00 0.  1.
         11    1    3    3    0    0  0.14363726963E+02  0.81074693052E+00  0.36797318837E+01  0.14849726929E+02  0.51100000000E-03 0. -1.
        -11    1    3    3    0    0 -0.63096892449E+01 -0.69714742582E+00  0.13034002067E+02  0.14497703371E+02  0.51100000000E-03 0.  1.
        -12    1    3    3    0    0  0.16891240488E+02 -0.19875028344E+02 -0.14728964680E+02  0.29954518147E+02  0.00000000000E+00 0.  1.
</event>
<event>
 7    1  0.1138240E-011  0.5930196E+02  0.7816164E-02  0.1266605E+00
        -11   -1    0    0    0    0  0.00000000000E+00  0.00000000000E+00  0.45593999997E+02  0.45594000000E+02  0.51100000000E-03 0. -1.
         11   -1    0    0    0    0 -0.00000000000E+00 -0.00000000000E+00 -0.45593999997E+02  0.45594000000E+02  0.51100000000E-03 0.  1.
    9900012    2    1    2    0    0  0.31802310592E+02  0.92558319340E+00 -0.21155716420E+01  0.59301963767E+02  0.50000036000E+02 0.  0.
        -12    1    1    2    0    0 -0.31802310592E+02 -0.92558319340E+00  0.21155716420E+01  0.31886036233E+02  0.00000000000E+00 0.  1.
         11    1    3    3    0    0  0.16212000343E+00  0.76603029499E+01  0.40687769042E+01  0.86753368774E+01  0.51100000000E-03 0. -1.
        -11    1    3    3    0    0  0.79628381858E+01  0.12725383134E+02  0.78248633413E+01  0.16928397870E+02  0.51100000000E-03 0.  1.
         12    1    3    3    0    0  0.23677352403E+02 -0.19460102891E+02 -0.14009211888E+02  0.33698229019E+02  0.00000000000E+00 0. -1.
</event>
<event>
 7    1  0.1138240E-011  0.5930195E+02  0.7816164E-02  0.1266605E+00
        -11   -1    0    0    0    0  0.00000000000E+00  0.00000000000E+00  0.45593999997E+02  0.45594000000E+02  0.51100000000E-03 0. -1.
         11   -1    0    0    0    0 -0.00000000000E+00 -0.00000000000E+00 -0.45593999997E+02  0.45594000000E+02  0.51100000000E-03 0.  1.
    9900012    2    1    2    0    0 -0.50823679510E+00 -0.17919805028E+02  0.26369349523E+02  0.59301948016E+02  0.50000007273E+02 0.  0.
        -12    1    1    2    0    0  0.50823679510E+00  0.17919805028E+02 -0.26369349523E+02  0.31886051984E+02  0.00000000000E+00 0.  1.
         11    1    3    3    0    0 -0.10832552781E+02 -0.24379863328E+02  0.16660013825E+02  0.31452789965E+02  0.51100000000E-03 0. -1.
        -11    1    3    3    0    0  0.79413060410E+01 -0.71786114940E+01 -0.38955315873E+00  0.10712075268E+02  0.51100000000E-03 0.  1.
         12    1    3    3    0    0  0.23830099449E+01  0.13638669795E+02  0.10098888857E+02  0.17137082783E+02  0.00000000000E+00 0. -1.
</event>
<event>
 7    1  0.1138240E-011  0.5930194E+02  0.7816164E-02  0.1266605E+00
        -11   -1    0    0    0    0  0.00000000000E+00  0.00000000000E+00  0.45593999997E+02  0.45594000000E+02  0.51100000000E-03 0. -1.
         11   -1    0    0    0    0 -0.00000000000E+00 -0.00000000000E+00 -0.45593999997E+02  0.45594000000E+02  0.51100000000E-03 0.  1.
    9900012    2    1    2    0    0 -0.48621904302E+01 -0.25700142178E+02  0.18236847319E+02  0.59301940289E+02  0.49999993182E+02 0.  0.
        -12    1    1    2    0    0  0.48621904302E+01  0.25700142178E+02 -0.18236847319E+02  0.31886059711E+02  0.00000000000E+00 0.  1.
         11    1    3    3    0    0 -0.88307012904E-01 -0.29857314533E+01  0.11354137077E+02  0.11740477821E+02  0.51100000000E-03 0. -1.
        -11    1    3    3    0    0 -0.10134499275E+02 -0.20866352663E+02  0.21657619864E+02  0.31735866893E+02  0.51100000000E-03 0.  1.
        -12    1    3    3    0    0  0.53606158579E+01 -0.18480580620E+01 -0.14774909622E+02  0.15825595576E+02  0.00000000000E+00 0.  1.
</event>
<event>
 7    1  0.1138240E-011  0.5930192E+02  0.7816164E-02  0.1266605E+00
        -11   -1    0    0    0    0  0.00000000000E+00  0.00000000000E+00  0.45593999997E+02  0.45594000000E+02  0.51100000000E-03 0. -1.
         11   -1    0    0    0    0 -0.00000000000E+00 -0.00000000000E+00 -0.45593999997E+02  0.45594000000E+02  0.51100000000E-03 0.  1.
    9900012    2    1    2    0    0  0.79015686581E+01  0.16562441055E+02  0.26076285946E+02  0.59301922636E+02  0.49999960986E+02 0.  0.
        -12    1    1    2    0    0 -0.79015686581E+01 -0.16562441055E+02 -0.26076285946E+02  0.31886077364E+02  0.00000000000E+00 0.  1.
         11    1    3    3    0    0 -0.15484218989E+02  0.11589778229E+02  0.66166724347E+01  0.20441730638E+02  0.51100000000E-03 0. -1.
        -11    1    3    3    0    0  0.15499744862E+01  0.10884754116E+02  0.70015220703E+01  0.13034630974E+02  0.51100000000E-03 0.  1.
        -12    1    3    3    0    0  0.21835813161E+02 -0.59120912897E+01  0.12458091441E+02  0.25825561024E+02  0.00000000000E+00 0.  1.
</event>
<event>
 7    1  0.1138240E-011  0.5930195E+02  0.7816164E-02  0.1266605E+00
        -11   -1    0    0    0    0  0.00000000000E+00  0.00000000000E+00  0.45593999997E+02  0.45594000000E+02  0.51100000000E-03 0.  1.
         11   -1    0    0    0    0 -0.00000000000E+00 -0.00000000000E+00 -0.45593999997E+02  0.45594000000E+02  0.51100000000E-03 0. -1.
    9900012    2    1    2    0    0  0.27473756082E+02  0.12938350062E+02 -0.97217278626E+01  0.59301950257E+02  0.50000011362E+02 0.  0.
        -12    1    1    2    0    0 -0.27473756082E+02 -0.12938350062E+02  0.97217278626E+01  0.31886049743E+02  0.00000000000E+00 0.  1.
         11    1    3    3    0    0 -0.78835580626E+01  0.14391399818E+02 -0.76989586262E+01  0.18125585250E+02  0.51100000000E-03 0. -1.
        -11    1    3    3    0    0  0.14520322252E+02  0.55111338419E+01 -0.92150761172E+01  0.18059069263E+02  0.51100000000E-03 0.  1.
        -12    1    3    3    0    0  0.20836991892E+02 -0.69641835982E+01  0.71923068809E+01  0.23117295745E+02  0.00000000000E+00 0.  1.
</event>
<event>
 7    1  0.1138240E-011  0.5930194E+02  0.7816164E-02  0.1266605E+00
        -11   -1    0    0    0    0  0.00000000000E+00  0.00000000000E+00  0.45593999997E+02  0.45594000000E+02  0.51100000000E-03 0.  1.
         11   -1    0    0    0    0 -0.00000000000E+00 -0.00000000000E+00 -0.45593999997E+02  0.45594000000E+02  0.51100000000E-03 0. -1.
    9900012    2    1    2    0    0 -0.91029277099E+01  0.12390737228E+02 -0.27934336093E+02  0.59301940430E+02  0.49999993439E+02 0.  0.
        -12    1    1    2    0    0  0.91029277099E+01 -0.12390737228E+02  0.27934336093E+02  0.31886059570E+02  0.00000000000E+00 0.  1.
         11    1    3    3    0    0 -0.11043071171E+02 -0.39270066806E+01 -0.25147355908E+02  0.27744554632E+02  0.51100000000E-03 0. -1.
        -11    1    3    3    0    0  0.13577843437E+02  0.35267028827E+01 -0.25771690804E+01  0.14263143635E+02  0.51100000000E-03 0.  1.
        -12    1    3    3    0    0 -0.11637699976E+02  0.12791041026E+02 -0.20981110491E+00  0.17294242162E+02  0.00000000000E+00 0.  1.
</event>
<event>
 7    1  0.1138240E-011  0.5930172E+02  0.7816164E-02  0.1266606E+00
        -11   -1    0    0    0    0  0.00000000000E+00  0.00000000000E+00  0.45593999997E+02  0.45594000000E+02  0.51100000000E-03 0.  1.
         11   -1    0    0    0    0 -0.00000000000E+00 -0.00000000000E+00 -0.45593999997E+02  0.45594000000E+02  0.51100000000E-03 0. -1.
    9900012    2    1    2    0    0  0.14339664310E+02  0.11279580000E+02 -0.26151102146E+02  0.59301717041E+02  0.49999586029E+02 0.  0.
        -12    1    1    2    0    0 -0.14339664310E+02 -0.11279580000E+02  0.26151102146E+02  0.31886282959E+02  0.00000000000E+00 0.  1.
         11    1    3    3    0    0  0.59375936845E+01 -0.39942294207E+01 -0.22119607151E+02  0.23248352806E+02  0.51100000000E-03 0. -1.
        -11    1    3    3    0    0  0.11079793016E+02  0.15313915448E+02 -0.15395387841E+02  0.24378182596E+02  0.51100000000E-03 0.  1.
        -12    1    3    3    0    0 -0.26777223906E+01 -0.40106027184E-01  0.11363892846E+02  0.11675181639E+02  0.00000000000E+00 0.  1.
</event>
<event>
 7    1  0.1138240E-011  0.5930195E+02  0.7816164E-02  0.1266605E+00
        -11   -1    0    0    0    0  0.00000000000E+00  0.00000000000E+00  0.45593999997E+02  0.45594000000E+02  0.51100000000E-03 0.  1.
         11   -1    0    0    0    0 -0.00000000000E+00 -0.00000000000E+00 -0.45593999997E+02  0.45594000000E+02  0.51100000000E-03 0. -1.
    9900012    2    1    2    0    0 -0.26349030241E+02 -0.17639791915E+02 -0.33595110362E+01  0.59301953399E+02  0.50000017090E+02 0.  0.
        -12    1    1    2    0    0  0.26349030241E+02  0.17639791915E+02  0.33595110362E+01  0.31886046601E+02  0.00000000000E+00 0.  1.
         11    1    3    3    0    0 -0.13172325969E+02  0.57461584640E+00 -0.76012873398E+01  0.15219064501E+02  0.51100000000E-03 0. -1.
        -11    1    3    3    0    0 -0.22981857505E+02 -0.13789756965E+02 -0.78219104556E+01  0.27919624908E+02  0.51100000000E-03 0.  1.
        -12    1    3    3    0    0  0.98051532327E+01 -0.44246507965E+01  0.12063686759E+02  0.16163263990E+02  0.00000000000E+00 0.  1.
</event>
<event>
 7    1  0.1138240E-011  0.5930194E+02  0.7816164E-02  0.1266605E+00
        -11   -1    0    0    0    0  0.00000000000E+00  0.00000000000E+00  0.45593999997E+02  0.45594000000E+02  0.51100000000E-03 0. -1.
         11   -1    0    0    0    0 -0.00000000000E+00 -0.00000000000E+00 -0.45593999997E+02  0.45594000000E+02  0.51100000000E-03 0.  1.
    9900012    2    1    2    0    0 -0.11530933089E+02  0.15047759050E+02  0.25638319293E+02  0.59301938994E+02  0.49999990819E+02 0.  0.
        -12    1    1    2    0    0  0.11530933089E+02 -0.15047759050E+02 -0.25638319293E+02  0.31886061006E+02  0.00000000000E+00 0.  1.
         11    1    3    3    0    0  0.27045418417E+01  0.62698769297E+01  0.10083805188E+02  0.12178219518E+02  0.51100000000E-03 0. -1.
        -11    1    3    3    0    0  0.18483148573E+01  0.17888532442E+02 -0.57850183984E+01  0.18891328669E+02  0.51100000000E-03 0.  1.
        -12    1    3    3    0    0 -0.16083789788E+02 -0.91106503217E+01  0.21339532503E+02  0.28232390807E+02  0.00000000000E+00 0.  1.
</event>
<event>
 7    1  0.1138240E-011  0.5930199E+02  0.7816164E-02  0.1266605E+00
        -11   -1    0    0    0    0  0.00000000000E+00  0.00000000000E+00  0.45593999997E+02  0.45594000000E+02  0.51100000000E-03 0.  1.
         11   -1    0    0    0    0 -0.00000000000E+00 -0.00000000000E+00 -0.45593999997E+02  0.45594000000E+02  0.51100000000E-03 0. -1.
    9900012    2    1    2    0    0 -0.10496998901E+02  0.40358223210E+01 -0.29836940608E+02  0.59301986254E+02  0.50000077011E+02 0.  0.
        -12    1    1    2    0    0  0.10496998901E+02 -0.40358223210E+01  0.29836940608E+02  0.31886013746E+02  0.00000000000E+00 0.  1.
         11    1    3    3    0    0  0.14029919602E+01  0.67921319239E+01 -0.42184374384E+00  0.69483375650E+01  0.51100000000E-03 0. -1.
        -11    1    3    3    0    0 -0.18487564315E+02 -0.10511743492E+02 -0.41091488193E-01  0.21267074889E+02  0.51100000000E-03 0.  1.
         12    1    3    3    0    0  0.65875734542E+01  0.77554338892E+01 -0.29374005376E+02  0.31086573800E+02  0.00000000000E+00 0. -1.
</event>
<event>
 7    1  0.1138240E-011  0.5930195E+02  0.7816164E-02  0.1266605E+00
        -11   -1    0    0    0    0  0.00000000000E+00  0.00000000000E+00  0.45593999997E+02  0.45594000000E+02  0.51100000000E-03 0. -1.
         11   -1    0    0    0    0 -0.00000000000E+00 -0.00000000000E+00 -0.45593999997E+02  0.45594000000E+02  0.51100000000E-03 0.  1.
    9900012    2    1    2    0    0  0.26888266754E+02 -0.37959913217E+01 -0.16713213651E+02  0.59301953683E+02  0.50000017610E+02 0.  0.
        -12    1    1    2    0    0 -0.26888266754E+02  0.37959913217E+01  0.16713213651E+02  0.31886046317E+02  0.00000000000E+00 0.  1.
         11    1    3    3    0    0  0.62681010695E+01  0.81505274919E+01 -0.82891694134E+01  0.13207214666E+02  0.51100000000E-03 0. -1.
        -11    1    3    3    0    0  0.28247977081E+02  0.15609030619E+01 -0.11029600849E+02  0.30365057594E+02  0.51100000000E-03 0.  1.
         12    1    3    3    0    0 -0.76278113966E+01 -0.13507421875E+02  0.26055566107E+01  0.15729681423E+02  0.00000000000E+00 0. -1.
</event>
<event>
 7    1  0.1138240E-011  0.5930195E+02  0.7816164E-02  0.1266605E+00
        -11   -1    0    0    0    0  0.00000000000E+00  0.00000000000E+00  0.45593999997E+02  0.45594000000E+02  0.51100000000E-03 0. -1.
         11   -1    0    0    0    0 -0.00000000000E+00 -0.00000000000E+00 -0.45593999997E+02  0.45594000000E+02  0.51100000000E-03 0.  1.
    9900012    2    1    2    0    0  0.14890001024E+02 -0.27593726313E+02  0.57960868251E+01  0.59301945292E+02  0.50000002307E+02 0.  0.
        -12    1    1    2    0    0 -0.14890001024E+02  0.27593726313E+02 -0.57960868251E+01  0.31886054708E+02  0.00000000000E+00 0.  1.
         11    1    3    3    0    0  0.49331193073E+01 -0.15752334371E+02  0.15091016214E+02  0.22365385640E+02  0.51100000000E-03 0. -1.
        -11    1    3    3    0    0  0.76582455109E+01  0.93582462361E+01  0.28125532887E+01  0.12415150147E+02  0.51100000000E-03 0.  1.
        -12    1    3    3    0    0  0.22986362058E+01 -0.21199638178E+02 -0.12107482677E+02  0.24521409505E+02  0.00000000000E+00 0.  1.
</event>
<event>
 7    1  0.1138240E-011  0.5930199E+02  0.7816164E-02  0.1266605E+00
        -11   -1    0    0    0    0  0.00000000000E+00  0.00000000000E+00  0.45593999997E+02  0.45594000000E+02  0.51100000000E-03 0. -1.
         11   -1    0    0    0    0 -0.00000000000E+00 -0.00000000000E+00 -0.45593999997E+02  0.45594000000E+02  0.51100000000E-03 0.  1.
    9900012    2    1    2    0    0  0.27359494195E+02  0.42100799659E+01  0.15825639316E+02  0.59301991224E+02  0.50000086075E+02 0.  0.
        -12    1    1    2    0    0 -0.27359494195E+02 -0.42100799659E+01 -0.15825639316E+02  0.31886008776E+02  0.00000000000E+00 0.  1.
         11    1    3    3    0    0 -0.10954783979E+02  0.11603333737E+02  0.42126611480E+01  0.16504277023E+02  0.51100000000E-03 0. -1.
        -11    1    3    3    0    0  0.74983306156E+01  0.90342336992E+00 -0.24264805548E+01  0.79327765600E+01  0.51100000000E-03 0.  1.
         12    1    3    3    0    0  0.30815947558E+02 -0.82966771415E+01  0.14039458722E+02  0.34864937641E+02  0.00000000000E+00 0. -1.
</event>
<event>
 7    1  0.1138240E-011  0.5930195E+02  0.7816164E-02  0.1266605E+00
        -11   -1    0    0    0    0  0.00000000000E+00  0.00000000000E+00  0.45593999997E+02  0.45594000000E+02  0.51100000000E-03 0.  1.
         11   -1    0    0    0    0 -0.00000000000E+00 -0.00000000000E+00 -0.45593999997E+02  0.45594000000E+02  0.51100000000E-03 0. -1.
    9900012    2    1    2    0    0 -0.36840009787E+01 -0.16104663897E+02 -0.27272476886E+02  0.59301951986E+02  0.50000014513E+02 0.  0.
        -12    1    1    2    0    0  0.36840009787E+01  0.16104663897E+02  0.27272476886E+02  0.31886048014E+02  0.00000000000E+00 0.  1.
         11    1    3    3    0    0 -0.45375796409E+01 -0.66932651914E+00 -0.25066705274E+02  0.25482883286E+02  0.51100000000E-03 0. -1.
        -11    1    3    3    0    0  0.14949531845E+02 -0.42021407103E+01 -0.28260749108E+01  0.15783953516E+02  0.51100000000E-03 0.  1.
         12    1    3    3    0    0 -0.14095953183E+02 -0.11233196668E+02  0.62030329894E+00  0.18035115184E+02  0.00000000000E+00 0. -1.
</event>
<event>
 7    1  0.1138240E-011  0.5930195E+02  0.7816164E-02  0.1266605E+00
        -11   -1    0    0    0    0  0.00000000000E+00  0.00000000000E+00  0.45593999997E+02  0.45594000000E+02  0.51100000000E-03 0. -1.
         11   -1    0    0    0    0 -0.00000000000E+00 -0.00000000000E+00 -0.45593999997E+02  0.45594000000E+02  0.51100000000E-03 0.  1.
    9900012    2    1    2    0    0 -0.29364394677E+02 -0.98687004071E+01  0.75538881578E+01  0.59301950562E+02  0.50000011916E+02 0.  0.
        -12    1    1    2    0    0  0.29364394677E+02  0.98687004071E+01 -0.75538881578E+01  0.31886049438E+02  0.00000000000E+00 0.  1.
         11    1    3    3    0    0 -0.18046977761E+01 -0.50293084261E+01 -0.44625032417E+01  0.69616673830E+01  0.51100000000E-03 0. -1.
        -11    1    3    3    0    0 -0.45714206600E+01  0.15822468914E+02 -0.47972111004E+01  0.17154056197E+02  0.51100000000E-03 0.  1.
         12    1    3    3    0    0 -0.22988276241E+02 -0.20661860895E+02  0.16813602500E+02  0.35186226982E+02  0.00000000000E+00 0. -1.
</event>
<event>
 7    1  0.1138240E-011  0.5930195E+02  0.7816164E-02  0.1266605E+00
        -11   -1    0    0    0    0  0.00000000000E+00  0.00000000000E+00  0.45593999997E+02  0.45594000000E+02  0.51100000000E-03 0. -1.
         11   -1    0    0    0    0 -0.00000000000E+00 -0.00000000000E+00 -0.45593999997E+02  0.45594000000E+02  0.51100000000E-03 0.  1.
    9900012    2    1    2    0    0  0.21680375150E+02  0.18010014978E+02 -0.14910429417E+02  0.59301949577E+02  0.50000010121E+02 0.  0.
        -12    1    1    2    0    0 -0.21680375150E+02 -0.18010014978E+02  0.14910429417E+02  0.31886050423E+02  0.00000000000E+00 0.  1.
         11    1    3    3    0    0 -0.10720344261E+02  0.26460028622E+01  0.62547617259E+01  0.12690514439E+02  0.51100000000E-03 0.  1.
        -11    1    3    3    0    0  0.47174168846E+01  0.10116673703E+02 -0.13289014433E+02  0.17355086105E+02  0.51100000000E-03 0. -1.
        -12    1    3    3    0    0  0.27683302526E+02  0.52473384131E+01 -0.78761767099E+01  0.29256349033E+02  0.00000000000E+00 0.  1.
</event>
<event>
 7    1  0.1138240E-011  0.5930189E+02  0.7816164E-02  0.1266605E+00
        -11   -1    0    0    0    0  0.00000000000E+00  0.00000000000E+00  0.45593999997E+02  0.45594000000E+02  0.51100000000E-03 0.  1.
         11   -1    0    0    0    0 -0.00000000000E+00 -0.00000000000E+00 -0.45593999997E+02  0.45594000000E+02  0.51100000000E-03 0. -1.
    9900012    2    1    2    0    0  0.30255834610E+01 -0.29613804713E+02 -0.11427693530E+02  0.59301893867E+02  0.49999908519E+02 0.  0.
        -12    1    1    2    0    0 -0.30255834610E+01  0.29613804713E+02  0.11427693530E+02  0.31886106133E+02  0.00000000000E+00 0.  1.
         11    1    3    3    0    0 -0.58070939406E+01 -0.64112562220E+01 -0.33781157142E+01  0.92864531668E+01  0.51100000000E-03 0. -1.
        -11    1    3    3    0    0  0.80749607252E+01 -0.23203357021E+02  0.13782537023E+02  0.28170180951E+02  0.51100000000E-03 0.  1.
        -12    1    3    3    0    0  0.75771667646E+00  0.80852931911E-03 -0.21832114839E+02  0.21845259750E+02  0.00000000000E+00 0.  1.
</event>
<event>
 7    1  0.1138240E-011  0.5930195E+02  0.7816164E-02  0.1266605E+00
        -11   -1    0    0    0    0  0.00000000000E+00  0.00000000000E+00  0.45593999997E+02  0.45594000000E+02  0.51100000000E-03 0.  1.
         11   -1    0    0    0    0 -0.00000000000E+00 -0.00000000000E+00 -0.45593999997E+02  0.45594000000E+02  0.51100000000E-03 0. -1.
    9900012    2    1    2    0    0  0.19093746500E+02 -0.57107266229E+00 -0.25530823775E+02  0.59301949100E+02  0.50000009250E+02 0.  0.
        -12    1    1    2    0    0 -0.19093746500E+02  0.57107266229E+00  0.25530823775E+02  0.31886050900E+02  0.00000000000E+00 0.  1.
         11    1    3    3    0    0 -0.86479978227E+01 -0.44400053278E+00  0.45849853173E+01  0.97983209498E+01  0.51100000000E-03 0. -1.
        -11    1    3    3    0    0  0.12117047548E+02 -0.12805227647E+02 -0.72953059612E+01  0.19079260618E+02  0.51100000000E-03 0.  1.
         12    1    3    3    0    0  0.15624696774E+02  0.12678155518E+02 -0.22820503131E+02  0.30424367533E+02  0.00000000000E+00 0. -1.
</event>
<event>
 7    1  0.1138240E-011  0.5930196E+02  0.7816164E-02  0.1266605E+00
        -11   -1    0    0    0    0  0.00000000000E+00  0.00000000000E+00  0.45593999997E+02  0.45594000000E+02  0.51100000000E-03 0.  1.
         11   -1    0    0    0    0 -0.00000000000E+00 -0.00000000000E+00 -0.45593999997E+02  0.45594000000E+02  0.51100000000E-03 0. -1.
    9900012    2    1    2    0    0 -0.36871777839E+01 -0.22864246864E+02 -0.21916896920E+02  0.59301961750E+02  0.50000032321E+02 0.  0.
        -12    1    1    2    0    0  0.36871777839E+01  0.22864246864E+02  0.21916896920E+02  0.31886038250E+02  0.00000000000E+00 0.  1.
         11    1    3    3    0    0  0.61072961824E+01  0.47910300637E+01 -0.14151342818E+02  0.16140431826E+02  0.51100000000E-03 0. -1.
        -11    1    3    3    0    0  0.11135218354E+02 -0.81986327577E+01 -0.35452248447E+01  0.14275128243E+02  0.51100000000E-03 0.  1.
        -12    1    3    3    0    0 -0.20929692321E+02 -0.19456644170E+02 -0.42203292574E+01  0.28886401680E+02  0.00000000000E+00 0.  1.
</event>
<event>
 7    1  0.1138240E-011  0.5930189E+02  0.7816164E-02  0.1266605E+00
        -11   -1    0    0    0    0  0.00000000000E+00  0.00000000000E+00  0.45593999997E+02  0.45594000000E+02  0.51100000000E-03 0.  1.
         11   -1    0    0    0    0 -0.00000000000E+00 -0.00000000000E+00 -0.45593999997E+02  0.45594000000E+02  0.51100000000E-03 0. -1.
    9900012    2    1    2    0    0 -0.26899379584E+02  0.10652364702E+02  0.13404272289E+02  0.59301889993E+02  0.49999901454E+02 0.  0.
        -12    1    1    2    0    0  0.26899379584E+02 -0.10652364702E+02 -0.13404272289E+02  0.31886110007E+02  0.00000000000E+00 0.  1.
         11    1    3    3    0    0  0.22394558755E+01  0.18293472525E+01  0.74502169812E+00  0.29860896806E+01  0.51100000000E-03 0. -1.
        -11    1    3    3    0    0 -0.91692948501E+01  0.29399323348E+01  0.28547332292E+02  0.30127551368E+02  0.51100000000E-03 0.  1.
         12    1    3    3    0    0 -0.19969540609E+02  0.58830851152E+01 -0.15888081702E+02  0.26188248945E+02  0.00000000000E+00 0. -1.
</event>
<event>
 7    1  0.1138240E-011  0.5930194E+02  0.7816164E-02  0.1266605E+00
        -11   -1    0    0    0    0  0.00000000000E+00  0.00000000000E+00  0.45593999997E+02  0.45594000000E+02  0.51100000000E-03 0.  1.
         11   -1    0    0    0    0 -0.00000000000E+00 -0.00000000000E+00 -0.45593999997E+02  0.45594000000E+02  0.51100000000E-03 0. -1.
    9900012    2    1    2    0    0  0.55389341456E+01  0.29301678529E+01 -0.31264274208E+02  0.59301944790E+02  0.50000001390E+02 0.  0.
        -12    1    1    2    0    0 -0.55389341456E+01 -0.29301678529E+01  0.31264274208E+02  0.31886055210E+02  0.00000000000E+00 0.  1.
         11    1    3    3    0    0  0.31755281578E+01 -0.62058604650E+01 -0.95569428656E+01  0.11829278946E+02  0.51100000000E-03 0. -1.
        -11    1    3    3    0    0  0.20592703918E+02  0.76789312725E+01 -0.46486597357E+01  0.22464093077E+02  0.51100000000E-03 0.  1.
        -12    1    3    3    0    0 -0.18229297931E+02  0.14570970455E+01 -0.17058671607E+02  0.25008572767E+02  0.00000000000E+00 0.  1.
</event>
<event>
 7    1  0.1138240E-011  0.5930195E+02  0.7816164E-02  0.1266605E+00
        -11   -1    0    0    0    0  0.00000000000E+00  0.00000000000E+00  0.45593999997E+02  0.45594000000E+02  0.51100000000E-03 0. -1.
         11   -1    0    0    0    0 -0.00000000000E+00 -0.00000000000E+00 -0.45593999997E+02  0.45594000000E+02  0.51100000000E-03 0.  1.
    9900012    2    1    2    0    0 -0.14540743652E+02  0.82360292293E+01  0.27156114295E+02  0.59301953725E+02  0.50000017686E+02 0.  0.
        -12    1    1    2    0    0  0.14540743652E+02 -0.82360292293E+01 -0.27156114295E+02  0.31886046275E+02  0.00000000000E+00 0.  1.
         11    1    3    3    0    0 -0.16681080842E+02  0.23939214928E+01  0.23751216612E+01  0.17018534641E+02  0.51100000000E-03 0. -1.
        -11    1    3    3    0    0 -0.86106453810E+01 -0.87198683117E+01  0.85857673591E+00  0.12284806532E+02  0.51100000000E-03 0.  1.
        -12    1    3    3    0    0  0.10750982571E+02  0.14561976048E+02  0.23922415898E+02  0.29998612552E+02  0.00000000000E+00 0.  1.
</event>
<event>
 7    1  0.1138240E-011  0.5930194E+02  0.7816164E-02  0.1266605E+00
        -11   -1    0    0    0    0  0.00000000000E+00  0.00000000000E+00  0.45593999997E+02  0.45594000000E+02  0.51100000000E-03 0. -1.
         11   -1    0    0    0    0 -0.00000000000E+00 -0.00000000000E+00 -0.45593999997E+02  0.45594000000E+02  0.51100000000E-03 0.  1.
    9900012    2    1    2    0    0  0.28859997820E+02  0.13541528199E+02 -0.66967528594E+00  0.59301938388E+02  0.49999989714E+02 0.  0.
        -12    1    1    2    0    0 -0.28859997820E+02 -0.13541528199E+02  0.66967528594E+00  0.31886061612E+02  0.00000000000E+00 0.  1.
         11    1    3    3    0    0  0.50871437415E+01  0.49653743950E+01  0.74986679470E+01  0.10332666431E+02  0.51100000000E-03 0. -1.
        -11    1    3    3    0    0  0.14362474024E+02  0.25215282329E+02 -0.67975922829E+01  0.29804334988E+02  0.51100000000E-03 0.  1.
        -12    1    3    3    0    0  0.94103800549E+01 -0.16639128525E+02 -0.13707509500E+01  0.19164936969E+02  0.00000000000E+00 0.  1.
</event>
<event>
 7    1  0.1138240E-011  0.5930191E+02  0.7816164E-02  0.1266605E+00
        -11   -1    0    0    0    0  0.00000000000E+00  0.00000000000E+00  0.45593999997E+02  0.45594000000E+02  0.51100000000E-03 0.  1.
         11   -1    0    0    0    0 -0.00000000000E+00 -0.00000000000E+00 -0.45593999997E+02  0.45594000000E+02  0.51100000000E-03 0. -1.
    9900012    2    1    2    0    0 -0.36766550003E+01 -0.29659283241E+02 -0.11114480843E+02  0.59301912771E+02  0.49999942996E+02 0.  0.
        -12    1    1    2    0    0  0.36766550003E+01  0.29659283241E+02  0.11114480843E+02  0.31886087229E+02  0.00000000000E+00 0.  1.
         11    1    3    3    0    0 -0.87810552462E+01 -0.26153077193E+02 -0.21932324079E+02  0.35243683373E+02  0.51100000000E-03 0. -1.
        -11    1    3    3    0    0 -0.69475296817E+01  0.32443133601E+01  0.35583395133E+01  0.84531365901E+01  0.51100000000E-03 0.  1.
        -12    1    3    3    0    0  0.12051929928E+02 -0.67505194083E+01  0.72595037234E+01  0.15605092809E+02  0.00000000000E+00 0.  1.
</event>
<event>
 7    1  0.1138240E-011  0.5930191E+02  0.7816164E-02  0.1266605E+00
        -11   -1    0    0    0    0  0.00000000000E+00  0.00000000000E+00  0.45593999997E+02  0.45594000000E+02  0.51100000000E-03 0.  1.
         11   -1    0    0    0    0 -0.00000000000E+00 -0.00000000000E+00 -0.45593999997E+02  0.45594000000E+02  0.51100000000E-03 0. -1.
    9900012    2    1    2    0    0 -0.12697858023E+02 -0.27522798574E+02 -0.98986303994E+01  0.59301907052E+02  0.49999932566E+02 0.  0.
        -12    1    1    2    0    0  0.12697858023E+02  0.27522798574E+02  0.98986303994E+01  0.31886092948E+02  0.00000000000E+00 0.  1.
         11    1    3    3    0    0 -0.47484181544E+01 -0.20061249505E+02  0.14065694636E+02  0.24956862233E+02  0.51100000000E-03 0. -1.
        -11    1    3    3    0    0  0.69580738471E+01 -0.44691944147E+01 -0.13691370375E+02  0.15995065282E+02  0.51100000000E-03 0.  1.
         12    1    3    3    0    0 -0.14907513715E+02 -0.29923546537E+01 -0.10272954660E+02  0.18349979537E+02  0.00000000000E+00 0. -1.
</event>
<event>
 7    1  0.1138240E-011  0.5930183E+02  0.7816164E-02  0.1266605E+00
        -11   -1    0    0    0    0  0.00000000000E+00  0.00000000000E+00  0.45593999997E+02  0.45594000000E+02  0.51100000000E-03 0. -1.
         11   -1    0    0    0    0 -0.00000000000E+00 -0.00000000000E+00 -0.45593999997E+02  0.45594000000E+02  0.51100000000E-03 0.  1.
    9900012    2    1    2    0    0  0.13860782393E+02  0.27261727867E+02  0.90224710251E+01  0.59301826222E+02  0.49999785149E+02 0.  0.
        -12    1    1    2    0    0 -0.13860782393E+02 -0.27261727867E+02 -0.90224710251E+01  0.31886173778E+02  0.00000000000E+00 0.  1.
         11    1    3    3    0    0  0.35729042526E+01 -0.54680166164E+01  0.16106777320E+01  0.67274908795E+01  0.51100000000E-03 0. -1.
        -11    1    3    3    0    0 -0.12814322336E+02  0.20554956139E+02  0.10260036040E+02  0.26305539694E+02  0.51100000000E-03 0.  1.
         12    1    3    3    0    0  0.23102200476E+02  0.12174788345E+02 -0.28482427470E+01  0.26268795648E+02  0.00000000000E+00 0. -1.
</event>
<event>
 7    1  0.1138240E-011  0.5930185E+02  0.7816164E-02  0.1266605E+00
        -11   -1    0    0    0    0  0.00000000000E+00  0.00000000000E+00  0.45593999997E+02  0.45594000000E+02  0.51100000000E-03 0. -1.
         11   -1    0    0    0    0 -0.00000000000E+00 -0.00000000000E+00 -0.45593999997E+02  0.45594000000E+02  0.51100000000E-03 0.  1.
    9900012    2    1    2    0    0 -0.55265154219E+01 -0.12156732743E+02  0.28955102151E+02  0.59301851530E+02  0.49999831306E+02 0.  0.
        -12    1    1    2    0    0  0.55265154219E+01  0.12156732743E+02 -0.28955102151E+02  0.31886148470E+02  0.00000000000E+00 0.  1.
         11    1    3    3    0    0 -0.54262964424E+01 -0.14876545264E+02  0.16763971215E+02  0.23060507870E+02  0.51100000000E-03 0. -1.
        -11    1    3    3    0    0 -0.16094210733E+02 -0.13801477713E+01  0.11286069986E+02  0.19705425725E+02  0.51100000000E-03 0.  1.
         12    1    3    3    0    0  0.15993991754E+02  0.40999602925E+01  0.90506095012E+00  0.16535917935E+02  0.00000000000E+00 0. -1.
</event>
<event>
 7    1  0.1138240E-011  0.5930196E+02  0.7816164E-02  0.1266605E+00
        -11   -1    0    0    0    0  0.00000000000E+00  0.00000000000E+00  0.45593999997E+02  0.45594000000E+02  0.51100000000E-03 0.  1.
         11   -1    0    0    0    0 -0.00000000000E+00 -0.00000000000E+00 -0.45593999997E+02  0.45594000000E+02  0.51100000000E-03 0. -1.
    9900012    2    1    2    0    0  0.92252831195E+01 -0.12558026501E+02 -0.27819230674E+02  0.59301961150E+02  0.50000031228E+02 0.  0.
        -12    1    1    2    0    0 -0.92252831195E+01  0.12558026501E+02  0.27819230674E+02  0.31886038850E+02  0.00000000000E+00 0.  1.
         11    1    3    3    0    0 -0.86288028872E+01 -0.23270893217E+02 -0.22134847007E+02  0.33255708723E+02  0.51100000000E-03 0. -1.
        -11    1    3    3    0    0  0.59190334984E+00  0.74814276295E+01  0.24914765197E+00  0.75089402558E+01  0.51100000000E-03 0.  1.
        -12    1    3    3    0    0  0.17262182657E+02  0.32314390862E+01 -0.59335313189E+01  0.18537312172E+02  0.00000000000E+00 0.  1.
</event>
<event>
 7    1  0.1138240E-011  0.5930194E+02  0.7816164E-02  0.1266605E+00
        -11   -1    0    0    0    0  0.00000000000E+00  0.00000000000E+00  0.45593999997E+02  0.45594000000E+02  0.51100000000E-03 0.  1.
         11   -1    0    0    0    0 -0.00000000000E+00 -0.00000000000E+00 -0.45593999997E+02  0.45594000000E+02  0.51100000000E-03 0. -1.
    9900012    2    1    2    0    0 -0.15912960660E+02  0.27595621610E+02 -0.14071890284E+01  0.59301939880E+02  0.49999992436E+02 0.  0.
        -12    1    1    2    0    0  0.15912960660E+02 -0.27595621610E+02  0.14071890284E+01  0.31886060120E+02  0.00000000000E+00 0.  1.
         11    1    3    3    0    0 -0.18901851967E+02  0.10295730760E+02 -0.19534100704E+01  0.21612447589E+02  0.51100000000E-03 0. -1.
        -11    1    3    3    0    0 -0.12328324899E+02  0.61392660952E+01  0.94978252340E+01  0.16729819707E+02  0.51100000000E-03 0.  1.
        -12    1    3    3    0    0  0.15317216205E+02  0.11160624755E+02 -0.89516041920E+01  0.20959672583E+02  0.00000000000E+00 0.  1.
</event>
<event>
 7    1  0.1138240E-011  0.5930159E+02  0.7816164E-02  0.1266606E+00
        -11   -1    0    0    0    0  0.00000000000E+00  0.00000000000E+00  0.45593999997E+02  0.45594000000E+02  0.51100000000E-03 0.  1.
         11   -1    0    0    0    0 -0.00000000000E+00 -0.00000000000E+00 -0.45593999997E+02  0.45594000000E+02  0.51100000000E-03 0. -1.
    9900012    2    1    2    0    0  0.10732406996E+02  0.35726701613E+01 -0.29812659496E+02  0.59301589129E+02  0.49999352745E+02 0.  0.
        -12    1    1    2    0    0 -0.10732406996E+02 -0.35726701613E+01  0.29812659496E+02  0.31886410871E+02  0.00000000000E+00 0.  1.
         11    1    3    3    0    0  0.14434796511E+01  0.96786232300E+01 -0.14562337614E+02  0.17544829956E+02  0.51100000000E-03 0. -1.
        -11    1    3    3    0    0 -0.31979594652E+01 -0.65588993961E+01 -0.24914080791E+02  0.25960691978E+02  0.51100000000E-03 0.  1.
         12    1    3    3    0    0  0.12486886810E+02  0.45294632737E+00  0.96637589093E+01  0.15796067195E+02  0.00000000000E+00 0. -1.
</event>
<event>
 7    1  0.1138240E-011  0.5930195E+02  0.7816164E-02  0.1266605E+00
        -11   -1    0    0    0    0  0.00000000000E+00  0.00000000000E+00  0.45593999997E+02  0.45594000000E+02  0.51100000000E-03 0.  1.
         11   -1    0    0    0    0 -0.00000000000E+00 -0.00000000000E+00 -0.45593999997E+02  0.45594000000E+02  0.51100000000E-03 0. -1.
    9900012    2    1    2    0    0 -0.25535632518E+02 -0.15129567163E+02 -0.11651099837E+02  0.59301945712E+02  0.50000003071E+02 0.  0.
        -12    1    1    2    0    0  0.25535632518E+02  0.15129567163E+02  0.11651099837E+02  0.31886054288E+02  0.00000000000E+00 0.  1.
         11    1    3    3    0    0 -0.13925845068E+02 -0.94700510707E+01 -0.17209911553E+02  0.24078872151E+02  0.51100000000E-03 0. -1.
        -11    1    3    3    0    0 -0.42983196303E+01  0.56100048772E+01 -0.11507216072E+02  0.13504211504E+02  0.51100000000E-03 0.  1.
         12    1    3    3    0    0 -0.73114678199E+01 -0.11269520970E+02  0.17066027788E+02  0.21718862056E+02  0.00000000000E+00 0. -1.
</event>
<event>
 7    1  0.1138240E-011  0.5930201E+02  0.7816164E-02  0.1266605E+00
        -11   -1    0    0    0    0  0.00000000000E+00  0.00000000000E+00  0.45593999997E+02  0.45594000000E+02  0.51100000000E-03 0. -1.
         11   -1    0    0    0    0 -0.00000000000E+00 -0.00000000000E+00 -0.45593999997E+02  0.45594000000E+02  0.51100000000E-03 0.  1.
    9900012    2    1    2    0    0 -0.24228430396E+02  0.20066174067E+02  0.52008112121E+01  0.59302005921E+02  0.50000112878E+02 0.  0.
        -12    1    1    2    0    0  0.24228430396E+02 -0.20066174067E+02 -0.52008112121E+01  0.31885994079E+02  0.00000000000E+00 0.  1.
         11    1    3    3    0    0 -0.27211431622E+02  0.16242748583E+02  0.28233845988E+01  0.31816039875E+02  0.51100000000E-03 0. -1.
        -11    1    3    3    0    0 -0.15584158725E+01  0.15007565890E+02 -0.42366960032E+00  0.15094210485E+02  0.51100000000E-03 0.  1.
         12    1    3    3    0    0  0.45414170987E+01 -0.11184140406E+02  0.28010962136E+01  0.12391755561E+02  0.00000000000E+00 0. -1.
</event>
<event>
 7    1  0.1138240E-011  0.5930194E+02  0.7816164E-02  0.1266605E+00
        -11   -1    0    0    0    0  0.00000000000E+00  0.00000000000E+00  0.45593999997E+02  0.45594000000E+02  0.51100000000E-03 0. -1.
         11   -1    0    0    0    0 -0.00000000000E+00 -0.00000000000E+00 -0.45593999997E+02  0.45594000000E+02  0.51100000000E-03 0.  1.
    9900012    2    1    2    0    0 -0.15019872958E+02 -0.64397605245E+01  0.27379799595E+02  0.59301944660E+02  0.50000001153E+02 0.  0.
        -12    1    1    2    0    0  0.15019872958E+02  0.64397605245E+01 -0.27379799595E+02  0.31886055340E+02  0.00000000000E+00 0.  1.
         11    1    3    3    0    0 -0.11298780374E+02 -0.20359981613E+02  0.86458578414E+01  0.24838320138E+02  0.51100000000E-03 0.  1.
        -11    1    3    3    0    0 -0.63726871768E+01  0.25146602417E+01  0.21386680759E+02  0.22457176406E+02  0.51100000000E-03 0. -1.
         12    1    3    3    0    0  0.26515945928E+01  0.11405560847E+02 -0.26527390054E+01  0.12006448115E+02  0.00000000000E+00 0. -1.
</event>
<event>
 7    1  0.1138240E-011  0.5930198E+02  0.7816164E-02  0.1266605E+00
        -11   -1    0    0    0    0  0.00000000000E+00  0.00000000000E+00  0.45593999997E+02  0.45594000000E+02  0.51100000000E-03 0.  1.
         11   -1    0    0    0    0 -0.00000000000E+00 -0.00000000000E+00 -0.45593999997E+02  0.45594000000E+02  0.51100000000E-03 0. -1.
    9900012    2    1    2    0    0  0.11905915194E+02 -0.38336572884E+01 -0.29330367079E+02  0.59301981469E+02  0.50000068283E+02 0.  0.
        -12    1    1    2    0    0 -0.11905915194E+02  0.38336572884E+01  0.29330367079E+02  0.31886018531E+02  0.00000000000E+00 0.  1.
         11    1    3    3    0    0  0.10225515600E+02 -0.20201509778E+02 -0.90434896987E+00  0.22660097394E+02  0.51100000000E-03 0. -1.
        -11    1    3    3    0    0  0.12485168095E+01  0.70669521358E+00 -0.17458691959E+02  0.17517537999E+02  0.51100000000E-03 0.  1.
        -12    1    3    3    0    0  0.43188278463E+00  0.15661157276E+02 -0.10967326150E+02  0.19124346076E+02  0.00000000000E+00 0.  1.
</event>
<event>
 7    1  0.1138240E-011  0.5930193E+02  0.7816164E-02  0.1266605E+00
        -11   -1    0    0    0    0  0.00000000000E+00  0.00000000000E+00  0.45593999997E+02  0.45594000000E+02  0.51100000000E-03 0. -1.
         11   -1    0    0    0    0 -0.00000000000E+00 -0.00000000000E+00 -0.45593999997E+02  0.45594000000E+02  0.51100000000E-03 0.  1.
    9900012    2    1    2    0    0  0.13170797133E+01  0.28859650904E+02  0.13494706492E+02  0.59301933254E+02  0.49999980351E+02 0.  0.
        -12    1    1    2    0    0 -0.13170797133E+01 -0.28859650904E+02 -0.13494706492E+02  0.31886066746E+02  0.00000000000E+00 0.  1.
         11    1    3    3    0    0 -0.83953105247E+00  0.71589245444E+01  0.13391555573E+02  0.15208181152E+02  0.51100000000E-03 0. -1.
        -11    1    3    3    0    0 -0.15807449939E+02  0.15365880073E+02 -0.79201637017E+01  0.23424660879E+02  0.51100000000E-03 0.  1.
         12    1    3    3    0    0  0.17964060705E+02  0.63348462865E+01  0.80233146199E+01  0.20669091223E+02  0.00000000000E+00 0. -1.
</event>
<event>
 7    1  0.1138240E-011  0.5930196E+02  0.7816164E-02  0.1266605E+00
        -11   -1    0    0    0    0  0.00000000000E+00  0.00000000000E+00  0.45593999997E+02  0.45594000000E+02  0.51100000000E-03 0. -1.
         11   -1    0    0    0    0 -0.00000000000E+00 -0.00000000000E+00 -0.45593999997E+02  0.45594000000E+02  0.51100000000E-03 0.  1.
    9900012    2    1    2    0    0 -0.53053854243E+01 -0.37282761621E+01  0.31219748686E+02  0.59301955001E+02  0.50000020013E+02 0.  0.
        -12    1    1    2    0    0  0.53053854243E+01  0.37282761621E+01 -0.31219748686E+02  0.31886044999E+02  0.00000000000E+00 0.  1.
         11    1    3    3    0    0 -0.41882468940E+01 -0.15569230434E+02  0.21668661769E+02  0.27008762494E+02  0.51100000000E-03 0. -1.
        -11    1    3    3    0    0  0.16025431588E+01 -0.87630215467E+01 -0.10374903894E+01  0.89685605184E+01  0.51100000000E-03 0.  1.
        -12    1    3    3    0    0 -0.27196816892E+01  0.20603975819E+02  0.10588577307E+02  0.23324631989E+02  0.00000000000E+00 0.  1.
</event>
<event>
 7    1  0.1138240E-011  0.5930194E+02  0.7816164E-02  0.1266605E+00
        -11   -1    0    0    0    0  0.00000000000E+00  0.00000000000E+00  0.45593999997E+02  0.45594000000E+02  0.51100000000E-03 0. -1.
         11   -1    0    0    0    0 -0.00000000000E+00 -0.00000000000E+00 -0.45593999997E+02  0.45594000000E+02  0.51100000000E-03 0.  1.
    9900012    2    1    2    0    0 -0.26381523243E+02 -0.14315400064E+02  0.10761292454E+02  0.59301939364E+02  0.49999991494E+02 0.  0.
        -12    1    1    2    0    0  0.26381523243E+02  0.14315400064E+02 -0.10761292454E+02  0.31886060636E+02  0.00000000000E+00 0.  1.
         11    1    3    3    0    0 -0.18723139844E+02  0.27119517039E+01 -0.88957126820E+01  0.20905605757E+02  0.51100000000E-03 0. -1.
        -11    1    3    3    0    0 -0.39380023891E+00  0.18633347567E+01 -0.56668312791E+01  0.59783000970E+01  0.51100000000E-03 0.  1.
         12    1    3    3    0    0 -0.72645831601E+01 -0.18890686524E+02  0.25323836415E+02  0.32418033510E+02  0.00000000000E+00 0. -1.
</event>
<event>
 7    1  0.1138240E-011  0.5930195E+02  0.7816164E-02  0.1266605E+00
        -11   -1    0    0    0    0  0.00000000000E+00  0.00000000000E+00  0.45593999997E+02  0.45594000000E+02  0.51100000000E-03 0.  1.
         11   -1    0    0    0    0 -0.00000000000E+00 -0.00000000000E+00 -0.45593999997E+02  0.45594000000E+02  0.51100000000E-03 0. -1.
    9900012    2    1    2    0    0 -0.20616003685E+02 -0.33082992194E+00 -0.24322652328E+02  0.59301945484E+02  0.50000002655E+02 0.  0.
        -12    1    1    2    0    0  0.20616003685E+02  0.33082992194E+00  0.24322652328E+02  0.31886054516E+02  0.00000000000E+00 0.  1.
         11    1    3    3    0    0  0.91721322993E+01 -0.72792890616E+00 -0.75543539195E+01  0.11904879454E+02  0.51100000000E-03 0. -1.
        -11    1    3    3    0    0  0.11503221717E+01  0.70067571494E+01 -0.13927598087E+02  0.15633165885E+02  0.51100000000E-03 0.  1.
        -12    1    3    3    0    0 -0.30938458156E+02 -0.66096581652E+01 -0.28407003215E+01  0.31763900145E+02  0.00000000000E+00 0.  1.
</event>
<event>
 7    1  0.1138240E-011  0.5930199E+02  0.7816164E-02  0.1266605E+00
        -11   -1    0    0    0    0  0.00000000000E+00  0.00000000000E+00  0.45593999997E+02  0.45594000000E+02  0.51100000000E-03 0.  1.
         11   -1    0    0    0    0 -0.00000000000E+00 -0.00000000000E+00 -0.45593999997E+02  0.45594000000E+02  0.51100000000E-03 0. -1.
    9900012    2    1    2    0    0  0.27793348840E+02  0.13952252258E+02  0.70414360731E+01  0.59301993590E+02  0.50000090389E+02 0.  0.
        -12    1    1    2    0    0 -0.27793348840E+02 -0.13952252258E+02 -0.70414360731E+01  0.31886006410E+02  0.00000000000E+00 0.  1.
         11    1    3    3    0    0  0.86844833810E+01  0.27041676414E+01  0.15172519793E+02  0.17690057415E+02  0.51100000000E-03 0. -1.
        -11    1    3    3    0    0  0.35171249070E+01 -0.11896790796E+02  0.45515269523E+00  0.12414143671E+02  0.51100000000E-03 0.  1.
         12    1    3    3    0    0  0.15591740552E+02  0.23144875412E+02 -0.85862364150E+01  0.29197792503E+02  0.00000000000E+00 0. -1.
</event>
<event>
 7    1  0.1138240E-011  0.5930191E+02  0.7816164E-02  0.1266605E+00
        -11   -1    0    0    0    0  0.00000000000E+00  0.00000000000E+00  0.45593999997E+02  0.45594000000E+02  0.51100000000E-03 0.  1.
         11   -1    0    0    0    0 -0.00000000000E+00 -0.00000000000E+00 -0.45593999997E+02  0.45594000000E+02  0.51100000000E-03 0. -1.
    9900012    2    1    2    0    0  0.30545039271E+02 -0.65735900782E+01  0.63648442296E+01  0.59301909731E+02  0.49999937451E+02 0.  0.
        -12    1    1    2    0    0 -0.30545039271E+02  0.65735900782E+01 -0.63648442296E+01  0.31886090269E+02  0.00000000000E+00 0.  1.
         11    1    3    3    0    0  0.18101443613E+02 -0.87155134652E+01 -0.91225054836E+01  0.22064508660E+02  0.51100000000E-03 0. -1.
        -11    1    3    3    0    0 -0.67929019028E+01 -0.79866474035E+01 -0.10259947202E+00  0.10485255358E+02  0.51100000000E-03 0.  1.
        -12    1    3    3    0    0  0.19236497560E+02  0.10128570790E+02  0.15589949185E+02  0.26752145713E+02  0.00000000000E+00 0.  1.
</event>
<event>
 7    1  0.1138240E-011  0.5930197E+02  0.7816164E-02  0.1266605E+00
        -11   -1    0    0    0    0  0.00000000000E+00  0.00000000000E+00  0.45593999997E+02  0.45594000000E+02  0.51100000000E-03 0. -1.
         11   -1    0    0    0    0 -0.00000000000E+00 -0.00000000000E+00 -0.45593999997E+02  0.45594000000E+02  0.51100000000E-03 0.  1.
    9900012    2    1    2    0    0 -0.26206269345E+02 -0.17513874236E+02  0.48181563511E+01  0.59301968978E+02  0.50000045503E+02 0.  0.
        -12    1    1    2    0    0  0.26206269345E+02  0.17513874236E+02 -0.48181563511E+01  0.31886031022E+02  0.00000000000E+00 0.  1.
         11    1    3    3    0    0 -0.27549075978E+01 -0.62025842685E+01  0.13911200150E+02  0.15478470769E+02  0.51100000000E-03 0. -1.
        -11    1    3    3    0    0 -0.15928374217E+02 -0.10953742205E+02  0.11086216188E+02  0.22284563337E+02  0.51100000000E-03 0.  1.
        -12    1    3    3    0    0 -0.75229875304E+01 -0.35754776208E+00 -0.20179259987E+02  0.21538934872E+02  0.00000000000E+00 0.  1.
</event>
<event>
 7    1  0.1138240E-011  0.5930196E+02  0.7816164E-02  0.1266605E+00
        -11   -1    0    0    0    0  0.00000000000E+00  0.00000000000E+00  0.45593999997E+02  0.45594000000E+02  0.51100000000E-03 0.  1.
         11   -1    0    0    0    0 -0.00000000000E+00 -0.00000000000E+00 -0.45593999997E+02  0.45594000000E+02  0.51100000000E-03 0. -1.
    9900012    2    1    2    0    0 -0.13508043930E+02  0.18208146729E+02  0.22421322705E+02  0.59301959638E+02  0.50000028470E+02 0.  0.
        -12    1    1    2    0    0  0.13508043930E+02 -0.18208146729E+02 -0.22421322705E+02  0.31886040362E+02  0.00000000000E+00 0.  1.
         11    1    3    3    0    0  0.14902596478E+01 -0.34579139620E+01  0.16569872866E+02  0.16992313846E+02  0.51100000000E-03 0. -1.
        -11    1    3    3    0    0  0.91406011185E+01  0.11905423360E+01  0.53385827711E+01  0.10652156877E+02  0.51100000000E-03 0.  1.
         12    1    3    3    0    0 -0.24138904696E+02  0.20475518355E+02  0.51286706822E+00  0.31657488916E+02  0.00000000000E+00 0. -1.
</event>
<event>
 7    1  0.1138240E-011  0.5930194E+02  0.7816164E-02  0.1266605E+00
        -11   -1    0    0    0    0  0.00000000000E+00  0.00000000000E+00  0.45593999997E+02  0.45594000000E+02  0.51100000000E-03 0.  1.
         11   -1    0    0    0    0 -0.00000000000E+00 -0.00000000000E+00 -0.45593999997E+02  0.45594000000E+02  0.51100000000E-03 0. -1.
    9900012    2    1    2    0    0 -0.30124855290E+02  0.72413248521E+01 -0.75350677957E+01  0.59301938178E+02  0.49999989331E+02 0.  0.
        -12    1    1    2    0    0  0.30124855290E+02 -0.72413248521E+01  0.75350677957E+01  0.31886061822E+02  0.00000000000E+00 0.  1.
         11    1    3    3    0    0 -0.31757990101E+01  0.37006633915E+01  0.32098171845E+01  0.58381106113E+01  0.51100000000E-03 0. -1.
        -11    1    3    3    0    0  0.11804562009E+02  0.49757382740E+01  0.12493917984E+01  0.12871155182E+02  0.51100000000E-03 0.  1.
         12    1    3    3    0    0 -0.38753618288E+02 -0.14350768135E+01 -0.11994276779E+02  0.40592672385E+02  0.00000000000E+00 0. -1.
</event>
<event>
 7    1  0.1138240E-011  0.5930195E+02  0.7816164E-02  0.1266605E+00
        -11   -1    0    0    0    0  0.00000000000E+00  0.00000000000E+00  0.45593999997E+02  0.45594000000E+02  0.51100000000E-03 0.  1.
         11   -1    0    0    0    0 -0.00000000000E+00 -0.00000000000E+00 -0.45593999997E+02  0.45594000000E+02  0.51100000000E-03 0. -1.
    9900012    2    1    2    0    0 -0.97048966768E+01 -0.24159626015E+02 -0.18407813101E+02  0.59301950827E+02  0.50000012401E+02 0.  0.
        -12    1    1    2    0    0  0.97048966768E+01  0.24159626015E+02  0.18407813101E+02  0.31886049173E+02  0.00000000000E+00 0.  1.
         11    1    3    3    0    0  0.54685458549E+01 -0.37552393514E+01 -0.22237990257E+02  0.23206357475E+02  0.51100000000E-03 0. -1.
        -11    1    3    3    0    0  0.14999609472E+01  0.50572832314E+01 -0.71373912910E+00  0.53231025099E+01  0.51100000000E-03 0.  1.
         12    1    3    3    0    0 -0.16673403479E+02 -0.25461669895E+02  0.45439162850E+01  0.30772490842E+02  0.00000000000E+00 0. -1.
</event>
<event>
 7    1  0.1138240E-011  0.5930195E+02  0.7816164E-02  0.1266605E+00
        -11   -1    0    0    0    0  0.00000000000E+00  0.00000000000E+00  0.45593999997E+02  0.45594000000E+02  0.51100000000E-03 0.  1.
         11   -1    0    0    0    0 -0.00000000000E+00 -0.00000000000E+00 -0.45593999997E+02  0.45594000000E+02  0.51100000000E-03 0. -1.
    9900012    2    1    2    0    0 -0.27042288719E+02  0.10360371000E+02 -0.13345308813E+02  0.59301953934E+02  0.50000018066E+02 0.  0.
        -12    1    1    2    0    0  0.27042288719E+02 -0.10360371000E+02  0.13345308813E+02  0.31886046066E+02  0.00000000000E+00 0.  1.
         11    1    3    3    0    0 -0.19546074874E+02 -0.73726903201E+01  0.12743413008E+02  0.24470393966E+02  0.51100000000E-03 0. -1.
        -11    1    3    3    0    0  0.57459489782E+00  0.34682725548E+01  0.54638336841E+00  0.35577533440E+01  0.51100000000E-03 0.  1.
         12    1    3    3    0    0 -0.80708087434E+01  0.14264788765E+02 -0.26635105189E+02  0.31273806623E+02  0.00000000000E+00 0. -1.
</event>
<event>
 7    1  0.1138240E-011  0.5930197E+02  0.7816164E-02  0.1266605E+00
        -11   -1    0    0    0    0  0.00000000000E+00  0.00000000000E+00  0.45593999997E+02  0.45594000000E+02  0.51100000000E-03 0.  1.
         11   -1    0    0    0    0 -0.00000000000E+00 -0.00000000000E+00 -0.45593999997E+02  0.45594000000E+02  0.51100000000E-03 0. -1.
    9900012    2    1    2    0    0  0.29353897865E+02  0.12181483804E+02  0.25844206200E+01  0.59301967047E+02  0.50000041982E+02 0.  0.
        -12    1    1    2    0    0 -0.29353897865E+02 -0.12181483804E+02 -0.25844206200E+01  0.31886032953E+02  0.00000000000E+00 0.  1.
         11    1    3    3    0    0  0.64200301038E+01  0.20511702544E+02 -0.20794383218E+01  0.21593304328E+02  0.51100000000E-03 0. -1.
        -11    1    3    3    0    0  0.11501403432E+01  0.64525809188E+01  0.88906196901E+01  0.11045439876E+02  0.51100000000E-03 0.  1.
        -12    1    3    3    0    0  0.21783727418E+02 -0.14782799659E+02 -0.42267607483E+01  0.26663222844E+02  0.00000000000E+00 0.  1.
</event>
<event>
 7    1  0.1138240E-011  0.5930192E+02  0.7816164E-02  0.1266605E+00
        -11   -1    0    0    0    0  0.00000000000E+00  0.00000000000E+00  0.45593999997E+02  0.45594000000E+02  0.51100000000E-03 0. -1.
         11   -1    0    0    0    0 -0.00000000000E+00 -0.00000000000E+00 -0.45593999997E+02  0.45594000000E+02  0.51100000000E-03 0.  1.
    9900012    2    1    2    0    0 -0.13020741620E+02  0.79878157245E+01  0.27988873039E+02  0.59301922687E+02  0.49999961080E+02 0.  0.
        -12    1    1    2    0    0  0.13020741620E+02 -0.79878157245E+01 -0.27988873039E+02  0.31886077313E+02  0.00000000000E+00 0.  1.
         11    1    3    3    0    0 -0.16088983610E+02  0.14922288678E+02  0.15677091026E+02  0.26968523806E+02  0.51100000000E-03 0. -1.
        -11    1    3    3    0    0 -0.11537374616E+02 -0.28621670911E+01 -0.12990470166E+01  0.11957865064E+02  0.51100000000E-03 0.  1.
         12    1    3    3    0    0  0.14605616605E+02 -0.40723058619E+01  0.13610829030E+02  0.20375533818E+02  0.00000000000E+00 0. -1.
</event>
<event>
 7    1  0.1138240E-011  0.5930192E+02  0.7816164E-02  0.1266605E+00
        -11   -1    0    0    0    0  0.00000000000E+00  0.00000000000E+00  0.45593999997E+02  0.45594000000E+02  0.51100000000E-03 0.  1.
         11   -1    0    0    0    0 -0.00000000000E+00 -0.00000000000E+00 -0.45593999997E+02  0.45594000000E+02  0.51100000000E-03 0. -1.
    9900012    2    1    2    0    0  0.16659237566E+02  0.21316551142E+02 -0.16875919306E+02  0.59301918377E+02  0.49999953219E+02 0.  0.
        -12    1    1    2    0    0 -0.16659237566E+02 -0.21316551142E+02  0.16875919306E+02  0.31886081623E+02  0.00000000000E+00 0.  1.
         11    1    3    3    0    0  0.44794600219E+01  0.74492824038E+01  0.32128233651E+01  0.92671249401E+01  0.51100000000E-03 0. -1.
        -11    1    3    3    0    0 -0.11430748598E+02  0.17343078540E+02 -0.37356206194E+01  0.21104484083E+02  0.51100000000E-03 0.  1.
         12    1    3    3    0    0  0.23610526142E+02 -0.34758098017E+01 -0.16353122051E+02  0.28930309354E+02  0.00000000000E+00 0. -1.
</event>
<event>
 7    1  0.1138240E-011  0.5930164E+02  0.7816164E-02  0.1266606E+00
        -11   -1    0    0    0    0  0.00000000000E+00  0.00000000000E+00  0.45593999997E+02  0.45594000000E+02  0.51100000000E-03 0. -1.
         11   -1    0    0    0    0 -0.00000000000E+00 -0.00000000000E+00 -0.45593999997E+02  0.45594000000E+02  0.51100000000E-03 0.  1.
    9900012    2    1    2    0    0  0.16519177774E+02 -0.13738872081E+02  0.23560564901E+02  0.59301638356E+02  0.49999442526E+02 0.  0.
        -12    1    1    2    0    0 -0.16519177774E+02  0.13738872081E+02 -0.23560564901E+02  0.31886361644E+02  0.00000000000E+00 0.  1.
         11    1    3    3    0    0  0.11328975282E+02 -0.12764532100E+01  0.72883630410E+01  0.13531269335E+02  0.51100000000E-03 0. -1.
        -11    1    3    3    0    0  0.62386807066E+01 -0.23092263083E+02  0.22969628195E+02  0.33162894490E+02  0.51100000000E-03 0.  1.
        -12    1    3    3    0    0 -0.10484782150E+01  0.10629844212E+02 -0.66974263352E+01  0.12607474531E+02  0.00000000000E+00 0.  1.
</event>
<event>
 7    1  0.1138240E-011  0.5930192E+02  0.7816164E-02  0.1266605E+00
        -11   -1    0    0    0    0  0.00000000000E+00  0.00000000000E+00  0.45593999997E+02  0.45594000000E+02  0.51100000000E-03 0.  1.
         11   -1    0    0    0    0 -0.00000000000E+00 -0.00000000000E+00 -0.45593999997E+02  0.45594000000E+02  0.51100000000E-03 0. -1.
    9900012    2    1    2    0    0 -0.24356455747E+02  0.17602685310E+02 -0.10659752364E+02  0.59301924871E+02  0.49999965063E+02 0.  0.
        -12    1    1    2    0    0  0.24356455747E+02 -0.17602685310E+02  0.10659752364E+02  0.31886075129E+02  0.00000000000E+00 0.  1.
         11    1    3    3    0    0  0.73880531379E+01  0.40226181962E+01 -0.35796703200E+00  0.84197937610E+01  0.51100000000E-03 0. -1.
        -11    1    3    3    0    0 -0.24027834820E+01  0.72821911394E+01 -0.18285472197E+02  0.19828317377E+02  0.51100000000E-03 0.  1.
        -12    1    3    3    0    0 -0.29341725403E+02  0.62978759739E+01  0.79836868652E+01  0.31053813733E+02  0.00000000000E+00 0.  1.
</event>
<event>
 7    1  0.1138240E-011  0.5930197E+02  0.7816164E-02  0.1266605E+00
        -11   -1    0    0    0    0  0.00000000000E+00  0.00000000000E+00  0.45593999997E+02  0.45594000000E+02  0.51100000000E-03 0.  1.
         11   -1    0    0    0    0 -0.00000000000E+00 -0.00000000000E+00 -0.45593999997E+02  0.45594000000E+02  0.51100000000E-03 0. -1.
    9900012    2    1    2    0    0 -0.92021735882E+01 -0.30525311612E+02 -0.49422647243E+00  0.59301970025E+02  0.50000047414E+02 0.  0.
        -12    1    1    2    0    0  0.92021735882E+01  0.30525311612E+02  0.49422647243E+00  0.31886029975E+02  0.00000000000E+00 0.  1.
         11    1    3    3    0    0 -0.41355984272E+01  0.65959710655E+01 -0.35132682525E+01  0.85412565073E+01  0.51100000000E-03 0. -1.
        -11    1    3    3    0    0 -0.85773680999E+01 -0.44881001089E+01 -0.11362057501E+02  0.14926842835E+02  0.51100000000E-03 0.  1.
        -12    1    3    3    0    0  0.35107929389E+01 -0.32633182568E+02  0.14381099281E+02  0.35833870683E+02  0.00000000000E+00 0.  1.
</event>
<event>
 7    1  0.1138240E-011  0.5930195E+02  0.7816164E-02  0.1266605E+00
        -11   -1    0    0    0    0  0.00000000000E+00  0.00000000000E+00  0.45593999997E+02  0.45594000000E+02  0.51100000000E-03 0.  1.
         11   -1    0    0    0    0 -0.00000000000E+00 -0.00000000000E+00 -0.45593999997E+02  0.45594000000E+02  0.51100000000E-03 0. -1.
    9900012    2    1    2    0    0  0.30008874425E+02 -0.90136362208E+01 -0.59111898532E+01  0.59301947443E+02  0.50000006229E+02 0.  0.
        -12    1    1    2    0    0 -0.30008874425E+02  0.90136362208E+01  0.59111898532E+01  0.31886052557E+02  0.00000000000E+00 0.  1.
         11    1    3    3    0    0  0.17342314510E+02  0.43623928428E+01 -0.25993161738E+01  0.18070494977E+02  0.51100000000E-03 0. -1.
        -11    1    3    3    0    0  0.87780625598E+01  0.11601268413E+02 -0.61499081113E+01  0.15794466789E+02  0.51100000000E-03 0.  1.
        -12    1    3    3    0    0  0.38884973552E+01 -0.24977297477E+02  0.28380344319E+01  0.25436985678E+02  0.00000000000E+00 0.  1.
</event>
<event>
 7    1  0.1138240E-011  0.5930194E+02  0.7816164E-02  0.1266605E+00
        -11   -1    0    0    0    0  0.00000000000E+00  0.00000000000E+00  0.45593999997E+02  0.45594000000E+02  0.51100000000E-03 0.  1.
         11   -1    0    0    0    0 -0.00000000000E+00 -0.00000000000E+00 -0.45593999997E+02  0.45594000000E+02  0.51100000000E-03 0. -1.
    9900012    2    1    2    0    0  0.30359501892E+02 -0.32296513883E+01 -0.91973144474E+01  0.59301943545E+02  0.49999999120E+02 0.  0.
        -12    1    1    2    0    0 -0.30359501892E+02  0.32296513883E+01  0.91973144474E+01  0.31886056455E+02  0.00000000000E+00 0.  1.
         11    1    3    3    0    0 -0.22186389209E+01  0.16532352544E+01 -0.17016413130E+00  0.27720933535E+01  0.51100000000E-03 0. -1.
        -11    1    3    3    0    0  0.31704300900E+01 -0.21515376900E+02 -0.62629450940E+01  0.22631560963E+02  0.51100000000E-03 0.  1.
         12    1    3    3    0    0  0.29407710723E+02  0.16632490258E+02 -0.27642052222E+01  0.33898289229E+02  0.00000000000E+00 0. -1.
</event>
<event>
 7    1  0.1138240E-011  0.5930165E+02  0.7816164E-02  0.1266606E+00
        -11   -1    0    0    0    0  0.00000000000E+00  0.00000000000E+00  0.45593999997E+02  0.45594000000E+02  0.51100000000E-03 0.  1.
         11   -1    0    0    0    0 -0.00000000000E+00 -0.00000000000E+00 -0.45593999997E+02  0.45594000000E+02  0.51100000000E-03 0. -1.
    9900012    2    1    2    0    0  0.99117063126E+01 -0.27084695880E+02 -0.13598406268E+02  0.59301649848E+02  0.49999463485E+02 0.  0.
        -12    1    1    2    0    0 -0.99117063126E+01  0.27084695880E+02  0.13598406268E+02  0.31886350152E+02  0.00000000000E+00 0.  1.
         11    1    3    3    0    0 -0.79909044889E+01 -0.15983300884E+02 -0.75606584130E+00  0.17885527599E+02  0.51100000000E-03 0. -1.
        -11    1    3    3    0    0  0.24230277766E+00  0.19636582551E+00  0.10233862627E+02  0.10238613906E+02  0.51100000000E-03 0.  1.
         12    1    3    3    0    0  0.17660308024E+02 -0.11297760822E+02 -0.23076203054E+02  0.31177508343E+02  0.00000000000E+00 0. -1.
</event>
<event>
 7    1  0.1138240E-011  0.5930195E+02  0.7816164E-02  0.1266605E+00
        -11   -1    0    0    0    0  0.00000000000E+00  0.00000000000E+00  0.45593999997E+02  0.45594000000E+02  0.51100000000E-03 0.  1.
         11   -1    0    0    0    0 -0.00000000000E+00 -0.00000000000E+00 -0.45593999997E+02  0.45594000000E+02  0.51100000000E-03 0. -1.
    9900012    2    1    2    0    0 -0.26234543778E+02 -0.58588768133E+01 -0.17150582357E+02  0.59301949759E+02  0.50000010453E+02 0.  0.
        -12    1    1    2    0    0  0.26234543778E+02  0.58588768133E+01  0.17150582357E+02  0.31886050241E+02  0.00000000000E+00 0.  1.
         11    1    3    3    0    0  0.10034124571E+01 -0.25315781551E+01  0.47958991824E+01  0.55151041461E+01  0.51100000000E-03 0. -1.
        -11    1    3    3    0    0 -0.64320551390E+01  0.12602999751E+02  0.60958904131E+01  0.15406713350E+02  0.51100000000E-03 0.  1.
         12    1    3    3    0    0 -0.20805901097E+02 -0.15930298410E+02 -0.28042371952E+02  0.38380132264E+02  0.00000000000E+00 0. -1.
</event>
<event>
 7    1  0.1138240E-011  0.5930195E+02  0.7816164E-02  0.1266605E+00
        -11   -1    0    0    0    0  0.00000000000E+00  0.00000000000E+00  0.45593999997E+02  0.45594000000E+02  0.51100000000E-03 0.  1.
         11   -1    0    0    0    0 -0.00000000000E+00 -0.00000000000E+00 -0.45593999997E+02  0.45594000000E+02  0.51100000000E-03 0. -1.
    9900012    2    1    2    0    0 -0.82463152825E+01  0.12778819452E+02 -0.28025354978E+02  0.59301945619E+02  0.50000002902E+02 0.  0.
        -12    1    1    2    0    0  0.82463152825E+01 -0.12778819452E+02  0.28025354978E+02  0.31886054381E+02  0.00000000000E+00 0.  1.
         11    1    3    3    0    0  0.16848449280E+02  0.94590238964E+01 -0.17827440293E+02  0.26289941115E+02  0.51100000000E-03 0. -1.
        -11    1    3    3    0    0 -0.31300126304E+01 -0.62428566966E+01 -0.20328649563E-01  0.69835988084E+01  0.51100000000E-03 0.  1.
        -12    1    3    3    0    0 -0.21964751932E+02  0.95626522523E+01 -0.10177586036E+02  0.26028405695E+02  0.00000000000E+00 0.  1.
</event>
<event>
 7    1  0.1138240E-011  0.5930194E+02  0.7816164E-02  0.1266605E+00
        -11   -1    0    0    0    0  0.00000000000E+00  0.00000000000E+00  0.45593999997E+02  0.45594000000E+02  0.51100000000E-03 0. -1.
         11   -1    0    0    0    0 -0.00000000000E+00 -0.00000000000E+00 -0.45593999997E+02  0.45594000000E+02  0.51100000000E-03 0.  1.
    9900012    2    1    2    0    0  0.23723246734E+02  0.16385770696E+02  0.13617454847E+02  0.59301937318E+02  0.49999987763E+02 0.  0.
        -12    1    1    2    0    0 -0.23723246734E+02 -0.16385770696E+02 -0.13617454847E+02  0.31886062682E+02  0.00000000000E+00 0.  1.
         11    1    3    3    0    0  0.52823001219E+01  0.27516405639E+01  0.28422307523E+00  0.59628016392E+01  0.51100000000E-03 0. -1.
        -11    1    3    3    0    0  0.11500833625E+02  0.13869104677E+01 -0.16610856492E+02  0.20251253007E+02  0.51100000000E-03 0.  1.
        -12    1    3    3    0    0  0.69401129871E+01  0.12247219664E+02  0.29944088263E+02  0.33087882672E+02  0.00000000000E+00 0.  1.
</event>
<event>
 7    1  0.1138240E-011  0.5930194E+02  0.7816164E-02  0.1266605E+00
        -11   -1    0    0    0    0  0.00000000000E+00  0.00000000000E+00  0.45593999997E+02  0.45594000000E+02  0.51100000000E-03 0. -1.
         11   -1    0    0    0    0 -0.00000000000E+00 -0.00000000000E+00 -0.45593999997E+02  0.45594000000E+02  0.51100000000E-03 0.  1.
    9900012    2    1    2    0    0  0.11205408658E+02  0.28712616215E+02 -0.81697763205E+01  0.59301941005E+02  0.49999994488E+02 0.  0.
        -12    1    1    2    0    0 -0.11205408658E+02 -0.28712616215E+02  0.81697763205E+01  0.31886058995E+02  0.00000000000E+00 0.  1.
         11    1    3    3    0    0  0.16491062463E+01  0.15584438245E+02 -0.14529458334E+01  0.15738656826E+02  0.51100000000E-03 0. -1.
        -11    1    3    3    0    0  0.22436184883E+02  0.28142223580E+00  0.34841675903E+01  0.22706849510E+02  0.51100000000E-03 0.  1.
         12    1    3    3    0    0 -0.12879882472E+02  0.12846755733E+02 -0.10200998077E+02  0.20856434670E+02  0.00000000000E+00 0. -1.
</event>
<event>
 7    1  0.1138240E-011  0.5930193E+02  0.7816164E-02  0.1266605E+00
        -11   -1    0    0    0    0  0.00000000000E+00  0.00000000000E+00  0.45593999997E+02  0.45594000000E+02  0.51100000000E-03 0.  1.
         11   -1    0    0    0    0 -0.00000000000E+00 -0.00000000000E+00 -0.45593999997E+02  0.45594000000E+02  0.51100000000E-03 0. -1.
    9900012    2    1    2    0    0 -0.82050848130E+00 -0.31474174101E+01 -0.31719745640E+02  0.59301925704E+02  0.49999966582E+02 0.  0.
        -12    1    1    2    0    0  0.82050848130E+00  0.31474174101E+01  0.31719745640E+02  0.31886074296E+02  0.00000000000E+00 0.  1.
         11    1    3    3    0    0 -0.36737050265E+01  0.68810573224E+01 -0.15253842008E+02  0.17132564162E+02  0.51100000000E-03 0. -1.
        -11    1    3    3    0    0  0.57204290187E+01  0.13045993731E+02 -0.10759397947E+01  0.14285618898E+02  0.51100000000E-03 0.  1.
        -12    1    3    3    0    0 -0.28672324734E+01 -0.23074468464E+02 -0.15389963838E+02  0.27883742645E+02  0.00000000000E+00 0.  1.
</event>
<event>
 7    1  0.1138240E-011  0.5930195E+02  0.7816164E-02  0.1266605E+00
        -11   -1    0    0    0    0  0.00000000000E+00  0.00000000000E+00  0.45593999997E+02  0.45594000000E+02  0.51100000000E-03 0.  1.
         11   -1    0    0    0    0 -0.00000000000E+00 -0.00000000000E+00 -0.45593999997E+02  0.45594000000E+02  0.51100000000E-03 0. -1.
    9900012    2    1    2    0    0 -0.24974438523E+02 -0.19214193285E+02  0.48797959452E+01  0.59301949577E+02  0.50000010120E+02 0.  0.
        -12    1    1    2    0    0  0.24974438523E+02  0.19214193285E+02 -0.48797959452E+01  0.31886050423E+02  0.00000000000E+00 0.  1.
         11    1    3    3    0    0 -0.14606484840E+02  0.72762630320E+01 -0.64596724296E+01  0.17550520541E+02  0.51100000000E-03 0. -1.
        -11    1    3    3    0    0 -0.13471801369E+02 -0.83186212212E+01 -0.55218002897E+01  0.16768397951E+02  0.51100000000E-03 0.  1.
        -12    1    3    3    0    0  0.31038476863E+01 -0.18171835096E+02  0.16861268664E+02  0.24983031085E+02  0.00000000000E+00 0.  1.
</event>
<event>
 7    1  0.1138240E-011  0.5930192E+02  0.7816164E-02  0.1266605E+00
        -11   -1    0    0    0    0  0.00000000000E+00  0.00000000000E+00  0.45593999997E+02  0.45594000000E+02  0.51100000000E-03 0.  1.
         11   -1    0    0    0    0 -0.00000000000E+00 -0.00000000000E+00 -0.45593999997E+02  0.45594000000E+02  0.51100000000E-03 0. -1.
    9900012    2    1    2    0    0 -0.80242396808E+01  0.11909582626E+02 -0.28469197543E+02  0.59301924833E+02  0.49999964994E+02 0.  0.
        -12    1    1    2    0    0  0.80242396808E+01 -0.11909582626E+02  0.28469197543E+02  0.31886075167E+02  0.00000000000E+00 0.  1.
         11    1    3    3    0    0  0.59494489531E+01  0.68673589771E+01 -0.15907987513E+01  0.92242724968E+01  0.51100000000E-03 0. -1.
        -11    1    3    3    0    0 -0.48327912316E+01 -0.10865252088E+02  0.53134895070E+01  0.13024697503E+02  0.51100000000E-03 0.  1.
        -12    1    3    3    0    0 -0.91408974023E+01  0.15907475737E+02 -0.32191888299E+02  0.37052954834E+02  0.00000000000E+00 0.  1.
</event>
<event>
 7    1  0.1138240E-011  0.5930201E+02  0.7816164E-02  0.1266605E+00
        -11   -1    0    0    0    0  0.00000000000E+00  0.00000000000E+00  0.45593999997E+02  0.45594000000E+02  0.51100000000E-03 0.  1.
         11   -1    0    0    0    0 -0.00000000000E+00 -0.00000000000E+00 -0.45593999997E+02  0.45594000000E+02  0.51100000000E-03 0. -1.
    9900012    2    1    2    0    0 -0.17121608034E+01  0.22083141964E+02 -0.22937301687E+02  0.59302008369E+02  0.50000117343E+02 0.  0.
        -12    1    1    2    0    0  0.17121608034E+01 -0.22083141964E+02  0.22937301687E+02  0.31885991631E+02  0.00000000000E+00 0.  1.
         11    1    3    3    0    0  0.19401839356E+01  0.92318947772E+01 -0.33582399936E+02  0.34882227288E+02  0.51100000000E-03 0. -1.
        -11    1    3    3    0    0  0.43396279649E+01 -0.10204272626E+01  0.65013782288E+01  0.78829919324E+01  0.51100000000E-03 0.  1.
        -12    1    3    3    0    0 -0.79919727039E+01  0.13871674449E+02  0.41437200198E+01  0.16536789148E+02  0.00000000000E+00 0.  1.
</event>
<event>
 7    1  0.1138240E-011  0.5930194E+02  0.7816164E-02  0.1266605E+00
        -11   -1    0    0    0    0  0.00000000000E+00  0.00000000000E+00  0.45593999997E+02  0.45594000000E+02  0.51100000000E-03 0.  1.
         11   -1    0    0    0    0 -0.00000000000E+00 -0.00000000000E+00 -0.45593999997E+02  0.45594000000E+02  0.51100000000E-03 0. -1.
    9900012    2    1    2    0    0  0.20193047404E+02  0.10167452636E+02 -0.22485213064E+02  0.59301936225E+02  0.49999985769E+02 0.  0.
        -12    1    1    2    0    0 -0.20193047404E+02 -0.10167452636E+02  0.22485213064E+02  0.31886063775E+02  0.00000000000E+00 0.  1.
         11    1    3    3    0    0  0.57753912991E+01  0.25752831467E+01 -0.17916073457E+02  0.18999287258E+02  0.51100000000E-03 0. -1.
        -11    1    3    3    0    0 -0.21974297090E+01 -0.83081574845E+01 -0.13189897459E+02  0.15742540245E+02  0.51100000000E-03 0.  1.
        -12    1    3    3    0    0  0.16615085814E+02  0.15900326974E+02  0.86207578522E+01  0.24560108722E+02  0.00000000000E+00 0.  1.
</event>
<event>
 7    1  0.1685164E-011  0.5930194E+02  0.7816164E-02  0.1266605E+00
        -11   -1    0    0    0    0  0.00000000000E+00  0.00000000000E+00  0.45593999997E+02  0.45594000000E+02  0.51100000000E-03 0. -1.
         11   -1    0    0    0    0 -0.00000000000E+00 -0.00000000000E+00 -0.45593999997E+02  0.45594000000E+02  0.51100000000E-03 0.  1.
    9900012    2    1    2    0    0 -0.25350309859E+02  0.44171193843E+01  0.18830073088E+02  0.59301940254E+02  0.49999993118E+02 0.  0.
        -12    1    1    2    0    0  0.25350309859E+02 -0.44171193843E+01 -0.18830073088E+02  0.31886059746E+02  0.00000000000E+00 0.  1.
         11    1    3    3    0    0 -0.24293640632E+02  0.12590326728E+01  0.14221399253E+02  0.28178259978E+02  0.51100000000E-03 0. -1.
        -11    1    3    3    0    0 -0.54476816246E+01  0.14232178765E+02  0.98111999147E+01  0.18124342513E+02  0.51100000000E-03 0.  1.
        -12    1    3    3    0    0  0.43910123977E+01 -0.11074092054E+02 -0.52025260788E+01  0.12999337764E+02  0.00000000000E+00 0.  1.
</event>
<event>
 7    1  0.1138240E-011  0.5930197E+02  0.7816164E-02  0.1266605E+00
        -11   -1    0    0    0    0  0.00000000000E+00  0.00000000000E+00  0.45593999997E+02  0.45594000000E+02  0.51100000000E-03 0. -1.
         11   -1    0    0    0    0 -0.00000000000E+00 -0.00000000000E+00 -0.45593999997E+02  0.45594000000E+02  0.51100000000E-03 0.  1.
    9900012    2    1    2    0    0  0.30753707591E+02  0.67491864736E+01 -0.50375618690E+01  0.59301967349E+02  0.50000042533E+02 0.  0.
        -12    1    1    2    0    0 -0.30753707591E+02 -0.67491864736E+01  0.50375618690E+01  0.31886032651E+02  0.00000000000E+00 0.  1.
         11    1    3    3    0    0  0.10868291467E+02 -0.58562092963E+01  0.74000707340E+01  0.14393609480E+02  0.51100000000E-03 0. -1.
        -11    1    3    3    0    0  0.14376378153E+02 -0.11347415452E+02 -0.28941879404E+01  0.18542394947E+02  0.51100000000E-03 0.  1.
         12    1    3    3    0    0  0.55090379703E+01  0.23952811222E+02 -0.95434446626E+01  0.26365962923E+02  0.00000000000E+00 0. -1.
</event>
<event>
 7    1  0.1138240E-011  0.5930194E+02  0.7816164E-02  0.1266605E+00
        -11   -1    0    0    0    0  0.00000000000E+00  0.00000000000E+00  0.45593999997E+02  0.45594000000E+02  0.51100000000E-03 0. -1.
         11   -1    0    0    0    0 -0.00000000000E+00 -0.00000000000E+00 -0.45593999997E+02  0.45594000000E+02  0.51100000000E-03 0.  1.
    9900012    2    1    2    0    0 -0.24049078546E+02 -0.16807698891E+02  0.12484547622E+02  0.59301939562E+02  0.49999991856E+02 0.  0.
        -12    1    1    2    0    0  0.24049078546E+02  0.16807698891E+02 -0.12484547622E+02  0.31886060438E+02  0.00000000000E+00 0.  1.
         11    1    3    3    0    0 -0.28315254039E+02 -0.71221637869E+01  0.15759751036E+02  0.33179038282E+02  0.51100000000E-03 0. -1.
        -11    1    3    3    0    0 -0.23089005670E+01  0.27207092530E+01 -0.99541589576E+01  0.10574429606E+02  0.51100000000E-03 0.  1.
        -12    1    3    3    0    0  0.65750760608E+01 -0.12406244358E+02  0.66789555436E+01  0.15548471675E+02  0.00000000000E+00 0.  1.
</event>
<event>
 7    1  0.1138240E-011  0.5930194E+02  0.7816164E-02  0.1266605E+00
        -11   -1    0    0    0    0  0.00000000000E+00  0.00000000000E+00  0.45593999997E+02  0.45594000000E+02  0.51100000000E-03 0. -1.
         11   -1    0    0    0    0 -0.00000000000E+00 -0.00000000000E+00 -0.45593999997E+02  0.45594000000E+02  0.51100000000E-03 0.  1.
    9900012    2    1    2    0    0  0.14103843903E+02 -0.28324878961E+02  0.39374283479E+01  0.59301944694E+02  0.50000001214E+02 0.  0.
        -12    1    1    2    0    0 -0.14103843903E+02  0.28324878961E+02 -0.39374283479E+01  0.31886055306E+02  0.00000000000E+00 0.  1.
         11    1    3    3    0    0  0.80335905300E+01 -0.11713059956E+02  0.16545221067E+02  0.21805473871E+02  0.51100000000E-03 0. -1.
        -11    1    3    3    0    0 -0.96845724902E+01 -0.16902152598E+02 -0.57468201192E+01  0.20310087358E+02  0.51100000000E-03 0.  1.
        -12    1    3    3    0    0  0.15754825863E+02  0.29033359236E+00 -0.68609725995E+01  0.17186383464E+02  0.00000000000E+00 0.  1.
</event>
<event>
 7    1  0.1138240E-011  0.5930217E+02  0.7816164E-02  0.1266604E+00
        -11   -1    0    0    0    0  0.00000000000E+00  0.00000000000E+00  0.45593999997E+02  0.45594000000E+02  0.51100000000E-03 0.  1.
         11   -1    0    0    0    0 -0.00000000000E+00 -0.00000000000E+00 -0.45593999997E+02  0.45594000000E+02  0.51100000000E-03 0. -1.
    9900012    2    1    2    0    0  0.78383941095E+01 -0.24417635769E+02 -0.18948473346E+02  0.59302172413E+02  0.50000416519E+02 0.  0.
        -12    1    1    2    0    0 -0.78383941095E+01  0.24417635769E+02  0.18948473346E+02  0.31885827587E+02  0.00000000000E+00 0.  1.
         11    1    3    3    0    0  0.11569692350E+02 -0.73359995129E+00 -0.14253072562E+02  0.18372425743E+02  0.51100000000E-03 0. -1.
        -11    1    3    3    0    0  0.11898997510E+02  0.41736224533E+00 -0.69568846186E+00  0.11926622140E+02  0.51100000000E-03 0.  1.
        -12    1    3    3    0    0 -0.15630295750E+02 -0.24101398063E+02 -0.39997123212E+01  0.29003124530E+02  0.00000000000E+00 0.  1.
</event>
<event>
 7    1  0.1138240E-011  0.5930195E+02  0.7816164E-02  0.1266605E+00
        -11   -1    0    0    0    0  0.00000000000E+00  0.00000000000E+00  0.45593999997E+02  0.45594000000E+02  0.51100000000E-03 0.  1.
         11   -1    0    0    0    0 -0.00000000000E+00 -0.00000000000E+00 -0.45593999997E+02  0.45594000000E+02  0.51100000000E-03 0. -1.
    9900012    2    1    2    0    0 -0.78399397560E+01  0.30905134727E+02  0.35795796542E+00  0.59301950672E+02  0.50000012117E+02 0.  0.
        -12    1    1    2    0    0  0.78399397560E+01 -0.30905134727E+02 -0.35795796542E+00  0.31886049328E+02  0.00000000000E+00 0.  1.
         11    1    3    3    0    0 -0.18974899850E+02  0.10719821161E+02 -0.94462583404E+01  0.23752751144E+02  0.51100000000E-03 0.  1.
        -11    1    3    3    0    0  0.12610924230E+02  0.12473301297E+01 -0.25003124768E+01  0.12916764499E+02  0.51100000000E-03 0. -1.
        -12    1    3    3    0    0 -0.14759641360E+01  0.18937983436E+02  0.12304528783E+02  0.22632435029E+02  0.00000000000E+00 0.  1.
</event>
<event>
 7    1  0.1138240E-011  0.5930196E+02  0.7816164E-02  0.1266605E+00
        -11   -1    0    0    0    0  0.00000000000E+00  0.00000000000E+00  0.45593999997E+02  0.45594000000E+02  0.51100000000E-03 0.  1.
         11   -1    0    0    0    0 -0.00000000000E+00 -0.00000000000E+00 -0.45593999997E+02  0.45594000000E+02  0.51100000000E-03 0. -1.
    9900012    2    1    2    0    0  0.95216832485E+01 -0.13350191573E+02 -0.27346473094E+02  0.59301958264E+02  0.50000025963E+02 0.  0.
        -12    1    1    2    0    0 -0.95216832485E+01  0.13350191573E+02  0.27346473094E+02  0.31886041736E+02  0.00000000000E+00 0.  1.
         11    1    3    3    0    0 -0.74221325973E+01 -0.47618071894E+01  0.60083263358E+01  0.10670653477E+02  0.51100000000E-03 0. -1.
        -11    1    3    3    0    0  0.17683343363E+02  0.69685898549E+01 -0.13113865931E+02  0.23091889420E+02  0.51100000000E-03 0.  1.
         12    1    3    3    0    0 -0.73952751718E+00 -0.15556974238E+02 -0.20240933499E+02  0.25539415367E+02  0.00000000000E+00 0. -1.
</event>
<event>
 7    1  0.1138240E-011  0.5930187E+02  0.7816164E-02  0.1266605E+00
        -11   -1    0    0    0    0  0.00000000000E+00  0.00000000000E+00  0.45593999997E+02  0.45594000000E+02  0.51100000000E-03 0.  1.
         11   -1    0    0    0    0 -0.00000000000E+00 -0.00000000000E+00 -0.45593999997E+02  0.45594000000E+02  0.51100000000E-03 0. -1.
    9900012    2    1    2    0    0  0.28862220953E+02  0.64408136727E+01  0.11925331253E+02  0.59301868146E+02  0.49999861610E+02 0.  0.
        -12    1    1    2    0    0 -0.28862220953E+02 -0.64408136727E+01 -0.11925331253E+02  0.31886131854E+02  0.00000000000E+00 0.  1.
         11    1    3    3    0    0 -0.90553541187E+01 -0.56036665188E+01 -0.42118300019E+01  0.11451638699E+02  0.51100000000E-03 0. -1.
        -11    1    3    3    0    0  0.12590336289E+02 -0.33072540854E+01 -0.19270038943E+01  0.13159325276E+02  0.51100000000E-03 0.  1.
        -12    1    3    3    0    0  0.25327238783E+02  0.15351734277E+02  0.18064165149E+02  0.34690904171E+02  0.00000000000E+00 0.  1.
</event>
<event>
 7    1  0.1138240E-011  0.5930194E+02  0.7816164E-02  0.1266605E+00
        -11   -1    0    0    0    0  0.00000000000E+00  0.00000000000E+00  0.45593999997E+02  0.45594000000E+02  0.51100000000E-03 0. -1.
         11   -1    0    0    0    0 -0.00000000000E+00 -0.00000000000E+00 -0.45593999997E+02  0.45594000000E+02  0.51100000000E-03 0.  1.
    9900012    2    1    2    0    0  0.44577387127E+01 -0.20749754220E+02  0.23796994995E+02  0.59301941833E+02  0.49999995997E+02 0.  0.
        -12    1    1    2    0    0 -0.44577387127E+01  0.20749754220E+02 -0.23796994995E+02  0.31886058167E+02  0.00000000000E+00 0.  1.
         11    1    3    3    0    0 -0.26952474001E+00  0.45042425969E+01 -0.25975737775E+00  0.45197698076E+01  0.51100000000E-03 0. -1.
        -11    1    3    3    0    0 -0.56305426300E+01 -0.50250486814E+01 -0.10797291593E+02  0.13173292320E+02  0.51100000000E-03 0.  1.
         12    1    3    3    0    0  0.10357806083E+02 -0.20228948136E+02  0.34854043966E+02  0.41608879705E+02  0.00000000000E+00 0. -1.
</event>
<event>
 7    1  0.1138240E-011  0.5930196E+02  0.7816164E-02  0.1266605E+00
        -11   -1    0    0    0    0  0.00000000000E+00  0.00000000000E+00  0.45593999997E+02  0.45594000000E+02  0.51100000000E-03 0. -1.
         11   -1    0    0    0    0 -0.00000000000E+00 -0.00000000000E+00 -0.45593999997E+02  0.45594000000E+02  0.51100000000E-03 0.  1.
    9900012    2    1    2    0    0  0.57156741974E+01  0.19880954178E+02  0.24265166360E+02  0.59301959653E+02  0.50000028497E+02 0.  0.
        -12    1    1    2    0    0 -0.57156741974E+01 -0.19880954178E+02 -0.24265166360E+02  0.31886040347E+02  0.00000000000E+00 0.  1.
         11    1    3    3    0    0 -0.56802722261E+01 -0.71648298599E+01  0.66014347397E+01  0.11277376484E+02  0.51100000000E-03 0. -1.
        -11    1    3    3    0    0 -0.99514008218E+01  0.18610925200E+02  0.45502469820E+01  0.21589387740E+02  0.51100000000E-03 0.  1.
         12    1    3    3    0    0  0.21347347245E+02  0.84348588378E+01  0.13113484638E+02  0.26435195429E+02  0.00000000000E+00 0. -1.
</event>
<event>
 7    1  0.1138240E-011  0.5930193E+02  0.7816164E-02  0.1266605E+00
        -11   -1    0    0    0    0  0.00000000000E+00  0.00000000000E+00  0.45593999997E+02  0.45594000000E+02  0.51100000000E-03 0. -1.
         11   -1    0    0    0    0 -0.00000000000E+00 -0.00000000000E+00 -0.45593999997E+02  0.45594000000E+02  0.51100000000E-03 0.  1.
    9900012    2    1    2    0    0  0.21842499208E+02 -0.17632250675E+02  0.15123828322E+02  0.59301933785E+02  0.49999981320E+02 0.  0.
        -12    1    1    2    0    0 -0.21842499208E+02  0.17632250675E+02 -0.15123828322E+02  0.31886066215E+02  0.00000000000E+00 0.  1.
         11    1    3    3    0    0 -0.38918793729E+01 -0.18283164683E+02 -0.65001104191E+01  0.19790711751E+02  0.51100000000E-03 0. -1.
        -11    1    3    3    0    0  0.13312631275E+02 -0.91179553937E+01  0.16037343727E+02  0.22749937497E+02  0.51100000000E-03 0.  1.
        -12    1    3    3    0    0  0.12421747306E+02  0.97688694012E+01  0.55865950134E+01  0.16761284538E+02  0.00000000000E+00 0.  1.
</event>
<event>
 7    1  0.1138240E-011  0.5930196E+02  0.7816164E-02  0.1266605E+00
        -11   -1    0    0    0    0  0.00000000000E+00  0.00000000000E+00  0.45593999997E+02  0.45594000000E+02  0.51100000000E-03 0.  1.
         11   -1    0    0    0    0 -0.00000000000E+00 -0.00000000000E+00 -0.45593999997E+02  0.45594000000E+02  0.51100000000E-03 0. -1.
    9900012    2    1    2    0    0 -0.18368765198E+02  0.17942540634E+01 -0.26001702790E+02  0.59301961824E+02  0.50000032457E+02 0.  0.
        -12    1    1    2    0    0  0.18368765198E+02 -0.17942540634E+01  0.26001702790E+02  0.31886038176E+02  0.00000000000E+00 0.  1.
         11    1    3    3    0    0  0.78075367290E+01 -0.15010723125E+02 -0.74116491282E+01  0.18471924144E+02  0.51100000000E-03 0.  1.
        -11    1    3    3    0    0 -0.10446201818E+02 -0.31531634673E+01 -0.48443992201E+01  0.11938751037E+02  0.51100000000E-03 0. -1.
        -12    1    3    3    0    0 -0.15730100109E+02  0.19958140656E+02 -0.13745654442E+02  0.28891286644E+02  0.00000000000E+00 0.  1.
</event>
<event>
 7    1  0.1138240E-011  0.5930196E+02  0.7816164E-02  0.1266605E+00
        -11   -1    0    0    0    0  0.00000000000E+00  0.00000000000E+00  0.45593999997E+02  0.45594000000E+02  0.51100000000E-03 0.  1.
         11   -1    0    0    0    0 -0.00000000000E+00 -0.00000000000E+00 -0.45593999997E+02  0.45594000000E+02  0.51100000000E-03 0. -1.
    9900012    2    1    2    0    0  0.72900135409E+01  0.79356085126E+01 -0.30010022354E+02  0.59301958828E+02  0.50000026993E+02 0.  0.
        -12    1    1    2    0    0 -0.72900135409E+01 -0.79356085126E+01  0.30010022354E+02  0.31886041172E+02  0.00000000000E+00 0.  1.
         11    1    3    3    0    0 -0.46807638367E+01 -0.33695790973E+01 -0.58847133721E+01  0.82397490933E+01  0.51100000000E-03 0. -1.
        -11    1    3    3    0    0  0.69781691127E+01 -0.93286656780E+01  0.68467972340E+01  0.13512863506E+02  0.51100000000E-03 0.  1.
         12    1    3    3    0    0  0.49926082648E+01  0.20633853288E+02 -0.30972106216E+02  0.37549346229E+02  0.00000000000E+00 0. -1.
</event>
<event>
 7    1  0.1138240E-011  0.5930195E+02  0.7816164E-02  0.1266605E+00
        -11   -1    0    0    0    0  0.00000000000E+00  0.00000000000E+00  0.45593999997E+02  0.45594000000E+02  0.51100000000E-03 0.  1.
         11   -1    0    0    0    0 -0.00000000000E+00 -0.00000000000E+00 -0.45593999997E+02  0.45594000000E+02  0.51100000000E-03 0. -1.
    9900012    2    1    2    0    0 -0.25999319394E+02  0.16967603060E+02  0.72702280542E+01  0.59301946959E+02  0.50000005346E+02 0.  0.
        -12    1    1    2    0    0  0.25999319394E+02 -0.16967603060E+02 -0.72702280542E+01  0.31886053041E+02  0.00000000000E+00 0.  1.
         11    1    3    3    0    0  0.56414263594E+01  0.39832275632E+01 -0.42589339231E+01  0.81135880848E+01  0.51100000000E-03 0. -1.
        -11    1    3    3    0    0 -0.17182688273E+02  0.25152856510E+02  0.10653299209E+02  0.32270787892E+02  0.51100000000E-03 0.  1.
        -12    1    3    3    0    0 -0.14458057480E+02 -0.12168481012E+02  0.87586276800E+00  0.18917570982E+02  0.00000000000E+00 0.  1.
</event>
<event>
 7    1  0.1138240E-011  0.5930194E+02  0.7816164E-02  0.1266605E+00
        -11   -1    0    0    0    0  0.00000000000E+00  0.00000000000E+00  0.45593999997E+02  0.45594000000E+02  0.51100000000E-03 0.  1.
         11   -1    0    0    0    0 -0.00000000000E+00 -0.00000000000E+00 -0.45593999997E+02  0.45594000000E+02  0.51100000000E-03 0. -1.
    9900012    2    1    2    0    0  0.21884871636E+02  0.21882878966E+02 -0.76754570913E+01  0.59301942860E+02  0.49999997871E+02 0.  0.
        -12    1    1    2    0    0 -0.21884871636E+02 -0.21882878966E+02  0.76754570913E+01  0.31886057140E+02  0.00000000000E+00 0.  1.
         11    1    3    3    0    0  0.13158665655E+02  0.91546554481E+01 -0.18203697139E+02  0.24255572308E+02  0.51100000000E-03 0. -1.
        -11    1    3    3    0    0 -0.20252231701E+01  0.40867288794E+00 -0.91963649892E+01  0.94255860133E+01  0.51100000000E-03 0.  1.
        -12    1    3    3    0    0  0.10751429151E+02  0.12319550630E+02  0.19724605037E+02  0.25620784539E+02  0.00000000000E+00 0.  1.
</event>
<event>
 7    1  0.1138240E-011  0.5930196E+02  0.7816164E-02  0.1266605E+00
        -11   -1    0    0    0    0  0.00000000000E+00  0.00000000000E+00  0.45593999997E+02  0.45594000000E+02  0.51100000000E-03 0. -1.
         11   -1    0    0    0    0 -0.00000000000E+00 -0.00000000000E+00 -0.45593999997E+02  0.45594000000E+02  0.51100000000E-03 0.  1.
    9900012    2    1    2    0    0 -0.10038616821E+02  0.14826381534E+02  0.26384163352E+02  0.59301960848E+02  0.50000030675E+02 0.  0.
        -12    1    1    2    0    0  0.10038616821E+02 -0.14826381534E+02 -0.26384163352E+02  0.31886039152E+02  0.00000000000E+00 0.  1.
         11    1    3    3    0    0  0.61158508137E+01  0.22326039958E+01 -0.13737902516E+01  0.66539801393E+01  0.51100000000E-03 0. -1.
        -11    1    3    3    0    0 -0.12623055293E+02  0.57505750064E+01 -0.80388377903E+01  0.16032265939E+02  0.51100000000E-03 0.  1.
         12    1    3    3    0    0 -0.35314123412E+01  0.68432025314E+01  0.35796791394E+02  0.36615714770E+02  0.00000000000E+00 0. -1.
</event>
<event>
 7    1  0.1138240E-011  0.5930196E+02  0.7816164E-02  0.1266605E+00
        -11   -1    0    0    0    0  0.00000000000E+00  0.00000000000E+00  0.45593999997E+02  0.45594000000E+02  0.51100000000E-03 0.  1.
         11   -1    0    0    0    0 -0.00000000000E+00 -0.00000000000E+00 -0.45593999997E+02  0.45594000000E+02  0.51100000000E-03 0. -1.
    9900012    2    1    2    0    0 -0.26251783422E+02 -0.15881516187E+02  0.86799052153E+01  0.59301961617E+02  0.50000032078E+02 0.  0.
        -12    1    1    2    0    0  0.26251783422E+02  0.15881516187E+02 -0.86799052153E+01  0.31886038383E+02  0.00000000000E+00 0.  1.
         11    1    3    3    0    0 -0.16520576171E+02  0.70800484635E+01 -0.34639963798E+01  0.18304529343E+02  0.51100000000E-03 0.  1.
        -11    1    3    3    0    0 -0.73418761525E+01  0.61507480106E+01  0.54873146607E+01  0.11038363510E+02  0.51100000000E-03 0. -1.
        -12    1    3    3    0    0 -0.23893310982E+01 -0.29112312662E+02  0.66565869344E+01  0.29959068764E+02  0.00000000000E+00 0.  1.
</event>
<event>
 7    1  0.1138240E-011  0.5930232E+02  0.7816164E-02  0.1266603E+00
        -11   -1    0    0    0    0  0.00000000000E+00  0.00000000000E+00  0.45593999997E+02  0.45594000000E+02  0.51100000000E-03 0.  1.
         11   -1    0    0    0    0 -0.00000000000E+00 -0.00000000000E+00 -0.45593999997E+02  0.45594000000E+02  0.51100000000E-03 0. -1.
    9900012    2    1    2    0    0  0.93298106184E+01  0.25557541011E+02 -0.16627194819E+02  0.59302315497E+02  0.50000677466E+02 0.  0.
        -12    1    1    2    0    0 -0.93298106184E+01 -0.25557541011E+02  0.16627194819E+02  0.31885684503E+02  0.00000000000E+00 0.  1.
         11    1    3    3    0    0  0.62647897488E+01 -0.11993254072E+01  0.31524878371E+01  0.71150651334E+01  0.51100000000E-03 0. -1.
        -11    1    3    3    0    0  0.56276717722E+01  0.18896959650E+02  0.94113808607E+01  0.21848108924E+02  0.51100000000E-03 0.  1.
         12    1    3    3    0    0 -0.25626509027E+01  0.78599067676E+01 -0.29191063516E+02  0.30339141439E+02  0.00000000000E+00 0. -1.
</event>
<event>
 7    1  0.1138240E-011  0.5930193E+02  0.7816164E-02  0.1266605E+00
        -11   -1    0    0    0    0  0.00000000000E+00  0.00000000000E+00  0.45593999997E+02  0.45594000000E+02  0.51100000000E-03 0.  1.
         11   -1    0    0    0    0 -0.00000000000E+00 -0.00000000000E+00 -0.45593999997E+02  0.45594000000E+02  0.51100000000E-03 0. -1.
    9900012    2    1    2    0    0 -0.22218304384E+02  0.20231420228E+02  0.10665746421E+02  0.59301928419E+02  0.49999971534E+02 0.  0.
        -12    1    1    2    0    0  0.22218304384E+02 -0.20231420228E+02 -0.10665746421E+02  0.31886071581E+02  0.00000000000E+00 0.  1.
         11    1    3    3    0    0  0.40771331487E+01  0.68239442535E+00 -0.51119786932E+01  0.65742682699E+01  0.51100000000E-03 0. -1.
        -11    1    3    3    0    0 -0.32738286256E+01 -0.11286243230E+02  0.24532627542E+01  0.12004821469E+02  0.51100000000E-03 0.  1.
        -12    1    3    3    0    0 -0.23021608907E+02  0.30835269032E+02  0.13324462360E+02  0.40722838680E+02  0.00000000000E+00 0.  1.
</event>
<event>
 7    1  0.1138240E-011  0.5930195E+02  0.7816164E-02  0.1266605E+00
        -11   -1    0    0    0    0  0.00000000000E+00  0.00000000000E+00  0.45593999997E+02  0.45594000000E+02  0.51100000000E-03 0.  1.
         11   -1    0    0    0    0 -0.00000000000E+00 -0.00000000000E+00 -0.45593999997E+02  0.45594000000E+02  0.51100000000E-03 0. -1.
    9900012    2    1    2    0    0 -0.23399656782E+02 -0.20883745892E+02 -0.57485160458E+01  0.59301949496E+02  0.50000009974E+02 0.  0.
        -12    1    1    2    0    0  0.23399656782E+02  0.20883745892E+02  0.57485160458E+01  0.31886050504E+02  0.00000000000E+00 0.  1.
         11    1    3    3    0    0 -0.25418398835E+01 -0.41015853136E+01 -0.22520849655E+02  0.23031991263E+02  0.51100000000E-03 0. -1.
        -11    1    3    3    0    0  0.27271052666E+01 -0.23960918379E+01 -0.53600361294E+00  0.36695584700E+01  0.51100000000E-03 0.  1.
        -12    1    3    3    0    0 -0.23584922165E+02 -0.14386068740E+02  0.17308337222E+02  0.32600399763E+02  0.00000000000E+00 0.  1.
</event>
<event>
 7    1  0.1138240E-011  0.5930195E+02  0.7816164E-02  0.1266605E+00
        -11   -1    0    0    0    0  0.00000000000E+00  0.00000000000E+00  0.45593999997E+02  0.45594000000E+02  0.51100000000E-03 0. -1.
         11   -1    0    0    0    0 -0.00000000000E+00 -0.00000000000E+00 -0.45593999997E+02  0.45594000000E+02  0.51100000000E-03 0.  1.
    9900012    2    1    2    0    0 -0.78065297755E+01  0.26501869036E+02  0.15919456508E+02  0.59301951875E+02  0.50000014312E+02 0.  0.
        -12    1    1    2    0    0  0.78065297755E+01 -0.26501869036E+02 -0.15919456508E+02  0.31886048125E+02  0.00000000000E+00 0.  1.
         11    1    3    3    0    0 -0.10981813745E+02  0.22553877207E+02  0.10523553096E+02  0.27203359723E+02  0.51100000000E-03 0. -1.
        -11    1    3    3    0    0 -0.25990498669E+01  0.45412610305E+01  0.17719733848E+02  0.18476121884E+02  0.51100000000E-03 0.  1.
         12    1    3    3    0    0  0.57743338367E+01 -0.59326920171E+00 -0.12323830436E+02  0.13622470268E+02  0.00000000000E+00 0. -1.
</event>
<event>
 7    1  0.1138240E-011  0.5930233E+02  0.7816164E-02  0.1266603E+00
        -11   -1    0    0    0    0  0.00000000000E+00  0.00000000000E+00  0.45593999997E+02  0.45594000000E+02  0.51100000000E-03 0.  1.
         11   -1    0    0    0    0 -0.00000000000E+00 -0.00000000000E+00 -0.45593999997E+02  0.45594000000E+02  0.51100000000E-03 0. -1.
    9900012    2    1    2    0    0 -0.11904101036E+02  0.27047818263E+02 -0.11975124855E+02  0.59302333791E+02  0.50000710830E+02 0.  0.
        -12    1    1    2    0    0  0.11904101036E+02 -0.27047818263E+02  0.11975124855E+02  0.31885666209E+02  0.00000000000E+00 0.  1.
         11    1    3    3    0    0 -0.12413710428E+02  0.23795735871E+02 -0.94000186200E+01  0.28437608946E+02  0.51100000000E-03 0. -1.
        -11    1    3    3    0    0  0.40484087257E+01  0.13544463831E+02 -0.10323331347E+02  0.17504664637E+02  0.51100000000E-03 0.  1.
        -12    1    3    3    0    0 -0.35387993332E+01 -0.10292381438E+02  0.77482251128E+01  0.13360060209E+02  0.00000000000E+00 0.  1.
</event>
<event>
 7    1  0.1138240E-011  0.5930194E+02  0.7816164E-02  0.1266605E+00
        -11   -1    0    0    0    0  0.00000000000E+00  0.00000000000E+00  0.45593999997E+02  0.45594000000E+02  0.51100000000E-03 0. -1.
         11   -1    0    0    0    0 -0.00000000000E+00 -0.00000000000E+00 -0.45593999997E+02  0.45594000000E+02  0.51100000000E-03 0.  1.
    9900012    2    1    2    0    0  0.10191394342E+02 -0.26835694633E+02  0.13881695935E+02  0.59301944943E+02  0.50000001669E+02 0.  0.
        -12    1    1    2    0    0 -0.10191394342E+02  0.26835694633E+02 -0.13881695935E+02  0.31886055057E+02  0.00000000000E+00 0.  1.
         11    1    3    3    0    0  0.99244603555E+01 -0.13329503677E+02  0.19088329919E+02  0.25308791378E+02  0.51100000000E-03 0. -1.
        -11    1    3    3    0    0 -0.16549219121E+01  0.76373029468E+01  0.61238950266E+01  0.99282049432E+01  0.51100000000E-03 0.  1.
        -12    1    3    3    0    0  0.19218558984E+01 -0.21143493903E+02 -0.11330529011E+02  0.24064948622E+02  0.00000000000E+00 0.  1.
</event>
<event>
 7    1  0.1138240E-011  0.5930197E+02  0.7816164E-02  0.1266605E+00
        -11   -1    0    0    0    0  0.00000000000E+00  0.00000000000E+00  0.45593999997E+02  0.45594000000E+02  0.51100000000E-03 0.  1.
         11   -1    0    0    0    0 -0.00000000000E+00 -0.00000000000E+00 -0.45593999997E+02  0.45594000000E+02  0.51100000000E-03 0. -1.
    9900012    2    1    2    0    0 -0.55499964378E+00 -0.31879494265E+02 -0.32955314717E+00  0.59301971955E+02  0.50000050933E+02 0.  0.
        -12    1    1    2    0    0  0.55499964378E+00  0.31879494265E+02  0.32955314717E+00  0.31886028045E+02  0.00000000000E+00 0.  1.
         11    1    3    3    0    0 -0.85655387035E+01 -0.14628741405E+01 -0.42566652759E+01  0.96761383601E+01  0.51100000000E-03 0. -1.
        -11    1    3    3    0    0 -0.16818976217E+01 -0.11912559151E+02 -0.16492661002E+02  0.20414350647E+02  0.51100000000E-03 0.  1.
        -12    1    3    3    0    0  0.96924366814E+01 -0.18504060973E+02  0.20419773131E+02  0.29211482948E+02  0.00000000000E+00 0.  1.
</event>
<event>
 7    1  0.1138240E-011  0.5930193E+02  0.7816164E-02  0.1266605E+00
        -11   -1    0    0    0    0  0.00000000000E+00  0.00000000000E+00  0.45593999997E+02  0.45594000000E+02  0.51100000000E-03 0.  1.
         11   -1    0    0    0    0 -0.00000000000E+00 -0.00000000000E+00 -0.45593999997E+02  0.45594000000E+02  0.51100000000E-03 0. -1.
    9900012    2    1    2    0    0  0.24400617927E+02  0.98087619859E+00 -0.20502912365E+02  0.59301926413E+02  0.49999967875E+02 0.  0.
        -12    1    1    2    0    0 -0.24400617927E+02 -0.98087619859E+00  0.20502912365E+02  0.31886073587E+02  0.00000000000E+00 0.  1.
         11    1    3    3    0    0  0.23642116623E+02  0.12210312193E+02 -0.16708122282E+02  0.31419782824E+02  0.51100000000E-03 0. -1.
        -11    1    3    3    0    0  0.10599265973E+02  0.20250265773E+01  0.57200934999E+00  0.10806126353E+02  0.51100000000E-03 0.  1.
        -12    1    3    3    0    0 -0.98407646693E+01 -0.13254462572E+02 -0.43667994334E+01  0.17076017236E+02  0.00000000000E+00 0.  1.
</event>
<event>
 7    1  0.1138240E-011  0.5930202E+02  0.7816164E-02  0.1266605E+00
        -11   -1    0    0    0    0  0.00000000000E+00  0.00000000000E+00  0.45593999997E+02  0.45594000000E+02  0.51100000000E-03 0. -1.
         11   -1    0    0    0    0 -0.00000000000E+00 -0.00000000000E+00 -0.45593999997E+02  0.45594000000E+02  0.51100000000E-03 0.  1.
    9900012    2    1    2    0    0 -0.10570999970E+02  0.16283127186E+02  0.25294853713E+02  0.59302017254E+02  0.50000133546E+02 0.  0.
        -12    1    1    2    0    0  0.10570999970E+02 -0.16283127186E+02 -0.25294853713E+02  0.31885982746E+02  0.00000000000E+00 0.  1.
         11    1    3    3    0    0  0.88907887721E+01  0.10088789844E+02 -0.16043484171E+01  0.13542663682E+02  0.51100000000E-03 0. -1.
        -11    1    3    3    0    0 -0.77521556329E+01  0.48719229498E+00 -0.63606916123E+01  0.10039505532E+02  0.51100000000E-03 0.  1.
         12    1    3    3    0    0 -0.11709633110E+02  0.57071450468E+01  0.33259893743E+02  0.35719848039E+02  0.00000000000E+00 0. -1.
</event>
<event>
 7    1  0.1138240E-011  0.5930195E+02  0.7816164E-02  0.1266605E+00
        -11   -1    0    0    0    0  0.00000000000E+00  0.00000000000E+00  0.45593999997E+02  0.45594000000E+02  0.51100000000E-03 0.  1.
         11   -1    0    0    0    0 -0.00000000000E+00 -0.00000000000E+00 -0.45593999997E+02  0.45594000000E+02  0.51100000000E-03 0. -1.
    9900012    2    1    2    0    0 -0.26813129815E+02 -0.11815507201E+02 -0.12576558573E+02  0.59301953421E+02  0.50000017132E+02 0.  0.
        -12    1    1    2    0    0  0.26813129815E+02  0.11815507201E+02  0.12576558573E+02  0.31886046579E+02  0.00000000000E+00 0.  1.
         11    1    3    3    0    0 -0.85086457809E+01  0.11392366248E+01 -0.12125740943E+01  0.86697894615E+01  0.51100000000E-03 0. -1.
        -11    1    3    3    0    0 -0.17990393611E+02 -0.15242609179E+01  0.13975674457E+02  0.22831931815E+02  0.51100000000E-03 0.  1.
        -12    1    3    3    0    0 -0.31409042257E+00 -0.11430482908E+02 -0.25339658936E+02  0.27800232145E+02  0.00000000000E+00 0.  1.
</event>
<event>
 7    1  0.1138240E-011  0.5930195E+02  0.7816164E-02  0.1266605E+00
        -11   -1    0    0    0    0  0.00000000000E+00  0.00000000000E+00  0.45593999997E+02  0.45594000000E+02  0.51100000000E-03 0. -1.
         11   -1    0    0    0    0 -0.00000000000E+00 -0.00000000000E+00 -0.45593999997E+02  0.45594000000E+02  0.51100000000E-03 0.  1.
    9900012    2    1    2    0    0 -0.87638715219E+01  0.26024632791E+02 -0.16205962603E+02  0.59301950074E+02  0.50000011027E+02 0.  0.
        -12    1    1    2    0    0  0.87638715219E+01 -0.26024632791E+02  0.16205962603E+02  0.31886049926E+02  0.00000000000E+00 0.  1.
         11    1    3    3    0    0 -0.12676805448E+02  0.11042276209E+02  0.59793221589E+01  0.17843361622E+02  0.51100000000E-03 0. -1.
        -11    1    3    3    0    0  0.33376818308E+01  0.23111247179E+02 -0.23585964128E+02  0.33189871502E+02  0.51100000000E-03 0.  1.
         12    1    3    3    0    0  0.57525209570E+00 -0.81288905968E+01  0.14006793665E+01  0.82687169498E+01  0.00000000000E+00 0. -1.
</event>
<event>
 7    1  0.1138240E-011  0.5930194E+02  0.7816164E-02  0.1266605E+00
        -11   -1    0    0    0    0  0.00000000000E+00  0.00000000000E+00  0.45593999997E+02  0.45594000000E+02  0.51100000000E-03 0. -1.
         11   -1    0    0    0    0 -0.00000000000E+00 -0.00000000000E+00 -0.45593999997E+02  0.45594000000E+02  0.51100000000E-03 0.  1.
    9900012    2    1    2    0    0 -0.28511028643E+01 -0.31666174913E+02  0.24177256458E+01  0.59301940061E+02  0.49999992766E+02 0.  0.
        -12    1    1    2    0    0  0.28511028643E+01  0.31666174913E+02 -0.24177256458E+01  0.31886059939E+02  0.00000000000E+00 0.  1.
         11    1    3    3    0    0 -0.55594685411E+01 -0.16194036423E+02  0.19280437259E+02  0.25785456507E+02  0.51100000000E-03 0. -1.
        -11    1    3    3    0    0 -0.94651143935E+01 -0.41720569631E+01 -0.74273329994E+00  0.10370443713E+02  0.51100000000E-03 0.  1.
        -12    1    3    3    0    0  0.12173480070E+02 -0.11300081526E+02 -0.16119978313E+02  0.23146039841E+02  0.00000000000E+00 0.  1.
</event>
<event>
 7    1  0.1138240E-011  0.5930189E+02  0.7816164E-02  0.1266605E+00
        -11   -1    0    0    0    0  0.00000000000E+00  0.00000000000E+00  0.45593999997E+02  0.45594000000E+02  0.51100000000E-03 0.  1.
         11   -1    0    0    0    0 -0.00000000000E+00 -0.00000000000E+00 -0.45593999997E+02  0.45594000000E+02  0.51100000000E-03 0. -1.
    9900012    2    1    2    0    0 -0.29224947348E+02  0.11626766513E+02 -0.52387776785E+01  0.59301889567E+02  0.49999900676E+02 0.  0.
        -12    1    1    2    0    0  0.29224947348E+02 -0.11626766513E+02  0.52387776785E+01  0.31886110433E+02  0.00000000000E+00 0.  1.
         11    1    3    3    0    0 -0.30333643085E+02  0.90829497841E+01 -0.12862290085E+02  0.34177015465E+02  0.51100000000E-03 0. -1.
        -11    1    3    3    0    0 -0.36882940894E+01  0.28929569019E+01 -0.77274692677E+01  0.90380581139E+01  0.51100000000E-03 0.  1.
        -12    1    3    3    0    0  0.47969898268E+01 -0.34914017338E+00  0.15350981674E+02  0.16086815988E+02  0.00000000000E+00 0.  1.
</event>
<event>
 7    1  0.1138240E-011  0.5930194E+02  0.7816164E-02  0.1266605E+00
        -11   -1    0    0    0    0  0.00000000000E+00  0.00000000000E+00  0.45593999997E+02  0.45594000000E+02  0.51100000000E-03 0.  1.
         11   -1    0    0    0    0 -0.00000000000E+00 -0.00000000000E+00 -0.45593999997E+02  0.45594000000E+02  0.51100000000E-03 0. -1.
    9900012    2    1    2    0    0  0.25945932349E+02 -0.13832915384E+02 -0.12336110245E+02  0.59301943965E+02  0.49999999885E+02 0.  0.
        -12    1    1    2    0    0 -0.25945932349E+02  0.13832915384E+02  0.12336110245E+02  0.31886056035E+02  0.00000000000E+00 0.  1.
         11    1    3    3    0    0  0.11692014471E+02 -0.99051596818E+01 -0.24624570536E+02  0.29003187153E+02  0.51100000000E-03 0. -1.
        -11    1    3    3    0    0  0.54588828481E+01  0.91519743546E+01  0.59486169351E+00  0.10672951664E+02  0.51100000000E-03 0.  1.
        -12    1    3    3    0    0  0.87950350301E+01 -0.13079730057E+02  0.11693598597E+02  0.19625805147E+02  0.00000000000E+00 0.  1.
</event>
<event>
 7    1  0.1138240E-011  0.5930185E+02  0.7816164E-02  0.1266605E+00
        -11   -1    0    0    0    0  0.00000000000E+00  0.00000000000E+00  0.45593999997E+02  0.45594000000E+02  0.51100000000E-03 0. -1.
         11   -1    0    0    0    0 -0.00000000000E+00 -0.00000000000E+00 -0.45593999997E+02  0.45594000000E+02  0.51100000000E-03 0.  1.
    9900012    2    1    2    0    0 -0.99833034589E+01  0.79547991912E+01  0.29219533187E+02  0.59301854140E+02  0.49999836066E+02 0.  0.
        -12    1    1    2    0    0  0.99833034589E+01 -0.79547991912E+01 -0.29219533187E+02  0.31886145860E+02  0.00000000000E+00 0.  1.
         11    1    3    3    0    0 -0.10795474795E+02  0.82154172356E+01  0.12247923536E+02  0.18276952361E+02  0.51100000000E-03 0. -1.
        -11    1    3    3    0    0 -0.15692949324E+02 -0.85058238983E+01  0.13182082834E+02  0.22189750039E+02  0.51100000000E-03 0.  1.
        -12    1    3    3    0    0  0.16505120660E+02  0.82452058539E+01  0.37895268178E+01  0.18835151740E+02  0.00000000000E+00 0.  1.
</event>
<event>
 7    1  0.1138240E-011  0.5930194E+02  0.7816164E-02  0.1266605E+00
        -11   -1    0    0    0    0  0.00000000000E+00  0.00000000000E+00  0.45593999997E+02  0.45594000000E+02  0.51100000000E-03 0.  1.
         11   -1    0    0    0    0 -0.00000000000E+00 -0.00000000000E+00 -0.45593999997E+02  0.45594000000E+02  0.51100000000E-03 0. -1.
    9900012    2    1    2    0    0 -0.17815803222E+02  0.15255718211E+02 -0.21600480104E+02  0.59301944689E+02  0.50000001207E+02 0.  0.
        -12    1    1    2    0    0  0.17815803222E+02 -0.15255718211E+02  0.21600480104E+02  0.31886055311E+02  0.00000000000E+00 0.  1.
         11    1    3    3    0    0 -0.75823571344E+01  0.10977961503E+02 -0.15324560032E+02  0.20318708594E+02  0.51100000000E-03 0. -1.
        -11    1    3    3    0    0 -0.10140026495E+01  0.93483289030E+01 -0.19757924630E+02  0.21881385711E+02  0.51100000000E-03 0.  1.
        -12    1    3    3    0    0 -0.92194434377E+01 -0.50705721957E+01  0.13482004558E+02  0.17101850385E+02  0.00000000000E+00 0.  1.
</event>
<event>
 7    1  0.1138240E-011  0.5930194E+02  0.7816164E-02  0.1266605E+00
        -11   -1    0    0    0    0  0.00000000000E+00  0.00000000000E+00  0.45593999997E+02  0.45594000000E+02  0.51100000000E-03 0. -1.
         11   -1    0    0    0    0 -0.00000000000E+00 -0.00000000000E+00 -0.45593999997E+02  0.45594000000E+02  0.51100000000E-03 0.  1.
    9900012    2    1    2    0    0  0.98122394432E+01 -0.27996778949E+02 -0.11688503200E+02  0.59301940641E+02  0.49999993823E+02 0.  0.
        -12    1    1    2    0    0 -0.98122394432E+01  0.27996778949E+02  0.11688503200E+02  0.31886059359E+02  0.00000000000E+00 0.  1.
         11    1    3    3    0    0  0.83308849183E+01  0.12057836861E+02 -0.38345244151E+01  0.15149212885E+02  0.51100000000E-03 0. -1.
        -11    1    3    3    0    0  0.37707279629E+01 -0.35773169889E+01 -0.54401788147E+01  0.75240369488E+01  0.51100000000E-03 0.  1.
         12    1    3    3    0    0 -0.22893734380E+01 -0.36477298820E+02 -0.24137999702E+01  0.36628690807E+02  0.00000000000E+00 0. -1.
</event>
<event>
 7    1  0.1138240E-011  0.5930195E+02  0.7816164E-02  0.1266605E+00
        -11   -1    0    0    0    0  0.00000000000E+00  0.00000000000E+00  0.45593999997E+02  0.45594000000E+02  0.51100000000E-03 0.  1.
         11   -1    0    0    0    0 -0.00000000000E+00 -0.00000000000E+00 -0.45593999997E+02  0.45594000000E+02  0.51100000000E-03 0. -1.
    9900012    2    1    2    0    0 -0.90690100114E+01 -0.54933511169E+01 -0.30071520871E+02  0.59301949499E+02  0.50000009977E+02 0.  0.
        -12    1    1    2    0    0  0.90690100114E+01  0.54933511169E+01  0.30071520871E+02  0.31886050501E+02  0.00000000000E+00 0.  1.
         11    1    3    3    0    0 -0.23189267599E+02  0.18615914252E+01 -0.23111532371E+02  0.32792538530E+02  0.51100000000E-03 0. -1.
        -11    1    3    3    0    0  0.43189336928E+01 -0.13388076905E+02 -0.36388125122E+01  0.14530476531E+02  0.51100000000E-03 0.  1.
        -12    1    3    3    0    0  0.98013238950E+01  0.60331343627E+01 -0.33211759881E+01  0.11978934438E+02  0.00000000000E+00 0.  1.
</event>
<event>
 7    1  0.1138240E-011  0.5930197E+02  0.7816164E-02  0.1266605E+00
        -11   -1    0    0    0    0  0.00000000000E+00  0.00000000000E+00  0.45593999997E+02  0.45594000000E+02  0.51100000000E-03 0.  1.
         11   -1    0    0    0    0 -0.00000000000E+00 -0.00000000000E+00 -0.45593999997E+02  0.45594000000E+02  0.51100000000E-03 0. -1.
    9900012    2    1    2    0    0  0.17608541104E+02  0.40627503482E+01 -0.26270748206E+02  0.59301970591E+02  0.50000048445E+02 0.  0.
        -12    1    1    2    0    0 -0.17608541104E+02 -0.40627503482E+01  0.26270748206E+02  0.31886029409E+02  0.00000000000E+00 0.  1.
         11    1    3    3    0    0  0.53077078464E+01  0.84248105323E+01 -0.67204912476E+01  0.12013084448E+02  0.51100000000E-03 0. -1.
        -11    1    3    3    0    0 -0.90288067026E+01  0.53781708690E+01  0.64074310342E+01  0.12308502959E+02  0.51100000000E-03 0.  1.
         12    1    3    3    0    0  0.21329639960E+02 -0.97402310531E+01 -0.25957687992E+02  0.34980383184E+02  0.00000000000E+00 0. -1.
</event>
<event>
 7    1  0.1138240E-011  0.5930195E+02  0.7816164E-02  0.1266605E+00
        -11   -1    0    0    0    0  0.00000000000E+00  0.00000000000E+00  0.45593999997E+02  0.45594000000E+02  0.51100000000E-03 0.  1.
         11   -1    0    0    0    0 -0.00000000000E+00 -0.00000000000E+00 -0.45593999997E+02  0.45594000000E+02  0.51100000000E-03 0. -1.
    9900012    2    1    2    0    0 -0.19156593562E+02 -0.15673273190E+02 -0.20102072171E+02  0.59301954855E+02  0.50000019747E+02 0.  0.
        -12    1    1    2    0    0  0.19156593562E+02  0.15673273190E+02  0.20102072171E+02  0.31886045145E+02  0.00000000000E+00 0.  1.
         11    1    3    3    0    0 -0.69858625322E+01  0.52050140590E+01 -0.38146542211E+01  0.95103119696E+01  0.51100000000E-03 0. -1.
        -11    1    3    3    0    0 -0.21754305918E+02 -0.26522557864E+02 -0.63687587109E+01  0.34889210214E+02  0.51100000000E-03 0.  1.
         12    1    3    3    0    0  0.95835748886E+01  0.56442706147E+01 -0.99186592394E+01  0.14902432671E+02  0.00000000000E+00 0. -1.
</event>
<event>
 7    1  0.1138240E-011  0.5930188E+02  0.7816164E-02  0.1266605E+00
        -11   -1    0    0    0    0  0.00000000000E+00  0.00000000000E+00  0.45593999997E+02  0.45594000000E+02  0.51100000000E-03 0. -1.
         11   -1    0    0    0    0 -0.00000000000E+00 -0.00000000000E+00 -0.45593999997E+02  0.45594000000E+02  0.51100000000E-03 0.  1.
    9900012    2    1    2    0    0 -0.22931641394E+02  0.87967910162E+01  0.20334238489E+02  0.59301875053E+02  0.49999874206E+02 0.  0.
        -12    1    1    2    0    0  0.22931641394E+02 -0.87967910162E+01 -0.20334238489E+02  0.31886124947E+02  0.00000000000E+00 0.  1.
         11    1    3    3    0    0  0.43089041261E+01  0.81724974385E+01  0.28683516132E+01  0.96738725642E+01  0.51100000000E-03 0.  1.
        -11    1    3    3    0    0 -0.23059601433E+02  0.14248676378E+02  0.27222978263E-01  0.27106654868E+02  0.51100000000E-03 0. -1.
         12    1    3    3    0    0 -0.41809440869E+01 -0.13624382800E+02  0.17438663898E+02  0.22521347621E+02  0.00000000000E+00 0. -1.
</event>
<event>
 7    1  0.1138240E-011  0.5930199E+02  0.7816164E-02  0.1266605E+00
        -11   -1    0    0    0    0  0.00000000000E+00  0.00000000000E+00  0.45593999997E+02  0.45594000000E+02  0.51100000000E-03 0.  1.
         11   -1    0    0    0    0 -0.00000000000E+00 -0.00000000000E+00 -0.45593999997E+02  0.45594000000E+02  0.51100000000E-03 0. -1.
    9900012    2    1    2    0    0 -0.23876255950E+02  0.94105401395E+01 -0.18923096985E+02  0.59301992670E+02  0.50000088712E+02 0.  0.
        -12    1    1    2    0    0  0.23876255950E+02 -0.94105401395E+01  0.18923096985E+02  0.31886007330E+02  0.00000000000E+00 0.  1.
         11    1    3    3    0    0  0.93138294664E+01  0.74372596710E+01 -0.90070168427E+01  0.14939431161E+02  0.51100000000E-03 0. -1.
        -11    1    3    3    0    0 -0.97153776051E+00 -0.43131403930E+01  0.63419330258E+01  0.77309236469E+01  0.51100000000E-03 0.  1.
        -12    1    3    3    0    0 -0.32218547656E+02  0.62864208615E+01 -0.16258013168E+02  0.36631637863E+02  0.00000000000E+00 0.  1.
</event>
<event>
 7    1  0.1138240E-011  0.5930194E+02  0.7816164E-02  0.1266605E+00
        -11   -1    0    0    0    0  0.00000000000E+00  0.00000000000E+00  0.45593999997E+02  0.45594000000E+02  0.51100000000E-03 0. -1.
         11   -1    0    0    0    0 -0.00000000000E+00 -0.00000000000E+00 -0.45593999997E+02  0.45594000000E+02  0.51100000000E-03 0.  1.
    9900012    2    1    2    0    0  0.27200834203E+01  0.28905275452E+02  0.13183579693E+02  0.59301943858E+02  0.49999999690E+02 0.  0.
        -12    1    1    2    0    0 -0.27200834203E+01 -0.28905275452E+02 -0.13183579693E+02  0.31886056142E+02  0.00000000000E+00 0.  1.
         11    1    3    3    0    0  0.14293632144E+01 -0.57640556133E+01 -0.44051837566E+01  0.73941233762E+01  0.51100000000E-03 0. -1.
        -11    1    3    3    0    0 -0.15856838340E+02  0.13104278243E+02  0.11933835407E+02  0.23781880880E+02  0.51100000000E-03 0.  1.
         12    1    3    3    0    0  0.17147558546E+02  0.21565052822E+02  0.56549280429E+01  0.28125939602E+02  0.00000000000E+00 0. -1.
</event>
<event>
 7    1  0.1138240E-011  0.5930193E+02  0.7816164E-02  0.1266605E+00
        -11   -1    0    0    0    0  0.00000000000E+00  0.00000000000E+00  0.45593999997E+02  0.45594000000E+02  0.51100000000E-03 0.  1.
         11   -1    0    0    0    0 -0.00000000000E+00 -0.00000000000E+00 -0.45593999997E+02  0.45594000000E+02  0.51100000000E-03 0. -1.
    9900012    2    1    2    0    0  0.24962418015E+02  0.15142430591E+02 -0.12818178315E+02  0.59301933879E+02  0.49999981491E+02 0.  0.
        -12    1    1    2    0    0 -0.24962418015E+02 -0.15142430591E+02  0.12818178315E+02  0.31886066121E+02  0.00000000000E+00 0.  1.
         11    1    3    3    0    0 -0.23952736918E+00  0.91473579917E+01 -0.14115139275E+01  0.92587203985E+01  0.51100000000E-03 0. -1.
        -11    1    3    3    0    0  0.15830351839E+02 -0.11529118393E+02  0.90054331768E+01  0.21555009562E+02  0.51100000000E-03 0.  1.
         12    1    3    3    0    0  0.93715935454E+01  0.17524190992E+02 -0.20412097564E+02  0.28488203918E+02  0.00000000000E+00 0. -1.
</event>
<event>
 7    1  0.1138240E-011  0.5930193E+02  0.7816164E-02  0.1266605E+00
        -11   -1    0    0    0    0  0.00000000000E+00  0.00000000000E+00  0.45593999997E+02  0.45594000000E+02  0.51100000000E-03 0. -1.
         11   -1    0    0    0    0 -0.00000000000E+00 -0.00000000000E+00 -0.45593999997E+02  0.45594000000E+02  0.51100000000E-03 0.  1.
    9900012    2    1    2    0    0 -0.96420007658E+01 -0.30388539607E+02 -0.53830440813E+00  0.59301932668E+02  0.49999979283E+02 0.  0.
        -12    1    1    2    0    0  0.96420007658E+01  0.30388539607E+02  0.53830440813E+00  0.31886067332E+02  0.00000000000E+00 0.  1.
         11    1    3    3    0    0 -0.17280889402E+00  0.11802115091E+02 -0.11404499583E+01  0.11858347689E+02  0.51100000000E-03 0. -1.
        -11    1    3    3    0    0  0.56206667768E+01 -0.60129536960E+01 -0.26952239274E+00  0.82352990078E+01  0.51100000000E-03 0.  1.
         12    1    3    3    0    0 -0.15089858649E+02 -0.36177701002E+02  0.87166794288E+00  0.39208285972E+02  0.00000000000E+00 0. -1.
</event>
<event>
 7    1  0.1138240E-011  0.5930195E+02  0.7816164E-02  0.1266605E+00
        -11   -1    0    0    0    0  0.00000000000E+00  0.00000000000E+00  0.45593999997E+02  0.45594000000E+02  0.51100000000E-03 0. -1.
         11   -1    0    0    0    0 -0.00000000000E+00 -0.00000000000E+00 -0.45593999997E+02  0.45594000000E+02  0.51100000000E-03 0.  1.
    9900012    2    1    2    0    0  0.29181423836E+02  0.11406440581E+02 -0.59209736334E+01  0.59301947993E+02  0.50000007232E+02 0.  0.
        -12    1    1    2    0    0 -0.29181423836E+02 -0.11406440581E+02  0.59209736334E+01  0.31886052007E+02  0.00000000000E+00 0.  1.
         11    1    3    3    0    0  0.55502692854E+01 -0.49735435502E+01  0.72315225491E+01  0.10384437550E+02  0.51100000000E-03 0. -1.
        -11    1    3    3    0    0  0.37829913279E+01  0.22640663784E+02  0.21938388023E+01  0.23059132875E+02  0.51100000000E-03 0.  1.
         12    1    3    3    0    0  0.19848163222E+02 -0.62606796529E+01 -0.15346334985E+02  0.25858377569E+02  0.00000000000E+00 0. -1.
</event>
<event>
 7    1  0.1138240E-011  0.5930194E+02  0.7816164E-02  0.1266605E+00
        -11   -1    0    0    0    0  0.00000000000E+00  0.00000000000E+00  0.45593999997E+02  0.45594000000E+02  0.51100000000E-03 0.  1.
         11   -1    0    0    0    0 -0.00000000000E+00 -0.00000000000E+00 -0.45593999997E+02  0.45594000000E+02  0.51100000000E-03 0. -1.
    9900012    2    1    2    0    0  0.10754165994E+01  0.73061321601E+01 -0.31019099642E+02  0.59301943006E+02  0.49999998136E+02 0.  0.
        -12    1    1    2    0    0 -0.10754165994E+01 -0.73061321601E+01  0.31019099642E+02  0.31886056994E+02  0.00000000000E+00 0.  1.
         11    1    3    3    0    0 -0.72729090115E+01  0.74191217415E+01 -0.28497308977E+02  0.30332081895E+02  0.51100000000E-03 0. -1.
        -11    1    3    3    0    0  0.39733922322E+01  0.29790036313E+01 -0.14780056091E+02  0.15592061018E+02  0.51100000000E-03 0.  1.
        -12    1    3    3    0    0  0.43749333786E+01 -0.30919932128E+01  0.12258265425E+02  0.13377800093E+02  0.00000000000E+00 0.  1.
</event>
<event>
 7    1  0.1138240E-011  0.5930204E+02  0.7816164E-02  0.1266604E+00
        -11   -1    0    0    0    0  0.00000000000E+00  0.00000000000E+00  0.45593999997E+02  0.45594000000E+02  0.51100000000E-03 0. -1.
         11   -1    0    0    0    0 -0.00000000000E+00 -0.00000000000E+00 -0.45593999997E+02  0.45594000000E+02  0.51100000000E-03 0.  1.
    9900012    2    1    2    0    0  0.47292585436E+01 -0.31252643683E+02 -0.41977113580E+01  0.59302040642E+02  0.50000176201E+02 0.  0.
        -12    1    1    2    0    0 -0.47292585436E+01  0.31252643683E+02  0.41977113580E+01  0.31885959358E+02  0.00000000000E+00 0.  1.
         11    1    3    3    0    0 -0.97946290004E+01 -0.13069728611E+00 -0.41323094920E+00  0.98042133348E+01  0.51100000000E-03 0. -1.
        -11    1    3    3    0    0  0.45113726020E+01 -0.72405000751E+01 -0.18027302724E+02  0.19943945644E+02  0.51100000000E-03 0.  1.
         12    1    3    3    0    0  0.10012514942E+02 -0.23881446321E+02  0.14242822315E+02  0.29553881663E+02  0.00000000000E+00 0. -1.
</event>
<event>
 7    1  0.1138240E-011  0.5930193E+02  0.7816164E-02  0.1266605E+00
        -11   -1    0    0    0    0  0.00000000000E+00  0.00000000000E+00  0.45593999997E+02  0.45594000000E+02  0.51100000000E-03 0. -1.
         11   -1    0    0    0    0 -0.00000000000E+00 -0.00000000000E+00 -0.45593999997E+02  0.45594000000E+02  0.51100000000E-03 0.  1.
    9900012    2    1    2    0    0  0.47205343096E+01 -0.12455006483E+02  0.28970857607E+02  0.59301933746E+02  0.49999981248E+02 0.  0.
        -12    1    1    2    0    0 -0.47205343096E+01  0.12455006483E+02 -0.28970857607E+02  0.31886066254E+02  0.00000000000E+00 0.  1.
         11    1    3    3    0    0 -0.22661097915E+01 -0.76695653028E+01 -0.56675018064E+01  0.98019417723E+01  0.51100000000E-03 0. -1.
        -11    1    3    3    0    0  0.97924537397E+01 -0.31203467481E+00 -0.39414216767E+01  0.10560507610E+02  0.51100000000E-03 0.  1.
         12    1    3    3    0    0 -0.28058096386E+01 -0.44734065055E+01  0.38579781091E+02  0.38939484364E+02  0.00000000000E+00 0. -1.
</event>
<event>
 7    1  0.1138240E-011  0.5930195E+02  0.7816164E-02  0.1266605E+00
        -11   -1    0    0    0    0  0.00000000000E+00  0.00000000000E+00  0.45593999997E+02  0.45594000000E+02  0.51100000000E-03 0.  1.
         11   -1    0    0    0    0 -0.00000000000E+00 -0.00000000000E+00 -0.45593999997E+02  0.45594000000E+02  0.51100000000E-03 0. -1.
    9900012    2    1    2    0    0 -0.96537249347E+01  0.20125960356E+01 -0.30322848110E+02  0.59301951869E+02  0.50000014300E+02 0.  0.
        -12    1    1    2    0    0  0.96537249347E+01 -0.20125960356E+01  0.30322848110E+02  0.31886048131E+02  0.00000000000E+00 0.  1.
         11    1    3    3    0    0 -0.12716636191E+02 -0.93583487755E+01 -0.14726855025E+02  0.21591011718E+02  0.51100000000E-03 0. -1.
        -11    1    3    3    0    0 -0.47467128303E+01  0.98504823507E+01 -0.23855838528E+02  0.26242414473E+02  0.51100000000E-03 0.  1.
        -12    1    3    3    0    0  0.78096240869E+01  0.15204624604E+01  0.82598454429E+01  0.11468525677E+02  0.00000000000E+00 0.  1.
</event>
<event>
 7    1  0.1138240E-011  0.5930195E+02  0.7816164E-02  0.1266605E+00
        -11   -1    0    0    0    0  0.00000000000E+00  0.00000000000E+00  0.45593999997E+02  0.45594000000E+02  0.51100000000E-03 0. -1.
         11   -1    0    0    0    0 -0.00000000000E+00 -0.00000000000E+00 -0.45593999997E+02  0.45594000000E+02  0.51100000000E-03 0.  1.
    9900012    2    1    2    0    0 -0.43766132580E+01  0.28353905876E+02  0.13914786933E+02  0.59301952622E+02  0.50000015674E+02 0.  0.
        -12    1    1    2    0    0  0.43766132580E+01 -0.28353905876E+02 -0.13914786933E+02  0.31886047378E+02  0.00000000000E+00 0.  1.
         11    1    3    3    0    0  0.25436590690E+01  0.11533419305E+02  0.20978232045E+01  0.11995450170E+02  0.51100000000E-03 0. -1.
        -11    1    3    3    0    0 -0.15573714915E+02  0.18717152440E+02 -0.79755301876E+01  0.25621894421E+02  0.51100000000E-03 0.  1.
         12    1    3    3    0    0  0.86534425878E+01 -0.18966658689E+01  0.19792493916E+02  0.21684608031E+02  0.00000000000E+00 0. -1.
</event>
<event>
 7    1  0.1138240E-011  0.5930194E+02  0.7816164E-02  0.1266605E+00
        -11   -1    0    0    0    0  0.00000000000E+00  0.00000000000E+00  0.45593999997E+02  0.45594000000E+02  0.51100000000E-03 0. -1.
         11   -1    0    0    0    0 -0.00000000000E+00 -0.00000000000E+00 -0.45593999997E+02  0.45594000000E+02  0.51100000000E-03 0.  1.
    9900012    2    1    2    0    0  0.17939523891E+02 -0.26188083283E+02  0.30130345512E+01  0.59301943476E+02  0.49999998994E+02 0.  0.
        -12    1    1    2    0    0 -0.17939523891E+02  0.26188083283E+02 -0.30130345512E+01  0.31886056524E+02  0.00000000000E+00 0.  1.
         11    1    3    3    0    0  0.70950729327E+00 -0.29573790199E+02  0.17822687527E+02  0.34536367184E+02  0.51100000000E-03 0. -1.
        -11    1    3    3    0    0  0.13865927197E+02 -0.10707717638E+00 -0.69013473693E+01  0.15488834634E+02  0.51100000000E-03 0.  1.
        -12    1    3    3    0    0  0.33640894007E+01  0.34927840931E+01 -0.79083056061E+01  0.92767416573E+01  0.00000000000E+00 0.  1.
</event>
<event>
 7    1  0.1138240E-011  0.5930197E+02  0.7816164E-02  0.1266605E+00
        -11   -1    0    0    0    0  0.00000000000E+00  0.00000000000E+00  0.45593999997E+02  0.45594000000E+02  0.51100000000E-03 0. -1.
         11   -1    0    0    0    0 -0.00000000000E+00 -0.00000000000E+00 -0.45593999997E+02  0.45594000000E+02  0.51100000000E-03 0.  1.
    9900012    2    1    2    0    0  0.26035177792E+01 -0.12914196921E+02  0.29037285541E+02  0.59301972676E+02  0.50000052248E+02 0.  0.
        -12    1    1    2    0    0 -0.26035177792E+01  0.12914196921E+02 -0.29037285541E+02  0.31886027324E+02  0.00000000000E+00 0.  1.
         11    1    3    3    0    0  0.87846185965E+01 -0.78301775014E+01  0.11056586962E+01  0.11819631340E+02  0.51100000000E-03 0. -1.
        -11    1    3    3    0    0 -0.30012243818E+01 -0.12950346723E+02 -0.44414060420E+01  0.14015880847E+02  0.51100000000E-03 0.  1.
         12    1    3    3    0    0 -0.31798764355E+01  0.78663273039E+01  0.32373032886E+02  0.33466460489E+02  0.00000000000E+00 0. -1.
</event>
<event>
 7    1  0.1138240E-011  0.5930192E+02  0.7816164E-02  0.1266605E+00
        -11   -1    0    0    0    0  0.00000000000E+00  0.00000000000E+00  0.45593999997E+02  0.45594000000E+02  0.51100000000E-03 0. -1.
         11   -1    0    0    0    0 -0.00000000000E+00 -0.00000000000E+00 -0.45593999997E+02  0.45594000000E+02  0.51100000000E-03 0.  1.
    9900012    2    1    2    0    0 -0.29160140566E+02 -0.24257466831E+01  0.12669800442E+02  0.59301923288E+02  0.49999962176E+02 0.  0.
        -12    1    1    2    0    0  0.29160140566E+02  0.24257466831E+01 -0.12669800442E+02  0.31886076712E+02  0.00000000000E+00 0.  1.
         11    1    3    3    0    0  0.34979613606E+01 -0.13879458079E+02 -0.57851160346E+01  0.15438350237E+02  0.51100000000E-03 0. -1.
        -11    1    3    3    0    0  0.17304548280E+01  0.43272838432E+01  0.25225781458E+01  0.52993641255E+01  0.51100000000E-03 0.  1.
        -12    1    3    3    0    0 -0.34388556755E+02  0.71264275531E+01  0.15932338331E+02  0.38564208925E+02  0.00000000000E+00 0.  1.
</event>
<event>
 7    1  0.1138240E-011  0.5930201E+02  0.7816164E-02  0.1266605E+00
        -11   -1    0    0    0    0  0.00000000000E+00  0.00000000000E+00  0.45593999997E+02  0.45594000000E+02  0.51100000000E-03 0.  1.
         11   -1    0    0    0    0 -0.00000000000E+00 -0.00000000000E+00 -0.45593999997E+02  0.45594000000E+02  0.51100000000E-03 0. -1.
    9900012    2    1    2    0    0 -0.22238679434E+02 -0.10468467630E+02 -0.20311788071E+02  0.59302009156E+02  0.50000118778E+02 0.  0.
        -12    1    1    2    0    0  0.22238679434E+02  0.10468467630E+02  0.20311788071E+02  0.31885990844E+02  0.00000000000E+00 0.  1.
         11    1    3    3    0    0 -0.37468921726E+01  0.98667776686E+01  0.34536433546E+01  0.11104960837E+02  0.51100000000E-03 0.  1.
        -11    1    3    3    0    0  0.75568711439E+01 -0.86420182963E+00  0.49675410075E+00  0.76223297741E+01  0.51100000000E-03 0. -1.
         12    1    3    3    0    0 -0.26048658405E+02 -0.19471043469E+02 -0.24262185526E+02  0.40574718545E+02  0.00000000000E+00 0. -1.
</event>
<event>
 7    1  0.1138240E-011  0.5930198E+02  0.7816164E-02  0.1266605E+00
        -11   -1    0    0    0    0  0.00000000000E+00  0.00000000000E+00  0.45593999997E+02  0.45594000000E+02  0.51100000000E-03 0. -1.
         11   -1    0    0    0    0 -0.00000000000E+00 -0.00000000000E+00 -0.45593999997E+02  0.45594000000E+02  0.51100000000E-03 0.  1.
    9900012    2    1    2    0    0  0.21967876685E+02  0.19030081613E+02  0.13114365871E+02  0.59301981051E+02  0.50000067521E+02 0.  0.
        -12    1    1    2    0    0 -0.21967876685E+02 -0.19030081613E+02 -0.13114365871E+02  0.31886018949E+02  0.00000000000E+00 0.  1.
         11    1    3    3    0    0  0.25384589755E+01 -0.79903300393E+01  0.10029408110E+01  0.84436389453E+01  0.51100000000E-03 0. -1.
        -11    1    3    3    0    0  0.61841207803E+01  0.15955140115E+02 -0.12220091336E+02  0.21027136715E+02  0.51100000000E-03 0.  1.
        -12    1    3    3    0    0  0.13245296929E+02  0.11065271538E+02  0.24331516396E+02  0.29831205391E+02  0.00000000000E+00 0.  1.
</event>
<event>
 7    1  0.1138240E-011  0.5930191E+02  0.7816164E-02  0.1266605E+00
        -11   -1    0    0    0    0  0.00000000000E+00  0.00000000000E+00  0.45593999997E+02  0.45594000000E+02  0.51100000000E-03 0.  1.
         11   -1    0    0    0    0 -0.00000000000E+00 -0.00000000000E+00 -0.45593999997E+02  0.45594000000E+02  0.51100000000E-03 0. -1.
    9900012    2    1    2    0    0  0.16045607292E+01 -0.29230675960E+01 -0.31711253188E+02  0.59301913410E+02  0.49999944160E+02 0.  0.
        -12    1    1    2    0    0 -0.16045607292E+01  0.29230675960E+01  0.31711253188E+02  0.31886086590E+02  0.00000000000E+00 0.  1.
         11    1    3    3    0    0 -0.25217426420E+01  0.21009664638E+01 -0.51804604353E+01  0.61327332094E+01  0.51100000000E-03 0. -1.
        -11    1    3    3    0    0 -0.17958834336E+02 -0.13389448237E+02 -0.11563849616E+02  0.25209515525E+02  0.51100000000E-03 0.  1.
        -12    1    3    3    0    0  0.22085137707E+02  0.83654141772E+01 -0.14966943137E+02  0.27959664676E+02  0.00000000000E+00 0.  1.
</event>
<event>
 7    1  0.1138240E-011  0.5930192E+02  0.7816164E-02  0.1266605E+00
        -11   -1    0    0    0    0  0.00000000000E+00  0.00000000000E+00  0.45593999997E+02  0.45594000000E+02  0.51100000000E-03 0.  1.
         11   -1    0    0    0    0 -0.00000000000E+00 -0.00000000000E+00 -0.45593999997E+02  0.45594000000E+02  0.51100000000E-03 0. -1.
    9900012    2    1    2    0    0  0.10685986325E+01 -0.21167905698E+02 -0.23822262777E+02  0.59301916226E+02  0.49999949296E+02 0.  0.
        -12    1    1    2    0    0 -0.10685986325E+01  0.21167905698E+02  0.23822262777E+02  0.31886083774E+02  0.00000000000E+00 0.  1.
         11    1    3    3    0    0  0.33561354521E+01 -0.78678163230E+01  0.97378914238E+01  0.12961200118E+02  0.51100000000E-03 0. -1.
        -11    1    3    3    0    0 -0.89718688751E+01 -0.27839788756E+01  0.11478032142E+01  0.94637424929E+01  0.51100000000E-03 0.  1.
         12    1    3    3    0    0  0.66843320555E+01 -0.10516110499E+02 -0.34707957415E+02  0.36876973614E+02  0.00000000000E+00 0. -1.
</event>
<event>
 7    1  0.1138240E-011  0.5930194E+02  0.7816164E-02  0.1266605E+00
        -11   -1    0    0    0    0  0.00000000000E+00  0.00000000000E+00  0.45593999997E+02  0.45594000000E+02  0.51100000000E-03 0.  1.
         11   -1    0    0    0    0 -0.00000000000E+00 -0.00000000000E+00 -0.45593999997E+02  0.45594000000E+02  0.51100000000E-03 0. -1.
    9900012    2    1    2    0    0  0.23973858373E+02  0.21019938068E+02  0.37032212845E+00  0.59301940034E+02  0.49999992716E+02 0.  0.
        -12    1    1    2    0    0 -0.23973858373E+02 -0.21019938068E+02 -0.37032212845E+00  0.31886059966E+02  0.00000000000E+00 0.  1.
         11    1    3    3    0    0 -0.10120451767E+01  0.78291631252E+01  0.34190660984E+01  0.86029090386E+01  0.51100000000E-03 0. -1.
        -11    1    3    3    0    0  0.25566378693E+02  0.82996121762E+01  0.15825651103E+02  0.31192539410E+02  0.51100000000E-03 0.  1.
         12    1    3    3    0    0 -0.58047514309E+00  0.48911627667E+01 -0.18874395073E+02  0.19506491585E+02  0.00000000000E+00 0. -1.
</event>
<event>
 7    1  0.1138240E-011  0.5930194E+02  0.7816164E-02  0.1266605E+00
        -11   -1    0    0    0    0  0.00000000000E+00  0.00000000000E+00  0.45593999997E+02  0.45594000000E+02  0.51100000000E-03 0. -1.
         11   -1    0    0    0    0 -0.00000000000E+00 -0.00000000000E+00 -0.45593999997E+02  0.45594000000E+02  0.51100000000E-03 0.  1.
    9900012    2    1    2    0    0 -0.22793696841E+02 -0.68694183612E+01  0.21212712021E+02  0.59301942301E+02  0.49999996852E+02 0.  0.
        -12    1    1    2    0    0  0.22793696841E+02  0.68694183612E+01 -0.21212712021E+02  0.31886057699E+02  0.00000000000E+00 0.  1.
         11    1    3    3    0    0  0.53084868814E+01 -0.73394144334E+01  0.25362402239E+02  0.26931366189E+02  0.51100000000E-03 0. -1.
        -11    1    3    3    0    0  0.26501299300E+00  0.32294583515E+01 -0.19566102396E+01  0.37852287938E+01  0.51100000000E-03 0.  1.
        -12    1    3    3    0    0 -0.28367196715E+02 -0.27594622794E+01 -0.21930799789E+01  0.28585347319E+02  0.00000000000E+00 0.  1.
</event>
<event>
 7    1  0.1138240E-011  0.5930189E+02  0.7816164E-02  0.1266605E+00
        -11   -1    0    0    0    0  0.00000000000E+00  0.00000000000E+00  0.45593999997E+02  0.45594000000E+02  0.51100000000E-03 0.  1.
         11   -1    0    0    0    0 -0.00000000000E+00 -0.00000000000E+00 -0.45593999997E+02  0.45594000000E+02  0.51100000000E-03 0. -1.
    9900012    2    1    2    0    0  0.26054471313E+02 -0.37402046872E+01 -0.17997200353E+02  0.59301892884E+02  0.49999906725E+02 0.  0.
        -12    1    1    2    0    0 -0.26054471313E+02  0.37402046872E+01  0.17997200353E+02  0.31886107116E+02  0.00000000000E+00 0.  1.
         11    1    3    3    0    0  0.14574806283E+02 -0.11226960288E+02 -0.79633139629E+01  0.20047044296E+02  0.51100000000E-03 0. -1.
        -11    1    3    3    0    0  0.19631215865E+02  0.25406278903E+01 -0.18057045230E+02  0.26793587090E+02  0.51100000000E-03 0.  1.
        -12    1    3    3    0    0 -0.81515508352E+01  0.49461277100E+01  0.80231588401E+01  0.12461261498E+02  0.00000000000E+00 0.  1.
</event>
<event>
 7    1  0.1419538E-011  0.5930195E+02  0.7816164E-02  0.1266605E+00
        -11   -1    0    0    0    0  0.00000000000E+00  0.00000000000E+00  0.45593999997E+02  0.45594000000E+02  0.51100000000E-03 0. -1.
         11   -1    0    0    0    0 -0.00000000000E+00 -0.00000000000E+00 -0.45593999997E+02  0.45594000000E+02  0.51100000000E-03 0.  1.
    9900012    2    1    2    0    0 -0.13454107564E+02  0.44706588661E+01  0.28560822609E+02  0.59301946793E+02  0.50000005043E+02 0.  0.
        -12    1    1    2    0    0  0.13454107564E+02 -0.44706588661E+01 -0.28560822609E+02  0.31886053207E+02  0.00000000000E+00 0.  1.
         11    1    3    3    0    0  0.60064873710E+01 -0.89324095868E+01  0.29023566813E+02  0.30955343035E+02  0.51100000000E-03 0. -1.
        -11    1    3    3    0    0 -0.24108550281E+01 -0.22539722578E+01 -0.37170524131E+01  0.49708240572E+01  0.51100000000E-03 0.  1.
        -12    1    3    3    0    0 -0.17049739907E+02  0.15657040711E+02  0.32543082084E+01  0.23375779701E+02  0.00000000000E+00 0.  1.
</event>
<event>
 7    1  0.1138240E-011  0.5930195E+02  0.7816164E-02  0.1266605E+00
        -11   -1    0    0    0    0  0.00000000000E+00  0.00000000000E+00  0.45593999997E+02  0.45594000000E+02  0.51100000000E-03 0. -1.
         11   -1    0    0    0    0 -0.00000000000E+00 -0.00000000000E+00 -0.45593999997E+02  0.45594000000E+02  0.51100000000E-03 0.  1.
    9900012    2    1    2    0    0  0.21901307883E+01  0.33842383748E+01  0.31630219041E+02  0.59301945073E+02  0.50000001906E+02 0.  0.
        -12    1    1    2    0    0 -0.21901307883E+01 -0.33842383748E+01 -0.31630219041E+02  0.31886054927E+02  0.00000000000E+00 0.  1.
         11    1    3    3    0    0 -0.50372439542E+01 -0.90983077871E+01 -0.50615386017E+01  0.11565993452E+02  0.51100000000E-03 0. -1.
        -11    1    3    3    0    0  0.21911629947E+01 -0.84497453836E+01  0.13637209272E+02  0.16191753127E+02  0.51100000000E-03 0.  1.
         12    1    3    3    0    0  0.50362117478E+01  0.20932291546E+02  0.23054548370E+02  0.31544198495E+02  0.00000000000E+00 0. -1.
</event>
<event>
 7    1  0.1138240E-011  0.5930192E+02  0.7816164E-02  0.1266605E+00
        -11   -1    0    0    0    0  0.00000000000E+00  0.00000000000E+00  0.45593999997E+02  0.45594000000E+02  0.51100000000E-03 0.  1.
         11   -1    0    0    0    0 -0.00000000000E+00 -0.00000000000E+00 -0.45593999997E+02  0.45594000000E+02  0.51100000000E-03 0. -1.
    9900012    2    1    2    0    0 -0.53569133297E+01  0.31413043934E+02 -0.11162892749E+01  0.59301922296E+02  0.49999960366E+02 0.  0.
        -12    1    1    2    0    0  0.53569133297E+01 -0.31413043934E+02  0.11162892749E+01  0.31886077704E+02  0.00000000000E+00 0.  1.
         11    1    3    3    0    0  0.45236317983E+01  0.13171249208E+02 -0.19176178619E+02  0.23699596559E+02  0.51100000000E-03 0. -1.
        -11    1    3    3    0    0 -0.13186819929E+01 -0.15898579769E+01 -0.41405566414E+01  0.46271784218E+01  0.51100000000E-03 0.  1.
        -12    1    3    3    0    0 -0.85618631351E+01  0.19831652702E+02  0.22200445985E+02  0.30975147315E+02  0.00000000000E+00 0.  1.
</event>
<event>
 7    1  0.1138240E-011  0.5930194E+02  0.7816164E-02  0.1266605E+00
        -11   -1    0    0    0    0  0.00000000000E+00  0.00000000000E+00  0.45593999997E+02  0.45594000000E+02  0.51100000000E-03 0. -1.
         11   -1    0    0    0    0 -0.00000000000E+00 -0.00000000000E+00 -0.45593999997E+02  0.45594000000E+02  0.51100000000E-03 0.  1.
    9900012    2    1    2    0    0  0.23971619355E+02 -0.20251460634E+02 -0.56533479908E+01  0.59301944493E+02  0.50000000848E+02 0.  0.
        -12    1    1    2    0    0 -0.23971619355E+02  0.20251460634E+02  0.56533479908E+01  0.31886055507E+02  0.00000000000E+00 0.  1.
         11    1    3    3    0    0  0.76658954565E+01 -0.89990475701E+01  0.20237191201E+01  0.11993508647E+02  0.51100000000E-03 0. -1.
        -11    1    3    3    0    0  0.98736443207E+01 -0.91991927731E+01  0.17010983586E+02  0.21713764360E+02  0.51100000000E-03 0.  1.
         12    1    3    3    0    0  0.64320795779E+01 -0.20532202909E+01 -0.24688050697E+02  0.25594671486E+02  0.00000000000E+00 0. -1.
</event>
<event>
 7    1  0.1138240E-011  0.5930197E+02  0.7816164E-02  0.1266605E+00
        -11   -1    0    0    0    0  0.00000000000E+00  0.00000000000E+00  0.45593999997E+02  0.45594000000E+02  0.51100000000E-03 0. -1.
         11   -1    0    0    0    0 -0.00000000000E+00 -0.00000000000E+00 -0.45593999997E+02  0.45594000000E+02  0.51100000000E-03 0.  1.
    9900012    2    1    2    0    0 -0.22788373702E+01 -0.17047123312E+01  0.31758777573E+02  0.59301967057E+02  0.50000042001E+02 0.  0.
        -12    1    1    2    0    0  0.22788373702E+01  0.17047123312E+01 -0.31758777573E+02  0.31886032943E+02  0.00000000000E+00 0.  1.
         11    1    3    3    0    0 -0.75646176440E+01 -0.53661282757E+01 -0.84067193985E+00  0.93126528091E+01  0.51100000000E-03 0.  1.
        -11    1    3    3    0    0  0.12016276142E+02 -0.13508689400E+02  0.22822041383E+02  0.29115651371E+02  0.51100000000E-03 0. -1.
         12    1    3    3    0    0 -0.67304958677E+01  0.17170105345E+02  0.97774081300E+01  0.20873662877E+02  0.00000000000E+00 0. -1.
</event>
<event>
 7    1  0.1138240E-011  0.5930202E+02  0.7816164E-02  0.1266604E+00
        -11   -1    0    0    0    0  0.00000000000E+00  0.00000000000E+00  0.45593999997E+02  0.45594000000E+02  0.51100000000E-03 0. -1.
         11   -1    0    0    0    0 -0.00000000000E+00 -0.00000000000E+00 -0.45593999997E+02  0.45594000000E+02  0.51100000000E-03 0.  1.
    9900012    2    1    2    0    0 -0.49227689255E+01 -0.51984932976E+01  0.31071816110E+02  0.59302019651E+02  0.50000137918E+02 0.  0.
        -12    1    1    2    0    0  0.49227689255E+01  0.51984932976E+01 -0.31071816110E+02  0.31885980349E+02  0.00000000000E+00 0.  1.
         11    1    3    3    0    0 -0.11613434100E+02 -0.50176179551E+01  0.42648845363E+01  0.13350564854E+02  0.51100000000E-03 0.  1.
        -11    1    3    3    0    0 -0.49831474605E+01 -0.28531980942E+01  0.32278258545E+02  0.32785034283E+02  0.51100000000E-03 0. -1.
        -12    1    3    3    0    0  0.11673812635E+02  0.26723227517E+01 -0.54713269710E+01  0.13166420514E+02  0.00000000000E+00 0.  1.
</event>
<event>
 7    1  0.1138240E-011  0.5930193E+02  0.7816164E-02  0.1266605E+00
        -11   -1    0    0    0    0  0.00000000000E+00  0.00000000000E+00  0.45593999997E+02  0.45594000000E+02  0.51100000000E-03 0. -1.
         11   -1    0    0    0    0 -0.00000000000E+00 -0.00000000000E+00 -0.45593999997E+02  0.45594000000E+02  0.51100000000E-03 0.  1.
    9900012    2    1    2    0    0  0.16468447525E+01 -0.24991755078E+02  0.19733759131E+02  0.59301934564E+02  0.49999982741E+02 0.  0.
        -12    1    1    2    0    0 -0.16468447525E+01  0.24991755078E+02 -0.19733759131E+02  0.31886065436E+02  0.00000000000E+00 0.  1.
         11    1    3    3    0    0 -0.11495205598E+02 -0.81897723768E-02  0.47410225939E+01  0.12434513031E+02  0.51100000000E-03 0. -1.
        -11    1    3    3    0    0 -0.94933189196E+01  0.54620157436E+00  0.70456133276E+01  0.11834783804E+02  0.51100000000E-03 0.  1.
         12    1    3    3    0    0  0.22635369270E+02 -0.25529766880E+02  0.79471232098E+01  0.35032637729E+02  0.00000000000E+00 0. -1.
</event>
<event>
 7    1  0.1701331E-011  0.5930195E+02  0.7816164E-02  0.1266605E+00
        -11   -1    0    0    0    0  0.00000000000E+00  0.00000000000E+00  0.45593999997E+02  0.45594000000E+02  0.51100000000E-03 0. -1.
         11   -1    0    0    0    0 -0.00000000000E+00 -0.00000000000E+00 -0.45593999997E+02  0.45594000000E+02  0.51100000000E-03 0.  1.
    9900012    2    1    2    0    0 -0.27522498294E+02 -0.87787218070E+01  0.13496897392E+02  0.59301951199E+02  0.50000013079E+02 0.  0.
        -12    1    1    2    0    0  0.27522498294E+02  0.87787218070E+01 -0.13496897392E+02  0.31886048801E+02  0.00000000000E+00 0.  1.
         11    1    3    3    0    0 -0.12927640561E+02 -0.11833371525E+02  0.75726470452E+01  0.19091819076E+02  0.51100000000E-03 0. -1.
        -11    1    3    3    0    0 -0.49252574265E+01 -0.11576875040E+02  0.15709969047E+02  0.20126731581E+02  0.51100000000E-03 0.  1.
        -12    1    3    3    0    0 -0.96696003071E+01  0.14631524758E+02 -0.97857187004E+01  0.20083400542E+02  0.00000000000E+00 0.  1.
</event>
<event>
 7    1  0.1138240E-011  0.5930192E+02  0.7816164E-02  0.1266605E+00
        -11   -1    0    0    0    0  0.00000000000E+00  0.00000000000E+00  0.45593999997E+02  0.45594000000E+02  0.51100000000E-03 0. -1.
         11   -1    0    0    0    0 -0.00000000000E+00 -0.00000000000E+00 -0.45593999997E+02  0.45594000000E+02  0.51100000000E-03 0.  1.
    9900012    2    1    2    0    0  0.14083824585E+01  0.27234233740E+02  0.16523767908E+02  0.59301922561E+02  0.49999960850E+02 0.  0.
        -12    1    1    2    0    0 -0.14083824585E+01 -0.27234233740E+02 -0.16523767908E+02  0.31886077439E+02  0.00000000000E+00 0.  1.
         11    1    3    3    0    0  0.13789802535E+02  0.40653840969E+00 -0.51149460277E+01  0.14713483631E+02  0.51100000000E-03 0. -1.
        -11    1    3    3    0    0 -0.24561806994E+01 -0.10130439586E+01 -0.44380233573E+01  0.51725364446E+01  0.51100000000E-03 0.  1.
         12    1    3    3    0    0 -0.99252393775E+01  0.27840739289E+02  0.26076737293E+02  0.39415902485E+02  0.00000000000E+00 0. -1.
</event>
<event>
 7    1  0.1138240E-011  0.5930197E+02  0.7816164E-02  0.1266605E+00
        -11   -1    0    0    0    0  0.00000000000E+00  0.00000000000E+00  0.45593999997E+02  0.45594000000E+02  0.51100000000E-03 0. -1.
         11   -1    0    0    0    0 -0.00000000000E+00 -0.00000000000E+00 -0.45593999997E+02  0.45594000000E+02  0.51100000000E-03 0.  1.
    9900012    2    1    2    0    0  0.26455716323E+02  0.16342385495E+02  0.70526847799E+01  0.59301970890E+02  0.50000048990E+02 0.  0.
        -12    1    1    2    0    0 -0.26455716323E+02 -0.16342385495E+02 -0.70526847799E+01  0.31886029110E+02  0.00000000000E+00 0.  1.
         11    1    3    3    0    0  0.24022801336E-01 -0.97399893933E+01  0.12449086106E+02  0.15806571912E+02  0.51100000000E-03 0. -1.
        -11    1    3    3    0    0  0.33224268294E+01 -0.10677301159E+01 -0.69832459211E+01  0.78066824896E+01  0.51100000000E-03 0.  1.
        -12    1    3    3    0    0  0.23109266692E+02  0.27150105005E+02  0.15868445953E+01  0.35688716488E+02  0.00000000000E+00 0.  1.
</event>
<event>
 7    1  0.1138240E-011  0.5930202E+02  0.7816164E-02  0.1266604E+00
        -11   -1    0    0    0    0  0.00000000000E+00  0.00000000000E+00  0.45593999997E+02  0.45594000000E+02  0.51100000000E-03 0.  1.
         11   -1    0    0    0    0 -0.00000000000E+00 -0.00000000000E+00 -0.45593999997E+02  0.45594000000E+02  0.51100000000E-03 0. -1.
    9900012    2    1    2    0    0 -0.14460253349E+02  0.25148235219E+02 -0.13235665009E+02  0.59302023619E+02  0.50000145155E+02 0.  0.
        -12    1    1    2    0    0  0.14460253349E+02 -0.25148235219E+02  0.13235665009E+02  0.31885976381E+02  0.00000000000E+00 0.  1.
         11    1    3    3    0    0 -0.17274579040E+02 -0.50401455857E+01 -0.14576060871E+02  0.23157627239E+02  0.51100000000E-03 0. -1.
        -11    1    3    3    0    0  0.10704631355E+01  0.67107467428E+01  0.90989955108E+01  0.11356572227E+02  0.51100000000E-03 0.  1.
         12    1    3    3    0    0  0.17438625558E+01  0.23477634062E+02 -0.77585996494E+01  0.24787824154E+02  0.00000000000E+00 0. -1.
</event>
<event>
 7    1  0.1138240E-011  0.5930205E+02  0.7816164E-02  0.1266604E+00
        -11   -1    0    0    0    0  0.00000000000E+00  0.00000000000E+00  0.45593999997E+02  0.45594000000E+02  0.51100000000E-03 0. -1.
         11   -1    0    0    0    0 -0.00000000000E+00 -0.00000000000E+00 -0.45593999997E+02  0.45594000000E+02  0.51100000000E-03 0.  1.
    9900012    2    1    2    0    0 -0.24017190257E+02  0.22948078973E+01  0.20847601764E+02  0.59302045876E+02  0.50000185746E+02 0.  0.
        -12    1    1    2    0    0  0.24017190257E+02 -0.22948078973E+01 -0.20847601764E+02  0.31885954124E+02  0.00000000000E+00 0.  1.
         11    1    3    3    0    0  0.11897270646E+02 -0.96826774025E+01  0.11037365813E+02  0.18897691258E+02  0.51100000000E-03 0.  1.
        -11    1    3    3    0    0 -0.21516009358E+02  0.42139264116E+01  0.98751771963E+01  0.24046100711E+02  0.51100000000E-03 0. -1.
        -12    1    3    3    0    0 -0.14398451546E+02  0.77635588881E+01 -0.64941246037E-01  0.16358253907E+02  0.00000000000E+00 0.  1.
</event>
<event>
 7    1  0.1138240E-011  0.5930195E+02  0.7816164E-02  0.1266605E+00
        -11   -1    0    0    0    0  0.00000000000E+00  0.00000000000E+00  0.45593999997E+02  0.45594000000E+02  0.51100000000E-03 0. -1.
         11   -1    0    0    0    0 -0.00000000000E+00 -0.00000000000E+00 -0.45593999997E+02  0.45594000000E+02  0.51100000000E-03 0.  1.
    9900012    2    1    2    0    0 -0.22600740065E+02 -0.59895013319E+00  0.22484840516E+02  0.59301949041E+02  0.50000009142E+02 0.  0.
        -12    1    1    2    0    0  0.22600740065E+02  0.59895013319E+00 -0.22484840516E+02  0.31886050959E+02  0.00000000000E+00 0.  1.
         11    1    3    3    0    0 -0.95368427583E+01 -0.44980957120E+01 -0.76105262190E+01  0.13004012628E+02  0.51100000000E-03 0.  1.
        -11    1    3    3    0    0 -0.19200534426E+02 -0.10793789074E+00  0.45644966607E+01  0.19735926703E+02  0.51100000000E-03 0. -1.
        -12    1    3    3    0    0  0.61366371185E+01  0.40070834696E+01  0.25530870074E+02  0.26562009709E+02  0.00000000000E+00 0.  1.
</event>
<event>
 7    1  0.1138240E-011  0.5930199E+02  0.7816164E-02  0.1266605E+00
        -11   -1    0    0    0    0  0.00000000000E+00  0.00000000000E+00  0.45593999997E+02  0.45594000000E+02  0.51100000000E-03 0. -1.
         11   -1    0    0    0    0 -0.00000000000E+00 -0.00000000000E+00 -0.45593999997E+02  0.45594000000E+02  0.51100000000E-03 0.  1.
    9900012    2    1    2    0    0 -0.27713185560E+02 -0.36115335735E+01  0.15351016317E+02  0.59301991617E+02  0.50000086791E+02 0.  0.
        -12    1    1    2    0    0  0.27713185560E+02  0.36115335735E+01 -0.15351016317E+02  0.31886008383E+02  0.00000000000E+00 0.  1.
         11    1    3    3    0    0  0.37324570909E+01  0.42540099118E+01  0.77447156815E+01  0.95921039149E+01  0.51100000000E-03 0. -1.
        -11    1    3    3    0    0 -0.13645100593E+02 -0.30146402064E+01 -0.15019822148E+02  0.20515162281E+02  0.51100000000E-03 0.  1.
         12    1    3    3    0    0 -0.17800542058E+02 -0.48509032790E+01  0.22626122784E+02  0.29194725421E+02  0.00000000000E+00 0. -1.
</event>
<event>
 7    1  0.1138240E-011  0.5930194E+02  0.7816164E-02  0.1266605E+00
        -11   -1    0    0    0    0  0.00000000000E+00  0.00000000000E+00  0.45593999997E+02  0.45594000000E+02  0.51100000000E-03 0.  1.
         11   -1    0    0    0    0 -0.00000000000E+00 -0.00000000000E+00 -0.45593999997E+02  0.45594000000E+02  0.51100000000E-03 0. -1.
    9900012    2    1    2    0    0  0.21492576228E+02  0.19333377908E+02 -0.13454012082E+02  0.59301940737E+02  0.49999993998E+02 0.  0.
        -12    1    1    2    0    0 -0.21492576228E+02 -0.19333377908E+02  0.13454012082E+02  0.31886059263E+02  0.00000000000E+00 0.  1.
         11    1    3    3    0    0  0.11539265354E+02  0.66470488805E+01  0.37007646765E+01  0.13821489181E+02  0.51100000000E-03 0. -1.
        -11    1    3    3    0    0  0.16586524506E+02 -0.46158684603E+01  0.36715026780E+01  0.17603947540E+02  0.51100000000E-03 0.  1.
         12    1    3    3    0    0 -0.66332136317E+01  0.17302197488E+02 -0.20826279436E+02  0.27876504016E+02  0.00000000000E+00 0. -1.
</event>
<event>
 7    1  0.1138240E-011  0.5930194E+02  0.7816164E-02  0.1266605E+00
        -11   -1    0    0    0    0  0.00000000000E+00  0.00000000000E+00  0.45593999997E+02  0.45594000000E+02  0.51100000000E-03 0.  1.
         11   -1    0    0    0    0 -0.00000000000E+00 -0.00000000000E+00 -0.45593999997E+02  0.45594000000E+02  0.51100000000E-03 0. -1.
    9900012    2    1    2    0    0 -0.22450174726E+02 -0.18775980528E+02 -0.12655948980E+02  0.59301939808E+02  0.49999992304E+02 0.  0.
        -12    1    1    2    0    0  0.22450174726E+02  0.18775980528E+02  0.12655948980E+02  0.31886060192E+02  0.00000000000E+00 0.  1.
         11    1    3    3    0    0 -0.27581076982E+02 -0.90758832532E+01 -0.66862009353E+01  0.29795851179E+02  0.51100000000E-03 0. -1.
        -11    1    3    3    0    0 -0.95322791659E+01 -0.64232304713E+01  0.31650679201E+01  0.11922243538E+02  0.51100000000E-03 0.  1.
         12    1    3    3    0    0  0.14663181422E+02 -0.32768668033E+01 -0.91348159645E+01  0.17583845090E+02  0.00000000000E+00 0. -1.
</event>
<event>
 7    1  0.1138240E-011  0.5930193E+02  0.7816164E-02  0.1266605E+00
        -11   -1    0    0    0    0  0.00000000000E+00  0.00000000000E+00  0.45593999997E+02  0.45594000000E+02  0.51100000000E-03 0.  1.
         11   -1    0    0    0    0 -0.00000000000E+00 -0.00000000000E+00 -0.45593999997E+02  0.45594000000E+02  0.51100000000E-03 0. -1.
    9900012    2    1    2    0    0 -0.18321586753E+02 -0.53264482147E+01 -0.25547398321E+02  0.59301934820E+02  0.49999983207E+02 0.  0.
        -12    1    1    2    0    0  0.18321586753E+02  0.53264482147E+01  0.25547398321E+02  0.31886065180E+02  0.00000000000E+00 0.  1.
         11    1    3    3    0    0 -0.10662994789E+02  0.19484572577E+02 -0.22598967394E+01  0.22326109377E+02  0.51100000000E-03 0. -1.
        -11    1    3    3    0    0 -0.27190016209E+00  0.10932721829E+01  0.30592110241E+00  0.11673738673E+01  0.51100000000E-03 0.  1.
         12    1    3    3    0    0 -0.73866918015E+01 -0.25904292975E+02 -0.23593422684E+02  0.35808451575E+02  0.00000000000E+00 0. -1.
</event>
<event>
 7    1  0.1138240E-011  0.5930194E+02  0.7816164E-02  0.1266605E+00
        -11   -1    0    0    0    0  0.00000000000E+00  0.00000000000E+00  0.45593999997E+02  0.45594000000E+02  0.51100000000E-03 0.  1.
         11   -1    0    0    0    0 -0.00000000000E+00 -0.00000000000E+00 -0.45593999997E+02  0.45594000000E+02  0.51100000000E-03 0. -1.
    9900012    2    1    2    0    0 -0.26069414077E+02 -0.73874330530E+01  0.16808691942E+02  0.59301942824E+02  0.49999997805E+02 0.  0.
        -12    1    1    2    0    0  0.26069414077E+02  0.73874330530E+01 -0.16808691942E+02  0.31886057176E+02  0.00000000000E+00 0.  1.
         11    1    3    3    0    0  0.45807900348E+01 -0.10271746426E+02  0.15199323056E+01  0.11349123599E+02  0.51100000000E-03 0. -1.
        -11    1    3    3    0    0 -0.17071880489E+02 -0.71205925593E+01  0.22909534521E+02  0.29444841893E+02  0.51100000000E-03 0.  1.
         12    1    3    3    0    0 -0.13578323622E+02  0.10004905932E+02 -0.76207748849E+01  0.18507977333E+02  0.00000000000E+00 0. -1.
</event>
<event>
 7    1  0.1138240E-011  0.5930195E+02  0.7816164E-02  0.1266605E+00
        -11   -1    0    0    0    0  0.00000000000E+00  0.00000000000E+00  0.45593999997E+02  0.45594000000E+02  0.51100000000E-03 0.  1.
         11   -1    0    0    0    0 -0.00000000000E+00 -0.00000000000E+00 -0.45593999997E+02  0.45594000000E+02  0.51100000000E-03 0. -1.
    9900012    2    1    2    0    0 -0.31026507633E+02 -0.73387637353E+01 -0.46780415960E+00  0.59301945528E+02  0.50000002736E+02 0.  0.
        -12    1    1    2    0    0  0.31026507633E+02  0.73387637353E+01  0.46780415960E+00  0.31886054472E+02  0.00000000000E+00 0.  1.
         11    1    3    3    0    0 -0.13958588139E+02  0.16623752587E+02  0.10488879983E+02  0.24108254530E+02  0.51100000000E-03 0. -1.
        -11    1    3    3    0    0  0.16959612830E+01 -0.77436937214E+01  0.35255399805E+00  0.79350722560E+01  0.51100000000E-03 0.  1.
        -12    1    3    3    0    0 -0.18763880777E+02 -0.16218822601E+02 -0.11309238141E+02  0.27258618742E+02  0.00000000000E+00 0.  1.
</event>
<event>
 7    1  0.1138240E-011  0.5930188E+02  0.7816164E-02  0.1266605E+00
        -11   -1    0    0    0    0  0.00000000000E+00  0.00000000000E+00  0.45593999997E+02  0.45594000000E+02  0.51100000000E-03 0.  1.
         11   -1    0    0    0    0 -0.00000000000E+00 -0.00000000000E+00 -0.45593999997E+02  0.45594000000E+02  0.51100000000E-03 0. -1.
    9900012    2    1    2    0    0 -0.22669741148E+02 -0.12880041838E+02 -0.18355165290E+02  0.59301878657E+02  0.49999880780E+02 0.  0.
        -12    1    1    2    0    0  0.22669741148E+02  0.12880041838E+02  0.18355165290E+02  0.31886121343E+02  0.00000000000E+00 0.  1.
         11    1    3    3    0    0 -0.35180063262E+02 -0.10447937294E+02 -0.19362462575E+02  0.41493387449E+02  0.51100000000E-03 0. -1.
        -11    1    3    3    0    0 -0.17686408867E+01 -0.11620541455E+01  0.26366195681E+01  0.33808613446E+01  0.51100000000E-03 0.  1.
         12    1    3    3    0    0  0.14278963000E+02 -0.12700503986E+01 -0.16293222829E+01  0.14427629863E+02  0.00000000000E+00 0. -1.
</event>
<event>
 7    1  0.1138240E-011  0.5930195E+02  0.7816164E-02  0.1266605E+00
        -11   -1    0    0    0    0  0.00000000000E+00  0.00000000000E+00  0.45593999997E+02  0.45594000000E+02  0.51100000000E-03 0.  1.
         11   -1    0    0    0    0 -0.00000000000E+00 -0.00000000000E+00 -0.45593999997E+02  0.45594000000E+02  0.51100000000E-03 0. -1.
    9900012    2    1    2    0    0 -0.12064311106E+02  0.13569880409E+02 -0.26211277026E+02  0.59301948189E+02  0.50000007589E+02 0.  0.
        -12    1    1    2    0    0  0.12064311106E+02 -0.13569880409E+02  0.26211277026E+02  0.31886051811E+02  0.00000000000E+00 0.  1.
         11    1    3    3    0    0 -0.46935177816E+00 -0.22180848499E+01  0.58244113317E+01  0.62501167281E+01  0.51100000000E-03 0. -1.
        -11    1    3    3    0    0  0.11296306945E+02  0.96353368388E+01 -0.22999962228E+01  0.15024521606E+02  0.51100000000E-03 0.  1.
         12    1    3    3    0    0 -0.22891266273E+02  0.61526284198E+01 -0.29735692135E+02  0.38027309855E+02  0.00000000000E+00 0. -1.
</event>
<event>
 7    1  0.1138240E-011  0.5930193E+02  0.7816164E-02  0.1266605E+00
        -11   -1    0    0    0    0  0.00000000000E+00  0.00000000000E+00  0.45593999997E+02  0.45594000000E+02  0.51100000000E-03 0.  1.
         11   -1    0    0    0    0 -0.00000000000E+00 -0.00000000000E+00 -0.45593999997E+02  0.45594000000E+02  0.51100000000E-03 0. -1.
    9900012    2    1    2    0    0  0.87226267137E+01  0.19430283804E+02 -0.23729753264E+02  0.59301931954E+02  0.49999977981E+02 0.  0.
        -12    1    1    2    0    0 -0.87226267137E+01 -0.19430283804E+02  0.23729753264E+02  0.31886068046E+02  0.00000000000E+00 0.  1.
         11    1    3    3    0    0  0.52362764373E+00 -0.34651414814E+01 -0.20945262224E+02  0.21236416865E+02  0.51100000000E-03 0. -1.
        -11    1    3    3    0    0  0.77566096744E+01 -0.20170201542E+01  0.76248566004E+01  0.11062178917E+02  0.51100000000E-03 0.  1.
        -12    1    3    3    0    0  0.44238939552E+00  0.24912445439E+02 -0.10409347641E+02  0.27003336172E+02  0.00000000000E+00 0.  1.
</event>
<event>
 7    1  0.1138240E-011  0.5930216E+02  0.7816164E-02  0.1266604E+00
        -11   -1    0    0    0    0  0.00000000000E+00  0.00000000000E+00  0.45593999997E+02  0.45594000000E+02  0.51100000000E-03 0. -1.
         11   -1    0    0    0    0 -0.00000000000E+00 -0.00000000000E+00 -0.45593999997E+02  0.45594000000E+02  0.51100000000E-03 0.  1.
    9900012    2    1    2    0    0  0.29042891392E+02 -0.17188407042E+01  0.13048485151E+02  0.59302158024E+02  0.50000390277E+02 0.  0.
        -12    1    1    2    0    0 -0.29042891392E+02  0.17188407042E+01 -0.13048485151E+02  0.31885841976E+02  0.00000000000E+00 0.  1.
         11    1    3    3    0    0  0.15696321098E+02 -0.84707333006E+01 -0.17677145196E+01  0.17923521795E+02  0.51100000000E-03 0. -1.
        -11    1    3    3    0    0  0.30182342454E+01 -0.11680706795E+02 -0.43768742419E+01  0.12833770981E+02  0.51100000000E-03 0.  1.
        -12    1    3    3    0    0  0.10328336048E+02  0.18432599391E+02  0.19193073913E+02  0.28544865248E+02  0.00000000000E+00 0.  1.
</event>
<event>
 7    1  0.1138240E-011  0.5930215E+02  0.7816164E-02  0.1266604E+00
        -11   -1    0    0    0    0  0.00000000000E+00  0.00000000000E+00  0.45593999997E+02  0.45594000000E+02  0.51100000000E-03 0. -1.
         11   -1    0    0    0    0 -0.00000000000E+00 -0.00000000000E+00 -0.45593999997E+02  0.45594000000E+02  0.51100000000E-03 0.  1.
    9900012    2    1    2    0    0 -0.82846105440E+01  0.85802559087E+01  0.29571132260E+02  0.59302150059E+02  0.50000375750E+02 0.  0.
        -12    1    1    2    0    0  0.82846105440E+01 -0.85802559087E+01 -0.29571132260E+02  0.31885849941E+02  0.00000000000E+00 0.  1.
         11    1    3    3    0    0  0.85278421782E+01 -0.13899295051E+01 -0.56740741663E+01  0.10336881258E+02  0.51100000000E-03 0. -1.
        -11    1    3    3    0    0 -0.16907238143E+01 -0.79493441557E+01  0.18337298592E+02  0.20057595555E+02  0.51100000000E-03 0.  1.
         12    1    3    3    0    0 -0.15121728908E+02  0.17919529569E+02  0.16907907834E+02  0.28907673246E+02  0.00000000000E+00 0. -1.
</event>
<event>
 7    1  0.1138240E-011  0.5930195E+02  0.7816164E-02  0.1266605E+00
        -11   -1    0    0    0    0  0.00000000000E+00  0.00000000000E+00  0.45593999997E+02  0.45594000000E+02  0.51100000000E-03 0. -1.
         11   -1    0    0    0    0 -0.00000000000E+00 -0.00000000000E+00 -0.45593999997E+02  0.45594000000E+02  0.51100000000E-03 0.  1.
    9900012    2    1    2    0    0  0.13485676763E+02  0.28521387072E+02  0.46246001516E+01  0.59301954074E+02  0.50000018322E+02 0.  0.
        -12    1    1    2    0    0 -0.13485676763E+02 -0.28521387072E+02 -0.46246001516E+01  0.31886045926E+02  0.00000000000E+00 0.  1.
         11    1    3    3    0    0 -0.23907901499E+01  0.88621964243E+01  0.10545720552E+02  0.13980937924E+02  0.51100000000E-03 0. -1.
        -11    1    3    3    0    0 -0.67750342461E+01  0.20616112425E+02  0.66840510134E+00  0.21711101911E+02  0.51100000000E-03 0.  1.
        -12    1    3    3    0    0  0.22651501159E+02 -0.95692177722E+00 -0.65895255018E+01  0.23609914239E+02  0.00000000000E+00 0.  1.
</event>
<event>
 7    1  0.1138240E-011  0.5930195E+02  0.7816164E-02  0.1266605E+00
        -11   -1    0    0    0    0  0.00000000000E+00  0.00000000000E+00  0.45593999997E+02  0.45594000000E+02  0.51100000000E-03 0.  1.
         11   -1    0    0    0    0 -0.00000000000E+00 -0.00000000000E+00 -0.45593999997E+02  0.45594000000E+02  0.51100000000E-03 0. -1.
    9900012    2    1    2    0    0 -0.24113397758E+02 -0.20847498502E+02 -0.80377327835E+00  0.59301949810E+02  0.50000010546E+02 0.  0.
        -12    1    1    2    0    0  0.24113397758E+02  0.20847498502E+02  0.80377327835E+00  0.31886050190E+02  0.00000000000E+00 0.  1.
         11    1    3    3    0    0 -0.19712893779E+02 -0.86230048548E+00  0.10247490590E+02  0.22234046121E+02  0.51100000000E-03 0. -1.
        -11    1    3    3    0    0 -0.10453604175E+02  0.28765063517E+01 -0.74277827145E+01  0.13142453552E+02  0.51100000000E-03 0.  1.
         12    1    3    3    0    0  0.60531001962E+01 -0.22861704368E+02 -0.36234811544E+01  0.23925450138E+02  0.00000000000E+00 0. -1.
</event>
<event>
 7    1  0.1138240E-011  0.5930196E+02  0.7816164E-02  0.1266605E+00
        -11   -1    0    0    0    0  0.00000000000E+00  0.00000000000E+00  0.45593999997E+02  0.45594000000E+02  0.51100000000E-03 0.  1.
         11   -1    0    0    0    0 -0.00000000000E+00 -0.00000000000E+00 -0.45593999997E+02  0.45594000000E+02  0.51100000000E-03 0. -1.
    9900012    2    1    2    0    0  0.99117644605E+01 -0.30240574879E+02 -0.19960603653E+01  0.59301957587E+02  0.50000024730E+02 0.  0.
        -12    1    1    2    0    0 -0.99117644605E+01  0.30240574879E+02  0.19960603653E+01  0.31886042413E+02  0.00000000000E+00 0.  1.
         11    1    3    3    0    0  0.19628820822E+01  0.76877196275E+01 -0.79079694825E+00  0.79736628481E+01  0.51100000000E-03 0. -1.
        -11    1    3    3    0    0 -0.65856404014E+01 -0.25147199035E+00  0.75346560990E+01  0.10010241778E+02  0.51100000000E-03 0.  1.
        -12    1    3    3    0    0  0.14534522780E+02 -0.37676822517E+02 -0.87399195161E+01  0.41318052962E+02  0.00000000000E+00 0.  1.
</event>
<event>
 7    1  0.1138240E-011  0.5930195E+02  0.7816164E-02  0.1266605E+00
        -11   -1    0    0    0    0  0.00000000000E+00  0.00000000000E+00  0.45593999997E+02  0.45594000000E+02  0.51100000000E-03 0.  1.
         11   -1    0    0    0    0 -0.00000000000E+00 -0.00000000000E+00 -0.45593999997E+02  0.45594000000E+02  0.51100000000E-03 0. -1.
    9900012    2    1    2    0    0 -0.22730420433E+02 -0.16597802666E+02 -0.14985357179E+02  0.59301952954E+02  0.50000016280E+02 0.  0.
        -12    1    1    2    0    0  0.22730420433E+02  0.16597802666E+02  0.14985357179E+02  0.31886047046E+02  0.00000000000E+00 0.  1.
         11    1    3    3    0    0  0.75299614763E+01 -0.14717052433E+02 -0.27840170944E+01  0.16764328308E+02  0.51100000000E-03 0.  1.
        -11    1    3    3    0    0 -0.91686046539E+01 -0.13716286989E+02 -0.37625123303E+01  0.16922066640E+02  0.51100000000E-03 0. -1.
         12    1    3    3    0    0 -0.21091777256E+02  0.11835536757E+02 -0.84388277545E+01  0.25615558007E+02  0.00000000000E+00 0. -1.
</event>
<event>
 7    1  0.1138240E-011  0.5930208E+02  0.7816164E-02  0.1266604E+00
        -11   -1    0    0    0    0  0.00000000000E+00  0.00000000000E+00  0.45593999997E+02  0.45594000000E+02  0.51100000000E-03 0.  1.
         11   -1    0    0    0    0 -0.00000000000E+00 -0.00000000000E+00 -0.45593999997E+02  0.45594000000E+02  0.51100000000E-03 0. -1.
    9900012    2    1    2    0    0 -0.15423277884E+02 -0.38280535126E+01 -0.27643808940E+02  0.59302083562E+02  0.50000254476E+02 0.  0.
        -12    1    1    2    0    0  0.15423277884E+02  0.38280535126E+01  0.27643808940E+02  0.31885916438E+02  0.00000000000E+00 0.  1.
         11    1    3    3    0    0  0.10888186589E+01 -0.61592862883E+01 -0.17871448356E+02  0.18934386714E+02  0.51100000000E-03 0. -1.
        -11    1    3    3    0    0 -0.16879062059E+01  0.17719343067E+02 -0.45292556980E+01  0.18366771723E+02  0.51100000000E-03 0.  1.
         12    1    3    3    0    0 -0.14824190337E+02 -0.15388110291E+02 -0.52431048868E+01  0.22000925124E+02  0.00000000000E+00 0. -1.
</event>
<event>
 7    1  0.1138240E-011  0.5930192E+02  0.7816164E-02  0.1266605E+00
        -11   -1    0    0    0    0  0.00000000000E+00  0.00000000000E+00  0.45593999997E+02  0.45594000000E+02  0.51100000000E-03 0. -1.
         11   -1    0    0    0    0 -0.00000000000E+00 -0.00000000000E+00 -0.45593999997E+02  0.45594000000E+02  0.51100000000E-03 0.  1.
    9900012    2    1    2    0    0  0.11463375722E+02  0.28920289234E+02  0.69950105822E+01  0.59301917058E+02  0.49999950814E+02 0.  0.
        -12    1    1    2    0    0 -0.11463375722E+02 -0.28920289234E+02 -0.69950105822E+01  0.31886082942E+02  0.00000000000E+00 0.  1.
         11    1    3    3    0    0 -0.65925683727E+01  0.21712647381E+01 -0.19704248179E+01  0.72151869370E+01  0.51100000000E-03 0. -1.
        -11    1    3    3    0    0  0.12780186824E+02  0.16566763955E+02 -0.14847583480E+02  0.25656219103E+02  0.51100000000E-03 0.  1.
         12    1    3    3    0    0  0.52757572705E+01  0.10182260541E+02  0.23813018880E+02  0.26430511018E+02  0.00000000000E+00 0. -1.
</event>
<event>
 7    1  0.1138240E-011  0.5930194E+02  0.7816164E-02  0.1266605E+00
        -11   -1    0    0    0    0  0.00000000000E+00  0.00000000000E+00  0.45593999997E+02  0.45594000000E+02  0.51100000000E-03 0.  1.
         11   -1    0    0    0    0 -0.00000000000E+00 -0.00000000000E+00 -0.45593999997E+02  0.45594000000E+02  0.51100000000E-03 0. -1.
    9900012    2    1    2    0    0 -0.19208489541E+02 -0.25434986675E+02 -0.90348243092E+00  0.59301938812E+02  0.49999990488E+02 0.  0.
        -12    1    1    2    0    0  0.19208489541E+02  0.25434986675E+02  0.90348243092E+00  0.31886061188E+02  0.00000000000E+00 0.  1.
         11    1    3    3    0    0 -0.17302368473E+02 -0.18691044274E+02 -0.44709480820E+01  0.25859552739E+02  0.51100000000E-03 0. -1.
        -11    1    3    3    0    0 -0.19675558161E+01 -0.76151156029E+01 -0.13890450014E+02  0.15962639612E+02  0.51100000000E-03 0.  1.
        -12    1    3    3    0    0  0.61434748015E-01  0.87117320236E+00  0.17457915665E+02  0.17479746461E+02  0.00000000000E+00 0.  1.
</event>
<event>
 7    1  0.1138240E-011  0.5930192E+02  0.7816164E-02  0.1266605E+00
        -11   -1    0    0    0    0  0.00000000000E+00  0.00000000000E+00  0.45593999997E+02  0.45594000000E+02  0.51100000000E-03 0. -1.
         11   -1    0    0    0    0 -0.00000000000E+00 -0.00000000000E+00 -0.45593999997E+02  0.45594000000E+02  0.51100000000E-03 0.  1.
    9900012    2    1    2    0    0 -0.16605265550E+02  0.26355383154E+02 -0.68103398700E+01  0.59301924758E+02  0.49999964857E+02 0.  0.
        -12    1    1    2    0    0  0.16605265550E+02 -0.26355383154E+02  0.68103398700E+01  0.31886075242E+02  0.00000000000E+00 0.  1.
         11    1    3    3    0    0  0.14819760349E+01 -0.31735529881E+00  0.45270559465E+01  0.47740133177E+01  0.51100000000E-03 0. -1.
        -11    1    3    3    0    0 -0.14677679192E+02 -0.90473017667E+01 -0.59697903519E+01  0.18246269011E+02  0.51100000000E-03 0.  1.
        -12    1    3    3    0    0 -0.34095623933E+01  0.35720040219E+02 -0.53676054646E+01  0.36281642430E+02  0.00000000000E+00 0.  1.
</event>
<event>
 7    1  0.1138240E-011  0.5930192E+02  0.7816164E-02  0.1266605E+00
        -11   -1    0    0    0    0  0.00000000000E+00  0.00000000000E+00  0.45593999997E+02  0.45594000000E+02  0.51100000000E-03 0. -1.
         11   -1    0    0    0    0 -0.00000000000E+00 -0.00000000000E+00 -0.45593999997E+02  0.45594000000E+02  0.51100000000E-03 0.  1.
    9900012    2    1    2    0    0 -0.28257323007E+02  0.58299984038E+01  0.13574132734E+02  0.59301917387E+02  0.49999951414E+02 0.  0.
        -12    1    1    2    0    0  0.28257323007E+02 -0.58299984038E+01 -0.13574132734E+02  0.31886082613E+02  0.00000000000E+00 0.  1.
         11    1    3    3    0    0  0.43483267706E+00  0.20758417255E+02  0.72094717939E+01  0.21979022958E+02  0.51100000000E-03 0. -1.
        -11    1    3    3    0    0  0.98911258057E+00 -0.36624620842E+01 -0.22715775833E+01  0.44217685594E+01  0.51100000000E-03 0.  1.
        -12    1    3    3    0    0 -0.29681268265E+02 -0.11265956767E+02  0.86362385236E+01  0.32901125870E+02  0.00000000000E+00 0.  1.
</event>
<event>
 7    1  0.1138240E-011  0.5930192E+02  0.7816164E-02  0.1266605E+00
        -11   -1    0    0    0    0  0.00000000000E+00  0.00000000000E+00  0.45593999997E+02  0.45594000000E+02  0.51100000000E-03 0.  1.
         11   -1    0    0    0    0 -0.00000000000E+00 -0.00000000000E+00 -0.45593999997E+02  0.45594000000E+02  0.51100000000E-03 0. -1.
    9900012    2    1    2    0    0  0.26580516399E+02 -0.63582842127E+01  0.16424682690E+02  0.59301924173E+02  0.49999963790E+02 0.  0.
        -12    1    1    2    0    0 -0.26580516399E+02  0.63582842127E+01 -0.16424682690E+02  0.31886075827E+02  0.00000000000E+00 0.  1.
         11    1    3    3    0    0 -0.43396295098E+01  0.66560552278E+01  0.14133938748E+02  0.16214304804E+02  0.51100000000E-03 0. -1.
        -11    1    3    3    0    0  0.18925338140E+02 -0.15773856331E+01  0.13305109364E+02  0.23187981900E+02  0.51100000000E-03 0.  1.
         12    1    3    3    0    0  0.11994807769E+02 -0.11436953807E+02 -0.11014365421E+02  0.19899637470E+02  0.00000000000E+00 0. -1.
</event>
<event>
 7    1  0.1138240E-011  0.5930191E+02  0.7816164E-02  0.1266605E+00
        -11   -1    0    0    0    0  0.00000000000E+00  0.00000000000E+00  0.45593999997E+02  0.45594000000E+02  0.51100000000E-03 0. -1.
         11   -1    0    0    0    0 -0.00000000000E+00 -0.00000000000E+00 -0.45593999997E+02  0.45594000000E+02  0.51100000000E-03 0.  1.
    9900012    2    1    2    0    0  0.44244075698E+01  0.11025999847E+02  0.29590110866E+02  0.59301910305E+02  0.49999938497E+02 0.  0.
        -12    1    1    2    0    0 -0.44244075698E+01 -0.11025999847E+02 -0.29590110866E+02  0.31886089695E+02  0.00000000000E+00 0.  1.
         11    1    3    3    0    0 -0.92110045404E+01 -0.79716812545E+01  0.73017238318E+01  0.14202305371E+02  0.51100000000E-03 0. -1.
        -11    1    3    3    0    0 -0.81513562898E+01  0.27926846425E+01 -0.17994529202E+01  0.88023705869E+01  0.51100000000E-03 0.  1.
         12    1    3    3    0    0  0.21786768400E+02  0.16204996459E+02  0.24087839955E+02  0.36297234347E+02  0.00000000000E+00 0. -1.
</event>
<event>
 7    1  0.1138240E-011  0.5930194E+02  0.7816164E-02  0.1266605E+00
        -11   -1    0    0    0    0  0.00000000000E+00  0.00000000000E+00  0.45593999997E+02  0.45594000000E+02  0.51100000000E-03 0.  1.
         11   -1    0    0    0    0 -0.00000000000E+00 -0.00000000000E+00 -0.45593999997E+02  0.45594000000E+02  0.51100000000E-03 0. -1.
    9900012    2    1    2    0    0  0.18474042201E+02 -0.25753222118E+02 -0.34931422995E+01  0.59301941482E+02  0.49999995357E+02 0.  0.
        -12    1    1    2    0    0 -0.18474042201E+02  0.25753222118E+02  0.34931422995E+01  0.31886058518E+02  0.00000000000E+00 0.  1.
         11    1    3    3    0    0  0.72108565425E+01 -0.30942136339E+02 -0.17830385190E+02  0.36432607505E+02  0.51100000000E-03 0.  1.
        -11    1    3    3    0    0  0.43474159138E+01 -0.20031203583E+01 -0.68498129497E+00  0.48354643968E+01  0.51100000000E-03 0. -1.
        -12    1    3    3    0    0  0.69157697444E+01  0.71920345791E+01  0.15022224186E+02  0.18033869580E+02  0.00000000000E+00 0.  1.
</event>
<event>
 7    1  0.1138240E-011  0.5930194E+02  0.7816164E-02  0.1266605E+00
        -11   -1    0    0    0    0  0.00000000000E+00  0.00000000000E+00  0.45593999997E+02  0.45594000000E+02  0.51100000000E-03 0. -1.
         11   -1    0    0    0    0 -0.00000000000E+00 -0.00000000000E+00 -0.45593999997E+02  0.45594000000E+02  0.51100000000E-03 0.  1.
    9900012    2    1    2    0    0  0.25292161555E+02 -0.63247867629E+01  0.18358227022E+02  0.59301939360E+02  0.49999991487E+02 0.  0.
        -12    1    1    2    0    0 -0.25292161555E+02  0.63247867629E+01 -0.18358227022E+02  0.31886060640E+02  0.00000000000E+00 0.  1.
         11    1    3    3    0    0  0.14054100188E+02 -0.32281332157E+01 -0.63219794149E+01  0.15745030966E+02  0.51100000000E-03 0. -1.
        -11    1    3    3    0    0  0.11461033512E+02  0.79873124814E+01 -0.25100677850E+01  0.14193410104E+02  0.51100000000E-03 0.  1.
         12    1    3    3    0    0 -0.22297214461E+00 -0.11083966029E+02  0.27190274222E+02  0.29363498289E+02  0.00000000000E+00 0. -1.
</event>
<event>
 7    1  0.1138240E-011  0.5930191E+02  0.7816164E-02  0.1266605E+00
        -11   -1    0    0    0    0  0.00000000000E+00  0.00000000000E+00  0.45593999997E+02  0.45594000000E+02  0.51100000000E-03 0. -1.
         11   -1    0    0    0    0 -0.00000000000E+00 -0.00000000000E+00 -0.45593999997E+02  0.45594000000E+02  0.51100000000E-03 0.  1.
    9900012    2    1    2    0    0  0.38502288140E+01  0.22330758960E+02  0.22432911323E+02  0.59301912625E+02  0.49999942729E+02 0.  0.
        -12    1    1    2    0    0 -0.38502288140E+01 -0.22330758960E+02 -0.22432911323E+02  0.31886087375E+02  0.00000000000E+00 0.  1.
         11    1    3    3    0    0 -0.57769468296E+01  0.44055354621E+01  0.21872688054E+02  0.23047697072E+02  0.51100000000E-03 0. -1.
        -11    1    3    3    0    0  0.14213298617E+02  0.41180910107E+01  0.10922523904E+02  0.18392336987E+02  0.51100000000E-03 0.  1.
         12    1    3    3    0    0 -0.45861229735E+01  0.13807132487E+02 -0.10362300635E+02  0.17861878566E+02  0.00000000000E+00 0. -1.
</event>
<event>
 7    1  0.1138240E-011  0.5930195E+02  0.7816164E-02  0.1266605E+00
        -11   -1    0    0    0    0  0.00000000000E+00  0.00000000000E+00  0.45593999997E+02  0.45594000000E+02  0.51100000000E-03 0.  1.
         11   -1    0    0    0    0 -0.00000000000E+00 -0.00000000000E+00 -0.45593999997E+02  0.45594000000E+02  0.51100000000E-03 0. -1.
    9900012    2    1    2    0    0  0.25112903582E+02 -0.14886495534E+02 -0.12823985725E+02  0.59301948418E+02  0.50000008007E+02 0.  0.
        -12    1    1    2    0    0 -0.25112903582E+02  0.14886495534E+02  0.12823985725E+02  0.31886051582E+02  0.00000000000E+00 0.  1.
         11    1    3    3    0    0  0.15645720536E+02 -0.16824204046E+02  0.61645231552E+01  0.23787470628E+02  0.51100000000E-03 0. -1.
        -11    1    3    3    0    0 -0.43076447628E+01 -0.96266980292E+01 -0.19216864200E+01  0.10720167784E+02  0.51100000000E-03 0.  1.
        -12    1    3    3    0    0  0.13774827809E+02  0.11564406542E+02 -0.17066822460E+02  0.24794310007E+02  0.00000000000E+00 0.  1.
</event>
<event>
 7    1  0.1138240E-011  0.5930198E+02  0.7816164E-02  0.1266605E+00
        -11   -1    0    0    0    0  0.00000000000E+00  0.00000000000E+00  0.45593999997E+02  0.45594000000E+02  0.51100000000E-03 0.  1.
         11   -1    0    0    0    0 -0.00000000000E+00 -0.00000000000E+00 -0.45593999997E+02  0.45594000000E+02  0.51100000000E-03 0. -1.
    9900012    2    1    2    0    0  0.28945583458E+02 -0.12493727337E+02 -0.47726666780E+01  0.59301978427E+02  0.50000062736E+02 0.  0.
        -12    1    1    2    0    0 -0.28945583458E+02  0.12493727337E+02  0.47726666780E+01  0.31886021573E+02  0.00000000000E+00 0.  1.
         11    1    3    3    0    0  0.34400182914E+01 -0.56779626122E+01 -0.11652906489E+02  0.13411309227E+02  0.51100000000E-03 0. -1.
        -11    1    3    3    0    0 -0.25988777614E+01 -0.13379106415E+02 -0.52219201533E+01  0.14595311042E+02  0.51100000000E-03 0.  1.
         12    1    3    3    0    0  0.28104442928E+02  0.65633416897E+01  0.12102159964E+02  0.31295358158E+02  0.00000000000E+00 0. -1.
</event>
<event>
 7    1  0.1138240E-011  0.5930194E+02  0.7816164E-02  0.1266605E+00
        -11   -1    0    0    0    0  0.00000000000E+00  0.00000000000E+00  0.45593999997E+02  0.45594000000E+02  0.51100000000E-03 0.  1.
         11   -1    0    0    0    0 -0.00000000000E+00 -0.00000000000E+00 -0.45593999997E+02  0.45594000000E+02  0.51100000000E-03 0. -1.
    9900012    2    1    2    0    0  0.10761885087E+02  0.20225752659E+02 -0.22177050425E+02  0.59301940243E+02  0.49999993098E+02 0.  0.
        -12    1    1    2    0    0 -0.10761885087E+02 -0.20225752659E+02  0.22177050425E+02  0.31886059757E+02  0.00000000000E+00 0.  1.
         11    1    3    3    0    0  0.14689324177E+02  0.12486530029E+02 -0.93675393803E+01  0.21434562539E+02  0.51100000000E-03 0. -1.
        -11    1    3    3    0    0  0.81925658325E+01  0.16363788581E+02 -0.97603374948E-01  0.18300307055E+02  0.51100000000E-03 0.  1.
        -12    1    3    3    0    0 -0.12120004923E+02 -0.86245659507E+01 -0.12711907670E+02  0.19567070649E+02  0.00000000000E+00 0.  1.
</event>
<event>
 7    1  0.1138240E-011  0.5930195E+02  0.7816164E-02  0.1266605E+00
        -11   -1    0    0    0    0  0.00000000000E+00  0.00000000000E+00  0.45593999997E+02  0.45594000000E+02  0.51100000000E-03 0.  1.
         11   -1    0    0    0    0 -0.00000000000E+00 -0.00000000000E+00 -0.45593999997E+02  0.45594000000E+02  0.51100000000E-03 0. -1.
    9900012    2    1    2    0    0 -0.27987603209E+02  0.14392915901E+02 -0.51242852475E+01  0.59301948805E+02  0.50000008712E+02 0.  0.
        -12    1    1    2    0    0  0.27987603209E+02 -0.14392915901E+02  0.51242852475E+01  0.31886051195E+02  0.00000000000E+00 0.  1.
         11    1    3    3    0    0 -0.15904945847E+02  0.29369032798E+01 -0.41272905423E+01  0.16692130803E+02  0.51100000000E-03 0. -1.
        -11    1    3    3    0    0 -0.19819247499E+01  0.26445876481E+01  0.18586717637E+02  0.18878239916E+02  0.51100000000E-03 0.  1.
         12    1    3    3    0    0 -0.10100732612E+02  0.88114249733E+01 -0.19583712342E+02  0.23731578086E+02  0.00000000000E+00 0. -1.
</event>
<event>
 7    1  0.1138240E-011  0.5930194E+02  0.7816164E-02  0.1266605E+00
        -11   -1    0    0    0    0  0.00000000000E+00  0.00000000000E+00  0.45593999997E+02  0.45594000000E+02  0.51100000000E-03 0.  1.
         11   -1    0    0    0    0 -0.00000000000E+00 -0.00000000000E+00 -0.45593999997E+02  0.45594000000E+02  0.51100000000E-03 0. -1.
    9900012    2    1    2    0    0 -0.19048654955E+02 -0.12473747927E+02 -0.22322071946E+02  0.59301944444E+02  0.50000000760E+02 0.  0.
        -12    1    1    2    0    0  0.19048654955E+02  0.12473747927E+02  0.22322071946E+02  0.31886055556E+02  0.00000000000E+00 0.  1.
         11    1    3    3    0    0 -0.31082982982E+02 -0.72063809750E+01 -0.96039480422E+01  0.33321458192E+02  0.51100000000E-03 0.  1.
        -11    1    3    3    0    0  0.18337946496E+01 -0.56882548292E+01  0.34187633158E+01  0.68852733198E+01  0.51100000000E-03 0. -1.
         12    1    3    3    0    0  0.10200533377E+02  0.42088787747E+00 -0.16136887220E+02  0.19095212932E+02  0.00000000000E+00 0. -1.
</event>
<event>
 7    1  0.1138240E-011  0.5930194E+02  0.7816164E-02  0.1266605E+00
        -11   -1    0    0    0    0  0.00000000000E+00  0.00000000000E+00  0.45593999997E+02  0.45594000000E+02  0.51100000000E-03 0.  1.
         11   -1    0    0    0    0 -0.00000000000E+00 -0.00000000000E+00 -0.45593999997E+02  0.45594000000E+02  0.51100000000E-03 0. -1.
    9900012    2    1    2    0    0  0.29392333166E+02  0.11962338990E+02  0.31167363804E+01  0.59301939586E+02  0.49999991899E+02 0.  0.
        -12    1    1    2    0    0 -0.29392333166E+02 -0.11962338990E+02 -0.31167363804E+01  0.31886060414E+02  0.00000000000E+00 0.  1.
         11    1    3    3    0    0 -0.73256216016E+01 -0.90565193582E+01  0.53354125582E+01  0.12812177885E+02  0.51100000000E-03 0.  1.
        -11    1    3    3    0    0  0.16468252283E+02  0.19726625944E+02 -0.44390898136E+01  0.26077741908E+02  0.51100000000E-03 0. -1.
        -12    1    3    3    0    0  0.20249702485E+02  0.12922324041E+01  0.22204136358E+01  0.20412019793E+02  0.00000000000E+00 0.  1.
</event>
<event>
 7    1  0.1138240E-011  0.5930194E+02  0.7816164E-02  0.1266605E+00
        -11   -1    0    0    0    0  0.00000000000E+00  0.00000000000E+00  0.45593999997E+02  0.45594000000E+02  0.51100000000E-03 0.  1.
         11   -1    0    0    0    0 -0.00000000000E+00 -0.00000000000E+00 -0.45593999997E+02  0.45594000000E+02  0.51100000000E-03 0. -1.
    9900012    2    1    2    0    0  0.25941288552E+02 -0.15817358816E+02 -0.96737437642E+01  0.59301943328E+02  0.49999998725E+02 0.  0.
        -12    1    1    2    0    0 -0.25941288552E+02  0.15817358816E+02  0.96737437642E+01  0.31886056672E+02  0.00000000000E+00 0.  1.
         11    1    3    3    0    0  0.14354102337E+02  0.14399478838E+01  0.13560936006E+02  0.19799310327E+02  0.51100000000E-03 0. -1.
        -11    1    3    3    0    0  0.10539827822E+02  0.53102134462E+00 -0.43027845550E+00  0.10561964495E+02  0.51100000000E-03 0.  1.
        -12    1    3    3    0    0  0.10473583921E+01 -0.17788328045E+02 -0.22804401315E+02  0.28940668506E+02  0.00000000000E+00 0.  1.
</event>
<event>
 7    1  0.1138240E-011  0.5930181E+02  0.7816164E-02  0.1266605E+00
        -11   -1    0    0    0    0  0.00000000000E+00  0.00000000000E+00  0.45593999997E+02  0.45594000000E+02  0.51100000000E-03 0.  1.
         11   -1    0    0    0    0 -0.00000000000E+00 -0.00000000000E+00 -0.45593999997E+02  0.45594000000E+02  0.51100000000E-03 0. -1.
    9900012    2    1    2    0    0 -0.94141060528E-01  0.23557438411E+02 -0.21488767444E+02  0.59301813441E+02  0.49999761841E+02 0.  0.
        -12    1    1    2    0    0  0.94141060528E-01 -0.23557438411E+02  0.21488767444E+02  0.31886186559E+02  0.00000000000E+00 0.  1.
         11    1    3    3    0    0  0.12043567100E+02  0.16534463429E+02 -0.92569975050E+01  0.22452794758E+02  0.51100000000E-03 0. -1.
        -11    1    3    3    0    0 -0.14196167865E+02  0.16620212361E+02 -0.15166426709E+02  0.26604194037E+02  0.51100000000E-03 0.  1.
        -12    1    3    3    0    0  0.20584597047E+01 -0.95972373794E+01  0.29346567705E+01  0.10244824646E+02  0.00000000000E+00 0.  1.
</event>
<event>
 7    1  0.1138240E-011  0.5930195E+02  0.7816164E-02  0.1266605E+00
        -11   -1    0    0    0    0  0.00000000000E+00  0.00000000000E+00  0.45593999997E+02  0.45594000000E+02  0.51100000000E-03 0. -1.
         11   -1    0    0    0    0 -0.00000000000E+00 -0.00000000000E+00 -0.45593999997E+02  0.45594000000E+02  0.51100000000E-03 0.  1.
    9900012    2    1    2    0    0 -0.96654692124E+01  0.16843161558E+02  0.25290445345E+02  0.59301952705E+02  0.50000015824E+02 0.  0.
        -12    1    1    2    0    0  0.96654692124E+01 -0.16843161558E+02 -0.25290445345E+02  0.31886047295E+02  0.00000000000E+00 0.  1.
         11    1    3    3    0    0 -0.17717776212E+02  0.18046689593E+02  0.16306688343E+02  0.30091704573E+02  0.51100000000E-03 0. -1.
        -11    1    3    3    0    0 -0.30298275286E+01  0.71895901548E+01  0.12623527153E+02  0.14839929228E+02  0.51100000000E-03 0.  1.
        -12    1    3    3    0    0  0.11082134528E+02 -0.83931181892E+01 -0.36397701511E+01  0.14370318903E+02  0.00000000000E+00 0.  1.
</event>
<event>
 7    1  0.1138240E-011  0.5930190E+02  0.7816164E-02  0.1266605E+00
        -11   -1    0    0    0    0  0.00000000000E+00  0.00000000000E+00  0.45593999997E+02  0.45594000000E+02  0.51100000000E-03 0.  1.
         11   -1    0    0    0    0 -0.00000000000E+00 -0.00000000000E+00 -0.45593999997E+02  0.45594000000E+02  0.51100000000E-03 0. -1.
    9900012    2    1    2    0    0 -0.30016500228E+02 -0.10730390793E+02 -0.76924461881E+00  0.59301900995E+02  0.49999921518E+02 0.  0.
        -12    1    1    2    0    0  0.30016500228E+02  0.10730390793E+02  0.76924461881E+00  0.31886099005E+02  0.00000000000E+00 0.  1.
         11    1    3    3    0    0 -0.20487467109E+02 -0.18633785601E+02  0.65610947801E+01  0.28460538283E+02  0.51100000000E-03 0. -1.
        -11    1    3    3    0    0 -0.11293236403E+02  0.32106938032E+01  0.83316182867E+01  0.14396583160E+02  0.51100000000E-03 0.  1.
        -12    1    3    3    0    0  0.17642032844E+01  0.46927010056E+01 -0.15661957686E+02  0.16444779552E+02  0.00000000000E+00 0.  1.
</event>
<event>
 7    1  0.1138240E-011  0.5930192E+02  0.7816164E-02  0.1266605E+00
        -11   -1    0    0    0    0  0.00000000000E+00  0.00000000000E+00  0.45593999997E+02  0.45594000000E+02  0.51100000000E-03 0. -1.
         11   -1    0    0    0    0 -0.00000000000E+00 -0.00000000000E+00 -0.45593999997E+02  0.45594000000E+02  0.51100000000E-03 0.  1.
    9900012    2    1    2    0    0  0.23668255707E+02  0.18193137538E+02  0.11204707151E+02  0.59301920843E+02  0.49999957716E+02 0.  0.
        -12    1    1    2    0    0 -0.23668255707E+02 -0.18193137538E+02 -0.11204707151E+02  0.31886079157E+02  0.00000000000E+00 0.  1.
         11    1    3    3    0    0 -0.10686880417E+02  0.10048798973E+02 -0.86024988339E+01  0.17005609671E+02  0.51100000000E-03 0. -1.
        -11    1    3    3    0    0  0.41407501528E+00 -0.19067930367E+01  0.13731427177E+01  0.23859670969E+01  0.51100000000E-03 0.  1.
         12    1    3    3    0    0  0.33941061108E+02  0.10051131601E+02  0.18434063267E+02  0.39910344075E+02  0.00000000000E+00 0. -1.
</event>
<event>
 7    1  0.1138240E-011  0.5930194E+02  0.7816164E-02  0.1266605E+00
        -11   -1    0    0    0    0  0.00000000000E+00  0.00000000000E+00  0.45593999997E+02  0.45594000000E+02  0.51100000000E-03 0.  1.
         11   -1    0    0    0    0 -0.00000000000E+00 -0.00000000000E+00 -0.45593999997E+02  0.45594000000E+02  0.51100000000E-03 0. -1.
    9900012    2    1    2    0    0 -0.10991345634E+02  0.29876898817E+02 -0.18115653660E+01  0.59301944571E+02  0.50000000991E+02 0.  0.
        -12    1    1    2    0    0  0.10991345634E+02 -0.29876898817E+02  0.18115653660E+01  0.31886055429E+02  0.00000000000E+00 0.  1.
         11    1    3    3    0    0 -0.11871993619E+02  0.25011270120E+02  0.34695532807E+01  0.27902431180E+02  0.51100000000E-03 0. -1.
        -11    1    3    3    0    0 -0.89173373659E+01 -0.59285493992E+01 -0.11354207984E+02  0.15607198431E+02  0.51100000000E-03 0.  1.
         12    1    3    3    0    0  0.97979853507E+01  0.10794178096E+02  0.60730893372E+01  0.15792314960E+02  0.00000000000E+00 0. -1.
</event>
<event>
 7    1  0.1138240E-011  0.5930198E+02  0.7816164E-02  0.1266605E+00
        -11   -1    0    0    0    0  0.00000000000E+00  0.00000000000E+00  0.45593999997E+02  0.45594000000E+02  0.51100000000E-03 0.  1.
         11   -1    0    0    0    0 -0.00000000000E+00 -0.00000000000E+00 -0.45593999997E+02  0.45594000000E+02  0.51100000000E-03 0. -1.
    9900012    2    1    2    0    0 -0.26245989909E+02 -0.41714636887E+01 -0.17620023365E+02  0.59301979255E+02  0.50000064246E+02 0.  0.
        -12    1    1    2    0    0  0.26245989909E+02  0.41714636887E+01  0.17620023365E+02  0.31886020745E+02  0.00000000000E+00 0.  1.
         11    1    3    3    0    0 -0.27787867196E+01 -0.10040831939E+02 -0.17044636565E+02  0.19976476104E+02  0.51100000000E-03 0. -1.
        -11    1    3    3    0    0  0.23591460052E+01 -0.91182836708E+01 -0.91987315995E+00  0.94633415804E+01  0.51100000000E-03 0.  1.
        -12    1    3    3    0    0 -0.25826349194E+02  0.14987651921E+02  0.34448635979E+00  0.29862161570E+02  0.00000000000E+00 0.  1.
</event>
<event>
 7    1  0.1138240E-011  0.5930192E+02  0.7816164E-02  0.1266605E+00
        -11   -1    0    0    0    0  0.00000000000E+00  0.00000000000E+00  0.45593999997E+02  0.45594000000E+02  0.51100000000E-03 0.  1.
         11   -1    0    0    0    0 -0.00000000000E+00 -0.00000000000E+00 -0.45593999997E+02  0.45594000000E+02  0.51100000000E-03 0. -1.
    9900012    2    1    2    0    0 -0.52011308654E+00 -0.62306057670E+01 -0.31267088353E+02  0.59301924984E+02  0.49999965269E+02 0.  0.
        -12    1    1    2    0    0  0.52011308654E+00  0.62306057670E+01  0.31267088353E+02  0.31886075016E+02  0.00000000000E+00 0.  1.
         11    1    3    3    0    0  0.81186888537E+01 -0.15916232106E+02  0.14546874864E+01  0.17926395876E+02  0.51100000000E-03 0. -1.
        -11    1    3    3    0    0  0.44175352973E+01  0.58213613494E+01 -0.17084279359E+01  0.75047713047E+01  0.51100000000E-03 0.  1.
        -12    1    3    3    0    0 -0.13056337238E+02  0.38642649900E+01 -0.31013347903E+02  0.33870757803E+02  0.00000000000E+00 0.  1.
</event>
<event>
 7    1  0.1138240E-011  0.5930196E+02  0.7816164E-02  0.1266605E+00
        -11   -1    0    0    0    0  0.00000000000E+00  0.00000000000E+00  0.45593999997E+02  0.45594000000E+02  0.51100000000E-03 0. -1.
         11   -1    0    0    0    0 -0.00000000000E+00 -0.00000000000E+00 -0.45593999997E+02  0.45594000000E+02  0.51100000000E-03 0.  1.
    9900012    2    1    2    0    0 -0.21939086261E+02 -0.20039005089E+01  0.23051693290E+02  0.59301957807E+02  0.50000025130E+02 0.  0.
        -12    1    1    2    0    0  0.21939086261E+02  0.20039005089E+01 -0.23051693290E+02  0.31886042193E+02  0.00000000000E+00 0.  1.
         11    1    3    3    0    0 -0.20679759561E+02 -0.90404524913E+01  0.22585290363E+02  0.31929258961E+02  0.51100000000E-03 0. -1.
        -11    1    3    3    0    0 -0.31849566353E+00 -0.32159893962E+01  0.11698048341E+02  0.12136241697E+02  0.51100000000E-03 0.  1.
        -12    1    3    3    0    0 -0.94083103592E+00  0.10252541379E+02 -0.11231645414E+02  0.15236457149E+02  0.00000000000E+00 0.  1.
</event>
<event>
 7    1  0.1138240E-011  0.5930187E+02  0.7816164E-02  0.1266605E+00
        -11   -1    0    0    0    0  0.00000000000E+00  0.00000000000E+00  0.45593999997E+02  0.45594000000E+02  0.51100000000E-03 0.  1.
         11   -1    0    0    0    0 -0.00000000000E+00 -0.00000000000E+00 -0.45593999997E+02  0.45594000000E+02  0.51100000000E-03 0. -1.
    9900012    2    1    2    0    0 -0.23988319720E+02 -0.18233058872E+02  0.10432706702E+02  0.59301869975E+02  0.49999864946E+02 0.  0.
        -12    1    1    2    0    0  0.23988319720E+02  0.18233058872E+02 -0.10432706702E+02  0.31886130025E+02  0.00000000000E+00 0.  1.
         11    1    3    3    0    0  0.78347239051E+00 -0.13719832728E+02 -0.48522763169E+01  0.14573682609E+02  0.51100000000E-03 0. -1.
        -11    1    3    3    0    0  0.41319687720E+01 -0.11563563729E+02  0.47680446385E+01  0.13172828929E+02  0.51100000000E-03 0.  1.
        -12    1    3    3    0    0 -0.28903760882E+02  0.70503375852E+01  0.10516938381E+02  0.31555358437E+02  0.00000000000E+00 0.  1.
</event>
<event>
 7    1  0.1138240E-011  0.5930197E+02  0.7816164E-02  0.1266605E+00
        -11   -1    0    0    0    0  0.00000000000E+00  0.00000000000E+00  0.45593999997E+02  0.45594000000E+02  0.51100000000E-03 0. -1.
         11   -1    0    0    0    0 -0.00000000000E+00 -0.00000000000E+00 -0.45593999997E+02  0.45594000000E+02  0.51100000000E-03 0.  1.
    9900012    2    1    2    0    0  0.22204097532E+02 -0.22652865619E+02 -0.32472474608E+01  0.59301970394E+02  0.50000048085E+02 0.  0.
        -12    1    1    2    0    0 -0.22204097532E+02  0.22652865619E+02  0.32472474608E+01  0.31886029606E+02  0.00000000000E+00 0.  1.
         11    1    3    3    0    0 -0.12670209130E+01 -0.20321755260E+02 -0.97745906739E+01  0.22585873947E+02  0.51100000000E-03 0. -1.
        -11    1    3    3    0    0  0.33157287227E+01 -0.10770478844E+02  0.94027254608E+01  0.14676802031E+02  0.51100000000E-03 0.  1.
        -12    1    3    3    0    0  0.20155389723E+02  0.84393684847E+01 -0.28753822478E+01  0.22039294416E+02  0.00000000000E+00 0.  1.
</event>
<event>
 7    1  0.1138240E-011  0.5930195E+02  0.7816164E-02  0.1266605E+00
        -11   -1    0    0    0    0  0.00000000000E+00  0.00000000000E+00  0.45593999997E+02  0.45594000000E+02  0.51100000000E-03 0.  1.
         11   -1    0    0    0    0 -0.00000000000E+00 -0.00000000000E+00 -0.45593999997E+02  0.45594000000E+02  0.51100000000E-03 0. -1.
    9900012    2    1    2    0    0  0.12757750516E+01 -0.12783741721E+02 -0.29183359581E+02  0.59301950843E+02  0.50000012430E+02 0.  0.
        -12    1    1    2    0    0 -0.12757750516E+01  0.12783741721E+02  0.29183359581E+02  0.31886049157E+02  0.00000000000E+00 0.  1.
         11    1    3    3    0    0  0.23342778393E+01  0.24378481237E+01  0.59044065236E+01  0.68010273608E+01  0.51100000000E-03 0. -1.
        -11    1    3    3    0    0 -0.10266439131E+02 -0.14917291031E+02 -0.20755766919E+01  0.18227269763E+02  0.51100000000E-03 0.  1.
         12    1    3    3    0    0  0.92079363436E+01 -0.30429881371E+00 -0.33012189413E+02  0.34273653720E+02  0.00000000000E+00 0. -1.
</event>
<event>
 7    1  0.1138240E-011  0.5930194E+02  0.7816164E-02  0.1266605E+00
        -11   -1    0    0    0    0  0.00000000000E+00  0.00000000000E+00  0.45593999997E+02  0.45594000000E+02  0.51100000000E-03 0. -1.
         11   -1    0    0    0    0 -0.00000000000E+00 -0.00000000000E+00 -0.45593999997E+02  0.45594000000E+02  0.51100000000E-03 0.  1.
    9900012    2    1    2    0    0 -0.87751578732E+01  0.26353387556E+02  0.15659392055E+02  0.59301937357E+02  0.49999987834E+02 0.  0.
        -12    1    1    2    0    0  0.87751578732E+01 -0.26353387556E+02 -0.15659392055E+02  0.31886062643E+02  0.00000000000E+00 0.  1.
         11    1    3    3    0    0  0.11034800068E+01  0.21394810021E+02  0.16512926289E+01  0.21486794353E+02  0.51100000000E-03 0. -1.
        -11    1    3    3    0    0  0.11922337084E+02  0.47787346463E+01  0.22339301800E+01  0.13037211001E+02  0.51100000000E-03 0.  1.
         12    1    3    3    0    0 -0.21800974964E+02  0.17984288800E+00  0.11774169246E+02  0.24777932002E+02  0.00000000000E+00 0. -1.
</event>
<event>
 7    1  0.1138240E-011  0.5930194E+02  0.7816164E-02  0.1266605E+00
        -11   -1    0    0    0    0  0.00000000000E+00  0.00000000000E+00  0.45593999997E+02  0.45594000000E+02  0.51100000000E-03 0. -1.
         11   -1    0    0    0    0 -0.00000000000E+00 -0.00000000000E+00 -0.45593999997E+02  0.45594000000E+02  0.51100000000E-03 0.  1.
    9900012    2    1    2    0    0  0.75672654388E+01 -0.19792579692E+01  0.30911806920E+02  0.59301940736E+02  0.49999993996E+02 0.  0.
        -12    1    1    2    0    0 -0.75672654388E+01  0.19792579692E+01 -0.30911806920E+02  0.31886059264E+02  0.00000000000E+00 0.  1.
         11    1    3    3    0    0  0.16519101145E+02  0.62652925896E+01  0.28989339722E+02  0.33948732106E+02  0.51100000000E-03 0. -1.
        -11    1    3    3    0    0  0.12359607389E+01 -0.97612514129E+01  0.86084019314E+01  0.13073416239E+02  0.51100000000E-03 0.  1.
        -12    1    3    3    0    0 -0.10187796445E+02  0.15167008540E+01 -0.66859347327E+01  0.12279792390E+02  0.00000000000E+00 0.  1.
</event>
<event>
 7    1  0.1138240E-011  0.5930193E+02  0.7816164E-02  0.1266605E+00
        -11   -1    0    0    0    0  0.00000000000E+00  0.00000000000E+00  0.45593999997E+02  0.45594000000E+02  0.51100000000E-03 0.  1.
         11   -1    0    0    0    0 -0.00000000000E+00 -0.00000000000E+00 -0.45593999997E+02  0.45594000000E+02  0.51100000000E-03 0. -1.
    9900012    2    1    2    0    0 -0.77526769622E+01  0.44042719127E+01 -0.30614045578E+02  0.59301930976E+02  0.49999976197E+02 0.  0.
        -12    1    1    2    0    0  0.77526769622E+01 -0.44042719127E+01  0.30614045578E+02  0.31886069024E+02  0.00000000000E+00 0.  1.
         11    1    3    3    0    0  0.39693242821E+01  0.58332469453E+01 -0.39700225077E+01  0.80958868664E+01  0.51100000000E-03 0. -1.
        -11    1    3    3    0    0  0.14809801116E+02 -0.49314107519E+01 -0.39103458902E+01  0.16091607327E+02  0.51100000000E-03 0.  1.
         12    1    3    3    0    0 -0.26531802361E+02  0.35024357193E+01 -0.22733677180E+02  0.35114436783E+02  0.00000000000E+00 0. -1.
</event>
<event>
 7    1  0.1138240E-011  0.5930196E+02  0.7816164E-02  0.1266605E+00
        -11   -1    0    0    0    0  0.00000000000E+00  0.00000000000E+00  0.45593999997E+02  0.45594000000E+02  0.51100000000E-03 0. -1.
         11   -1    0    0    0    0 -0.00000000000E+00 -0.00000000000E+00 -0.45593999997E+02  0.45594000000E+02  0.51100000000E-03 0.  1.
    9900012    2    1    2    0    0  0.39710359403E+01  0.30212589081E+02 -0.93888319614E+01  0.59301955544E+02  0.50000021003E+02 0.  0.
        -12    1    1    2    0    0 -0.39710359403E+01 -0.30212589081E+02  0.93888319614E+01  0.31886044456E+02  0.00000000000E+00 0.  1.
         11    1    3    3    0    0  0.82476051470E+01 -0.83004003777E+01 -0.27631477989E+01  0.12023087087E+02  0.51100000000E-03 0. -1.
        -11    1    3    3    0    0  0.31194589789E+01  0.23124365806E+01  0.69123761181E+01  0.79283876747E+01  0.51100000000E-03 0.  1.
        -12    1    3    3    0    0 -0.73960281856E+01  0.36200552878E+02 -0.13538060281E+02  0.39350480782E+02  0.00000000000E+00 0.  1.
</event>
<event>
 7    1  0.1138240E-011  0.5930196E+02  0.7816164E-02  0.1266605E+00
        -11   -1    0    0    0    0  0.00000000000E+00  0.00000000000E+00  0.45593999997E+02  0.45594000000E+02  0.51100000000E-03 0. -1.
         11   -1    0    0    0    0 -0.00000000000E+00 -0.00000000000E+00 -0.45593999997E+02  0.45594000000E+02  0.51100000000E-03 0.  1.
    9900012    2    1    2    0    0  0.21343204087E+02 -0.54212982137E+01  0.23060716905E+02  0.59301960748E+02  0.50000030494E+02 0.  0.
        -12    1    1    2    0    0 -0.21343204087E+02  0.54212982137E+01 -0.23060716905E+02  0.31886039252E+02  0.00000000000E+00 0.  1.
         11    1    3    3    0    0  0.10950699123E+01 -0.10564061346E+02  0.10850147089E+02  0.15183025467E+02  0.51100000000E-03 0. -1.
        -11    1    3    3    0    0 -0.94389425953E+01 -0.39744319746E+01 -0.11607409170E+01  0.10307136682E+02  0.51100000000E-03 0.  1.
         12    1    3    3    0    0  0.29687076770E+02  0.91171951072E+01  0.13371310733E+02  0.33811798599E+02  0.00000000000E+00 0. -1.
</event>
<event>
 7    1  0.1138240E-011  0.5930192E+02  0.7816164E-02  0.1266605E+00
        -11   -1    0    0    0    0  0.00000000000E+00  0.00000000000E+00  0.45593999997E+02  0.45594000000E+02  0.51100000000E-03 0.  1.
         11   -1    0    0    0    0 -0.00000000000E+00 -0.00000000000E+00 -0.45593999997E+02  0.45594000000E+02  0.51100000000E-03 0. -1.
    9900012    2    1    2    0    0  0.20017367586E+02 -0.54384256814E+01 -0.24216735961E+02  0.59301924990E+02  0.49999965280E+02 0.  0.
        -12    1    1    2    0    0 -0.20017367586E+02  0.54384256814E+01  0.24216735961E+02  0.31886075010E+02  0.00000000000E+00 0.  1.
         11    1    3    3    0    0  0.88046783524E+01 -0.21570978841E+02 -0.82459471672E+01  0.24714876775E+02  0.51100000000E-03 0. -1.
        -11    1    3    3    0    0  0.19697266444E+01 -0.48769565415E+01 -0.93003363198E+01  0.10684605004E+02  0.51100000000E-03 0.  1.
        -12    1    3    3    0    0  0.92429625888E+01  0.21009509701E+02 -0.66704524736E+01  0.23902443212E+02  0.00000000000E+00 0.  1.
</event>
<event>
 7    1  0.1138240E-011  0.5930195E+02  0.7816164E-02  0.1266605E+00
        -11   -1    0    0    0    0  0.00000000000E+00  0.00000000000E+00  0.45593999997E+02  0.45594000000E+02  0.51100000000E-03 0. -1.
         11   -1    0    0    0    0 -0.00000000000E+00 -0.00000000000E+00 -0.45593999997E+02  0.45594000000E+02  0.51100000000E-03 0.  1.
    9900012    2    1    2    0    0 -0.31160383031E+02  0.65517979491E+01 -0.16806228137E+01  0.59301952580E+02  0.50000015597E+02 0.  0.
        -12    1    1    2    0    0  0.31160383031E+02 -0.65517979491E+01  0.16806228137E+01  0.31886047420E+02  0.00000000000E+00 0.  1.
         11    1    3    3    0    0 -0.77496793496E+01 -0.83076364462E+01 -0.50875969230E+00  0.11372475106E+02  0.51100000000E-03 0. -1.
        -11    1    3    3    0    0  0.55211525673E+01  0.25295965599E+01  0.12298705108E+02  0.13716418338E+02  0.51100000000E-03 0.  1.
         12    1    3    3    0    0 -0.28931856249E+02  0.12329837835E+02 -0.13470568229E+02  0.34213059137E+02  0.00000000000E+00 0. -1.
</event>
<event>
 7    1  0.1138240E-011  0.5930195E+02  0.7816164E-02  0.1266605E+00
        -11   -1    0    0    0    0  0.00000000000E+00  0.00000000000E+00  0.45593999997E+02  0.45594000000E+02  0.51100000000E-03 0.  1.
         11   -1    0    0    0    0 -0.00000000000E+00 -0.00000000000E+00 -0.45593999997E+02  0.45594000000E+02  0.51100000000E-03 0. -1.
    9900012    2    1    2    0    0  0.26549803583E+02  0.12498123929E+02  0.12474975248E+02  0.59301950080E+02  0.50000011039E+02 0.  0.
        -12    1    1    2    0    0 -0.26549803583E+02 -0.12498123929E+02 -0.12474975248E+02  0.31886049920E+02  0.00000000000E+00 0.  1.
         11    1    3    3    0    0 -0.35219408362E+01 -0.77086547440E+01  0.78702667581E+01  0.11565834355E+02  0.51100000000E-03 0. -1.
        -11    1    3    3    0    0  0.48789627662E+01 -0.25115660735E+01  0.11839872449E+02  0.13049705808E+02  0.51100000000E-03 0.  1.
         12    1    3    3    0    0  0.25192781653E+02  0.22718344747E+02 -0.72351639592E+01  0.34686409918E+02  0.00000000000E+00 0. -1.
</event>
<event>
 7    1  0.1138240E-011  0.5930199E+02  0.7816164E-02  0.1266605E+00
        -11   -1    0    0    0    0  0.00000000000E+00  0.00000000000E+00  0.45593999997E+02  0.45594000000E+02  0.51100000000E-03 0. -1.
         11   -1    0    0    0    0 -0.00000000000E+00 -0.00000000000E+00 -0.45593999997E+02  0.45594000000E+02  0.51100000000E-03 0.  1.
    9900012    2    1    2    0    0 -0.14249885231E+02  0.20783164887E+02  0.19537614179E+02  0.59301991476E+02  0.50000086535E+02 0.  0.
        -12    1    1    2    0    0  0.14249885231E+02 -0.20783164887E+02 -0.19537614179E+02  0.31886008524E+02  0.00000000000E+00 0.  1.
         11    1    3    3    0    0 -0.88457611869E+01  0.30233429877E+02  0.91075394140E+01  0.32791081829E+02  0.51100000000E-03 0.  1.
        -11    1    3    3    0    0  0.47822623834E+01  0.28427588651E+01  0.88693699651E+01  0.10469815438E+02  0.51100000000E-03 0. -1.
        -12    1    3    3    0    0 -0.10186386427E+02 -0.12293023855E+02  0.15607047994E+01  0.16041094209E+02  0.00000000000E+00 0.  1.
</event>
<event>
 7    1  0.1138240E-011  0.5930194E+02  0.7816164E-02  0.1266605E+00
        -11   -1    0    0    0    0  0.00000000000E+00  0.00000000000E+00  0.45593999997E+02  0.45594000000E+02  0.51100000000E-03 0.  1.
         11   -1    0    0    0    0 -0.00000000000E+00 -0.00000000000E+00 -0.45593999997E+02  0.45594000000E+02  0.51100000000E-03 0. -1.
    9900012    2    1    2    0    0  0.20760203653E+02  0.78158753093E+01 -0.22905168907E+02  0.59301941523E+02  0.49999995432E+02 0.  0.
        -12    1    1    2    0    0 -0.20760203653E+02 -0.78158753093E+01  0.22905168907E+02  0.31886058477E+02  0.00000000000E+00 0.  1.
         11    1    3    3    0    0 -0.94518142255E+00  0.37055920372E+00 -0.12642565977E+02  0.12683262861E+02  0.51100000000E-03 0. -1.
        -11    1    3    3    0    0  0.28294115043E+01  0.21630439893E+02 -0.60038956156E+01  0.22625831747E+02  0.51100000000E-03 0.  1.
         12    1    3    3    0    0  0.18875973571E+02 -0.14185123787E+02 -0.42587073135E+01  0.23992846915E+02  0.00000000000E+00 0. -1.
</event>
<event>
 7    1  0.1138240E-011  0.5930193E+02  0.7816164E-02  0.1266605E+00
        -11   -1    0    0    0    0  0.00000000000E+00  0.00000000000E+00  0.45593999997E+02  0.45594000000E+02  0.51100000000E-03 0.  1.
         11   -1    0    0    0    0 -0.00000000000E+00 -0.00000000000E+00 -0.45593999997E+02  0.45594000000E+02  0.51100000000E-03 0. -1.
    9900012    2    1    2    0    0 -0.17755589508E+02  0.34176545665E+01 -0.26263663925E+02  0.59301931501E+02  0.49999977155E+02 0.  0.
        -12    1    1    2    0    0  0.17755589508E+02 -0.34176545665E+01  0.26263663925E+02  0.31886068499E+02  0.00000000000E+00 0.  1.
         11    1    3    3    0    0 -0.72464691465E+01 -0.23085840958E+01 -0.23651737107E+02  0.24844426821E+02  0.51100000000E-03 0. -1.
        -11    1    3    3    0    0 -0.19888756523E+01 -0.50656281076E+01 -0.14995912039E+02  0.15952855312E+02  0.51100000000E-03 0.  1.
        -12    1    3    3    0    0 -0.85202447092E+01  0.10791866770E+02  0.12383985220E+02  0.18504649368E+02  0.00000000000E+00 0.  1.
</event>
<event>
 7    1  0.1138240E-011  0.5930200E+02  0.7816164E-02  0.1266605E+00
        -11   -1    0    0    0    0  0.00000000000E+00  0.00000000000E+00  0.45593999997E+02  0.45594000000E+02  0.51100000000E-03 0.  1.
         11   -1    0    0    0    0 -0.00000000000E+00 -0.00000000000E+00 -0.45593999997E+02  0.45594000000E+02  0.51100000000E-03 0. -1.
    9900012    2    1    2    0    0 -0.24802653787E+02  0.31615253940E+01 -0.19787622861E+02  0.59302001565E+02  0.50000104934E+02 0.  0.
        -12    1    1    2    0    0  0.24802653787E+02 -0.31615253940E+01  0.19787622861E+02  0.31885998435E+02  0.00000000000E+00 0.  1.
         11    1    3    3    0    0  0.11750279659E+01 -0.45083981934E+01 -0.22823323243E+02  0.23293999852E+02  0.51100000000E-03 0. -1.
        -11    1    3    3    0    0 -0.19756695795E+02  0.20543519114E+01 -0.86193040006E+01  0.21652708658E+02  0.51100000000E-03 0.  1.
        -12    1    3    3    0    0 -0.62209859584E+01  0.56155716760E+01  0.11655004383E+02  0.14355293055E+02  0.00000000000E+00 0.  1.
</event>
<event>
 7    1  0.1138240E-011  0.5930197E+02  0.7816164E-02  0.1266605E+00
        -11   -1    0    0    0    0  0.00000000000E+00  0.00000000000E+00  0.45593999997E+02  0.45594000000E+02  0.51100000000E-03 0.  1.
         11   -1    0    0    0    0 -0.00000000000E+00 -0.00000000000E+00 -0.45593999997E+02  0.45594000000E+02  0.51100000000E-03 0. -1.
    9900012    2    1    2    0    0  0.71329444570E+00 -0.18113102887E+02 -0.26232148111E+02  0.59301970462E+02  0.50000048210E+02 0.  0.
        -12    1    1    2    0    0 -0.71329444570E+00  0.18113102887E+02  0.26232148111E+02  0.31886029538E+02  0.00000000000E+00 0.  1.
         11    1    3    3    0    0  0.12545329427E+02 -0.32922913696E+01 -0.65073010275E+01  0.14511010986E+02  0.51100000000E-03 0. -1.
        -11    1    3    3    0    0  0.55795635529E+01  0.26169934536E+01  0.63952078097E+01  0.88813775602E+01  0.51100000000E-03 0.  1.
        -12    1    3    3    0    0 -0.17411598534E+02 -0.17437804971E+02 -0.26120054894E+02  0.35909581916E+02  0.00000000000E+00 0.  1.
</event>
<event>
 7    1  0.1138240E-011  0.5930201E+02  0.7816164E-02  0.1266605E+00
        -11   -1    0    0    0    0  0.00000000000E+00  0.00000000000E+00  0.45593999997E+02  0.45594000000E+02  0.51100000000E-03 0.  1.
         11   -1    0    0    0    0 -0.00000000000E+00 -0.00000000000E+00 -0.45593999997E+02  0.45594000000E+02  0.51100000000E-03 0. -1.
    9900012    2    1    2    0    0  0.76047027377E+01  0.30855838957E+02  0.26080826969E+01  0.59302009396E+02  0.50000119216E+02 0.  0.
        -12    1    1    2    0    0 -0.76047027377E+01 -0.30855838957E+02 -0.26080826969E+01  0.31885990604E+02  0.00000000000E+00 0.  1.
         11    1    3    3    0    0  0.81137275245E+00  0.25640418883E+02  0.51447004994E+01  0.26164046891E+02  0.51100000000E-03 0. -1.
        -11    1    3    3    0    0  0.47364595970E+00  0.11943380584E+01  0.14484601122E+02  0.14541473578E+02  0.51100000000E-03 0.  1.
         12    1    3    3    0    0  0.63196840255E+01  0.40210820153E+01 -0.17021218924E+02  0.18596488927E+02  0.00000000000E+00 0. -1.
</event>
<event>
 7    1  0.1138240E-011  0.5930187E+02  0.7816164E-02  0.1266605E+00
        -11   -1    0    0    0    0  0.00000000000E+00  0.00000000000E+00  0.45593999997E+02  0.45594000000E+02  0.51100000000E-03 0.  1.
         11   -1    0    0    0    0 -0.00000000000E+00 -0.00000000000E+00 -0.45593999997E+02  0.45594000000E+02  0.51100000000E-03 0. -1.
    9900012    2    1    2    0    0  0.17936889369E+02 -0.25433213624E+02 -0.69386511995E+01  0.59301870791E+02  0.49999866434E+02 0.  0.
        -12    1    1    2    0    0 -0.17936889369E+02  0.25433213624E+02  0.69386511995E+01  0.31886129209E+02  0.00000000000E+00 0.  1.
         11    1    3    3    0    0  0.25856826269E+01 -0.16620391415E+02  0.86663814866E+01  0.18921663082E+02  0.51100000000E-03 0. -1.
        -11    1    3    3    0    0 -0.88659792964E+01  0.34256455275E+01 -0.97825841565E+00  0.95549791184E+01  0.51100000000E-03 0.  1.
         12    1    3    3    0    0  0.24217186038E+02 -0.12238467736E+02 -0.14626774270E+02  0.30825228591E+02  0.00000000000E+00 0. -1.
</event>
<event>
 7    1  0.1138240E-011  0.5930195E+02  0.7816164E-02  0.1266605E+00
        -11   -1    0    0    0    0  0.00000000000E+00  0.00000000000E+00  0.45593999997E+02  0.45594000000E+02  0.51100000000E-03 0. -1.
         11   -1    0    0    0    0 -0.00000000000E+00 -0.00000000000E+00 -0.45593999997E+02  0.45594000000E+02  0.51100000000E-03 0.  1.
    9900012    2    1    2    0    0 -0.18079271833E+02 -0.42843286694E+00  0.26261696551E+02  0.59301947713E+02  0.50000006720E+02 0.  0.
        -12    1    1    2    0    0  0.18079271833E+02  0.42843286694E+00 -0.26261696551E+02  0.31886052287E+02  0.00000000000E+00 0.  1.
         11    1    3    3    0    0 -0.17838100044E+01 -0.76179931784E+01  0.67837427293E+01  0.10355431612E+02  0.51100000000E-03 0. -1.
        -11    1    3    3    0    0 -0.29324950050E+02  0.89160557057E+01  0.18422489452E+02  0.35760828607E+02  0.51100000000E-03 0.  1.
         12    1    3    3    0    0  0.13029488221E+02 -0.17264953942E+01  0.10554643696E+01  0.13185687494E+02  0.00000000000E+00 0. -1.
</event>
<event>
 7    1  0.1138240E-011  0.5930189E+02  0.7816164E-02  0.1266605E+00
        -11   -1    0    0    0    0  0.00000000000E+00  0.00000000000E+00  0.45593999997E+02  0.45594000000E+02  0.51100000000E-03 0.  1.
         11   -1    0    0    0    0 -0.00000000000E+00 -0.00000000000E+00 -0.45593999997E+02  0.45594000000E+02  0.51100000000E-03 0. -1.
    9900012    2    1    2    0    0  0.15334291314E+02  0.27216711843E+02  0.63901671835E+01  0.59301888129E+02  0.49999898054E+02 0.  0.
        -12    1    1    2    0    0 -0.15334291314E+02 -0.27216711843E+02 -0.63901671835E+01  0.31886111871E+02  0.00000000000E+00 0.  1.
         11    1    3    3    0    0  0.12492795294E+02  0.13001866464E+02  0.15178638703E+02  0.23569249859E+02  0.51100000000E-03 0. -1.
        -11    1    3    3    0    0 -0.40575141495E+01  0.18677126578E+01  0.10733297417E+02  0.11625637417E+02  0.51100000000E-03 0.  1.
         12    1    3    3    0    0  0.68990101693E+01  0.12347132721E+02 -0.19521768936E+02  0.24107000853E+02  0.00000000000E+00 0. -1.
</event>
<event>
 7    1  0.1138240E-011  0.5930194E+02  0.7816164E-02  0.1266605E+00
        -11   -1    0    0    0    0  0.00000000000E+00  0.00000000000E+00  0.45593999997E+02  0.45594000000E+02  0.51100000000E-03 0.  1.
         11   -1    0    0    0    0 -0.00000000000E+00 -0.00000000000E+00 -0.45593999997E+02  0.45594000000E+02  0.51100000000E-03 0. -1.
    9900012    2    1    2    0    0  0.24566569141E+02  0.19676055435E+02 -0.51046132222E+01  0.59301944223E+02  0.50000000357E+02 0.  0.
        -12    1    1    2    0    0 -0.24566569141E+02 -0.19676055435E+02  0.51046132222E+01  0.31886055777E+02  0.00000000000E+00 0.  1.
         11    1    3    3    0    0  0.27258978413E+02  0.47344187830E+01 -0.96131295839E+00  0.27683763260E+02  0.51100000000E-03 0. -1.
        -11    1    3    3    0    0  0.62705017371E+01  0.99081992132E+00  0.86112839055E+01  0.10698370292E+02  0.51100000000E-03 0.  1.
         12    1    3    3    0    0 -0.89629110089E+01  0.13950816730E+02 -0.12754584169E+02  0.20919810671E+02  0.00000000000E+00 0. -1.
</event>
<event>
 7    1  0.1138240E-011  0.5930195E+02  0.7816164E-02  0.1266605E+00
        -11   -1    0    0    0    0  0.00000000000E+00  0.00000000000E+00  0.45593999997E+02  0.45594000000E+02  0.51100000000E-03 0.  1.
         11   -1    0    0    0    0 -0.00000000000E+00 -0.00000000000E+00 -0.45593999997E+02  0.45594000000E+02  0.51100000000E-03 0. -1.
    9900012    2    1    2    0    0 -0.20331950040E+01  0.10935703909E+02 -0.29883048459E+02  0.59301951529E+02  0.50000013680E+02 0.  0.
        -12    1    1    2    0    0  0.20331950040E+01 -0.10935703909E+02  0.29883048459E+02  0.31886048471E+02  0.00000000000E+00 0.  1.
         11    1    3    3    0    0  0.56262233600E+01  0.20631998218E+02 -0.12110666898E+02  0.24576451996E+02  0.51100000000E-03 0. -1.
        -11    1    3    3    0    0  0.29310748556E+00  0.73768713799E+01  0.17620998606E+01  0.75900684802E+01  0.51100000000E-03 0.  1.
        -12    1    3    3    0    0 -0.79525258496E+01 -0.17073165688E+02 -0.19534481421E+02  0.27135431052E+02  0.00000000000E+00 0.  1.
</event>
<event>
 7    1  0.1138240E-011  0.5930195E+02  0.7816164E-02  0.1266605E+00
        -11   -1    0    0    0    0  0.00000000000E+00  0.00000000000E+00  0.45593999997E+02  0.45594000000E+02  0.51100000000E-03 0. -1.
         11   -1    0    0    0    0 -0.00000000000E+00 -0.00000000000E+00 -0.45593999997E+02  0.45594000000E+02  0.51100000000E-03 0.  1.
    9900012    2    1    2    0    0  0.26688716464E+01 -0.42743966051E+01  0.31485341981E+02  0.59301951297E+02  0.50000013257E+02 0.  0.
        -12    1    1    2    0    0 -0.26688716464E+01  0.42743966051E+01 -0.31485341981E+02  0.31886048703E+02  0.00000000000E+00 0.  1.
         11    1    3    3    0    0  0.53732314337E+01 -0.40871664645E+01  0.85667200169E+01  0.10907118678E+02  0.51100000000E-03 0. -1.
        -11    1    3    3    0    0  0.18561501375E+02 -0.39972106685E+01  0.34202659536E+01  0.19292621539E+02  0.51100000000E-03 0.  1.
        -12    1    3    3    0    0 -0.21265861162E+02  0.38099805280E+01  0.19498356011E+02  0.29102211079E+02  0.00000000000E+00 0.  1.
</event>
<event>
 7    1  0.1138240E-011  0.5930192E+02  0.7816164E-02  0.1266605E+00
        -11   -1    0    0    0    0  0.00000000000E+00  0.00000000000E+00  0.45593999997E+02  0.45594000000E+02  0.51100000000E-03 0.  1.
         11   -1    0    0    0    0 -0.00000000000E+00 -0.00000000000E+00 -0.45593999997E+02  0.45594000000E+02  0.51100000000E-03 0. -1.
    9900012    2    1    2    0    0  0.15662725281E+02 -0.16821180749E+02 -0.22100884778E+02  0.59301918507E+02  0.49999953456E+02 0.  0.
        -12    1    1    2    0    0 -0.15662725281E+02  0.16821180749E+02  0.22100884778E+02  0.31886081493E+02  0.00000000000E+00 0.  1.
         11    1    3    3    0    0  0.26629588505E+02 -0.11480369513E+01 -0.10856133528E+02  0.28780351079E+02  0.51100000000E-03 0. -1.
        -11    1    3    3    0    0 -0.23919907083E+01 -0.38746212029E+01  0.62573251520E+01  0.77387613566E+01  0.51100000000E-03 0.  1.
        -12    1    3    3    0    0 -0.85748725159E+01 -0.11798522595E+02 -0.17502076402E+02  0.22782806071E+02  0.00000000000E+00 0.  1.
</event>
<event>
 7    1  0.1138240E-011  0.5930196E+02  0.7816164E-02  0.1266605E+00
        -11   -1    0    0    0    0  0.00000000000E+00  0.00000000000E+00  0.45593999997E+02  0.45594000000E+02  0.51100000000E-03 0. -1.
         11   -1    0    0    0    0 -0.00000000000E+00 -0.00000000000E+00 -0.45593999997E+02  0.45594000000E+02  0.51100000000E-03 0.  1.
    9900012    2    1    2    0    0 -0.88848554845E+01 -0.30554144549E+02 -0.20550601709E+01  0.59301957938E+02  0.50000025369E+02 0.  0.
        -12    1    1    2    0    0  0.88848554845E+01  0.30554144549E+02  0.20550601709E+01  0.31886042062E+02  0.00000000000E+00 0.  1.
         11    1    3    3    0    0  0.41227868517E+01 -0.15195048330E+02 -0.29354019467E+01  0.16015725086E+02  0.51100000000E-03 0. -1.
        -11    1    3    3    0    0  0.27081354759E+01  0.28939918339E+01 -0.14283977436E+02  0.14823670198E+02  0.51100000000E-03 0.  1.
         12    1    3    3    0    0 -0.15715777812E+02 -0.18253088053E+02  0.15164319211E+02  0.28462562654E+02  0.00000000000E+00 0. -1.
</event>
<event>
 7    1  0.1138240E-011  0.5930193E+02  0.7816164E-02  0.1266605E+00
        -11   -1    0    0    0    0  0.00000000000E+00  0.00000000000E+00  0.45593999997E+02  0.45594000000E+02  0.51100000000E-03 0. -1.
         11   -1    0    0    0    0 -0.00000000000E+00 -0.00000000000E+00 -0.45593999997E+02  0.45594000000E+02  0.51100000000E-03 0.  1.
    9900012    2    1    2    0    0  0.24318757456E+02 -0.11990739174E+02  0.16779195865E+02  0.59301934015E+02  0.49999981738E+02 0.  0.
        -12    1    1    2    0    0 -0.24318757456E+02  0.11990739174E+02 -0.16779195865E+02  0.31886065985E+02  0.00000000000E+00 0.  1.
         11    1    3    3    0    0  0.58330989109E+01 -0.89153777217E+01  0.44980983381E+01  0.11564682950E+02  0.51100000000E-03 0. -1.
        -11    1    3    3    0    0  0.21736984248E+02 -0.15728947248E+02  0.19162476311E+02  0.32971150486E+02  0.51100000000E-03 0.  1.
        -12    1    3    3    0    0 -0.32513257032E+01  0.12653585795E+02 -0.68813787840E+01  0.14766100578E+02  0.00000000000E+00 0.  1.
</event>
<event>
 7    1  0.1170882E-011  0.5930189E+02  0.7816164E-02  0.1266605E+00
        -11   -1    0    0    0    0  0.00000000000E+00  0.00000000000E+00  0.45593999997E+02  0.45594000000E+02  0.51100000000E-03 0. -1.
         11   -1    0    0    0    0 -0.00000000000E+00 -0.00000000000E+00 -0.45593999997E+02  0.45594000000E+02  0.51100000000E-03 0.  1.
    9900012    2    1    2    0    0 -0.70599489630E+01 -0.12517414852E+02  0.28463936654E+02  0.59301886348E+02  0.49999894806E+02 0.  0.
        -12    1    1    2    0    0  0.70599489630E+01  0.12517414852E+02 -0.28463936654E+02  0.31886113652E+02  0.00000000000E+00 0.  1.
         11    1    3    3    0    0  0.53468133342E+01  0.67744687648E+01  0.19737928196E+02  0.21542229448E+02  0.51100000000E-03 0. -1.
        -11    1    3    3    0    0 -0.98717456206E+01  0.25725925152E+01  0.11729071213E+02  0.15544796738E+02  0.51100000000E-03 0.  1.
        -12    1    3    3    0    0 -0.25350166766E+01 -0.21864476132E+02 -0.30030627546E+01  0.22214860162E+02  0.00000000000E+00 0.  1.
</event>
<event>
 7    1  0.1138240E-011  0.5930195E+02  0.7816164E-02  0.1266605E+00
        -11   -1    0    0    0    0  0.00000000000E+00  0.00000000000E+00  0.45593999997E+02  0.45594000000E+02  0.51100000000E-03 0.  1.
         11   -1    0    0    0    0 -0.00000000000E+00 -0.00000000000E+00 -0.45593999997E+02  0.45594000000E+02  0.51100000000E-03 0. -1.
    9900012    2    1    2    0    0 -0.59700141031E+01  0.29800436575E+02 -0.96443307864E+01  0.59301949684E+02  0.50000010315E+02 0.  0.
        -12    1    1    2    0    0  0.59700141031E+01 -0.29800436575E+02  0.96443307864E+01  0.31886050316E+02  0.00000000000E+00 0.  1.
         11    1    3    3    0    0  0.13864117924E+02  0.64170937950E+01 -0.18616317163E+01  0.15390208949E+02  0.51100000000E-03 0. -1.
        -11    1    3    3    0    0 -0.15048276504E+01 -0.73038774793E+01 -0.91117688135E+00  0.75127475706E+01  0.51100000000E-03 0.  1.
        -12    1    3    3    0    0 -0.18329304376E+02  0.30687220260E+02 -0.68715221888E+01  0.36398993164E+02  0.00000000000E+00 0.  1.
</event>
<event>
 7    1  0.1138240E-011  0.5930192E+02  0.7816164E-02  0.1266605E+00
        -11   -1    0    0    0    0  0.00000000000E+00  0.00000000000E+00  0.45593999997E+02  0.45594000000E+02  0.51100000000E-03 0.  1.
         11   -1    0    0    0    0 -0.00000000000E+00 -0.00000000000E+00 -0.45593999997E+02  0.45594000000E+02  0.51100000000E-03 0. -1.
    9900012    2    1    2    0    0  0.20851937572E+02  0.83126626237E+01 -0.22645498311E+02  0.59301917548E+02  0.49999951707E+02 0.  0.
        -12    1    1    2    0    0 -0.20851937572E+02 -0.83126626237E+01  0.22645498311E+02  0.31886082452E+02  0.00000000000E+00 0.  1.
         11    1    3    3    0    0  0.11831200830E+00 -0.65556467495E+01 -0.39288506029E+01  0.76437143691E+01  0.51100000000E-03 0. -1.
        -11    1    3    3    0    0 -0.18733275967E+01 -0.64513804246E+01  0.81627319941E+01  0.10571653586E+02  0.51100000000E-03 0.  1.
        -12    1    3    3    0    0  0.22606953160E+02  0.21319689798E+02 -0.26879379703E+02  0.41086549593E+02  0.00000000000E+00 0.  1.
</event>
<event>
 7    1  0.1138240E-011  0.5930201E+02  0.7816164E-02  0.1266605E+00
        -11   -1    0    0    0    0  0.00000000000E+00  0.00000000000E+00  0.45593999997E+02  0.45594000000E+02  0.51100000000E-03 0.  1.
         11   -1    0    0    0    0 -0.00000000000E+00 -0.00000000000E+00 -0.45593999997E+02  0.45594000000E+02  0.51100000000E-03 0. -1.
    9900012    2    1    2    0    0 -0.18700447431E+02  0.15578963707E+02 -0.20598681509E+02  0.59302007398E+02  0.50000115572E+02 0.  0.
        -12    1    1    2    0    0  0.18700447431E+02 -0.15578963707E+02  0.20598681509E+02  0.31885992602E+02  0.00000000000E+00 0.  1.
         11    1    3    3    0    0 -0.23376927995E+02  0.84365038503E+01 -0.18082888346E+02  0.30735097379E+02  0.51100000000E-03 0.  1.
        -11    1    3    3    0    0  0.25336494256E+01  0.16315308043E+02 -0.72404137405E+01  0.18028650735E+02  0.51100000000E-03 0. -1.
        -12    1    3    3    0    0  0.21428311384E+01 -0.91728481854E+01  0.47246205778E+01  0.10538259283E+02  0.00000000000E+00 0.  1.
</event>
<event>
 7    1  0.1138240E-011  0.5930187E+02  0.7816164E-02  0.1266605E+00
        -11   -1    0    0    0    0  0.00000000000E+00  0.00000000000E+00  0.45593999997E+02  0.45594000000E+02  0.51100000000E-03 0. -1.
         11   -1    0    0    0    0 -0.00000000000E+00 -0.00000000000E+00 -0.45593999997E+02  0.45594000000E+02  0.51100000000E-03 0.  1.
    9900012    2    1    2    0    0  0.20163259331E+02 -0.19306708407E+02  0.15408409060E+02  0.59301873140E+02  0.49999870718E+02 0.  0.
        -12    1    1    2    0    0 -0.20163259331E+02  0.19306708407E+02 -0.15408409060E+02  0.31886126860E+02  0.00000000000E+00 0.  1.
         11    1    3    3    0    0  0.28323092517E+01  0.80746396013E+01  0.24596466104E+01  0.89034623657E+01  0.51100000000E-03 0. -1.
        -11    1    3    3    0    0  0.17317502627E+02 -0.24743821214E+01 -0.66400677102E+01  0.18711198881E+02  0.51100000000E-03 0.  1.
         12    1    3    3    0    0  0.13447452430E-01 -0.24906965887E+02  0.19588830160E+02  0.31687211893E+02  0.00000000000E+00 0. -1.
</event>
<event>
 7    1  0.1138240E-011  0.5930194E+02  0.7816164E-02  0.1266605E+00
        -11   -1    0    0    0    0  0.00000000000E+00  0.00000000000E+00  0.45593999997E+02  0.45594000000E+02  0.51100000000E-03 0. -1.
         11   -1    0    0    0    0 -0.00000000000E+00 -0.00000000000E+00 -0.45593999997E+02  0.45594000000E+02  0.51100000000E-03 0.  1.
    9900012    2    1    2    0    0  0.30879874931E+02 -0.13895108178E+01 -0.78245379670E+01  0.59301940186E+02  0.49999992994E+02 0.  0.
        -12    1    1    2    0    0 -0.30879874931E+02  0.13895108178E+01  0.78245379670E+01  0.31886059814E+02  0.00000000000E+00 0.  1.
         11    1    3    3    0    0  0.30571137750E+01 -0.41298752838E+01 -0.77768297310E+01  0.93209921906E+01  0.51100000000E-03 0. -1.
        -11    1    3    3    0    0  0.21487776925E+02  0.10169248098E+02 -0.17815526473E+02  0.29707425802E+02  0.51100000000E-03 0.  1.
        -12    1    3    3    0    0  0.63349842311E+01 -0.74288836324E+01  0.17767818237E+02  0.20273522193E+02  0.00000000000E+00 0.  1.
</event>
<event>
 7    1  0.1138240E-011  0.5930186E+02  0.7816164E-02  0.1266605E+00
        -11   -1    0    0    0    0  0.00000000000E+00  0.00000000000E+00  0.45593999997E+02  0.45594000000E+02  0.51100000000E-03 0. -1.
         11   -1    0    0    0    0 -0.00000000000E+00 -0.00000000000E+00 -0.45593999997E+02  0.45594000000E+02  0.51100000000E-03 0.  1.
    9900012    2    1    2    0    0 -0.21907064653E+02  0.21922316589E+02  0.74979018979E+01  0.59301859136E+02  0.49999845177E+02 0.  0.
        -12    1    1    2    0    0  0.21907064653E+02 -0.21922316589E+02 -0.74979018979E+01  0.31886140864E+02  0.00000000000E+00 0.  1.
         11    1    3    3    0    0 -0.93442811239E+01  0.20352828158E+02 -0.81605108756E+00  0.22410246393E+02  0.51100000000E-03 0.  1.
        -11    1    3    3    0    0 -0.78034124257E+01 -0.11146813805E+02  0.16226513053E+02  0.21176506549E+02  0.51100000000E-03 0. -1.
         12    1    3    3    0    0 -0.47593711039E+01  0.12716302236E+02 -0.79125600674E+01  0.15715106194E+02  0.00000000000E+00 0. -1.
</event>
<event>
 7    1  0.1138240E-011  0.5930179E+02  0.7816164E-02  0.1266605E+00
        -11   -1    0    0    0    0  0.00000000000E+00  0.00000000000E+00  0.45593999997E+02  0.45594000000E+02  0.51100000000E-03 0. -1.
         11   -1    0    0    0    0 -0.00000000000E+00 -0.00000000000E+00 -0.45593999997E+02  0.45594000000E+02  0.51100000000E-03 0.  1.
    9900012    2    1    2    0    0 -0.67299310686E+01 -0.52095304012E+01  0.30729449342E+02  0.59301792386E+02  0.49999723441E+02 0.  0.
        -12    1    1    2    0    0  0.67299310686E+01  0.52095304012E+01 -0.30729449342E+02  0.31886207614E+02  0.00000000000E+00 0.  1.
         11    1    3    3    0    0  0.11813436400E+01 -0.72029424272E+01  0.12372099119E+02  0.14364775991E+02  0.51100000000E-03 0. -1.
        -11    1    3    3    0    0 -0.15163367802E+02 -0.78468471512E+01  0.25568287226E+02  0.30744723861E+02  0.51100000000E-03 0.  1.
        -12    1    3    3    0    0  0.72520930937E+01  0.98402591772E+01 -0.72109370032E+01  0.14192292534E+02  0.00000000000E+00 0.  1.
</event>
<event>
 7    1  0.1138240E-011  0.5930193E+02  0.7816164E-02  0.1266605E+00
        -11   -1    0    0    0    0  0.00000000000E+00  0.00000000000E+00  0.45593999997E+02  0.45594000000E+02  0.51100000000E-03 0.  1.
         11   -1    0    0    0    0 -0.00000000000E+00 -0.00000000000E+00 -0.45593999997E+02  0.45594000000E+02  0.51100000000E-03 0. -1.
    9900012    2    1    2    0    0  0.49871785021E+01 -0.15844764519E+02 -0.27217514904E+02  0.59301927341E+02  0.49999969567E+02 0.  0.
        -12    1    1    2    0    0 -0.49871785021E+01  0.15844764519E+02  0.27217514904E+02  0.31886072659E+02  0.00000000000E+00 0.  1.
         11    1    3    3    0    0  0.15436098146E+01 -0.63985685603E+01 -0.67217938536E+01  0.94078118472E+01  0.51100000000E-03 0. -1.
        -11    1    3    3    0    0  0.10818287862E+02 -0.13062024925E+02  0.90529342453E+01  0.19225177922E+02  0.51100000000E-03 0.  1.
         12    1    3    3    0    0 -0.73747191741E+01  0.36158289672E+01 -0.29548655296E+02  0.30668937572E+02  0.00000000000E+00 0. -1.
</event>
<event>
 7    1  0.1138240E-011  0.5930194E+02  0.7816164E-02  0.1266605E+00
        -11   -1    0    0    0    0  0.00000000000E+00  0.00000000000E+00  0.45593999997E+02  0.45594000000E+02  0.51100000000E-03 0.  1.
         11   -1    0    0    0    0 -0.00000000000E+00 -0.00000000000E+00 -0.45593999997E+02  0.45594000000E+02  0.51100000000E-03 0. -1.
    9900012    2    1    2    0    0 -0.30568192721E+02 -0.65919610390E+01 -0.62331798985E+01  0.59301938966E+02  0.49999990769E+02 0.  0.
        -12    1    1    2    0    0  0.30568192721E+02  0.65919610390E+01  0.62331798985E+01  0.31886061034E+02  0.00000000000E+00 0.  1.
         11    1    3    3    0    0 -0.15089810789E+02  0.15497654689E+02 -0.61027936016E+01  0.22474958966E+02  0.51100000000E-03 0. -1.
        -11    1    3    3    0    0 -0.34963259375E-01 -0.46611755483E+01  0.10304386334E+02  0.11309648885E+02  0.51100000000E-03 0.  1.
        -12    1    3    3    0    0 -0.15443418673E+02 -0.17428440180E+02 -0.10434772631E+02  0.25517331115E+02  0.00000000000E+00 0.  1.
</event>
<event>
 7    1  0.1138240E-011  0.5930201E+02  0.7816164E-02  0.1266605E+00
        -11   -1    0    0    0    0  0.00000000000E+00  0.00000000000E+00  0.45593999997E+02  0.45594000000E+02  0.51100000000E-03 0.  1.
         11   -1    0    0    0    0 -0.00000000000E+00 -0.00000000000E+00 -0.45593999997E+02  0.45594000000E+02  0.51100000000E-03 0. -1.
    9900012    2    1    2    0    0 -0.50872010962E+01  0.13050531855E+02 -0.28644724059E+02  0.59302012276E+02  0.50000124469E+02 0.  0.
        -12    1    1    2    0    0  0.50872010962E+01 -0.13050531855E+02  0.28644724059E+02  0.31885987724E+02  0.00000000000E+00 0.  1.
         11    1    3    3    0    0 -0.57833147961E+01  0.62134219082E+01 -0.28281187843E+02  0.29527596041E+02  0.51100000000E-03 0. -1.
        -11    1    3    3    0    0 -0.27350761915E+01 -0.11051513544E+02 -0.16981163473E+01  0.11510872807E+02  0.51100000000E-03 0.  1.
         12    1    3    3    0    0  0.34311898914E+01  0.17888623490E+02  0.13345801313E+01  0.18263543429E+02  0.00000000000E+00 0. -1.
</event>
<event>
 7    1  0.1138240E-011  0.5930195E+02  0.7816164E-02  0.1266605E+00
        -11   -1    0    0    0    0  0.00000000000E+00  0.00000000000E+00  0.45593999997E+02  0.45594000000E+02  0.51100000000E-03 0.  1.
         11   -1    0    0    0    0 -0.00000000000E+00 -0.00000000000E+00 -0.45593999997E+02  0.45594000000E+02  0.51100000000E-03 0. -1.
    9900012    2    1    2    0    0 -0.32649131713E+01  0.20446468787E+02 -0.24248766839E+02  0.59301946041E+02  0.50000003671E+02 0.  0.
        -12    1    1    2    0    0  0.32649131713E+01 -0.20446468787E+02  0.24248766839E+02  0.31886053959E+02  0.00000000000E+00 0.  1.
         11    1    3    3    0    0 -0.10127699766E+02  0.13938566456E+02 -0.37986167977E+01  0.17643226101E+02  0.51100000000E-03 0. -1.
        -11    1    3    3    0    0  0.91481856133E+01 -0.15724164602E+00  0.81196589440E+01  0.12232860932E+02  0.51100000000E-03 0.  1.
         12    1    3    3    0    0 -0.22853990182E+01  0.66651439773E+01 -0.28569808985E+02  0.29425859008E+02  0.00000000000E+00 0. -1.
</event>
<event>
 7    1  0.1138240E-011  0.5930194E+02  0.7816164E-02  0.1266605E+00
        -11   -1    0    0    0    0  0.00000000000E+00  0.00000000000E+00  0.45593999997E+02  0.45594000000E+02  0.51100000000E-03 0. -1.
         11   -1    0    0    0    0 -0.00000000000E+00 -0.00000000000E+00 -0.45593999997E+02  0.45594000000E+02  0.51100000000E-03 0.  1.
    9900012    2    1    2    0    0 -0.25341530728E+02 -0.12075284567E+02  0.15123325211E+02  0.59301942821E+02  0.49999997799E+02 0.  0.
        -12    1    1    2    0    0  0.25341530728E+02  0.12075284567E+02 -0.15123325211E+02  0.31886057179E+02  0.00000000000E+00 0.  1.
         11    1    3    3    0    0 -0.11522732509E+01 -0.18850310068E+02 -0.25686468674E+00  0.18887241805E+02  0.51100000000E-03 0.  1.
        -11    1    3    3    0    0  0.49278839457E+01  0.53589199403E+01  0.69588525958E+01  0.10071131655E+02  0.51100000000E-03 0. -1.
         12    1    3    3    0    0 -0.29117141422E+02  0.14161055606E+01  0.84213373017E+01  0.30343569360E+02  0.00000000000E+00 0. -1.
</event>
<event>
 7    1  0.1138240E-011  0.5930197E+02  0.7816164E-02  0.1266605E+00
        -11   -1    0    0    0    0  0.00000000000E+00  0.00000000000E+00  0.45593999997E+02  0.45594000000E+02  0.51100000000E-03 0.  1.
         11   -1    0    0    0    0 -0.00000000000E+00 -0.00000000000E+00 -0.45593999997E+02  0.45594000000E+02  0.51100000000E-03 0. -1.
    9900012    2    1    2    0    0  0.14180921708E+02  0.28235591189E+02 -0.42862346206E+01  0.59301969242E+02  0.50000045985E+02 0.  0.
        -12    1    1    2    0    0 -0.14180921708E+02 -0.28235591189E+02  0.42862346206E+01  0.31886030758E+02  0.00000000000E+00 0.  1.
         11    1    3    3    0    0  0.33315198893E+01 -0.15331094841E+01 -0.39634249234E+01  0.53998321129E+01  0.51100000000E-03 0. -1.
        -11    1    3    3    0    0  0.11562777998E+02  0.28266208727E+01  0.17807826520E+02  0.21419764383E+02  0.51100000000E-03 0.  1.
        -12    1    3    3    0    0 -0.71337617964E+00  0.26942079800E+02 -0.18130636218E+02  0.32482372746E+02  0.00000000000E+00 0.  1.
</event>
<event>
 7    1  0.1138240E-011  0.5930194E+02  0.7816164E-02  0.1266605E+00
        -11   -1    0    0    0    0  0.00000000000E+00  0.00000000000E+00  0.45593999997E+02  0.45594000000E+02  0.51100000000E-03 0.  1.
         11   -1    0    0    0    0 -0.00000000000E+00 -0.00000000000E+00 -0.45593999997E+02  0.45594000000E+02  0.51100000000E-03 0. -1.
    9900012    2    1    2    0    0 -0.92954225613E+01  0.15724345085E+02 -0.26135440024E+02  0.59301935110E+02  0.49999983736E+02 0.  0.
        -12    1    1    2    0    0  0.92954225613E+01 -0.15724345085E+02  0.26135440024E+02  0.31886064890E+02  0.00000000000E+00 0.  1.
         11    1    3    3    0    0 -0.16564120743E+02  0.12823171098E+02 -0.26359710353E+02  0.33669543258E+02  0.51100000000E-03 0. -1.
        -11    1    3    3    0    0  0.24674755316E+01 -0.10520639080E+02 -0.25673108758E+01  0.11106906299E+02  0.51100000000E-03 0.  1.
        -12    1    3    3    0    0  0.48012226506E+01  0.13421813066E+02  0.27915812051E+01  0.14525485553E+02  0.00000000000E+00 0.  1.
</event>
<event>
 7    1  0.1138240E-011  0.5930196E+02  0.7816164E-02  0.1266605E+00
        -11   -1    0    0    0    0  0.00000000000E+00  0.00000000000E+00  0.45593999997E+02  0.45594000000E+02  0.51100000000E-03 0.  1.
         11   -1    0    0    0    0 -0.00000000000E+00 -0.00000000000E+00 -0.45593999997E+02  0.45594000000E+02  0.51100000000E-03 0. -1.
    9900012    2    1    2    0    0 -0.16986036959E+02 -0.87775158076E+01 -0.25517631289E+02  0.59301956941E+02  0.50000023551E+02 0.  0.
        -12    1    1    2    0    0  0.16986036959E+02  0.87775158076E+01  0.25517631289E+02  0.31886043059E+02  0.00000000000E+00 0.  1.
         11    1    3    3    0    0 -0.75836889252E+01 -0.55036773314E+00 -0.31769819580E+01  0.82406587709E+01  0.51100000000E-03 0. -1.
        -11    1    3    3    0    0 -0.13188067861E+02  0.51751899363E+01  0.89872470306E+01  0.16777316062E+02  0.51100000000E-03 0.  1.
         12    1    3    3    0    0  0.37857198272E+01 -0.13402338011E+02 -0.31327896362E+02  0.34283982109E+02  0.00000000000E+00 0. -1.
</event>
<event>
 7    1  0.1138240E-011  0.5930195E+02  0.7816164E-02  0.1266605E+00
        -11   -1    0    0    0    0  0.00000000000E+00  0.00000000000E+00  0.45593999997E+02  0.45594000000E+02  0.51100000000E-03 0.  1.
         11   -1    0    0    0    0 -0.00000000000E+00 -0.00000000000E+00 -0.45593999997E+02  0.45594000000E+02  0.51100000000E-03 0. -1.
    9900012    2    1    2    0    0  0.13419892176E+02  0.28424100864E+02  0.53569548804E+01  0.59301953184E+02  0.50000016700E+02 0.  0.
        -12    1    1    2    0    0 -0.13419892176E+02 -0.28424100864E+02 -0.53569548804E+01  0.31886046816E+02  0.00000000000E+00 0.  1.
         11    1    3    3    0    0  0.14708843693E+01  0.20194313447E+01  0.10301855886E+02  0.10600464082E+02  0.51100000000E-03 0.  1.
        -11    1    3    3    0    0  0.80259959059E+01 -0.73297868192E+01 -0.94997196926E+01  0.14435617742E+02  0.51100000000E-03 0. -1.
        -12    1    3    3    0    0  0.39230119004E+01  0.33734456339E+02  0.45548186865E+01  0.34265871361E+02  0.00000000000E+00 0.  1.
</event>
<event>
 7    1  0.1138240E-011  0.5930193E+02  0.7816164E-02  0.1266605E+00
        -11   -1    0    0    0    0  0.00000000000E+00  0.00000000000E+00  0.45593999997E+02  0.45594000000E+02  0.51100000000E-03 0.  1.
         11   -1    0    0    0    0 -0.00000000000E+00 -0.00000000000E+00 -0.45593999997E+02  0.45594000000E+02  0.51100000000E-03 0. -1.
    9900012    2    1    2    0    0 -0.72732434341E+01  0.31045417910E+02 -0.60461726059E-01  0.59301926255E+02  0.49999967587E+02 0.  0.
        -12    1    1    2    0    0  0.72732434341E+01 -0.31045417910E+02  0.60461726059E-01  0.31886073745E+02  0.00000000000E+00 0.  1.
         11    1    3    3    0    0 -0.67072294672E+00  0.29477285351E+02 -0.16045983697E+02  0.33568345416E+02  0.51100000000E-03 0. -1.
        -11    1    3    3    0    0 -0.91748367628E+01 -0.28306573754E+01  0.70685122116E+00  0.96275588656E+01  0.51100000000E-03 0.  1.
        -12    1    3    3    0    0  0.25723162754E+01  0.43987899344E+01  0.15278670750E+02  0.16106021973E+02  0.00000000000E+00 0.  1.
</event>
<event>
 7    1  0.1138240E-011  0.5930191E+02  0.7816164E-02  0.1266605E+00
        -11   -1    0    0    0    0  0.00000000000E+00  0.00000000000E+00  0.45593999997E+02  0.45594000000E+02  0.51100000000E-03 0.  1.
         11   -1    0    0    0    0 -0.00000000000E+00 -0.00000000000E+00 -0.45593999997E+02  0.45594000000E+02  0.51100000000E-03 0. -1.
    9900012    2    1    2    0    0 -0.23548527966E+02 -0.61738149871E+00 -0.21489721306E+02  0.59301914460E+02  0.49999946075E+02 0.  0.
        -12    1    1    2    0    0  0.23548527966E+02  0.61738149871E+00  0.21489721306E+02  0.31886085540E+02  0.00000000000E+00 0.  1.
         11    1    3    3    0    0 -0.20323425962E+01  0.66744559787E+01  0.37736138989E+01  0.79321460627E+01  0.51100000000E-03 0. -1.
        -11    1    3    3    0    0 -0.22385564726E+02  0.10618685415E+02 -0.69351904806E+01  0.25728716550E+02  0.51100000000E-03 0.  1.
         12    1    3    3    0    0  0.86937935706E+00 -0.17910522892E+02 -0.18328144725E+02  0.25641051847E+02  0.00000000000E+00 0. -1.
</event>
<event>
 7    1  0.1138240E-011  0.5930194E+02  0.7816164E-02  0.1266605E+00
        -11   -1    0    0    0    0  0.00000000000E+00  0.00000000000E+00  0.45593999997E+02  0.45594000000E+02  0.51100000000E-03 0. -1.
         11   -1    0    0    0    0 -0.00000000000E+00 -0.00000000000E+00 -0.45593999997E+02  0.45594000000E+02  0.51100000000E-03 0.  1.
    9900012    2    1    2    0    0  0.29522793627E+02  0.11658932500E+02 -0.30322883697E+01  0.59301939984E+02  0.49999992626E+02 0.  0.
        -12    1    1    2    0    0 -0.29522793627E+02 -0.11658932500E+02  0.30322883697E+01  0.31886060016E+02  0.00000000000E+00 0.  1.
         11    1    3    3    0    0  0.23711377897E+02 -0.24298012321E+01 -0.52923078596E+01  0.24416017254E+02  0.51100000000E-03 0. -1.
        -11    1    3    3    0    0  0.35175341226E+01 -0.97699423922E+01  0.32972366435E+01  0.10894796482E+02  0.51100000000E-03 0.  1.
        -12    1    3    3    0    0  0.22938816075E+01  0.23858676124E+02 -0.10372171537E+01  0.23991126248E+02  0.00000000000E+00 0.  1.
</event>
<event>
 7    1  0.1138240E-011  0.5930192E+02  0.7816164E-02  0.1266605E+00
        -11   -1    0    0    0    0  0.00000000000E+00  0.00000000000E+00  0.45593999997E+02  0.45594000000E+02  0.51100000000E-03 0.  1.
         11   -1    0    0    0    0 -0.00000000000E+00 -0.00000000000E+00 -0.45593999997E+02  0.45594000000E+02  0.51100000000E-03 0. -1.
    9900012    2    1    2    0    0  0.71280810666E+01  0.87559084556E+01 -0.29820240395E+02  0.59301918244E+02  0.49999952976E+02 0.  0.
        -12    1    1    2    0    0 -0.71280810666E+01 -0.87559084556E+01  0.29820240395E+02  0.31886081756E+02  0.00000000000E+00 0.  1.
         11    1    3    3    0    0 -0.49450947905E+01 -0.43800778473E+01  0.37087868175E+01  0.75758923140E+01  0.51100000000E-03 0. -1.
        -11    1    3    3    0    0  0.77374870996E+01 -0.70861829338E+01  0.19379159767E+01  0.10669499228E+02  0.51100000000E-03 0.  1.
         12    1    3    3    0    0  0.43356887575E+01  0.20222169237E+02 -0.35466943189E+02  0.41056526701E+02  0.00000000000E+00 0. -1.
</event>
<event>
 7    1  0.1138240E-011  0.5930205E+02  0.7816164E-02  0.1266604E+00
        -11   -1    0    0    0    0  0.00000000000E+00  0.00000000000E+00  0.45593999997E+02  0.45594000000E+02  0.51100000000E-03 0.  1.
         11   -1    0    0    0    0 -0.00000000000E+00 -0.00000000000E+00 -0.45593999997E+02  0.45594000000E+02  0.51100000000E-03 0. -1.
    9900012    2    1    2    0    0 -0.25818564936E+01 -0.13281218231E+02 -0.28873124879E+02  0.59302045711E+02  0.50000185445E+02 0.  0.
        -12    1    1    2    0    0  0.25818564936E+01  0.13281218231E+02  0.28873124879E+02  0.31885954289E+02  0.00000000000E+00 0.  1.
         11    1    3    3    0    0  0.25912722291E+01 -0.74804812231E+01 -0.35541618201E+01  0.86778083408E+01  0.51100000000E-03 0. -1.
        -11    1    3    3    0    0  0.30660863019E+01  0.27038670816E+01  0.11364288142E+02  0.12077202807E+02  0.51100000000E-03 0.  1.
         12    1    3    3    0    0 -0.82392150246E+01 -0.85046040899E+01 -0.36683251201E+02  0.38547034563E+02  0.00000000000E+00 0. -1.
</event>
<event>
 7    1  0.1138240E-011  0.5930192E+02  0.7816164E-02  0.1266605E+00
        -11   -1    0    0    0    0  0.00000000000E+00  0.00000000000E+00  0.45593999997E+02  0.45594000000E+02  0.51100000000E-03 0. -1.
         11   -1    0    0    0    0 -0.00000000000E+00 -0.00000000000E+00 -0.45593999997E+02  0.45594000000E+02  0.51100000000E-03 0.  1.
    9900012    2    1    2    0    0 -0.20830891170E+02  0.24137924079E+02  0.39544167988E+00  0.59301924985E+02  0.49999965270E+02 0.  0.
        -12    1    1    2    0    0  0.20830891170E+02 -0.24137924079E+02 -0.39544167988E+00  0.31886075015E+02  0.00000000000E+00 0.  1.
         11    1    3    3    0    0 -0.11795217318E+02  0.11186161709E+02  0.45707750447E+01  0.16886365806E+02  0.51100000000E-03 0. -1.
        -11    1    3    3    0    0 -0.58165241189E+00  0.26270078468E+02 -0.82884362915E+00  0.26289585852E+02  0.51100000000E-03 0.  1.
         12    1    3    3    0    0 -0.84540214397E+01 -0.13318316098E+02 -0.33464897357E+01  0.16125973327E+02  0.00000000000E+00 0. -1.
</event>
<event>
 7    1  0.1138240E-011  0.5930195E+02  0.7816164E-02  0.1266605E+00
        -11   -1    0    0    0    0  0.00000000000E+00  0.00000000000E+00  0.45593999997E+02  0.45594000000E+02  0.51100000000E-03 0.  1.
         11   -1    0    0    0    0 -0.00000000000E+00 -0.00000000000E+00 -0.45593999997E+02  0.45594000000E+02  0.51100000000E-03 0. -1.
    9900012    2    1    2    0    0 -0.80829412018E+01 -0.30388555372E+02 -0.52841438119E+01  0.59301946436E+02  0.50000004392E+02 0.  0.
        -12    1    1    2    0    0  0.80829412018E+01  0.30388555372E+02  0.52841438119E+01  0.31886053564E+02  0.00000000000E+00 0.  1.
         11    1    3    3    0    0 -0.29447299555E+00  0.35276386441E+01 -0.14388789299E+02  0.14817834070E+02  0.51100000000E-03 0.  1.
        -11    1    3    3    0    0 -0.15583600206E+02 -0.10680222698E+02  0.57439791805E+01  0.19746114791E+02  0.51100000000E-03 0. -1.
        -12    1    3    3    0    0  0.77951319996E+01 -0.23235971319E+02  0.33606663072E+01  0.24737997575E+02  0.00000000000E+00 0.  1.
</event>
<event>
 7    1  0.1138240E-011  0.5930192E+02  0.7816164E-02  0.1266605E+00
        -11   -1    0    0    0    0  0.00000000000E+00  0.00000000000E+00  0.45593999997E+02  0.45594000000E+02  0.51100000000E-03 0.  1.
         11   -1    0    0    0    0 -0.00000000000E+00 -0.00000000000E+00 -0.45593999997E+02  0.45594000000E+02  0.51100000000E-03 0. -1.
    9900012    2    1    2    0    0 -0.31527195252E+02 -0.31798970896E+01  0.35561902315E+01  0.59301917222E+02  0.49999951113E+02 0.  0.
        -12    1    1    2    0    0  0.31527195252E+02  0.31798970896E+01 -0.35561902315E+01  0.31886082778E+02  0.00000000000E+00 0.  1.
         11    1    3    3    0    0 -0.13602068159E+02 -0.16939802347E+01 -0.97023965270E+01  0.16793520353E+02  0.51100000000E-03 0. -1.
        -11    1    3    3    0    0 -0.18619985201E+02 -0.11874360653E+02 -0.39119298131E+01  0.22427828359E+02  0.51100000000E-03 0.  1.
        -12    1    3    3    0    0  0.69485810736E+00  0.10388443798E+02  0.17170516572E+02  0.20080568509E+02  0.00000000000E+00 0.  1.
</event>
<event>
 7    1  0.1138240E-011  0.5930194E+02  0.7816164E-02  0.1266605E+00
        -11   -1    0    0    0    0  0.00000000000E+00  0.00000000000E+00  0.45593999997E+02  0.45594000000E+02  0.51100000000E-03 0.  1.
         11   -1    0    0    0    0 -0.00000000000E+00 -0.00000000000E+00 -0.45593999997E+02  0.45594000000E+02  0.51100000000E-03 0. -1.
    9900012    2    1    2    0    0 -0.12467729215E+02  0.24560821503E+02 -0.16063704517E+02  0.59301939919E+02  0.49999992507E+02 0.  0.
        -12    1    1    2    0    0  0.12467729215E+02 -0.24560821503E+02  0.16063704517E+02  0.31886060081E+02  0.00000000000E+00 0.  1.
         11    1    3    3    0    0 -0.11751074409E+01  0.10758986686E+02 -0.15787890532E+02  0.19141425227E+02  0.51100000000E-03 0. -1.
        -11    1    3    3    0    0 -0.81760290166E+01  0.21841005117E+02 -0.11503639051E+02  0.26004050966E+02  0.51100000000E-03 0.  1.
        -12    1    3    3    0    0 -0.31165927573E+01 -0.80391702996E+01  0.11227825066E+02  0.14156463726E+02  0.00000000000E+00 0.  1.
</event>
<event>
 7    1  0.1305178E-011  0.5930195E+02  0.7816164E-02  0.1266605E+00
        -11   -1    0    0    0    0  0.00000000000E+00  0.00000000000E+00  0.45593999997E+02  0.45594000000E+02  0.51100000000E-03 0. -1.
         11   -1    0    0    0    0 -0.00000000000E+00 -0.00000000000E+00 -0.45593999997E+02  0.45594000000E+02  0.51100000000E-03 0.  1.
    9900012    2    1    2    0    0  0.21522813075E+02  0.66367459239E+01  0.22570832200E+02  0.59301947480E+02  0.50000006295E+02 0.  0.
        -12    1    1    2    0    0 -0.21522813075E+02 -0.66367459239E+01 -0.22570832200E+02  0.31886052520E+02  0.00000000000E+00 0.  1.
         11    1    3    3    0    0  0.42367428039E+01  0.15196745504E+02  0.16771966234E+02  0.23025853189E+02  0.51100000000E-03 0. -1.
        -11    1    3    3    0    0  0.86378882174E+01  0.11199639952E+02  0.36021839212E+01  0.14595231316E+02  0.51100000000E-03 0.  1.
        -12    1    3    3    0    0  0.86481820540E+01 -0.19759639532E+02  0.21966820451E+01  0.21680862974E+02  0.00000000000E+00 0.  1.
</event>
<event>
 7    1  0.1138240E-011  0.5930194E+02  0.7816164E-02  0.1266605E+00
        -11   -1    0    0    0    0  0.00000000000E+00  0.00000000000E+00  0.45593999997E+02  0.45594000000E+02  0.51100000000E-03 0. -1.
         11   -1    0    0    0    0 -0.00000000000E+00 -0.00000000000E+00 -0.45593999997E+02  0.45594000000E+02  0.51100000000E-03 0.  1.
    9900012    2    1    2    0    0  0.11557865284E+02  0.15714966611E+02  0.25222539215E+02  0.59301938626E+02  0.49999990148E+02 0.  0.
        -12    1    1    2    0    0 -0.11557865284E+02 -0.15714966611E+02 -0.25222539215E+02  0.31886061374E+02  0.00000000000E+00 0.  1.
         11    1    3    3    0    0  0.58426857861E+01  0.20612749361E+02  0.13276152449E+02  0.25204734427E+02  0.51100000000E-03 0. -1.
        -11    1    3    3    0    0  0.14238592278E+01 -0.45789374882E+01  0.22339563682E+02  0.22848416781E+02  0.51100000000E-03 0.  1.
        -12    1    3    3    0    0  0.42913202702E+01 -0.31884526172E+00 -0.10393176916E+02  0.11248787418E+02  0.00000000000E+00 0.  1.
</event>
<event>
 7    1  0.1138240E-011  0.5930201E+02  0.7816164E-02  0.1266605E+00
        -11   -1    0    0    0    0  0.00000000000E+00  0.00000000000E+00  0.45593999997E+02  0.45594000000E+02  0.51100000000E-03 0.  1.
         11   -1    0    0    0    0 -0.00000000000E+00 -0.00000000000E+00 -0.45593999997E+02  0.45594000000E+02  0.51100000000E-03 0. -1.
    9900012    2    1    2    0    0  0.31256226125E+02 -0.30631915390E+01  0.55119734368E+01  0.59302005188E+02  0.50000111542E+02 0.  0.
        -12    1    1    2    0    0 -0.31256226125E+02  0.30631915390E+01 -0.55119734368E+01  0.31885994812E+02  0.00000000000E+00 0.  1.
         11    1    3    3    0    0  0.34830123104E+01  0.89539410550E+01  0.84925844371E+01  0.12822964784E+02  0.51100000000E-03 0. -1.
        -11    1    3    3    0    0  0.14547472213E+02 -0.35578495964E+01  0.15954275655E+02  0.21882096643E+02  0.51100000000E-03 0.  1.
         12    1    3    3    0    0  0.13225741601E+02 -0.84592829976E+01 -0.18934886656E+02  0.24596943761E+02  0.00000000000E+00 0. -1.
</event>
<event>
 7    1  0.1138240E-011  0.5930195E+02  0.7816164E-02  0.1266605E+00
        -11   -1    0    0    0    0  0.00000000000E+00  0.00000000000E+00  0.45593999997E+02  0.45594000000E+02  0.51100000000E-03 0. -1.
         11   -1    0    0    0    0 -0.00000000000E+00 -0.00000000000E+00 -0.45593999997E+02  0.45594000000E+02  0.51100000000E-03 0.  1.
    9900012    2    1    2    0    0 -0.25587709912E+02 -0.11956049268E+01 -0.18988408997E+02  0.59301952175E+02  0.50000014858E+02 0.  0.
        -12    1    1    2    0    0  0.25587709912E+02  0.11956049268E+01  0.18988408997E+02  0.31886047825E+02  0.00000000000E+00 0.  1.
         11    1    3    3    0    0 -0.22477996874E+02 -0.12649767335E+02 -0.93678671362E+01  0.27441463009E+02  0.51100000000E-03 0.  1.
        -11    1    3    3    0    0 -0.55336789761E+01 -0.16178117834E+01  0.79540499956E+01  0.98237380651E+01  0.51100000000E-03 0. -1.
        -12    1    3    3    0    0  0.24239659388E+01  0.13071974192E+02 -0.17574591857E+02  0.22036751101E+02  0.00000000000E+00 0.  1.
</event>
<event>
 7    1  0.1138240E-011  0.5930197E+02  0.7816164E-02  0.1266605E+00
        -11   -1    0    0    0    0  0.00000000000E+00  0.00000000000E+00  0.45593999997E+02  0.45594000000E+02  0.51100000000E-03 0.  1.
         11   -1    0    0    0    0 -0.00000000000E+00 -0.00000000000E+00 -0.45593999997E+02  0.45594000000E+02  0.51100000000E-03 0. -1.
    9900012    2    1    2    0    0  0.10340545937E+02 -0.29737468719E+02 -0.50472760180E+01  0.59301969653E+02  0.50000046734E+02 0.  0.
        -12    1    1    2    0    0 -0.10340545937E+02  0.29737468719E+02  0.50472760180E+01  0.31886030347E+02  0.00000000000E+00 0.  1.
         11    1    3    3    0    0  0.42916693130E+01 -0.94714122370E+01  0.48221907719E+01  0.11462094021E+02  0.51100000000E-03 0. -1.
        -11    1    3    3    0    0  0.12523331900E+02 -0.86633744051E+01  0.13894153030E+02  0.20613960965E+02  0.51100000000E-03 0.  1.
         12    1    3    3    0    0 -0.64744552759E+01 -0.11602682077E+02 -0.23763619820E+02  0.27225914667E+02  0.00000000000E+00 0. -1.
</event>
<event>
 7    1  0.1138240E-011  0.5930201E+02  0.7816164E-02  0.1266605E+00
        -11   -1    0    0    0    0  0.00000000000E+00  0.00000000000E+00  0.45593999997E+02  0.45594000000E+02  0.51100000000E-03 0. -1.
         11   -1    0    0    0    0 -0.00000000000E+00 -0.00000000000E+00 -0.45593999997E+02  0.45594000000E+02  0.51100000000E-03 0.  1.
    9900012    2    1    2    0    0 -0.11664975826E+01  0.31466978587E+02  0.50184695534E+01  0.59302007861E+02  0.50000116417E+02 0.  0.
        -12    1    1    2    0    0  0.11664975826E+01 -0.31466978587E+02 -0.50184695534E+01  0.31885992139E+02  0.00000000000E+00 0.  1.
         11    1    3    3    0    0 -0.81308700985E+01  0.27473177802E+02 -0.12503175081E+02  0.31260453203E+02  0.51100000000E-03 0. -1.
        -11    1    3    3    0    0  0.69628928252E+00 -0.66232651970E+01  0.52785058325E-01  0.66599735103E+01  0.51100000000E-03 0.  1.
        -12    1    3    3    0    0  0.62680832333E+01  0.10617065982E+02  0.17468859576E+02  0.21381581148E+02  0.00000000000E+00 0.  1.
</event>
<event>
 7    1  0.1138240E-011  0.5930197E+02  0.7816164E-02  0.1266605E+00
        -11   -1    0    0    0    0  0.00000000000E+00  0.00000000000E+00  0.45593999997E+02  0.45594000000E+02  0.51100000000E-03 0.  1.
         11   -1    0    0    0    0 -0.00000000000E+00 -0.00000000000E+00 -0.45593999997E+02  0.45594000000E+02  0.51100000000E-03 0. -1.
    9900012    2    1    2    0    0  0.26622379418E+02  0.92297868454E+01 -0.14925781309E+02  0.59301968595E+02  0.50000044804E+02 0.  0.
        -12    1    1    2    0    0 -0.26622379418E+02 -0.92297868454E+01  0.14925781309E+02  0.31886031405E+02  0.00000000000E+00 0.  1.
         11    1    3    3    0    0  0.22235547931E+02  0.14026258547E+02 -0.13795208727E+02  0.29689447700E+02  0.51100000000E-03 0. -1.
        -11    1    3    3    0    0  0.11336775851E+02 -0.16854234567E+01  0.10610312792E+02  0.15618638760E+02  0.51100000000E-03 0.  1.
         12    1    3    3    0    0 -0.69499443643E+01 -0.31110482444E+01 -0.11740885374E+02  0.13993882135E+02  0.00000000000E+00 0. -1.
</event>
<event>
 7    1  0.1138240E-011  0.5930195E+02  0.7816164E-02  0.1266605E+00
        -11   -1    0    0    0    0  0.00000000000E+00  0.00000000000E+00  0.45593999997E+02  0.45594000000E+02  0.51100000000E-03 0. -1.
         11   -1    0    0    0    0 -0.00000000000E+00 -0.00000000000E+00 -0.45593999997E+02  0.45594000000E+02  0.51100000000E-03 0.  1.
    9900012    2    1    2    0    0 -0.13735157281E+02  0.10008237937E+01  0.28758723005E+02  0.59301947521E+02  0.50000006371E+02 0.  0.
        -12    1    1    2    0    0  0.13735157281E+02 -0.10008237937E+01 -0.28758723005E+02  0.31886052479E+02  0.00000000000E+00 0.  1.
         11    1    3    3    0    0 -0.16250731988E+01  0.69108790516E+01  0.69497965966E+00  0.71333098318E+01  0.51100000000E-03 0. -1.
        -11    1    3    3    0    0  0.85885445250E+01 -0.13714942251E+02 -0.31676082381E+00  0.16185273420E+02  0.51100000000E-03 0.  1.
         12    1    3    3    0    0 -0.20698628607E+02  0.78048869932E+01  0.28380504170E+02  0.35983364269E+02  0.00000000000E+00 0. -1.
</event>
<event>
 7    1  0.1138240E-011  0.5930194E+02  0.7816164E-02  0.1266605E+00
        -11   -1    0    0    0    0  0.00000000000E+00  0.00000000000E+00  0.45593999997E+02  0.45594000000E+02  0.51100000000E-03 0.  1.
         11   -1    0    0    0    0 -0.00000000000E+00 -0.00000000000E+00 -0.45593999997E+02  0.45594000000E+02  0.51100000000E-03 0. -1.
    9900012    2    1    2    0    0  0.32198799863E+01 -0.15739310916E+02 -0.27543185057E+02  0.59301943827E+02  0.49999999633E+02 0.  0.
        -12    1    1    2    0    0 -0.32198799863E+01  0.15739310916E+02  0.27543185057E+02  0.31886056173E+02  0.00000000000E+00 0.  1.
         11    1    3    3    0    0 -0.95639308637E+01 -0.13002941785E+02 -0.63602287784E+01  0.17349287565E+02  0.51100000000E-03 0. -1.
        -11    1    3    3    0    0 -0.11615320351E+02 -0.16716264578E+01 -0.58073292405E+01  0.13093321773E+02  0.51100000000E-03 0.  1.
         12    1    3    3    0    0  0.24399131201E+02 -0.10647426731E+01 -0.15375627038E+02  0.28859334489E+02  0.00000000000E+00 0. -1.
</event>
<event>
 7    1  0.1450052E-011  0.5930190E+02  0.7816164E-02  0.1266605E+00
        -11   -1    0    0    0    0  0.00000000000E+00  0.00000000000E+00  0.45593999997E+02  0.45594000000E+02  0.51100000000E-03 0. -1.
         11   -1    0    0    0    0 -0.00000000000E+00 -0.00000000000E+00 -0.45593999997E+02  0.45594000000E+02  0.51100000000E-03 0.  1.
    9900012    2    1    2    0    0 -0.10732240987E+02 -0.98606474596E+01  0.28360359926E+02  0.59301899893E+02  0.49999919509E+02 0.  0.
        -12    1    1    2    0    0  0.10732240987E+02  0.98606474596E+01 -0.28360359926E+02  0.31886100107E+02  0.00000000000E+00 0.  1.
         11    1    3    3    0    0 -0.21164007166E+02 -0.11868221429E+02  0.29203346550E+02  0.37968478099E+02  0.51100000000E-03 0. -1.
        -11    1    3    3    0    0 -0.50306119890E+01  0.32162865522E+00 -0.26149843117E+01  0.56787890599E+01  0.51100000000E-03 0.  1.
        -12    1    3    3    0    0  0.15462378168E+02  0.16859453138E+01  0.17719976874E+01  0.15654632734E+02  0.00000000000E+00 0.  1.
</event>
<event>
 7    1  0.1138240E-011  0.5930181E+02  0.7816164E-02  0.1266605E+00
        -11   -1    0    0    0    0  0.00000000000E+00  0.00000000000E+00  0.45593999997E+02  0.45594000000E+02  0.51100000000E-03 0.  1.
         11   -1    0    0    0    0 -0.00000000000E+00 -0.00000000000E+00 -0.45593999997E+02  0.45594000000E+02  0.51100000000E-03 0. -1.
    9900012    2    1    2    0    0  0.16614138030E+02 -0.25410320408E+02  0.97475648373E+01  0.59301811987E+02  0.49999759189E+02 0.  0.
        -12    1    1    2    0    0 -0.16614138030E+02  0.25410320408E+02 -0.97475648373E+01  0.31886188013E+02  0.00000000000E+00 0.  1.
         11    1    3    3    0    0 -0.91647809868E+01 -0.12908562591E+02 -0.68490159545E+01  0.17249151240E+02  0.51100000000E-03 0.  1.
        -11    1    3    3    0    0  0.11862954490E+02 -0.40747055568E+01 -0.62432734235E+01  0.14011116226E+02  0.51100000000E-03 0. -1.
        -12    1    3    3    0    0  0.13915964527E+02 -0.84270522603E+01  0.22839854215E+02  0.28041544520E+02  0.00000000000E+00 0.  1.
</event>
<event>
 7    1  0.1138240E-011  0.5930196E+02  0.7816164E-02  0.1266605E+00
        -11   -1    0    0    0    0  0.00000000000E+00  0.00000000000E+00  0.45593999997E+02  0.45594000000E+02  0.51100000000E-03 0.  1.
         11   -1    0    0    0    0 -0.00000000000E+00 -0.00000000000E+00 -0.45593999997E+02  0.45594000000E+02  0.51100000000E-03 0. -1.
    9900012    2    1    2    0    0 -0.10024525374E+01  0.22902276610E+01 -0.31787882039E+02  0.59301960761E+02  0.50000030517E+02 0.  0.
        -12    1    1    2    0    0  0.10024525374E+01 -0.22902276610E+01  0.31787882039E+02  0.31886039239E+02  0.00000000000E+00 0.  1.
         11    1    3    3    0    0  0.72242954264E+01 -0.39288020194E+01  0.29488735528E+01  0.87362340404E+01  0.51100000000E-03 0. -1.
        -11    1    3    3    0    0 -0.89078638198E+01  0.67895595144E+01  0.39442157915E+01  0.11874552400E+02  0.51100000000E-03 0.  1.
         12    1    3    3    0    0  0.68111585604E+00 -0.57052983397E+00 -0.38680971384E+02  0.38691174320E+02  0.00000000000E+00 0. -1.
</event>
<event>
 7    1  0.1138240E-011  0.5930213E+02  0.7816164E-02  0.1266604E+00
        -11   -1    0    0    0    0  0.00000000000E+00  0.00000000000E+00  0.45593999997E+02  0.45594000000E+02  0.51100000000E-03 0.  1.
         11   -1    0    0    0    0 -0.00000000000E+00 -0.00000000000E+00 -0.45593999997E+02  0.45594000000E+02  0.51100000000E-03 0. -1.
    9900012    2    1    2    0    0  0.14070441958E+02  0.20751712086E+02 -0.19700206147E+02  0.59302125171E+02  0.50000330360E+02 0.  0.
        -12    1    1    2    0    0 -0.14070441958E+02 -0.20751712086E+02  0.19700206147E+02  0.31885874829E+02  0.00000000000E+00 0.  1.
         11    1    3    3    0    0  0.97671367490E+01 -0.64896267537E+01 -0.32553024656E+01  0.12170012740E+02  0.51100000000E-03 0. -1.
        -11    1    3    3    0    0  0.58217240813E+00  0.15582774661E+02  0.96304112097E+01  0.18327755213E+02  0.51100000000E-03 0.  1.
         12    1    3    3    0    0  0.37211328010E+01  0.11658564180E+02 -0.26075314891E+02  0.28804357218E+02  0.00000000000E+00 0. -1.
</event>
<event>
 7    1  0.1138240E-011  0.5930194E+02  0.7816164E-02  0.1266605E+00
        -11   -1    0    0    0    0  0.00000000000E+00  0.00000000000E+00  0.45593999997E+02  0.45594000000E+02  0.51100000000E-03 0. -1.
         11   -1    0    0    0    0 -0.00000000000E+00 -0.00000000000E+00 -0.45593999997E+02  0.45594000000E+02  0.51100000000E-03 0.  1.
    9900012    2    1    2    0    0  0.30986765579E+02 -0.59324666022E+01 -0.46202866360E+01  0.59301939572E+02  0.49999991874E+02 0.  0.
        -12    1    1    2    0    0 -0.30986765579E+02  0.59324666022E+01  0.46202866360E+01  0.31886060428E+02  0.00000000000E+00 0.  1.
         11    1    3    3    0    0  0.75709519954E+00  0.64752728139E+01 -0.44047188562E+01  0.78679031272E+01  0.51100000000E-03 0. -1.
        -11    1    3    3    0    0  0.11825122792E+02 -0.95654634024E+01 -0.19430555423E+02  0.24675455486E+02  0.51100000000E-03 0.  1.
         12    1    3    3    0    0  0.18404547587E+02 -0.28422760137E+01  0.19214987643E+02  0.26758580959E+02  0.00000000000E+00 0. -1.
</event>
<event>
 7    1  0.1138240E-011  0.5930194E+02  0.7816164E-02  0.1266605E+00
        -11   -1    0    0    0    0  0.00000000000E+00  0.00000000000E+00  0.45593999997E+02  0.45594000000E+02  0.51100000000E-03 0.  1.
         11   -1    0    0    0    0 -0.00000000000E+00 -0.00000000000E+00 -0.45593999997E+02  0.45594000000E+02  0.51100000000E-03 0. -1.
    9900012    2    1    2    0    0  0.89353322129E+01  0.17210191541E+02 -0.25311858333E+02  0.59301936792E+02  0.49999986804E+02 0.  0.
        -12    1    1    2    0    0 -0.89353322129E+01 -0.17210191541E+02  0.25311858333E+02  0.31886063208E+02  0.00000000000E+00 0.  1.
         11    1    3    3    0    0  0.38619535709E+01  0.77960699089E+01 -0.18753708385E+02  0.20673533077E+02  0.51100000000E-03 0. -1.
        -11    1    3    3    0    0  0.19765317556E+02  0.11717950066E+02 -0.59917888567E+01  0.23746150547E+02  0.51100000000E-03 0.  1.
        -12    1    3    3    0    0 -0.14691938914E+02 -0.23038284332E+01 -0.56636109077E+00  0.14882253169E+02  0.00000000000E+00 0.  1.
</event>
<event>
 7    1  0.1138240E-011  0.5930194E+02  0.7816164E-02  0.1266605E+00
        -11   -1    0    0    0    0  0.00000000000E+00  0.00000000000E+00  0.45593999997E+02  0.45594000000E+02  0.51100000000E-03 0. -1.
         11   -1    0    0    0    0 -0.00000000000E+00 -0.00000000000E+00 -0.45593999997E+02  0.45594000000E+02  0.51100000000E-03 0.  1.
    9900012    2    1    2    0    0  0.28842554069E+02  0.32754245141E-01  0.13595104470E+02  0.59301939353E+02  0.49999991474E+02 0.  0.
        -12    1    1    2    0    0 -0.28842554069E+02 -0.32754245141E-01 -0.13595104470E+02  0.31886060647E+02  0.00000000000E+00 0.  1.
         11    1    3    3    0    0  0.81667354726E+01  0.40221114521E+01  0.12294663962E+01  0.91861056326E+01  0.51100000000E-03 0. -1.
        -11    1    3    3    0    0  0.23025401934E+02  0.15206521045E+02  0.13548902575E+02  0.30740529888E+02  0.51100000000E-03 0.  1.
         12    1    3    3    0    0 -0.23495833380E+01 -0.19195878252E+02 -0.11832645015E+01  0.19375303832E+02  0.00000000000E+00 0. -1.
</event>
<event>
 7    1  0.1138240E-011  0.5930208E+02  0.7816164E-02  0.1266604E+00
        -11   -1    0    0    0    0  0.00000000000E+00  0.00000000000E+00  0.45593999997E+02  0.45594000000E+02  0.51100000000E-03 0. -1.
         11   -1    0    0    0    0 -0.00000000000E+00 -0.00000000000E+00 -0.45593999997E+02  0.45594000000E+02  0.51100000000E-03 0.  1.
    9900012    2    1    2    0    0 -0.19868042754E+02 -0.22389412572E+02  0.10985763100E+02  0.59302079767E+02  0.50000247556E+02 0.  0.
        -12    1    1    2    0    0  0.19868042754E+02  0.22389412572E+02 -0.10985763100E+02  0.31885920233E+02  0.00000000000E+00 0.  1.
         11    1    3    3    0    0 -0.13927561382E+02 -0.95115385456E+01 -0.19292108963E+01  0.16975517267E+02  0.51100000000E-03 0. -1.
        -11    1    3    3    0    0  0.52483235458E-01 -0.39500634902E+01 -0.13362487929E+02  0.13934196783E+02  0.51100000000E-03 0.  1.
         12    1    3    3    0    0 -0.59929646080E+01 -0.89278105364E+01  0.26277461925E+02  0.28392365717E+02  0.00000000000E+00 0. -1.
</event>
<event>
 7    1  0.1138240E-011  0.5930192E+02  0.7816164E-02  0.1266605E+00
        -11   -1    0    0    0    0  0.00000000000E+00  0.00000000000E+00  0.45593999997E+02  0.45594000000E+02  0.51100000000E-03 0.  1.
         11   -1    0    0    0    0 -0.00000000000E+00 -0.00000000000E+00 -0.45593999997E+02  0.45594000000E+02  0.51100000000E-03 0. -1.
    9900012    2    1    2    0    0  0.40763717392E+00  0.30849958097E+02 -0.80520765324E+01  0.59301921233E+02  0.49999958429E+02 0.  0.
        -12    1    1    2    0    0 -0.40763717392E+00 -0.30849958097E+02  0.80520765324E+01  0.31886078767E+02  0.00000000000E+00 0.  1.
         11    1    3    3    0    0 -0.41585492793E+01 -0.62172931302E+01 -0.80858148300E+01  0.11014929310E+02  0.51100000000E-03 0. -1.
        -11    1    3    3    0    0  0.15839805595E+02  0.94725192402E+01  0.72252469713E+00  0.18470249166E+02  0.51100000000E-03 0.  1.
         12    1    3    3    0    0 -0.11273619142E+02  0.27594731987E+02 -0.68878639954E+00  0.29816742758E+02  0.00000000000E+00 0. -1.
</event>
<event>
 7    1  0.1138240E-011  0.5930194E+02  0.7816164E-02  0.1266605E+00
        -11   -1    0    0    0    0  0.00000000000E+00  0.00000000000E+00  0.45593999997E+02  0.45594000000E+02  0.51100000000E-03 0.  1.
         11   -1    0    0    0    0 -0.00000000000E+00 -0.00000000000E+00 -0.45593999997E+02  0.45594000000E+02  0.51100000000E-03 0. -1.
    9900012    2    1    2    0    0  0.15188216854E+01 -0.33130416440E+01 -0.31677084437E+02  0.59301941249E+02  0.49999994932E+02 0.  0.
        -12    1    1    2    0    0 -0.15188216854E+01  0.33130416440E+01  0.31677084437E+02  0.31886058751E+02  0.00000000000E+00 0.  1.
         11    1    3    3    0    0 -0.10879788694E+02 -0.81835160480E+01 -0.35483609907E+02  0.38005608918E+02  0.51100000000E-03 0. -1.
        -11    1    3    3    0    0  0.21196246410E+01  0.80876170230E+01 -0.26106597456E+01  0.87588756298E+01  0.51100000000E-03 0.  1.
        -12    1    3    3    0    0  0.10278985738E+02 -0.32171426190E+01  0.64171852155E+01  0.12537456701E+02  0.00000000000E+00 0.  1.
</event>
<event>
 7    1  0.1138240E-011  0.5930194E+02  0.7816164E-02  0.1266605E+00
        -11   -1    0    0    0    0  0.00000000000E+00  0.00000000000E+00  0.45593999997E+02  0.45594000000E+02  0.51100000000E-03 0.  1.
         11   -1    0    0    0    0 -0.00000000000E+00 -0.00000000000E+00 -0.45593999997E+02  0.45594000000E+02  0.51100000000E-03 0. -1.
    9900012    2    1    2    0    0 -0.22238663884E+02  0.44650977627E+01 -0.22410395780E+02  0.59301935514E+02  0.49999984474E+02 0.  0.
        -12    1    1    2    0    0  0.22238663884E+02 -0.44650977627E+01  0.22410395780E+02  0.31886064486E+02  0.00000000000E+00 0.  1.
         11    1    3    3    0    0 -0.15654383545E+02  0.22194742273E+02 -0.28414279174E+01  0.27308240910E+02  0.51100000000E-03 0. -1.
        -11    1    3    3    0    0 -0.74396036320E+01 -0.88024910301E+00 -0.22651739138E+01  0.78264649622E+01  0.51100000000E-03 0.  1.
        -12    1    3    3    0    0  0.85532329296E+00 -0.16849395408E+02 -0.17303793949E+02  0.24167229642E+02  0.00000000000E+00 0.  1.
</event>
<event>
 7    1  0.1138240E-011  0.5930195E+02  0.7816164E-02  0.1266605E+00
        -11   -1    0    0    0    0  0.00000000000E+00  0.00000000000E+00  0.45593999997E+02  0.45594000000E+02  0.51100000000E-03 0. -1.
         11   -1    0    0    0    0 -0.00000000000E+00 -0.00000000000E+00 -0.45593999997E+02  0.45594000000E+02  0.51100000000E-03 0.  1.
    9900012    2    1    2    0    0  0.26636605342E+02  0.84356843140E+01  0.15363934831E+02  0.59301952777E+02  0.50000015957E+02 0.  0.
        -12    1    1    2    0    0 -0.26636605342E+02 -0.84356843140E+01 -0.15363934831E+02  0.31886047223E+02  0.00000000000E+00 0.  1.
         11    1    3    3    0    0 -0.23919525529E+01  0.50507879264E+01  0.11581726167E+02  0.12859559750E+02  0.51100000000E-03 0. -1.
        -11    1    3    3    0    0  0.16192960047E+02  0.16235205453E+02  0.12695920182E+02  0.26210307910E+02  0.51100000000E-03 0.  1.
        -12    1    3    3    0    0  0.12835597847E+02 -0.12850309066E+02 -0.89137115177E+01  0.20232085118E+02  0.00000000000E+00 0.  1.
</event>
<event>
 7    1  0.1138240E-011  0.5930195E+02  0.7816164E-02  0.1266605E+00
        -11   -1    0    0    0    0  0.00000000000E+00  0.00000000000E+00  0.45593999997E+02  0.45594000000E+02  0.51100000000E-03 0.  1.
         11   -1    0    0    0    0 -0.00000000000E+00 -0.00000000000E+00 -0.45593999997E+02  0.45594000000E+02  0.51100000000E-03 0. -1.
    9900012    2    1    2    0    0  0.22417589725E+01 -0.20434161678E+01 -0.31741438238E+02  0.59301953924E+02  0.50000018048E+02 0.  0.
        -12    1    1    2    0    0 -0.22417589725E+01  0.20434161678E+01  0.31741438238E+02  0.31886046076E+02  0.00000000000E+00 0.  1.
         11    1    3    3    0    0 -0.12866787904E+02 -0.16843380451E+01 -0.19891537258E+02  0.23750041692E+02  0.51100000000E-03 0. -1.
        -11    1    3    3    0    0 -0.56620524258E+01 -0.16507352516E+00  0.59367901614E+01  0.82055813093E+01  0.51100000000E-03 0.  1.
         12    1    3    3    0    0  0.20770599302E+02 -0.19400459755E+00 -0.17786691142E+02  0.27346330923E+02  0.00000000000E+00 0. -1.
</event>
<event>
 7    1  0.1138240E-011  0.5930199E+02  0.7816164E-02  0.1266605E+00
        -11   -1    0    0    0    0  0.00000000000E+00  0.00000000000E+00  0.45593999997E+02  0.45594000000E+02  0.51100000000E-03 0. -1.
         11   -1    0    0    0    0 -0.00000000000E+00 -0.00000000000E+00 -0.45593999997E+02  0.45594000000E+02  0.51100000000E-03 0.  1.
    9900012    2    1    2    0    0 -0.40440495395E+01 -0.18444429741E+02  0.25693700729E+02  0.59301990807E+02  0.50000085313E+02 0.  0.
        -12    1    1    2    0    0  0.40440495395E+01  0.18444429741E+02 -0.25693700729E+02  0.31886009193E+02  0.00000000000E+00 0.  1.
         11    1    3    3    0    0 -0.82490578861E+01 -0.12923492376E+02  0.73191082062E+00  0.15349244441E+02  0.51100000000E-03 0. -1.
        -11    1    3    3    0    0 -0.66484735268E+01 -0.17015960623E+02  0.59208867731E+01  0.19204218719E+02  0.51100000000E-03 0.  1.
         12    1    3    3    0    0  0.10853481873E+02  0.11495023258E+02  0.19040903135E+02  0.24748527647E+02  0.00000000000E+00 0. -1.
</event>
<event>
 7    1  0.1138240E-011  0.5930194E+02  0.7816164E-02  0.1266605E+00
        -11   -1    0    0    0    0  0.00000000000E+00  0.00000000000E+00  0.45593999997E+02  0.45594000000E+02  0.51100000000E-03 0.  1.
         11   -1    0    0    0    0 -0.00000000000E+00 -0.00000000000E+00 -0.45593999997E+02  0.45594000000E+02  0.51100000000E-03 0. -1.
    9900012    2    1    2    0    0 -0.61581376586E+01  0.27809830031E+02  0.14332177815E+02  0.59301943068E+02  0.49999998249E+02 0.  0.
        -12    1    1    2    0    0  0.61581376586E+01 -0.27809830031E+02 -0.14332177815E+02  0.31886056932E+02  0.00000000000E+00 0.  1.
         11    1    3    3    0    0 -0.11141538954E+02 -0.46697092617E+01  0.51909832056E+01  0.13148626611E+02  0.51100000000E-03 0. -1.
        -11    1    3    3    0    0  0.67816132951E+01  0.13416759914E+02  0.19310996750E+02  0.24472726068E+02  0.51100000000E-03 0.  1.
        -12    1    3    3    0    0 -0.17982119998E+01  0.19062779378E+02 -0.10169802140E+02  0.21680590389E+02  0.00000000000E+00 0.  1.
</event>
<event>
 7    1  0.1138240E-011  0.5930196E+02  0.7816164E-02  0.1266605E+00
        -11   -1    0    0    0    0  0.00000000000E+00  0.00000000000E+00  0.45593999997E+02  0.45594000000E+02  0.51100000000E-03 0.  1.
         11   -1    0    0    0    0 -0.00000000000E+00 -0.00000000000E+00 -0.45593999997E+02  0.45594000000E+02  0.51100000000E-03 0. -1.
    9900012    2    1    2    0    0 -0.22775649191E+02  0.67318687895E+01 -0.21276080667E+02  0.59301955059E+02  0.50000020118E+02 0.  0.
        -12    1    1    2    0    0  0.22775649191E+02 -0.67318687895E+01  0.21276080667E+02  0.31886044941E+02  0.00000000000E+00 0.  1.
         11    1    3    3    0    0  0.33555557397E+01  0.59385702808E+01 -0.22275660886E+01  0.71755433412E+01  0.51100000000E-03 0. -1.
        -11    1    3    3    0    0  0.37757962166E+01  0.19648036524E+01  0.97206912523E+01  0.10611735445E+02  0.51100000000E-03 0.  1.
        -12    1    3    3    0    0 -0.29907001147E+02 -0.11715051437E+01 -0.28769205831E+02  0.41514676273E+02  0.00000000000E+00 0.  1.
</event>
<event>
 7    1  0.1138240E-011  0.5930190E+02  0.7816164E-02  0.1266605E+00
        -11   -1    0    0    0    0  0.00000000000E+00  0.00000000000E+00  0.45593999997E+02  0.45594000000E+02  0.51100000000E-03 0.  1.
         11   -1    0    0    0    0 -0.00000000000E+00 -0.00000000000E+00 -0.45593999997E+02  0.45594000000E+02  0.51100000000E-03 0. -1.
    9900012    2    1    2    0    0 -0.72437276358E+01  0.28687302561E+01 -0.30919611745E+02  0.59301896541E+02  0.49999913395E+02 0.  0.
        -12    1    1    2    0    0  0.72437276358E+01 -0.28687302561E+01  0.30919611745E+02  0.31886103459E+02  0.00000000000E+00 0.  1.
         11    1    3    3    0    0  0.10668070126E+01  0.17461994145E+01 -0.19109910410E+02  0.19219156218E+02  0.51100000000E-03 0. -1.
        -11    1    3    3    0    0 -0.15463253634E+02 -0.92638212600E+01 -0.18480682142E+02  0.25816006856E+02  0.51100000000E-03 0.  1.
        -12    1    3    3    0    0  0.71527189858E+01  0.10386352102E+02  0.66709808075E+01  0.14266733466E+02  0.00000000000E+00 0.  1.
</event>
<event>
 7    1  0.1138240E-011  0.5930195E+02  0.7816164E-02  0.1266605E+00
        -11   -1    0    0    0    0  0.00000000000E+00  0.00000000000E+00  0.45593999997E+02  0.45594000000E+02  0.51100000000E-03 0.  1.
         11   -1    0    0    0    0 -0.00000000000E+00 -0.00000000000E+00 -0.45593999997E+02  0.45594000000E+02  0.51100000000E-03 0. -1.
    9900012    2    1    2    0    0 -0.19586657567E+02 -0.10209208107E+02 -0.22996848397E+02  0.59301950997E+02  0.50000012710E+02 0.  0.
        -12    1    1    2    0    0  0.19586657567E+02  0.10209208107E+02  0.22996848397E+02  0.31886049003E+02  0.00000000000E+00 0.  1.
         11    1    3    3    0    0  0.32427127873E+01 -0.17818850622E+02 -0.13568647441E+02  0.22630395872E+02  0.51100000000E-03 0. -1.
        -11    1    3    3    0    0  0.52114533078E+01 -0.49462906835E+00 -0.48307963332E+01  0.71232364111E+01  0.51100000000E-03 0.  1.
         12    1    3    3    0    0 -0.28040823662E+02  0.81042715829E+01 -0.45974046231E+01  0.29548318714E+02  0.00000000000E+00 0. -1.
</event>
<event>
 7    1  0.1138240E-011  0.5930202E+02  0.7816164E-02  0.1266604E+00
        -11   -1    0    0    0    0  0.00000000000E+00  0.00000000000E+00  0.45593999997E+02  0.45594000000E+02  0.51100000000E-03 0. -1.
         11   -1    0    0    0    0 -0.00000000000E+00 -0.00000000000E+00 -0.45593999997E+02  0.45594000000E+02  0.51100000000E-03 0.  1.
    9900012    2    1    2    0    0 -0.28050797056E+02  0.14977662804E+02  0.23532554025E+01  0.59302024877E+02  0.50000147449E+02 0.  0.
        -12    1    1    2    0    0  0.28050797056E+02 -0.14977662804E+02 -0.23532554025E+01  0.31885975123E+02  0.00000000000E+00 0.  1.
         11    1    3    3    0    0 -0.11959512958E+02 -0.15698654403E+02  0.38492722478E+00  0.19738942967E+02  0.51100000000E-03 0.  1.
        -11    1    3    3    0    0 -0.13926972430E+02  0.99307980614E+01 -0.45686125233E+01  0.17704618941E+02  0.51100000000E-03 0. -1.
        -12    1    3    3    0    0 -0.21643116694E+01  0.20745519145E+02  0.65369407010E+01  0.21858462968E+02  0.00000000000E+00 0.  1.
</event>
<event>
 7    1  0.1138240E-011  0.5930194E+02  0.7816164E-02  0.1266605E+00
        -11   -1    0    0    0    0  0.00000000000E+00  0.00000000000E+00  0.45593999997E+02  0.45594000000E+02  0.51100000000E-03 0.  1.
         11   -1    0    0    0    0 -0.00000000000E+00 -0.00000000000E+00 -0.45593999997E+02  0.45594000000E+02  0.51100000000E-03 0. -1.
    9900012    2    1    2    0    0 -0.26902134987E+02 -0.14047612159E+02  0.97806256320E+01  0.59301938594E+02  0.49999990091E+02 0.  0.
        -12    1    1    2    0    0  0.26902134987E+02  0.14047612159E+02 -0.97806256320E+01  0.31886061406E+02  0.00000000000E+00 0.  1.
         11    1    3    3    0    0  0.11188485989E+02 -0.92904587416E+01  0.70433444590E+01  0.16158698704E+02  0.51100000000E-03 0.  1.
        -11    1    3    3    0    0 -0.12687635372E+02 -0.37089492433E+01 -0.81025093869E+01  0.15504291485E+02  0.51100000000E-03 0. -1.
        -12    1    3    3    0    0 -0.25402985604E+02 -0.10482041742E+01  0.10839790560E+02  0.27638948406E+02  0.00000000000E+00 0.  1.
</event>
<event>
 7    1  0.1138240E-011  0.5930193E+02  0.7816164E-02  0.1266605E+00
        -11   -1    0    0    0    0  0.00000000000E+00  0.00000000000E+00  0.45593999997E+02  0.45594000000E+02  0.51100000000E-03 0.  1.
         11   -1    0    0    0    0 -0.00000000000E+00 -0.00000000000E+00 -0.45593999997E+02  0.45594000000E+02  0.51100000000E-03 0. -1.
    9900012    2    1    2    0    0 -0.15933805706E+02 -0.27250539111E+02 -0.44992708280E+01  0.59301929622E+02  0.49999973728E+02 0.  0.
        -12    1    1    2    0    0  0.15933805706E+02  0.27250539111E+02  0.44992708280E+01  0.31886070378E+02  0.00000000000E+00 0.  1.
         11    1    3    3    0    0  0.56839515657E+01 -0.79267106738E+00  0.20997556833E+01  0.61110234015E+01  0.51100000000E-03 0. -1.
        -11    1    3    3    0    0 -0.75404845910E+01  0.29677569268E+01  0.12865842728E+02  0.15205143814E+02  0.51100000000E-03 0.  1.
         12    1    3    3    0    0 -0.14077272681E+02 -0.29425624971E+02 -0.19464869240E+02  0.37985762406E+02  0.00000000000E+00 0. -1.
</event>
<event>
 7    1  0.1138240E-011  0.5930186E+02  0.7816164E-02  0.1266605E+00
        -11   -1    0    0    0    0  0.00000000000E+00  0.00000000000E+00  0.45593999997E+02  0.45594000000E+02  0.51100000000E-03 0.  1.
         11   -1    0    0    0    0 -0.00000000000E+00 -0.00000000000E+00 -0.45593999997E+02  0.45594000000E+02  0.51100000000E-03 0. -1.
    9900012    2    1    2    0    0  0.94348076454E+01  0.56296183985E+01 -0.29933557255E+02  0.59301858049E+02  0.49999843195E+02 0.  0.
        -12    1    1    2    0    0 -0.94348076454E+01 -0.56296183985E+01  0.29933557255E+02  0.31886141951E+02  0.00000000000E+00 0.  1.
         11    1    3    3    0    0 -0.24070132939E+01  0.11533983945E+01 -0.36719367434E+02  0.36816246222E+02  0.51100000000E-03 0. -1.
        -11    1    3    3    0    0  0.59431416787E+01 -0.55285518371E-01 -0.55167577460E+01  0.81091680086E+01  0.51100000000E-03 0.  1.
        -12    1    3    3    0    0  0.58986792606E+01  0.45315055223E+01  0.12302567925E+02  0.14376443819E+02  0.00000000000E+00 0.  1.
</event>
<event>
 7    1  0.1138240E-011  0.5930192E+02  0.7816164E-02  0.1266605E+00
        -11   -1    0    0    0    0  0.00000000000E+00  0.00000000000E+00  0.45593999997E+02  0.45594000000E+02  0.51100000000E-03 0.  1.
         11   -1    0    0    0    0 -0.00000000000E+00 -0.00000000000E+00 -0.45593999997E+02  0.45594000000E+02  0.51100000000E-03 0. -1.
    9900012    2    1    2    0    0 -0.27860838165E+02  0.10344622872E+02 -0.11553559598E+02  0.59301917378E+02  0.49999951397E+02 0.  0.
        -12    1    1    2    0    0  0.27860838165E+02 -0.10344622872E+02  0.11553559598E+02  0.31886082622E+02  0.00000000000E+00 0.  1.
         11    1    3    3    0    0  0.11452512963E+00 -0.10986452966E+02 -0.27508477663E+01  0.11326183314E+02  0.51100000000E-03 0. -1.
        -11    1    3    3    0    0 -0.28147105938E+02  0.63896010561E+01  0.28824450481E+01  0.29006810650E+02  0.51100000000E-03 0.  1.
         12    1    3    3    0    0  0.17174264336E+00  0.14941474782E+02 -0.11685156879E+02  0.18968923414E+02  0.00000000000E+00 0. -1.
</event>
<event>
 7    1  0.1138240E-011  0.5930196E+02  0.7816164E-02  0.1266605E+00
        -11   -1    0    0    0    0  0.00000000000E+00  0.00000000000E+00  0.45593999997E+02  0.45594000000E+02  0.51100000000E-03 0. -1.
         11   -1    0    0    0    0 -0.00000000000E+00 -0.00000000000E+00 -0.45593999997E+02  0.45594000000E+02  0.51100000000E-03 0.  1.
    9900012    2    1    2    0    0 -0.13995619579E+02  0.13886961730E+01  0.28616665556E+02  0.59301962429E+02  0.50000033559E+02 0.  0.
        -12    1    1    2    0    0  0.13995619579E+02 -0.13886961730E+01 -0.28616665556E+02  0.31886037571E+02  0.00000000000E+00 0.  1.
         11    1    3    3    0    0 -0.12242911603E+02 -0.21169737760E+00 -0.28783775488E+01  0.12578503801E+02  0.51100000000E-03 0. -1.
        -11    1    3    3    0    0 -0.17204979226E+02  0.63127864588E+01  0.15740918468E+02  0.24158623668E+02  0.51100000000E-03 0.  1.
         12    1    3    3    0    0  0.15452271250E+02 -0.47123929082E+01  0.15754124637E+02  0.22564834960E+02  0.00000000000E+00 0. -1.
</event>
<event>
 7    1  0.1138240E-011  0.5930195E+02  0.7816164E-02  0.1266605E+00
        -11   -1    0    0    0    0  0.00000000000E+00  0.00000000000E+00  0.45593999997E+02  0.45594000000E+02  0.51100000000E-03 0.  1.
         11   -1    0    0    0    0 -0.00000000000E+00 -0.00000000000E+00 -0.45593999997E+02  0.45594000000E+02  0.51100000000E-03 0. -1.
    9900012    2    1    2    0    0 -0.11755352859E+01  0.10839873325E+02 -0.29963901303E+02  0.59301951041E+02  0.50000012791E+02 0.  0.
        -12    1    1    2    0    0  0.11755352859E+01 -0.10839873325E+02  0.29963901303E+02  0.31886048959E+02  0.00000000000E+00 0.  1.
         11    1    3    3    0    0  0.43634183890E+00  0.15556635638E+02 -0.24032492568E+02  0.28631451341E+02  0.51100000000E-03 0. -1.
        -11    1    3    3    0    0 -0.30684047712E+01  0.89987048353E-01 -0.17653132743E+02  0.17918044018E+02  0.51100000000E-03 0.  1.
        -12    1    3    3    0    0  0.14565276464E+01 -0.48067493614E+01  0.11721724009E+02  0.12752455683E+02  0.00000000000E+00 0.  1.
</event>
<event>
 7    1  0.1138240E-011  0.5930192E+02  0.7816164E-02  0.1266605E+00
        -11   -1    0    0    0    0  0.00000000000E+00  0.00000000000E+00  0.45593999997E+02  0.45594000000E+02  0.51100000000E-03 0. -1.
         11   -1    0    0    0    0 -0.00000000000E+00 -0.00000000000E+00 -0.45593999997E+02  0.45594000000E+02  0.51100000000E-03 0.  1.
    9900012    2    1    2    0    0 -0.26596249012E+01  0.15000320569E+02  0.28011408266E+02  0.59301918165E+02  0.49999952832E+02 0.  0.
        -12    1    1    2    0    0  0.26596249012E+01 -0.15000320569E+02 -0.28011408266E+02  0.31886081835E+02  0.00000000000E+00 0.  1.
         11    1    3    3    0    0  0.19154241837E+02  0.24943279579E+01  0.64419643797E+01  0.20361865279E+02  0.51100000000E-03 0. -1.
        -11    1    3    3    0    0  0.22569723919E+00 -0.37147788408E+01  0.70246884677E+01  0.79496395773E+01  0.51100000000E-03 0.  1.
        -12    1    3    3    0    0 -0.22039563978E+02  0.16220771452E+02  0.14544755418E+02  0.30990413308E+02  0.00000000000E+00 0.  1.
</event>
<event>
 7    1  0.1138240E-011  0.5930194E+02  0.7816164E-02  0.1266605E+00
        -11   -1    0    0    0    0  0.00000000000E+00  0.00000000000E+00  0.45593999997E+02  0.45594000000E+02  0.51100000000E-03 0.  1.
         11   -1    0    0    0    0 -0.00000000000E+00 -0.00000000000E+00 -0.45593999997E+02  0.45594000000E+02  0.51100000000E-03 0. -1.
    9900012    2    1    2    0    0  0.57543756904E+01  0.54246387407E+01 -0.30889826971E+02  0.59301937914E+02  0.49999988850E+02 0.  0.
        -12    1    1    2    0    0 -0.57543756904E+01 -0.54246387407E+01  0.30889826971E+02  0.31886062086E+02  0.00000000000E+00 0.  1.
         11    1    3    3    0    0  0.16856585175E+02  0.99741483136E+01 -0.18460271435E+02  0.26914860580E+02  0.51100000000E-03 0. -1.
        -11    1    3    3    0    0  0.90075844281E+01 -0.26655078677E+01 -0.61806996501E+01  0.11244667974E+02  0.51100000000E-03 0.  1.
         12    1    3    3    0    0 -0.20109793913E+02 -0.18840017051E+01 -0.62488558864E+01  0.21142409359E+02  0.00000000000E+00 0. -1.
</event>
<event>
 7    1  0.1138240E-011  0.5930197E+02  0.7816164E-02  0.1266605E+00
        -11   -1    0    0    0    0  0.00000000000E+00  0.00000000000E+00  0.45593999997E+02  0.45594000000E+02  0.51100000000E-03 0.  1.
         11   -1    0    0    0    0 -0.00000000000E+00 -0.00000000000E+00 -0.45593999997E+02  0.45594000000E+02  0.51100000000E-03 0. -1.
    9900012    2    1    2    0    0  0.46542235528E+01  0.19021251195E+02 -0.25164442607E+02  0.59301969114E+02  0.50000045752E+02 0.  0.
        -12    1    1    2    0    0 -0.46542235528E+01 -0.19021251195E+02  0.25164442607E+02  0.31886030885E+02  0.00000000000E+00 0.  1.
         11    1    3    3    0    0  0.60673660485E+01  0.10517033221E+02 -0.29753713650E+02  0.32135718364E+02  0.51100000000E-03 0. -1.
        -11    1    3    3    0    0  0.11582647421E+02  0.21819832553E+01 -0.62346342019E+00  0.11802858938E+02  0.51100000000E-03 0.  1.
        -12    1    3    3    0    0 -0.12995789917E+02  0.63222347193E+01  0.52127344633E+01  0.15363391813E+02  0.00000000000E+00 0.  1.
</event>
<event>
 7    1  0.1138240E-011  0.5930195E+02  0.7816164E-02  0.1266605E+00
        -11   -1    0    0    0    0  0.00000000000E+00  0.00000000000E+00  0.45593999997E+02  0.45594000000E+02  0.51100000000E-03 0. -1.
         11   -1    0    0    0    0 -0.00000000000E+00 -0.00000000000E+00 -0.45593999997E+02  0.45594000000E+02  0.51100000000E-03 0.  1.
    9900012    2    1    2    0    0  0.18713374678E+01 -0.18892581524E+02  0.25618125048E+02  0.59301954909E+02  0.50000019844E+02 0.  0.
        -12    1    1    2    0    0 -0.18713374678E+01  0.18892581524E+02 -0.25618125048E+02  0.31886045091E+02  0.00000000000E+00 0.  1.
         11    1    3    3    0    0  0.64946237303E+01 -0.15308422245E+02  0.35236500420E+01  0.16998354006E+02  0.51100000000E-03 0. -1.
        -11    1    3    3    0    0  0.11800145844E+02  0.94177602215E+01  0.83971090037E+01  0.17275679130E+02  0.51100000000E-03 0.  1.
         12    1    3    3    0    0 -0.16423432106E+02 -0.13001919501E+02  0.13697366003E+02  0.25027921773E+02  0.00000000000E+00 0. -1.
</event>
<event>
 7    1  0.1138240E-011  0.5930196E+02  0.7816164E-02  0.1266605E+00
        -11   -1    0    0    0    0  0.00000000000E+00  0.00000000000E+00  0.45593999997E+02  0.45594000000E+02  0.51100000000E-03 0.  1.
         11   -1    0    0    0    0 -0.00000000000E+00 -0.00000000000E+00 -0.45593999997E+02  0.45594000000E+02  0.51100000000E-03 0. -1.
    9900012    2    1    2    0    0  0.13418137363E+02  0.65686366440E+01 -0.28169595947E+02  0.59301960210E+02  0.50000029513E+02 0.  0.
        -12    1    1    2    0    0 -0.13418137363E+02 -0.65686366440E+01  0.28169595947E+02  0.31886039790E+02  0.00000000000E+00 0.  1.
         11    1    3    3    0    0  0.18562253920E+01 -0.12774316935E+00 -0.27583212478E+02  0.27645894847E+02  0.51100000000E-03 0. -1.
        -11    1    3    3    0    0 -0.85622862973E+01 -0.18660328470E+01 -0.37990717952E+01  0.95513230491E+01  0.51100000000E-03 0.  1.
         12    1    3    3    0    0  0.20124198268E+02  0.85624126603E+01  0.32126883254E+01  0.22104742314E+02  0.00000000000E+00 0. -1.
</event>
<event>
 7    1  0.1138240E-011  0.5930194E+02  0.7816164E-02  0.1266605E+00
        -11   -1    0    0    0    0  0.00000000000E+00  0.00000000000E+00  0.45593999997E+02  0.45594000000E+02  0.51100000000E-03 0.  1.
         11   -1    0    0    0    0 -0.00000000000E+00 -0.00000000000E+00 -0.45593999997E+02  0.45594000000E+02  0.51100000000E-03 0. -1.
    9900012    2    1    2    0    0 -0.68343843198E+01 -0.22033736850E+02 -0.22011964927E+02  0.59301937707E+02  0.49999988472E+02 0.  0.
        -12    1    1    2    0    0  0.68343843198E+01  0.22033736850E+02  0.22011964927E+02  0.31886062293E+02  0.00000000000E+00 0.  1.
         11    1    3    3    0    0 -0.80543282251E+01 -0.18416342338E+02 -0.88320099733E+01  0.21955369929E+02  0.51100000000E-03 0. -1.
        -11    1    3    3    0    0 -0.15061321503E+02 -0.74506419947E+01 -0.11861624026E+02  0.20568266732E+02  0.51100000000E-03 0.  1.
        -12    1    3    3    0    0  0.16281265408E+02  0.38332474827E+01 -0.13183309281E+01  0.16778301046E+02  0.00000000000E+00 0.  1.
</event>
<event>
 7    1  0.1138240E-011  0.5930194E+02  0.7816164E-02  0.1266605E+00
        -11   -1    0    0    0    0  0.00000000000E+00  0.00000000000E+00  0.45593999997E+02  0.45594000000E+02  0.51100000000E-03 0.  1.
         11   -1    0    0    0    0 -0.00000000000E+00 -0.00000000000E+00 -0.45593999997E+02  0.45594000000E+02  0.51100000000E-03 0. -1.
    9900012    2    1    2    0    0  0.82472430555E+01 -0.21243686429E+02 -0.22302675350E+02  0.59301944131E+02  0.50000000189E+02 0.  0.
        -12    1    1    2    0    0 -0.82472430555E+01  0.21243686429E+02  0.22302675350E+02  0.31886055869E+02  0.00000000000E+00 0.  1.
         11    1    3    3    0    0  0.52369494379E+01 -0.10911102843E+02 -0.71092100828E+00  0.12123663374E+02  0.51100000000E-03 0. -1.
        -11    1    3    3    0    0 -0.20086540431E+01  0.78412277229E+01  0.84556316685E+01  0.11705436790E+02  0.51100000000E-03 0.  1.
         12    1    3    3    0    0  0.50189476607E+01 -0.18173811308E+02 -0.30047386010E+02  0.35472843967E+02  0.00000000000E+00 0. -1.
</event>
<event>
 7    1  0.1138240E-011  0.5930196E+02  0.7816164E-02  0.1266605E+00
        -11   -1    0    0    0    0  0.00000000000E+00  0.00000000000E+00  0.45593999997E+02  0.45594000000E+02  0.51100000000E-03 0. -1.
         11   -1    0    0    0    0 -0.00000000000E+00 -0.00000000000E+00 -0.45593999997E+02  0.45594000000E+02  0.51100000000E-03 0.  1.
    9900012    2    1    2    0    0 -0.22323597401E+02  0.22331757357E+02  0.44350115079E+01  0.59301957369E+02  0.50000024332E+02 0.  0.
        -12    1    1    2    0    0  0.22323597401E+02 -0.22331757357E+02 -0.44350115079E+01  0.31886042631E+02  0.00000000000E+00 0.  1.
         11    1    3    3    0    0 -0.18561886946E+01  0.94467628842E+01  0.14464623326E+02  0.17375617793E+02  0.51100000000E-03 0. -1.
        -11    1    3    3    0    0 -0.71644840517E+01  0.17434831964E+02 -0.17745868421E+02  0.25888589062E+02  0.51100000000E-03 0.  1.
         12    1    3    3    0    0 -0.13302924655E+02 -0.45498374917E+01  0.77162566034E+01  0.16037750514E+02  0.00000000000E+00 0. -1.
</event>
<event>
 7    1  0.1138240E-011  0.5930195E+02  0.7816164E-02  0.1266605E+00
        -11   -1    0    0    0    0  0.00000000000E+00  0.00000000000E+00  0.45593999997E+02  0.45594000000E+02  0.51100000000E-03 0.  1.
         11   -1    0    0    0    0 -0.00000000000E+00 -0.00000000000E+00 -0.45593999997E+02  0.45594000000E+02  0.51100000000E-03 0. -1.
    9900012    2    1    2    0    0 -0.14814458613E+01  0.25051554374E+02 -0.19670918288E+02  0.59301951566E+02  0.50000013749E+02 0.  0.
        -12    1    1    2    0    0  0.14814458613E+01 -0.25051554374E+02  0.19670918288E+02  0.31886048434E+02  0.00000000000E+00 0.  1.
         11    1    3    3    0    0  0.14731393235E+02  0.14385177300E+02 -0.45929158767E+00  0.20595101885E+02  0.51100000000E-03 0. -1.
        -11    1    3    3    0    0  0.53268762965E+00 -0.30182890907E+00  0.62716275737E+01  0.63014418577E+01  0.51100000000E-03 0.  1.
        -12    1    3    3    0    0 -0.16745526726E+02  0.10968205983E+02 -0.25483254275E+02  0.32405407824E+02  0.00000000000E+00 0.  1.
</event>
<event>
 7    1  0.1138240E-011  0.5930195E+02  0.7816164E-02  0.1266605E+00
        -11   -1    0    0    0    0  0.00000000000E+00  0.00000000000E+00  0.45593999997E+02  0.45594000000E+02  0.51100000000E-03 0.  1.
         11   -1    0    0    0    0 -0.00000000000E+00 -0.00000000000E+00 -0.45593999997E+02  0.45594000000E+02  0.51100000000E-03 0. -1.
    9900012    2    1    2    0    0 -0.28842370318E+02 -0.87804009775E+01 -0.10379909886E+02  0.59301948251E+02  0.50000007703E+02 0.  0.
        -12    1    1    2    0    0  0.28842370318E+02  0.87804009775E+01  0.10379909886E+02  0.31886051749E+02  0.00000000000E+00 0.  1.
         11    1    3    3    0    0 -0.11986386038E+02  0.25672797528E+01  0.45224674330E+01  0.13065874924E+02  0.51100000000E-03 0. -1.
        -11    1    3    3    0    0  0.94374774379E+00  0.10125605108E+02  0.56097455618E+01  0.11614120033E+02  0.51100000000E-03 0.  1.
         12    1    3    3    0    0 -0.17799732024E+02 -0.21473285839E+02 -0.20512122881E+02  0.34621953294E+02  0.00000000000E+00 0. -1.
</event>
<event>
 7    1  0.1138240E-011  0.5930196E+02  0.7816164E-02  0.1266605E+00
        -11   -1    0    0    0    0  0.00000000000E+00  0.00000000000E+00  0.45593999997E+02  0.45594000000E+02  0.51100000000E-03 0. -1.
         11   -1    0    0    0    0 -0.00000000000E+00 -0.00000000000E+00 -0.45593999997E+02  0.45594000000E+02  0.51100000000E-03 0.  1.
    9900012    2    1    2    0    0 -0.24464479017E+02  0.14379740772E+02  0.14540705223E+02  0.59301956241E+02  0.50000022274E+02 0.  0.
        -12    1    1    2    0    0  0.24464479017E+02 -0.14379740772E+02 -0.14540705223E+02  0.31886043759E+02  0.00000000000E+00 0.  1.
         11    1    3    3    0    0  0.10444608087E+02 -0.27430884476E+01  0.27279001555E+01  0.11138034470E+02  0.51100000000E-03 0. -1.
        -11    1    3    3    0    0 -0.11635097803E+02  0.47275530316E+01 -0.82535106878E+01  0.15028163477E+02  0.51100000000E-03 0.  1.
         12    1    3    3    0    0 -0.23273989301E+02  0.12395276188E+02  0.20066315756E+02  0.33135758294E+02  0.00000000000E+00 0. -1.
</event>
<event>
 7    1  0.1138240E-011  0.5930194E+02  0.7816164E-02  0.1266605E+00
        -11   -1    0    0    0    0  0.00000000000E+00  0.00000000000E+00  0.45593999997E+02  0.45594000000E+02  0.51100000000E-03 0.  1.
         11   -1    0    0    0    0 -0.00000000000E+00 -0.00000000000E+00 -0.45593999997E+02  0.45594000000E+02  0.51100000000E-03 0. -1.
    9900012    2    1    2    0    0 -0.25249117540E+02 -0.18106332419E+02 -0.71668399523E+01  0.59301940269E+02  0.49999993146E+02 0.  0.
        -12    1    1    2    0    0  0.25249117540E+02  0.18106332419E+02  0.71668399523E+01  0.31886059731E+02  0.00000000000E+00 0.  1.
         11    1    3    3    0    0 -0.44032993668E+01 -0.10219483886E+02 -0.99017022503E+01  0.14895321545E+02  0.51100000000E-03 0. -1.
        -11    1    3    3    0    0  0.80060761559E+01  0.42761206597E+01 -0.71696091898E+01  0.11566579421E+02  0.51100000000E-03 0.  1.
         12    1    3    3    0    0 -0.28851894330E+02 -0.12162969193E+02  0.99044714878E+01  0.32840039303E+02  0.00000000000E+00 0. -1.
</event>
<event>
 7    1  0.1138240E-011  0.5930193E+02  0.7816164E-02  0.1266605E+00
        -11   -1    0    0    0    0  0.00000000000E+00  0.00000000000E+00  0.45593999997E+02  0.45594000000E+02  0.51100000000E-03 0.  1.
         11   -1    0    0    0    0 -0.00000000000E+00 -0.00000000000E+00 -0.45593999997E+02  0.45594000000E+02  0.51100000000E-03 0. -1.
    9900012    2    1    2    0    0  0.28253179516E+02  0.10705053811E+02 -0.10192208667E+02  0.59301930199E+02  0.49999974780E+02 0.  0.
        -12    1    1    2    0    0 -0.28253179516E+02 -0.10705053811E+02  0.10192208667E+02  0.31886069801E+02  0.00000000000E+00 0.  1.
         11    1    3    3    0    0  0.20099896022E+01 -0.19587663695E+01 -0.57818871429E+01  0.64270555533E+01  0.51100000000E-03 0. -1.
        -11    1    3    3    0    0  0.56628776835E+01 -0.16125196408E+02  0.77574800232E+00  0.17108241525E+02  0.51100000000E-03 0.  1.
         12    1    3    3    0    0  0.20580312230E+02  0.28789016589E+02 -0.51860695266E+01  0.35766633120E+02  0.00000000000E+00 0. -1.
</event>
<event>
 7    1  0.1138240E-011  0.5930196E+02  0.7816164E-02  0.1266605E+00
        -11   -1    0    0    0    0  0.00000000000E+00  0.00000000000E+00  0.45593999997E+02  0.45594000000E+02  0.51100000000E-03 0.  1.
         11   -1    0    0    0    0 -0.00000000000E+00 -0.00000000000E+00 -0.45593999997E+02  0.45594000000E+02  0.51100000000E-03 0. -1.
    9900012    2    1    2    0    0  0.15520930672E+02 -0.16837421421E+02 -0.22188324601E+02  0.59301956068E+02  0.50000021958E+02 0.  0.
        -12    1    1    2    0    0 -0.15520930672E+02  0.16837421421E+02  0.22188324601E+02  0.31886043932E+02  0.00000000000E+00 0.  1.
         11    1    3    3    0    0  0.48586350835E+01  0.75034027446E+01  0.23227827928E+01  0.92359465019E+01  0.51100000000E-03 0. -1.
        -11    1    3    3    0    0  0.18591548823E+02 -0.14343384101E+01 -0.60744162558E+01  0.19611260730E+02  0.51100000000E-03 0.  1.
         12    1    3    3    0    0 -0.79292532347E+01 -0.22906485755E+02 -0.18436691138E+02  0.30454748836E+02  0.00000000000E+00 0. -1.
</event>
<event>
 7    1  0.1138240E-011  0.5930195E+02  0.7816164E-02  0.1266605E+00
        -11   -1    0    0    0    0  0.00000000000E+00  0.00000000000E+00  0.45593999997E+02  0.45594000000E+02  0.51100000000E-03 0.  1.
         11   -1    0    0    0    0 -0.00000000000E+00 -0.00000000000E+00 -0.45593999997E+02  0.45594000000E+02  0.51100000000E-03 0. -1.
    9900012    2    1    2    0    0 -0.94639851509E+01  0.28312066818E+02 -0.11206239588E+02  0.59301953708E+02  0.50000017654E+02 0.  0.
        -12    1    1    2    0    0  0.94639851509E+01 -0.28312066818E+02  0.11206239588E+02  0.31886046292E+02  0.00000000000E+00 0.  1.
         11    1    3    3    0    0 -0.11464626915E+02 -0.50159052213E+01 -0.38698501399E+01  0.13098576864E+02  0.51100000000E-03 0. -1.
        -11    1    3    3    0    0 -0.55314800759E+01  0.22626622986E+02 -0.17907358885E+02  0.29380858429E+02  0.51100000000E-03 0.  1.
        -12    1    3    3    0    0  0.75321218398E+01  0.10701349054E+02  0.10570969437E+02  0.16822518415E+02  0.00000000000E+00 0.  1.
</event>
<event>
 7    1  0.1138240E-011  0.5930195E+02  0.7816164E-02  0.1266605E+00
        -11   -1    0    0    0    0  0.00000000000E+00  0.00000000000E+00  0.45593999997E+02  0.45594000000E+02  0.51100000000E-03 0.  1.
         11   -1    0    0    0    0 -0.00000000000E+00 -0.00000000000E+00 -0.45593999997E+02  0.45594000000E+02  0.51100000000E-03 0. -1.
    9900012    2    1    2    0    0  0.30510653760E+02 -0.92370043132E+01  0.70566906997E+00  0.59301949595E+02  0.50000010154E+02 0.  0.
        -12    1    1    2    0    0 -0.30510653760E+02  0.92370043132E+01 -0.70566906997E+00  0.31886050405E+02  0.00000000000E+00 0.  1.
         11    1    3    3    0    0  0.22901056413E+02 -0.20349436333E+01 -0.15827995990E+01  0.23045707524E+02  0.51100000000E-03 0. -1.
        -11    1    3    3    0    0  0.12814140794E+02 -0.15532958839E+02  0.11158210233E+02  0.23021309052E+02  0.51100000000E-03 0.  1.
         12    1    3    3    0    0 -0.52045434472E+01  0.83308981594E+01 -0.88697415637E+01  0.13234933020E+02  0.00000000000E+00 0. -1.
</event>
<event>
 7    1  0.1138240E-011  0.5930195E+02  0.7816164E-02  0.1266605E+00
        -11   -1    0    0    0    0  0.00000000000E+00  0.00000000000E+00  0.45593999997E+02  0.45594000000E+02  0.51100000000E-03 0. -1.
         11   -1    0    0    0    0 -0.00000000000E+00 -0.00000000000E+00 -0.45593999997E+02  0.45594000000E+02  0.51100000000E-03 0.  1.
    9900012    2    1    2    0    0 -0.22508104730E+02 -0.22320574868E+02  0.34492971305E+01  0.59301945185E+02  0.50000002110E+02 0.  0.
        -12    1    1    2    0    0  0.22508104730E+02  0.22320574868E+02 -0.34492971305E+01  0.31886054815E+02  0.00000000000E+00 0.  1.
         11    1    3    3    0    0 -0.13009032717E+02 -0.13963598264E+02  0.18795422120E+02  0.26785908640E+02  0.51100000000E-03 0. -1.
        -11    1    3    3    0    0 -0.18057781223E+02 -0.29640454030E+01 -0.77854077034E+01  0.19886719217E+02  0.51100000000E-03 0.  1.
         12    1    3    3    0    0  0.85587092103E+01 -0.53929312015E+01 -0.75607172863E+01  0.12629317328E+02  0.00000000000E+00 0. -1.
</event>
<event>
 7    1  0.1138240E-011  0.5930195E+02  0.7816164E-02  0.1266605E+00
        -11   -1    0    0    0    0  0.00000000000E+00  0.00000000000E+00  0.45593999997E+02  0.45594000000E+02  0.51100000000E-03 0. -1.
         11   -1    0    0    0    0 -0.00000000000E+00 -0.00000000000E+00 -0.45593999997E+02  0.45594000000E+02  0.51100000000E-03 0.  1.
    9900012    2    1    2    0    0  0.26205437980E+01  0.13127690101E+02 -0.28939880489E+02  0.59301950074E+02  0.50000011026E+02 0.  0.
        -12    1    1    2    0    0 -0.26205437980E+01 -0.13127690101E+02  0.28939880489E+02  0.31886049926E+02  0.00000000000E+00 0.  1.
         11    1    3    3    0    0 -0.10679666324E+02  0.14500062801E+02 -0.55929438308E+01  0.18857044175E+02  0.51100000000E-03 0. -1.
        -11    1    3    3    0    0  0.16002486468E+02  0.34887499399E+01  0.67986518239E-01  0.16378509448E+02  0.51100000000E-03 0.  1.
         12    1    3    3    0    0 -0.27022763459E+01 -0.48611226402E+01 -0.23414923177E+02  0.24066396451E+02  0.00000000000E+00 0. -1.
</event>
<event>
 7    1  0.1138240E-011  0.5930198E+02  0.7816164E-02  0.1266605E+00
        -11   -1    0    0    0    0  0.00000000000E+00  0.00000000000E+00  0.45593999997E+02  0.45594000000E+02  0.51100000000E-03 0.  1.
         11   -1    0    0    0    0 -0.00000000000E+00 -0.00000000000E+00 -0.45593999997E+02  0.45594000000E+02  0.51100000000E-03 0. -1.
    9900012    2    1    2    0    0 -0.19007292511E+02  0.18575044590E+01  0.25534113815E+02  0.59301977047E+02  0.50000060220E+02 0.  0.
        -12    1    1    2    0    0  0.19007292511E+02 -0.18575044590E+01 -0.25534113815E+02  0.31886022953E+02  0.00000000000E+00 0.  1.
         11    1    3    3    0    0 -0.66624330818E+01 -0.44307171881E+00  0.85290304934E+01  0.10831836803E+02  0.51100000000E-03 0. -1.
        -11    1    3    3    0    0 -0.33537360113E+01  0.10059808976E+02  0.29430049805E+02  0.31282185564E+02  0.51100000000E-03 0.  1.
         12    1    3    3    0    0 -0.89911234183E+01 -0.77592327980E+01 -0.12424966484E+02  0.17187954680E+02  0.00000000000E+00 0. -1.
</event>
<event>
 7    1  0.1138240E-011  0.5930201E+02  0.7816164E-02  0.1266605E+00
        -11   -1    0    0    0    0  0.00000000000E+00  0.00000000000E+00  0.45593999997E+02  0.45594000000E+02  0.51100000000E-03 0. -1.
         11   -1    0    0    0    0 -0.00000000000E+00 -0.00000000000E+00 -0.45593999997E+02  0.45594000000E+02  0.51100000000E-03 0.  1.
    9900012    2    1    2    0    0  0.17807224109E+02  0.24751336322E+02  0.93268644194E+01  0.59302011226E+02  0.50000122554E+02 0.  0.
        -12    1    1    2    0    0 -0.17807224109E+02 -0.24751336322E+02 -0.93268644194E+01  0.31885988774E+02  0.00000000000E+00 0.  1.
         11    1    3    3    0    0  0.21724247794E+02  0.17917411037E+02 -0.10908595542E+02  0.30198907554E+02  0.51100000000E-03 0. -1.
        -11    1    3    3    0    0  0.17297561469E+01  0.45579338379E+01 -0.25615586805E+01  0.55071226910E+01  0.51100000000E-03 0.  1.
         12    1    3    3    0    0 -0.56467798316E+01  0.22759914471E+01  0.22797018642E+02  0.23595980982E+02  0.00000000000E+00 0. -1.
</event>
<event>
 7    1  0.1138240E-011  0.5930194E+02  0.7816164E-02  0.1266605E+00
        -11   -1    0    0    0    0  0.00000000000E+00  0.00000000000E+00  0.45593999997E+02  0.45594000000E+02  0.51100000000E-03 0. -1.
         11   -1    0    0    0    0 -0.00000000000E+00 -0.00000000000E+00 -0.45593999997E+02  0.45594000000E+02  0.51100000000E-03 0.  1.
    9900012    2    1    2    0    0 -0.19000012172E+02 -0.19210494153E+02  0.16931548896E+02  0.59301938842E+02  0.49999990543E+02 0.  0.
        -12    1    1    2    0    0  0.19000012172E+02  0.19210494153E+02 -0.16931548896E+02  0.31886061158E+02  0.00000000000E+00 0.  1.
         11    1    3    3    0    0 -0.82359229906E+01  0.58546346661E+01  0.18134945672E+02  0.20760140399E+02  0.51100000000E-03 0. -1.
        -11    1    3    3    0    0 -0.11731476592E+01 -0.13777238568E+02  0.12294066823E+02  0.18502233847E+02  0.51100000000E-03 0.  1.
        -12    1    3    3    0    0 -0.95909415223E+01 -0.11287890251E+02 -0.13497463600E+02  0.20039564597E+02  0.00000000000E+00 0.  1.
</event>
<event>
 7    1  0.1138240E-011  0.5930194E+02  0.7816164E-02  0.1266605E+00
        -11   -1    0    0    0    0  0.00000000000E+00  0.00000000000E+00  0.45593999997E+02  0.45594000000E+02  0.51100000000E-03 0.  1.
         11   -1    0    0    0    0 -0.00000000000E+00 -0.00000000000E+00 -0.45593999997E+02  0.45594000000E+02  0.51100000000E-03 0. -1.
    9900012    2    1    2    0    0 -0.15300256584E+02 -0.42890255664E+01 -0.27644655554E+02  0.59301943917E+02  0.49999999798E+02 0.  0.
        -12    1    1    2    0    0  0.15300256584E+02  0.42890255664E+01  0.27644655554E+02  0.31886056083E+02  0.00000000000E+00 0.  1.
         11    1    3    3    0    0  0.32036087004E+01 -0.61210037801E+00  0.19053983961E+01  0.37773428342E+01  0.51100000000E-03 0. -1.
        -11    1    3    3    0    0 -0.19371488319E+02  0.55008674869E+01  0.41721390641E+01  0.20565039446E+02  0.51100000000E-03 0.  1.
         12    1    3    3    0    0  0.86762303463E+00 -0.91777926753E+01 -0.33722193014E+02  0.34959561636E+02  0.00000000000E+00 0. -1.
</event>
<event>
 7    1  0.1138240E-011  0.5930196E+02  0.7816164E-02  0.1266605E+00
        -11   -1    0    0    0    0  0.00000000000E+00  0.00000000000E+00  0.45593999997E+02  0.45594000000E+02  0.51100000000E-03 0.  1.
         11   -1    0    0    0    0 -0.00000000000E+00 -0.00000000000E+00 -0.45593999997E+02  0.45594000000E+02  0.51100000000E-03 0. -1.
    9900012    2    1    2    0    0 -0.72216774235E+01  0.26442140018E+02 -0.16290499959E+02  0.59301956306E+02  0.50000022393E+02 0.  0.
        -12    1    1    2    0    0  0.72216774235E+01 -0.26442140018E+02  0.16290499959E+02  0.31886043694E+02  0.00000000000E+00 0.  1.
         11    1    3    3    0    0 -0.15718842289E+02  0.35563408703E+01 -0.14827034927E+02  0.21899098801E+02  0.51100000000E-03 0. -1.
        -11    1    3    3    0    0  0.78372488478E+01  0.28686155387E+02 -0.55841638205E+01  0.30257244855E+02  0.51100000000E-03 0.  1.
         12    1    3    3    0    0  0.65991601773E+00 -0.58003562391E+01  0.41206987887E+01  0.71456126510E+01  0.00000000000E+00 0. -1.
</event>
<event>
 7    1  0.1138240E-011  0.5930192E+02  0.7816164E-02  0.1266605E+00
        -11   -1    0    0    0    0  0.00000000000E+00  0.00000000000E+00  0.45593999997E+02  0.45594000000E+02  0.51100000000E-03 0. -1.
         11   -1    0    0    0    0 -0.00000000000E+00 -0.00000000000E+00 -0.45593999997E+02  0.45594000000E+02  0.51100000000E-03 0.  1.
    9900012    2    1    2    0    0  0.11832496892E+02  0.28407376573E+02  0.83507625179E+01  0.59301917439E+02  0.49999951509E+02 0.  0.
        -12    1    1    2    0    0 -0.11832496892E+02 -0.28407376573E+02 -0.83507625179E+01  0.31886082561E+02  0.00000000000E+00 0.  1.
         11    1    3    3    0    0 -0.61444902810E+01 -0.81334290429E+00  0.13625392906E+02  0.14968888389E+02  0.51100000000E-03 0. -1.
        -11    1    3    3    0    0 -0.49044161581E+01  0.10738800406E+02 -0.87784972824E+01  0.14711802976E+02  0.51100000000E-03 0.  1.
        -12    1    3    3    0    0  0.22881403331E+02  0.18481919071E+02  0.35038668941E+01  0.29621226074E+02  0.00000000000E+00 0.  1.
</event>
<event>
 7    1  0.1138240E-011  0.5930194E+02  0.7816164E-02  0.1266605E+00
        -11   -1    0    0    0    0  0.00000000000E+00  0.00000000000E+00  0.45593999997E+02  0.45594000000E+02  0.51100000000E-03 0.  1.
         11   -1    0    0    0    0 -0.00000000000E+00 -0.00000000000E+00 -0.45593999997E+02  0.45594000000E+02  0.51100000000E-03 0. -1.
    9900012    2    1    2    0    0  0.12495456497E+02  0.41404395228E+01 -0.29042055650E+02  0.59301942406E+02  0.49999997043E+02 0.  0.
        -12    1    1    2    0    0 -0.12495456497E+02 -0.41404395228E+01  0.29042055650E+02  0.31886057594E+02  0.00000000000E+00 0.  1.
         11    1    3    3    0    0  0.90720202966E+01  0.20295212577E+02 -0.81978249893E+00  0.22245656867E+02  0.51100000000E-03 0. -1.
        -11    1    3    3    0    0  0.38971943981E+00 -0.45270353975E+01  0.16684378521E+01  0.48404148438E+01  0.51100000000E-03 0.  1.
         12    1    3    3    0    0  0.30337167608E+01 -0.11627737657E+02 -0.29890711003E+02  0.32215870696E+02  0.00000000000E+00 0. -1.
</event>
<event>
 7    1  0.1138240E-011  0.5930192E+02  0.7816164E-02  0.1266605E+00
        -11   -1    0    0    0    0  0.00000000000E+00  0.00000000000E+00  0.45593999997E+02  0.45594000000E+02  0.51100000000E-03 0. -1.
         11   -1    0    0    0    0 -0.00000000000E+00 -0.00000000000E+00 -0.45593999997E+02  0.45594000000E+02  0.51100000000E-03 0.  1.
    9900012    2    1    2    0    0 -0.22914633162E+02  0.14210535250E+02  0.17020651949E+02  0.59301916549E+02  0.49999949886E+02 0.  0.
        -12    1    1    2    0    0  0.22914633162E+02 -0.14210535250E+02 -0.17020651949E+02  0.31886083451E+02  0.00000000000E+00 0.  1.
         11    1    3    3    0    0 -0.26840396756E+02  0.44420919365E+01  0.80281432342E+01  0.28365298568E+02  0.51100000000E-03 0. -1.
        -11    1    3    3    0    0 -0.50517837904E+01 -0.49784132290E+01  0.11479466210E+02  0.13493823122E+02  0.51100000000E-03 0.  1.
        -12    1    3    3    0    0  0.89775473838E+01  0.14746856543E+02 -0.24869574944E+01  0.17442794859E+02  0.00000000000E+00 0.  1.
</event>
<event>
 7    1  0.1138240E-011  0.5930195E+02  0.7816164E-02  0.1266605E+00
        -11   -1    0    0    0    0  0.00000000000E+00  0.00000000000E+00  0.45593999997E+02  0.45594000000E+02  0.51100000000E-03 0.  1.
         11   -1    0    0    0    0 -0.00000000000E+00 -0.00000000000E+00 -0.45593999997E+02  0.45594000000E+02  0.51100000000E-03 0. -1.
    9900012    2    1    2    0    0  0.88025389925E+01 -0.39671382682E+01 -0.30389101626E+02  0.59301946992E+02  0.50000005407E+02 0.  0.
        -12    1    1    2    0    0 -0.88025389925E+01  0.39671382682E+01  0.30389101626E+02  0.31886053008E+02  0.00000000000E+00 0.  1.
         11    1    3    3    0    0 -0.16157868575E+02 -0.91909832626E+01 -0.10924507201E+02  0.21561441234E+02  0.51100000000E-03 0. -1.
        -11    1    3    3    0    0 -0.11910823136E+01 -0.34582860526E+01 -0.61069430760E+01  0.71185092185E+01  0.51100000000E-03 0.  1.
        -12    1    3    3    0    0  0.26151489881E+02  0.86821310470E+01 -0.13357651349E+02  0.30621996540E+02  0.00000000000E+00 0.  1.
</event>
<event>
 7    1  0.1138240E-011  0.5930196E+02  0.7816164E-02  0.1266605E+00
        -11   -1    0    0    0    0  0.00000000000E+00  0.00000000000E+00  0.45593999997E+02  0.45594000000E+02  0.51100000000E-03 0.  1.
         11   -1    0    0    0    0 -0.00000000000E+00 -0.00000000000E+00 -0.45593999997E+02  0.45594000000E+02  0.51100000000E-03 0. -1.
    9900012    2    1    2    0    0 -0.20546525265E+02  0.23355033368E+02  0.70073058105E+01  0.59301958872E+02  0.50000027072E+02 0.  0.
        -12    1    1    2    0    0  0.20546525265E+02 -0.23355033368E+02 -0.70073058105E+01  0.31886041128E+02  0.00000000000E+00 0.  1.
         11    1    3    3    0    0 -0.17902400870E+02  0.92507999730E+01  0.71596862068E+00  0.20163974518E+02  0.51100000000E-03 0. -1.
        -11    1    3    3    0    0 -0.55062717644E+01  0.25275703430E+02  0.88217226290E+01  0.27331355675E+02  0.51100000000E-03 0.  1.
        -12    1    3    3    0    0  0.28621473688E+01 -0.11171470035E+02 -0.25303854392E+01  0.11806628679E+02  0.00000000000E+00 0.  1.
</event>
<event>
 7    1  0.1343633E-011  0.5930201E+02  0.7816164E-02  0.1266605E+00
        -11   -1    0    0    0    0  0.00000000000E+00  0.00000000000E+00  0.45593999997E+02  0.45594000000E+02  0.51100000000E-03 0.  1.
         11   -1    0    0    0    0 -0.00000000000E+00 -0.00000000000E+00 -0.45593999997E+02  0.45594000000E+02  0.51100000000E-03 0. -1.
    9900012    2    1    2    0    0  0.18478346059E+02 -0.24039501760E+02 -0.98676023380E+01  0.59302007874E+02  0.50000116440E+02 0.  0.
        -12    1    1    2    0    0 -0.18478346059E+02  0.24039501760E+02  0.98676023380E+01  0.31885992126E+02  0.00000000000E+00 0.  1.
         11    1    3    3    0    0 -0.63203296135E+00 -0.22036693707E+02 -0.17286925586E+02  0.28015230352E+02  0.51100000000E-03 0. -1.
        -11    1    3    3    0    0  0.16966511802E+01  0.84193708928E+01 -0.21438028917E+01  0.88521366097E+01  0.51100000000E-03 0.  1.
        -12    1    3    3    0    0  0.17413727840E+02 -0.10422178946E+02  0.95631261397E+01  0.22434640912E+02  0.00000000000E+00 0.  1.
</event>
<event>
 7    1  0.1138240E-011  0.5930193E+02  0.7816164E-02  0.1266605E+00
        -11   -1    0    0    0    0  0.00000000000E+00  0.00000000000E+00  0.45593999997E+02  0.45594000000E+02  0.51100000000E-03 0.  1.
         11   -1    0    0    0    0 -0.00000000000E+00 -0.00000000000E+00 -0.45593999997E+02  0.45594000000E+02  0.51100000000E-03 0. -1.
    9900012    2    1    2    0    0 -0.10445476909E+02 -0.61247452832E+01 -0.29497470401E+02  0.59301933251E+02  0.49999980346E+02 0.  0.
        -12    1    1    2    0    0  0.10445476909E+02  0.61247452832E+01  0.29497470401E+02  0.31886066749E+02  0.00000000000E+00 0.  1.
         11    1    3    3    0    0  0.74972426871E+00  0.25763235744E+01 -0.19547527919E+02  0.19730823035E+02  0.51100000000E-03 0. -1.
        -11    1    3    3    0    0 -0.16313621956E+02  0.97712022936E+01 -0.34204281357E+01  0.19321231443E+02  0.51100000000E-03 0.  1.
         12    1    3    3    0    0  0.51184207780E+01 -0.18472271151E+02 -0.65295143467E+01  0.20249878774E+02  0.00000000000E+00 0. -1.
</event>
<event>
 7    1  0.1138240E-011  0.5930217E+02  0.7816164E-02  0.1266604E+00
        -11   -1    0    0    0    0  0.00000000000E+00  0.00000000000E+00  0.45593999997E+02  0.45594000000E+02  0.51100000000E-03 0.  1.
         11   -1    0    0    0    0 -0.00000000000E+00 -0.00000000000E+00 -0.45593999997E+02  0.45594000000E+02  0.51100000000E-03 0. -1.
    9900012    2    1    2    0    0 -0.17624511595E+02  0.10678260071E+02 -0.24332225701E+02  0.59302174706E+02  0.50000420700E+02 0.  0.
        -12    1    1    2    0    0  0.17624511595E+02 -0.10678260071E+02  0.24332225701E+02  0.31885825294E+02  0.00000000000E+00 0.  1.
         11    1    3    3    0    0 -0.10818739468E+02  0.48438920575E+01 -0.11555936803E+02  0.16554397893E+02  0.51100000000E-03 0. -1.
        -11    1    3    3    0    0 -0.90676315151E+00  0.22163304688E+02 -0.12333976926E+02  0.25380332566E+02  0.51100000000E-03 0.  1.
        -12    1    3    3    0    0 -0.58990089756E+01 -0.16328936675E+02 -0.44231197237E+00  0.17367444248E+02  0.00000000000E+00 0.  1.
</event>
<event>
 7    1  0.1138240E-011  0.5930193E+02  0.7816164E-02  0.1266605E+00
        -11   -1    0    0    0    0  0.00000000000E+00  0.00000000000E+00  0.45593999997E+02  0.45594000000E+02  0.51100000000E-03 0.  1.
         11   -1    0    0    0    0 -0.00000000000E+00 -0.00000000000E+00 -0.45593999997E+02  0.45594000000E+02  0.51100000000E-03 0. -1.
    9900012    2    1    2    0    0 -0.31667083068E+02  0.32228085292E+01 -0.18791156135E+01  0.59301925918E+02  0.49999966973E+02 0.  0.
        -12    1    1    2    0    0  0.31667083068E+02 -0.32228085292E+01  0.18791156135E+01  0.31886074082E+02  0.00000000000E+00 0.  1.
         11    1    3    3    0    0 -0.25163502620E+02  0.93952321874E+01  0.15203218417E+02  0.30864382425E+02  0.51100000000E-03 0. -1.
        -11    1    3    3    0    0 -0.55571567245E+01  0.73101796595E+01 -0.61225580837E+01  0.11036595275E+02  0.51100000000E-03 0.  1.
        -12    1    3    3    0    0 -0.94642372329E+00 -0.13482603318E+02 -0.10959775947E+02  0.17400948218E+02  0.00000000000E+00 0.  1.
</event>
<event>
 7    1  0.1138240E-011  0.5930190E+02  0.7816164E-02  0.1266605E+00
        -11   -1    0    0    0    0  0.00000000000E+00  0.00000000000E+00  0.45593999997E+02  0.45594000000E+02  0.51100000000E-03 0.  1.
         11   -1    0    0    0    0 -0.00000000000E+00 -0.00000000000E+00 -0.45593999997E+02  0.45594000000E+02  0.51100000000E-03 0. -1.
    9900012    2    1    2    0    0  0.14211149406E+02  0.17209169940E+02 -0.22773031374E+02  0.59301901847E+02  0.49999923073E+02 0.  0.
        -12    1    1    2    0    0 -0.14211149406E+02 -0.17209169940E+02  0.22773031374E+02  0.31886098153E+02  0.00000000000E+00 0.  1.
         11    1    3    3    0    0  0.78442124874E+01 -0.49683002763E+01 -0.20557577882E+01  0.95100903007E+01  0.51100000000E-03 0.  1.
        -11    1    3    3    0    0  0.16072844251E+02  0.19443368264E+02  0.16255627976E+01  0.25278911101E+02  0.51100000000E-03 0. -1.
        -12    1    3    3    0    0 -0.97059073324E+01  0.27341019521E+01 -0.22342836383E+02  0.24512900446E+02  0.00000000000E+00 0.  1.
</event>
<event>
 7    1  0.1138240E-011  0.5930194E+02  0.7816164E-02  0.1266605E+00
        -11   -1    0    0    0    0  0.00000000000E+00  0.00000000000E+00  0.45593999997E+02  0.45594000000E+02  0.51100000000E-03 0.  1.
         11   -1    0    0    0    0 -0.00000000000E+00 -0.00000000000E+00 -0.45593999997E+02  0.45594000000E+02  0.51100000000E-03 0. -1.
    9900012    2    1    2    0    0 -0.19510283425E+02  0.86876381629E+01 -0.23676875850E+02  0.59301942448E+02  0.49999997119E+02 0.  0.
        -12    1    1    2    0    0  0.19510283425E+02 -0.86876381629E+01  0.23676875850E+02  0.31886057552E+02  0.00000000000E+00 0.  1.
         11    1    3    3    0    0 -0.31776136586E+01 -0.99139361268E+01  0.85174973347E+01  0.13451063869E+02  0.51100000000E-03 0. -1.
        -11    1    3    3    0    0  0.30635410362E+01 -0.25188049808E+01 -0.41891294978E+01  0.57687492945E+01  0.51100000000E-03 0.  1.
         12    1    3    3    0    0 -0.19396210803E+02  0.21120379271E+02 -0.28005243687E+02  0.40082129285E+02  0.00000000000E+00 0. -1.
</event>
<event>
 7    1  0.1138240E-011  0.5930194E+02  0.7816164E-02  0.1266605E+00
        -11   -1    0    0    0    0  0.00000000000E+00  0.00000000000E+00  0.45593999997E+02  0.45594000000E+02  0.51100000000E-03 0.  1.
         11   -1    0    0    0    0 -0.00000000000E+00 -0.00000000000E+00 -0.45593999997E+02  0.45594000000E+02  0.51100000000E-03 0. -1.
    9900012    2    1    2    0    0 -0.12527928071E+02  0.32760471732E+01 -0.29138277904E+02  0.59301941824E+02  0.49999995980E+02 0.  0.
        -12    1    1    2    0    0  0.12527928071E+02 -0.32760471732E+01  0.29138277904E+02  0.31886058176E+02  0.00000000000E+00 0.  1.
         11    1    3    3    0    0 -0.19152198556E+01  0.12685068063E+02 -0.51158909842E+01  0.13811276540E+02  0.51100000000E-03 0. -1.
        -11    1    3    3    0    0  0.50958625412E+00 -0.12821362442E+01  0.93164742906E+01  0.94180807475E+01  0.51100000000E-03 0.  1.
         12    1    3    3    0    0 -0.11122294469E+02 -0.81268846455E+01 -0.33338861210E+02  0.36072584536E+02  0.00000000000E+00 0. -1.
</event>
<event>
 7    1  0.1138240E-011  0.5930197E+02  0.7816164E-02  0.1266605E+00
        -11   -1    0    0    0    0  0.00000000000E+00  0.00000000000E+00  0.45593999997E+02  0.45594000000E+02  0.51100000000E-03 0. -1.
         11   -1    0    0    0    0 -0.00000000000E+00 -0.00000000000E+00 -0.45593999997E+02  0.45594000000E+02  0.51100000000E-03 0.  1.
    9900012    2    1    2    0    0  0.19402549769E+02  0.24837431799E+02 -0.48334329320E+01  0.59301968108E+02  0.50000043917E+02 0.  0.
        -12    1    1    2    0    0 -0.19402549769E+02 -0.24837431799E+02  0.48334329320E+01  0.31886031892E+02  0.00000000000E+00 0.  1.
         11    1    3    3    0    0 -0.30954128424E+01  0.18049093195E+02  0.54377147105E+00  0.18320672300E+02  0.51100000000E-03 0. -1.
        -11    1    3    3    0    0  0.24222590777E+02 -0.42321163689E+01  0.57208592970E+01  0.25246246142E+02  0.51100000000E-03 0.  1.
         12    1    3    3    0    0 -0.17246281658E+01  0.11020454973E+02 -0.11098063700E+02  0.15735049667E+02  0.00000000000E+00 0. -1.
</event>
<event>
 7    1  0.1138240E-011  0.5930198E+02  0.7816164E-02  0.1266605E+00
        -11   -1    0    0    0    0  0.00000000000E+00  0.00000000000E+00  0.45593999997E+02  0.45594000000E+02  0.51100000000E-03 0. -1.
         11   -1    0    0    0    0 -0.00000000000E+00 -0.00000000000E+00 -0.45593999997E+02  0.45594000000E+02  0.51100000000E-03 0.  1.
    9900012    2    1    2    0    0 -0.10891881567E+01 -0.30569429411E+02 -0.90023432629E+01  0.59301975953E+02  0.50000058223E+02 0.  0.
        -12    1    1    2    0    0  0.10891881567E+01  0.30569429411E+02  0.90023432629E+01  0.31886024047E+02  0.00000000000E+00 0.  1.
         11    1    3    3    0    0  0.66315643893E+00 -0.16169596381E+02 -0.71287440595E+01  0.17683738737E+02  0.51100000000E-03 0. -1.
        -11    1    3    3    0    0 -0.72326834383E+01 -0.10998015155E+02 -0.19115504852E+02  0.23209277737E+02  0.51100000000E-03 0.  1.
         12    1    3    3    0    0  0.54803388427E+01 -0.34018178744E+01  0.17241905649E+02  0.18408959478E+02  0.00000000000E+00 0. -1.
</event>
<event>
 7    1  0.1138240E-011  0.5930193E+02  0.7816164E-02  0.1266605E+00
        -11   -1    0    0    0    0  0.00000000000E+00  0.00000000000E+00  0.45593999997E+02  0.45594000000E+02  0.51100000000E-03 0.  1.
         11   -1    0    0    0    0 -0.00000000000E+00 -0.00000000000E+00 -0.45593999997E+02  0.45594000000E+02  0.51100000000E-03 0. -1.
    9900012    2    1    2    0    0  0.66973721731E+01  0.22882080986E+02 -0.21172557564E+02  0.59301927522E+02  0.49999969898E+02 0.  0.
        -12    1    1    2    0    0 -0.66973721731E+01 -0.22882080986E+02  0.21172557564E+02  0.31886072478E+02  0.00000000000E+00 0.  1.
         11    1    3    3    0    0  0.52225723191E+01  0.10140543957E+02 -0.18971073459E+02  0.22136113521E+02  0.51100000000E-03 0. -1.
        -11    1    3    3    0    0  0.13345355195E+02 -0.47378356249E+01 -0.65355984462E+01  0.15596782970E+02  0.51100000000E-03 0.  1.
         12    1    3    3    0    0 -0.11870555341E+02  0.17479372654E+02  0.43341143418E+01  0.21569031031E+02  0.00000000000E+00 0. -1.
</event>
<event>
 7    1  0.1138240E-011  0.5930187E+02  0.7816164E-02  0.1266605E+00
        -11   -1    0    0    0    0  0.00000000000E+00  0.00000000000E+00  0.45593999997E+02  0.45594000000E+02  0.51100000000E-03 0. -1.
         11   -1    0    0    0    0 -0.00000000000E+00 -0.00000000000E+00 -0.45593999997E+02  0.45594000000E+02  0.51100000000E-03 0.  1.
    9900012    2    1    2    0    0 -0.25246989910E+02 -0.92771193350E+01  0.17124544586E+02  0.59301867122E+02  0.49999859741E+02 0.  0.
        -12    1    1    2    0    0  0.25246989910E+02  0.92771193350E+01 -0.17124544586E+02  0.31886132878E+02  0.00000000000E+00 0.  1.
         11    1    3    3    0    0 -0.60922073892E+01  0.80828337378E+00  0.27501433500E+02  0.28179729554E+02  0.51100000000E-03 0. -1.
        -11    1    3    3    0    0 -0.42593014459E+00 -0.10276197331E+02 -0.14951319327E+01  0.10393125990E+02  0.51100000000E-03 0.  1.
        -12    1    3    3    0    0 -0.18728852376E+02  0.19079462254E+00 -0.88817569819E+01  0.20729011578E+02  0.00000000000E+00 0.  1.
</event>
<event>
 7    1  0.1206859E-011  0.5930194E+02  0.7816164E-02  0.1266605E+00
        -11   -1    0    0    0    0  0.00000000000E+00  0.00000000000E+00  0.45593999997E+02  0.45594000000E+02  0.51100000000E-03 0. -1.
         11   -1    0    0    0    0 -0.00000000000E+00 -0.00000000000E+00 -0.45593999997E+02  0.45594000000E+02  0.51100000000E-03 0.  1.
    9900012    2    1    2    0    0 -0.19738312732E+01 -0.44714186186E+01  0.31509221928E+02  0.59301942531E+02  0.49999997271E+02 0.  0.
        -12    1    1    2    0    0  0.19738312732E+01  0.44714186186E+01 -0.31509221928E+02  0.31886057469E+02  0.00000000000E+00 0.  1.
         11    1    3    3    0    0  0.27576702584E+01 -0.47615612290E+01  0.29195784440E+02  0.29709780207E+02  0.51100000000E-03 0. -1.
        -11    1    3    3    0    0  0.11892337087E+02 -0.22876328810E+01  0.38296411391E+01  0.12701460432E+02  0.51100000000E-03 0.  1.
        -12    1    3    3    0    0 -0.16623838619E+02  0.25777754914E+01 -0.15162036509E+01  0.16890701892E+02  0.00000000000E+00 0.  1.
</event>
<event>
 7    1  0.1138240E-011  0.5930192E+02  0.7816164E-02  0.1266605E+00
        -11   -1    0    0    0    0  0.00000000000E+00  0.00000000000E+00  0.45593999997E+02  0.45594000000E+02  0.51100000000E-03 0.  1.
         11   -1    0    0    0    0 -0.00000000000E+00 -0.00000000000E+00 -0.45593999997E+02  0.45594000000E+02  0.51100000000E-03 0. -1.
    9900012    2    1    2    0    0  0.31476931594E+02  0.25212255201E+01 -0.44236127341E+01  0.59301919176E+02  0.49999954676E+02 0.  0.
        -12    1    1    2    0    0 -0.31476931594E+02 -0.25212255201E+01  0.44236127341E+01  0.31886080824E+02  0.00000000000E+00 0.  1.
         11    1    3    3    0    0  0.81724169736E+01  0.11047030951E+02 -0.31181416111E+01  0.14090709684E+02  0.51100000000E-03 0. -1.
        -11    1    3    3    0    0  0.29990014988E+02  0.46995539459E+01 -0.29066760338E+00  0.30357392743E+02  0.51100000000E-03 0.  1.
        -12    1    3    3    0    0 -0.66855003670E+01 -0.13225359377E+02 -0.10148035196E+01  0.14853816748E+02  0.00000000000E+00 0.  1.
</event>
<event>
 7    1  0.1138240E-011  0.5930192E+02  0.7816164E-02  0.1266605E+00
        -11   -1    0    0    0    0  0.00000000000E+00  0.00000000000E+00  0.45593999997E+02  0.45594000000E+02  0.51100000000E-03 0.  1.
         11   -1    0    0    0    0 -0.00000000000E+00 -0.00000000000E+00 -0.45593999997E+02  0.45594000000E+02  0.51100000000E-03 0. -1.
    9900012    2    1    2    0    0  0.21432245256E+02  0.51266300682E+01 -0.23045581671E+02  0.59301916717E+02  0.49999950192E+02 0.  0.
        -12    1    1    2    0    0 -0.21432245256E+02 -0.51266300682E+01  0.23045581671E+02  0.31886083283E+02  0.00000000000E+00 0.  1.
         11    1    3    3    0    0  0.10301414208E+02  0.15325341094E+02 -0.21244044410E+02  0.28147728816E+02  0.51100000000E-03 0. -1.
        -11    1    3    3    0    0  0.45989618184E+00  0.90453046763E+01 -0.12488207913E+01  0.91426798487E+01  0.51100000000E-03 0.  1.
        -12    1    3    3    0    0  0.10670934866E+02 -0.19244015702E+02 -0.55271646950E+00  0.22011508053E+02  0.00000000000E+00 0.  1.
</event>
<event>
 7    1  0.1138240E-011  0.5930196E+02  0.7816164E-02  0.1266605E+00
        -11   -1    0    0    0    0  0.00000000000E+00  0.00000000000E+00  0.45593999997E+02  0.45594000000E+02  0.51100000000E-03 0. -1.
         11   -1    0    0    0    0 -0.00000000000E+00 -0.00000000000E+00 -0.45593999997E+02  0.45594000000E+02  0.51100000000E-03 0.  1.
    9900012    2    1    2    0    0 -0.30417429538E+02 -0.68672604214E+01 -0.66588267145E+01  0.59301964520E+02  0.50000037373E+02 0.  0.
        -12    1    1    2    0    0  0.30417429538E+02  0.68672604214E+01  0.66588267145E+01  0.31886035480E+02  0.00000000000E+00 0.  1.
         11    1    3    3    0    0 -0.36673548231E+01  0.13967238891E+02 -0.58891103926E+01  0.15595347868E+02  0.51100000000E-03 0. -1.
        -11    1    3    3    0    0 -0.19235377956E+02 -0.18508606686E+02 -0.12585264166E+02  0.29511983345E+02  0.51100000000E-03 0.  1.
         12    1    3    3    0    0 -0.75146967591E+01 -0.23258926271E+01  0.11815547844E+02  0.14194633308E+02  0.00000000000E+00 0. -1.
</event>
<event>
 7    1  0.1138240E-011  0.5930193E+02  0.7816164E-02  0.1266605E+00
        -11   -1    0    0    0    0  0.00000000000E+00  0.00000000000E+00  0.45593999997E+02  0.45594000000E+02  0.51100000000E-03 0. -1.
         11   -1    0    0    0    0 -0.00000000000E+00 -0.00000000000E+00 -0.45593999997E+02  0.45594000000E+02  0.51100000000E-03 0.  1.
    9900012    2    1    2    0    0  0.98815923021E+01  0.28296081159E+02  0.10881519621E+02  0.59301928674E+02  0.49999971998E+02 0.  0.
        -12    1    1    2    0    0 -0.98815923021E+01 -0.28296081159E+02 -0.10881519621E+02  0.31886071326E+02  0.00000000000E+00 0.  1.
         11    1    3    3    0    0  0.73837924762E+01 -0.39097720301E+01 -0.62871914942E+01  0.10456361021E+02  0.51100000000E-03 0. -1.
        -11    1    3    3    0    0 -0.50525658299E+00 -0.66304425153E+01  0.38243298914E+01  0.76709550607E+01  0.51100000000E-03 0.  1.
         12    1    3    3    0    0  0.30030564089E+01  0.38836295704E+02  0.13344381224E+02  0.41174612592E+02  0.00000000000E+00 0. -1.
</event>
<event>
 7    1  0.1138240E-011  0.5930195E+02  0.7816164E-02  0.1266605E+00
        -11   -1    0    0    0    0  0.00000000000E+00  0.00000000000E+00  0.45593999997E+02  0.45594000000E+02  0.51100000000E-03 0.  1.
         11   -1    0    0    0    0 -0.00000000000E+00 -0.00000000000E+00 -0.45593999997E+02  0.45594000000E+02  0.51100000000E-03 0. -1.
    9900012    2    1    2    0    0  0.62618971704E+01 -0.26488848027E+02 -0.16608731868E+02  0.59301946619E+02  0.50000004725E+02 0.  0.
        -12    1    1    2    0    0 -0.62618971704E+01  0.26488848027E+02  0.16608731868E+02  0.31886053381E+02  0.00000000000E+00 0.  1.
         11    1    3    3    0    0 -0.11456160179E+02 -0.26987217751E+02 -0.13439797281E+02  0.32251847686E+02  0.51100000000E-03 0. -1.
        -11    1    3    3    0    0  0.79185543948E+01  0.15291895763E+00 -0.11648919693E+02  0.14086313151E+02  0.51100000000E-03 0.  1.
        -12    1    3    3    0    0  0.97995029547E+01  0.34545076603E+00  0.84799851059E+01  0.12963785781E+02  0.00000000000E+00 0.  1.
</event>
<event>
 7    1  0.1138240E-011  0.5930201E+02  0.7816164E-02  0.1266605E+00
        -11   -1    0    0    0    0  0.00000000000E+00  0.00000000000E+00  0.45593999997E+02  0.45594000000E+02  0.51100000000E-03 0.  1.
         11   -1    0    0    0    0 -0.00000000000E+00 -0.00000000000E+00 -0.45593999997E+02  0.45594000000E+02  0.51100000000E-03 0. -1.
    9900012    2    1    2    0    0  0.17465419949E+02  0.65568929664E+01 -0.25858897504E+02  0.59302010608E+02  0.50000121426E+02 0.  0.
        -12    1    1    2    0    0 -0.17465419949E+02 -0.65568929664E+01  0.25858897504E+02  0.31885989392E+02  0.00000000000E+00 0.  1.
         11    1    3    3    0    0 -0.35171038059E+01  0.42081047098E+01 -0.33352005544E+02  0.33799917729E+02  0.51100000000E-03 0. -1.
        -11    1    3    3    0    0  0.97025517747E+01 -0.31506777916E+01 -0.11478856782E+01  0.10265667211E+02  0.51100000000E-03 0.  1.
        -12    1    3    3    0    0  0.11279971980E+02  0.54994660482E+01  0.86409937184E+01  0.15236425668E+02  0.00000000000E+00 0.  1.
</event>
<event>
 7    1  0.1138240E-011  0.5930197E+02  0.7816164E-02  0.1266605E+00
        -11   -1    0    0    0    0  0.00000000000E+00  0.00000000000E+00  0.45593999997E+02  0.45594000000E+02  0.51100000000E-03 0.  1.
         11   -1    0    0    0    0 -0.00000000000E+00 -0.00000000000E+00 -0.45593999997E+02  0.45594000000E+02  0.51100000000E-03 0. -1.
    9900012    2    1    2    0    0 -0.13178440779E+01 -0.23843181457E+02 -0.21130183556E+02  0.59301973717E+02  0.50000054146E+02 0.  0.
        -12    1    1    2    0    0  0.13178440779E+01  0.23843181457E+02  0.21130183556E+02  0.31886026283E+02  0.00000000000E+00 0.  1.
         11    1    3    3    0    0 -0.11364089410E+01 -0.95828644296E+01  0.17242111541E+01  0.98028373608E+01  0.51100000000E-03 0. -1.
        -11    1    3    3    0    0 -0.18489686549E+02 -0.17311529062E+02 -0.12498868900E+02  0.28244986656E+02  0.51100000000E-03 0.  1.
         12    1    3    3    0    0  0.18308251413E+02  0.30512120347E+01 -0.10355525810E+02  0.21254149700E+02  0.00000000000E+00 0. -1.
</event>
<event>
 7    1  0.1138240E-011  0.5930183E+02  0.7816164E-02  0.1266605E+00
        -11   -1    0    0    0    0  0.00000000000E+00  0.00000000000E+00  0.45593999997E+02  0.45594000000E+02  0.51100000000E-03 0.  1.
         11   -1    0    0    0    0 -0.00000000000E+00 -0.00000000000E+00 -0.45593999997E+02  0.45594000000E+02  0.51100000000E-03 0. -1.
    9900012    2    1    2    0    0  0.63822713365E+00  0.11692302170E+01 -0.31858337600E+02  0.59301825757E+02  0.49999784303E+02 0.  0.
        -12    1    1    2    0    0 -0.63822713365E+00 -0.11692302170E+01  0.31858337600E+02  0.31886174243E+02  0.00000000000E+00 0.  1.
         11    1    3    3    0    0 -0.98141745175E+01  0.18525869803E+00 -0.63297646423E+01  0.11679822898E+02  0.51100000000E-03 0.  1.
        -11    1    3    3    0    0 -0.30297716808E+01 -0.17198623113E+02 -0.94438678737E+01  0.19853432804E+02  0.51100000000E-03 0. -1.
        -12    1    3    3    0    0  0.13482173332E+02  0.18182594632E+02 -0.16084705084E+02  0.27768570056E+02  0.00000000000E+00 0.  1.
</event>
<event>
 7    1  0.1138240E-011  0.5930193E+02  0.7816164E-02  0.1266605E+00
        -11   -1    0    0    0    0  0.00000000000E+00  0.00000000000E+00  0.45593999997E+02  0.45594000000E+02  0.51100000000E-03 0.  1.
         11   -1    0    0    0    0 -0.00000000000E+00 -0.00000000000E+00 -0.45593999997E+02  0.45594000000E+02  0.51100000000E-03 0. -1.
    9900012    2    1    2    0    0 -0.24487718391E+02 -0.12429442514E+02 -0.16204384840E+02  0.59301929668E+02  0.49999973810E+02 0.  0.
        -12    1    1    2    0    0  0.24487718391E+02  0.12429442514E+02  0.16204384840E+02  0.31886070332E+02  0.00000000000E+00 0.  1.
         11    1    3    3    0    0  0.50387333990E+01  0.24278634461E+01 -0.10138207457E+01  0.56842930911E+01  0.51100000000E-03 0. -1.
        -11    1    3    3    0    0 -0.56749396611E+01 -0.24807054880E+02 -0.94368683054E+01  0.27141285815E+02  0.51100000000E-03 0.  1.
         12    1    3    3    0    0 -0.23851512129E+02  0.99497489206E+01 -0.57536957886E+01  0.26476350762E+02  0.00000000000E+00 0. -1.
</event>
<event>
 7    1  0.1138240E-011  0.5930193E+02  0.7816164E-02  0.1266605E+00
        -11   -1    0    0    0    0  0.00000000000E+00  0.00000000000E+00  0.45593999997E+02  0.45594000000E+02  0.51100000000E-03 0. -1.
         11   -1    0    0    0    0 -0.00000000000E+00 -0.00000000000E+00 -0.45593999997E+02  0.45594000000E+02  0.51100000000E-03 0.  1.
    9900012    2    1    2    0    0  0.13307635818E+02  0.14800090348E+02  0.24911561762E+02  0.59301925378E+02  0.49999965987E+02 0.  0.
        -12    1    1    2    0    0 -0.13307635818E+02 -0.14800090348E+02 -0.24911561762E+02  0.31886074622E+02  0.00000000000E+00 0.  1.
         11    1    3    3    0    0  0.32275837225E+01 -0.53844664976E+01  0.11490803845E+02  0.13093828676E+02  0.51100000000E-03 0. -1.
        -11    1    3    3    0    0 -0.21233993043E+01 -0.89790100735E+01 -0.40630218163E+01  0.10081646346E+02  0.51100000000E-03 0.  1.
         12    1    3    3    0    0  0.12203451400E+02  0.29163566919E+02  0.17483779733E+02  0.36126450356E+02  0.00000000000E+00 0. -1.
</event>
<event>
 7    1  0.1138240E-011  0.5930170E+02  0.7816164E-02  0.1266606E+00
        -11   -1    0    0    0    0  0.00000000000E+00  0.00000000000E+00  0.45593999997E+02  0.45594000000E+02  0.51100000000E-03 0.  1.
         11   -1    0    0    0    0 -0.00000000000E+00 -0.00000000000E+00 -0.45593999997E+02  0.45594000000E+02  0.51100000000E-03 0. -1.
    9900012    2    1    2    0    0 -0.27082831668E+02  0.81429603989E+01 -0.14729176054E+02  0.59301698828E+02  0.49999552812E+02 0.  0.
        -12    1    1    2    0    0  0.27082831668E+02 -0.81429603989E+01  0.14729176054E+02  0.31886301172E+02  0.00000000000E+00 0.  1.
         11    1    3    3    0    0 -0.78009302884E+01 -0.12775484209E+02  0.23238071276E+01  0.15148187679E+02  0.51100000000E-03 0. -1.
        -11    1    3    3    0    0 -0.13991271151E+02 -0.20094789945E+01  0.14646393742E+01  0.14210518746E+02  0.51100000000E-03 0.  1.
         12    1    3    3    0    0 -0.52906302282E+01  0.22927923603E+02 -0.18517622555E+02  0.29942992403E+02  0.00000000000E+00 0. -1.
</event>
<event>
 7    1  0.1138240E-011  0.5930196E+02  0.7816164E-02  0.1266605E+00
        -11   -1    0    0    0    0  0.00000000000E+00  0.00000000000E+00  0.45593999997E+02  0.45594000000E+02  0.51100000000E-03 0.  1.
         11   -1    0    0    0    0 -0.00000000000E+00 -0.00000000000E+00 -0.45593999997E+02  0.45594000000E+02  0.51100000000E-03 0. -1.
    9900012    2    1    2    0    0  0.28178625391E+02 -0.13293404043E+02 -0.67801103205E+01  0.59301962053E+02  0.50000032874E+02 0.  0.
        -12    1    1    2    0    0 -0.28178625391E+02  0.13293404043E+02  0.67801103205E+01  0.31886037947E+02  0.00000000000E+00 0.  1.
         11    1    3    3    0    0  0.81200194522E+01 -0.13247609845E+02 -0.11907260666E+02  0.19575922439E+02  0.51100000000E-03 0. -1.
        -11    1    3    3    0    0 -0.31660954403E+01 -0.12490190889E+02  0.33714101325E+01  0.13318987774E+02  0.51100000000E-03 0.  1.
        -12    1    3    3    0    0  0.23224701380E+02  0.12444396692E+02  0.17557402128E+01  0.26407051840E+02  0.00000000000E+00 0.  1.
</event>
<event>
 7    1  0.1138240E-011  0.5930195E+02  0.7816164E-02  0.1266605E+00
        -11   -1    0    0    0    0  0.00000000000E+00  0.00000000000E+00  0.45593999997E+02  0.45594000000E+02  0.51100000000E-03 0. -1.
         11   -1    0    0    0    0 -0.00000000000E+00 -0.00000000000E+00 -0.45593999997E+02  0.45594000000E+02  0.51100000000E-03 0.  1.
    9900012    2    1    2    0    0 -0.28428793473E+02 -0.11120343277E+02 -0.92120559086E+01  0.59301948081E+02  0.50000007393E+02 0.  0.
        -12    1    1    2    0    0  0.28428793473E+02  0.11120343277E+02  0.92120559086E+01  0.31886051919E+02  0.00000000000E+00 0.  1.
         11    1    3    3    0    0 -0.27524452531E+02 -0.45220848279E+01 -0.62603792598E+01  0.28587358868E+02  0.51100000000E-03 0. -1.
        -11    1    3    3    0    0 -0.20501542699E+01 -0.68494250691E+01  0.12937788232E+02  0.14781884890E+02  0.51100000000E-03 0.  1.
        -12    1    3    3    0    0  0.11458133279E+01  0.25116662004E+00 -0.15889464881E+02  0.15932704323E+02  0.00000000000E+00 0.  1.
</event>
<event>
 7    1  0.1138240E-011  0.5930194E+02  0.7816164E-02  0.1266605E+00
        -11   -1    0    0    0    0  0.00000000000E+00  0.00000000000E+00  0.45593999997E+02  0.45594000000E+02  0.51100000000E-03 0.  1.
         11   -1    0    0    0    0 -0.00000000000E+00 -0.00000000000E+00 -0.45593999997E+02  0.45594000000E+02  0.51100000000E-03 0. -1.
    9900012    2    1    2    0    0 -0.19773424233E+02 -0.60061755761E+01 -0.24282879423E+02  0.59301942169E+02  0.49999996610E+02 0.  0.
        -12    1    1    2    0    0  0.19773424233E+02  0.60061755761E+01  0.24282879423E+02  0.31886057831E+02  0.00000000000E+00 0.  1.
         11    1    3    3    0    0 -0.15656797935E+02  0.10943953504E+02 -0.22325008873E+01  0.19232511545E+02  0.51100000000E-03 0. -1.
        -11    1    3    3    0    0  0.11678842909E+01  0.64627942642E+01  0.11732067885E+01  0.66714374649E+01  0.51100000000E-03 0.  1.
         12    1    3    3    0    0 -0.52845105886E+01 -0.23412923344E+02 -0.23223585325E+02  0.33397993158E+02  0.00000000000E+00 0. -1.
</event>
<event>
 7    1  0.1138240E-011  0.5930193E+02  0.7816164E-02  0.1266605E+00
        -11   -1    0    0    0    0  0.00000000000E+00  0.00000000000E+00  0.45593999997E+02  0.45594000000E+02  0.51100000000E-03 0.  1.
         11   -1    0    0    0    0 -0.00000000000E+00 -0.00000000000E+00 -0.45593999997E+02  0.45594000000E+02  0.51100000000E-03 0. -1.
    9900012    2    1    2    0    0 -0.23152393921E+02  0.11720120296E+02  0.18529079513E+02  0.59301931700E+02  0.49999977516E+02 0.  0.
        -12    1    1    2    0    0  0.23152393921E+02 -0.11720120296E+02 -0.18529079513E+02  0.31886068300E+02  0.00000000000E+00 0.  1.
         11    1    3    3    0    0 -0.28841584574E+01 -0.12068802596E+02  0.58329921792E+01  0.13711242254E+02  0.51100000000E-03 0. -1.
        -11    1    3    3    0    0  0.64593502057E+01  0.10559650473E+02  0.94873562754E+01  0.15596132615E+02  0.51100000000E-03 0.  1.
         12    1    3    3    0    0 -0.26727585670E+02  0.13229272420E+02  0.32087310587E+01  0.29994556831E+02  0.00000000000E+00 0. -1.
</event>
<event>
 7    1  0.1138240E-011  0.5930195E+02  0.7816164E-02  0.1266605E+00
        -11   -1    0    0    0    0  0.00000000000E+00  0.00000000000E+00  0.45593999997E+02  0.45594000000E+02  0.51100000000E-03 0.  1.
         11   -1    0    0    0    0 -0.00000000000E+00 -0.00000000000E+00 -0.45593999997E+02  0.45594000000E+02  0.51100000000E-03 0. -1.
    9900012    2    1    2    0    0  0.21483021595E+02 -0.11146898992E+02  0.20759250958E+02  0.59301951729E+02  0.50000014046E+02 0.  0.
        -12    1    1    2    0    0 -0.21483021595E+02  0.11146898992E+02 -0.20759250958E+02  0.31886048271E+02  0.00000000000E+00 0.  1.
         11    1    3    3    0    0  0.11286501619E+01  0.10427619887E+02  0.56133478087E+01  0.11896166676E+02  0.51100000000E-03 0. -1.
        -11    1    3    3    0    0  0.11049749867E+02 -0.30240676130E+01 -0.97153298906E+01  0.15020971746E+02  0.51100000000E-03 0.  1.
        -12    1    3    3    0    0  0.93046215658E+01 -0.18550451266E+02  0.24861233040E+02  0.32384813307E+02  0.00000000000E+00 0.  1.
</event>
<event>
 7    1  0.1138240E-011  0.5930194E+02  0.7816164E-02  0.1266605E+00
        -11   -1    0    0    0    0  0.00000000000E+00  0.00000000000E+00  0.45593999997E+02  0.45594000000E+02  0.51100000000E-03 0.  1.
         11   -1    0    0    0    0 -0.00000000000E+00 -0.00000000000E+00 -0.45593999997E+02  0.45594000000E+02  0.51100000000E-03 0. -1.
    9900012    2    1    2    0    0  0.15844352910E+01  0.15597320034E+02 -0.27765700040E+02  0.59301938372E+02  0.49999989686E+02 0.  0.
        -12    1    1    2    0    0 -0.15844352910E+01 -0.15597320034E+02  0.27765700040E+02  0.31886061628E+02  0.00000000000E+00 0.  1.
         11    1    3    3    0    0 -0.86435052979E+01 -0.19490193581E+01  0.24786107490E+01  0.92006723558E+01  0.51100000000E-03 0. -1.
        -11    1    3    3    0    0  0.16599311689E+02 -0.44933262289E+00 -0.25500381561E+02  0.30430387911E+02  0.51100000000E-03 0.  1.
         12    1    3    3    0    0 -0.63713711001E+01  0.17995672015E+02 -0.47439292275E+01  0.19670878106E+02  0.00000000000E+00 0. -1.
</event>
<event>
 7    1  0.1138240E-011  0.5930193E+02  0.7816164E-02  0.1266605E+00
        -11   -1    0    0    0    0  0.00000000000E+00  0.00000000000E+00  0.45593999997E+02  0.45594000000E+02  0.51100000000E-03 0.  1.
         11   -1    0    0    0    0 -0.00000000000E+00 -0.00000000000E+00 -0.45593999997E+02  0.45594000000E+02  0.51100000000E-03 0. -1.
    9900012    2    1    2    0    0 -0.47639516559E+01 -0.31519137033E+02  0.75508320963E+00  0.59301931172E+02  0.49999976554E+02 0.  0.
        -12    1    1    2    0    0  0.47639516559E+01  0.31519137033E+02 -0.75508320963E+00  0.31886068828E+02  0.00000000000E+00 0.  1.
         11    1    3    3    0    0  0.72936153058E+01 -0.37849022422E+01  0.35920554962E+01  0.89680082605E+01  0.51100000000E-03 0. -1.
        -11    1    3    3    0    0 -0.11656166861E+02 -0.16319187662E+02  0.17755972450E+02  0.26785381643E+02  0.51100000000E-03 0.  1.
        -12    1    3    3    0    0 -0.40140010019E+00 -0.11415047128E+02 -0.20592944736E+02  0.23548541269E+02  0.00000000000E+00 0.  1.
</event>
<event>
 7    1  0.1142298E-011  0.5930192E+02  0.7816164E-02  0.1266605E+00
        -11   -1    0    0    0    0  0.00000000000E+00  0.00000000000E+00  0.45593999997E+02  0.45594000000E+02  0.51100000000E-03 0. -1.
         11   -1    0    0    0    0 -0.00000000000E+00 -0.00000000000E+00 -0.45593999997E+02  0.45594000000E+02  0.51100000000E-03 0.  1.
    9900012    2    1    2    0    0 -0.20091566038E+02  0.54552384583E+01  0.24151424353E+02  0.59301922305E+02  0.49999960383E+02 0.  0.
        -12    1    1    2    0    0  0.20091566038E+02 -0.54552384583E+01 -0.24151424353E+02  0.31886077695E+02  0.00000000000E+00 0.  1.
         11    1    3    3    0    0 -0.70257743695E+01 -0.10168179158E+02  0.19461410235E+02  0.23054280763E+02  0.51100000000E-03 0. -1.
        -11    1    3    3    0    0 -0.77908870425E+01 -0.82896352743E+01  0.26089445951E+01  0.11671442329E+02  0.51100000000E-03 0.  1.
        -12    1    3    3    0    0 -0.52749046264E+01  0.23913052891E+02  0.20810695228E+01  0.24576199213E+02  0.00000000000E+00 0.  1.
</event>
<event>
 7    1  0.1138240E-011  0.5930195E+02  0.7816164E-02  0.1266605E+00
        -11   -1    0    0    0    0  0.00000000000E+00  0.00000000000E+00  0.45593999997E+02  0.45594000000E+02  0.51100000000E-03 0.  1.
         11   -1    0    0    0    0 -0.00000000000E+00 -0.00000000000E+00 -0.45593999997E+02  0.45594000000E+02  0.51100000000E-03 0. -1.
    9900012    2    1    2    0    0  0.14655161285E+02 -0.71614775304E+01 -0.27398169943E+02  0.59301949305E+02  0.50000009625E+02 0.  0.
        -12    1    1    2    0    0 -0.14655161285E+02  0.71614775304E+01  0.27398169943E+02  0.31886050695E+02  0.00000000000E+00 0.  1.
         11    1    3    3    0    0  0.73534733710E+00  0.12528600475E+00 -0.17268723492E+02  0.17284826976E+02  0.51100000000E-03 0. -1.
        -11    1    3    3    0    0  0.39944470953E+01  0.11991384162E+02 -0.15180515238E+02  0.19753403374E+02  0.51100000000E-03 0.  1.
         12    1    3    3    0    0  0.99253668527E+01 -0.19278147697E+02  0.50510687874E+01  0.22263718955E+02  0.00000000000E+00 0. -1.
</event>
<event>
 7    1  0.1138240E-011  0.5930196E+02  0.7816164E-02  0.1266605E+00
        -11   -1    0    0    0    0  0.00000000000E+00  0.00000000000E+00  0.45593999997E+02  0.45594000000E+02  0.51100000000E-03 0. -1.
         11   -1    0    0    0    0 -0.00000000000E+00 -0.00000000000E+00 -0.45593999997E+02  0.45594000000E+02  0.51100000000E-03 0.  1.
    9900012    2    1    2    0    0 -0.31176028843E+00 -0.28928421542E+02 -0.13407782339E+02  0.59301962388E+02  0.50000033484E+02 0.  0.
        -12    1    1    2    0    0  0.31176028843E+00  0.28928421542E+02  0.13407782339E+02  0.31886037612E+02  0.00000000000E+00 0.  1.
         11    1    3    3    0    0 -0.47862178590E+01 -0.14352997995E+02 -0.16924737121E+01  0.15224352215E+02  0.51100000000E-03 0. -1.
        -11    1    3    3    0    0  0.16209026111E+02 -0.12189569729E+02 -0.20796882244E+02  0.29048725428E+02  0.51100000000E-03 0.  1.
         12    1    3    3    0    0 -0.11734568541E+02 -0.23858538178E+01  0.90815736180E+01  0.15028884744E+02  0.00000000000E+00 0. -1.
</event>
<event>
 7    1  0.1138240E-011  0.5930193E+02  0.7816164E-02  0.1266605E+00
        -11   -1    0    0    0    0  0.00000000000E+00  0.00000000000E+00  0.45593999997E+02  0.45594000000E+02  0.51100000000E-03 0.  1.
         11   -1    0    0    0    0 -0.00000000000E+00 -0.00000000000E+00 -0.45593999997E+02  0.45594000000E+02  0.51100000000E-03 0. -1.
    9900012    2    1    2    0    0 -0.10872659165E+02 -0.11138549780E+01 -0.29954404437E+02  0.59301925682E+02  0.49999966542E+02 0.  0.
        -12    1    1    2    0    0  0.10872659165E+02  0.11138549780E+01  0.29954404437E+02  0.31886074318E+02  0.00000000000E+00 0.  1.
         11    1    3    3    0    0  0.23030972164E+01 -0.23197986275E+01 -0.57697184719E+01  0.66313930638E+01  0.51100000000E-03 0.  1.
        -11    1    3    3    0    0  0.13570940235E+02  0.98132258849E+01 -0.19911856631E+01  0.16865190237E+02  0.51100000000E-03 0. -1.
         12    1    3    3    0    0 -0.26746696616E+02 -0.86072822354E+01 -0.22193500302E+02  0.35805342381E+02  0.00000000000E+00 0. -1.
</event>
<event>
 7    1  0.1138240E-011  0.5930173E+02  0.7816164E-02  0.1266606E+00
        -11   -1    0    0    0    0  0.00000000000E+00  0.00000000000E+00  0.45593999997E+02  0.45594000000E+02  0.51100000000E-03 0. -1.
         11   -1    0    0    0    0 -0.00000000000E+00 -0.00000000000E+00 -0.45593999997E+02  0.45594000000E+02  0.51100000000E-03 0.  1.
    9900012    2    1    2    0    0 -0.61658868830E+01 -0.28540849150E+02  0.12811561402E+02  0.59301728082E+02  0.49999606166E+02 0.  0.
        -12    1    1    2    0    0  0.61658868830E+01  0.28540849150E+02 -0.12811561402E+02  0.31886271918E+02  0.00000000000E+00 0.  1.
         11    1    3    3    0    0  0.18618343426E+01 -0.38198874293E+01  0.16175212457E+02  0.16724098343E+02  0.51100000000E-03 0. -1.
        -11    1    3    3    0    0  0.92033982306E+01 -0.53384607931E-01  0.60918892628E+01  0.11037051416E+02  0.51100000000E-03 0.  1.
        -12    1    3    3    0    0 -0.17231119456E+02 -0.24667577112E+02 -0.94555403174E+01  0.31540578324E+02  0.00000000000E+00 0.  1.
</event>
<event>
 7    1  0.1138240E-011  0.5930191E+02  0.7816164E-02  0.1266605E+00
        -11   -1    0    0    0    0  0.00000000000E+00  0.00000000000E+00  0.45593999997E+02  0.45594000000E+02  0.51100000000E-03 0. -1.
         11   -1    0    0    0    0 -0.00000000000E+00 -0.00000000000E+00 -0.45593999997E+02  0.45594000000E+02  0.51100000000E-03 0.  1.
    9900012    2    1    2    0    0  0.76099037729E+00 -0.27928896982E+01  0.31754426998E+02  0.59301906273E+02  0.49999931144E+02 0.  0.
        -12    1    1    2    0    0 -0.76099037729E+00  0.27928896982E+01 -0.31754426998E+02  0.31886093727E+02  0.00000000000E+00 0.  1.
         11    1    3    3    0    0  0.11248219799E+02  0.21423295910E+01  0.20336247969E+02  0.23338273424E+02  0.51100000000E-03 0. -1.
        -11    1    3    3    0    0  0.87171529697E+01 -0.20195202541E+01  0.13744294106E+02  0.16400391419E+02  0.51100000000E-03 0.  1.
        -12    1    3    3    0    0 -0.19204382391E+02 -0.29156990350E+01 -0.23261150771E+01  0.19563241430E+02  0.00000000000E+00 0.  1.
</event>
<event>
 7    1  0.1138240E-011  0.5930197E+02  0.7816164E-02  0.1266605E+00
        -11   -1    0    0    0    0  0.00000000000E+00  0.00000000000E+00  0.45593999997E+02  0.45594000000E+02  0.51100000000E-03 0.  1.
         11   -1    0    0    0    0 -0.00000000000E+00 -0.00000000000E+00 -0.45593999997E+02  0.45594000000E+02  0.51100000000E-03 0. -1.
    9900012    2    1    2    0    0 -0.25417066673E+02 -0.16356718382E+02 -0.10156253829E+02  0.59301968476E+02  0.50000044588E+02 0.  0.
        -12    1    1    2    0    0  0.25417066673E+02  0.16356718382E+02  0.10156253829E+02  0.31886031524E+02  0.00000000000E+00 0.  1.
         11    1    3    3    0    0  0.75399327361E+01 -0.17614040471E+01 -0.52061498019E+01  0.93304408204E+01  0.51100000000E-03 0. -1.
        -11    1    3    3    0    0 -0.86210794393E+01  0.93244720286E+01  0.61208819185E+01  0.14097304176E+02  0.51100000000E-03 0.  1.
         12    1    3    3    0    0 -0.24335919970E+02 -0.23919786364E+02 -0.11070985945E+02  0.35874223480E+02  0.00000000000E+00 0. -1.
</event>
<event>
 7    1  0.1138240E-011  0.5930192E+02  0.7816164E-02  0.1266605E+00
        -11   -1    0    0    0    0  0.00000000000E+00  0.00000000000E+00  0.45593999997E+02  0.45594000000E+02  0.51100000000E-03 0.  1.
         11   -1    0    0    0    0 -0.00000000000E+00 -0.00000000000E+00 -0.45593999997E+02  0.45594000000E+02  0.51100000000E-03 0. -1.
    9900012    2    1    2    0    0  0.98682486677E+01 -0.79888640985E+01 -0.29249235586E+02  0.59301920534E+02  0.49999957153E+02 0.  0.
        -12    1    1    2    0    0 -0.98682486677E+01  0.79888640985E+01  0.29249235586E+02  0.31886079466E+02  0.00000000000E+00 0.  1.
         11    1    3    3    0    0  0.38913630074E+01 -0.71181234043E+01 -0.22038426045E+02  0.23484092694E+02  0.51100000000E-03 0. -1.
        -11    1    3    3    0    0  0.18720874838E+02  0.37544108521E+01  0.23366138361E+01  0.19236073405E+02  0.51100000000E-03 0.  1.
         12    1    3    3    0    0 -0.12743989178E+02 -0.46251515464E+01 -0.95474233768E+01  0.16581754435E+02  0.00000000000E+00 0. -1.
</event>
<event>
 7    1  0.1138240E-011  0.5930179E+02  0.7816164E-02  0.1266605E+00
        -11   -1    0    0    0    0  0.00000000000E+00  0.00000000000E+00  0.45593999997E+02  0.45594000000E+02  0.51100000000E-03 0. -1.
         11   -1    0    0    0    0 -0.00000000000E+00 -0.00000000000E+00 -0.45593999997E+02  0.45594000000E+02  0.51100000000E-03 0.  1.
    9900012    2    1    2    0    0  0.22764554827E+02 -0.20076948407E+02  0.97684049869E+01  0.59301787465E+02  0.49999714467E+02 0.  0.
        -12    1    1    2    0    0 -0.22764554827E+02  0.20076948407E+02 -0.97684049869E+01  0.31886212535E+02  0.00000000000E+00 0.  1.
         11    1    3    3    0    0  0.19806402858E+02  0.90478724327E+01  0.15976986639E+02  0.27007807983E+02  0.51100000000E-03 0. -1.
        -11    1    3    3    0    0  0.76670342438E+01 -0.16123913552E+02 -0.39045982716E+01  0.18275937466E+02  0.51100000000E-03 0.  1.
        -12    1    3    3    0    0 -0.47088822742E+01 -0.13000907288E+02 -0.23039833800E+01  0.14018042017E+02  0.00000000000E+00 0.  1.
</event>
<event>
 7    1  0.1138240E-011  0.5930197E+02  0.7816164E-02  0.1266605E+00
        -11   -1    0    0    0    0  0.00000000000E+00  0.00000000000E+00  0.45593999997E+02  0.45594000000E+02  0.51100000000E-03 0. -1.
         11   -1    0    0    0    0 -0.00000000000E+00 -0.00000000000E+00 -0.45593999997E+02  0.45594000000E+02  0.51100000000E-03 0.  1.
    9900012    2    1    2    0    0  0.56958423152E+01 -0.49492350522E+01  0.30980339449E+02  0.59301968895E+02  0.50000045351E+02 0.  0.
        -12    1    1    2    0    0 -0.56958423152E+01  0.49492350522E+01 -0.30980339449E+02  0.31886031105E+02  0.00000000000E+00 0.  1.
         11    1    3    3    0    0  0.39684314487E+01 -0.13687793206E+02  0.18997283858E+02  0.23748703654E+02  0.51100000000E-03 0. -1.
        -11    1    3    3    0    0 -0.15032270488E+02  0.71247816787E+01  0.58544775221E+01  0.17635378570E+02  0.51100000000E-03 0.  1.
         12    1    3    3    0    0  0.16759681354E+02  0.16137764746E+01  0.61285780685E+01  0.17917886671E+02  0.00000000000E+00 0. -1.
</event>
<event>
 7    1  0.1138240E-011  0.5930194E+02  0.7816164E-02  0.1266605E+00
        -11   -1    0    0    0    0  0.00000000000E+00  0.00000000000E+00  0.45593999997E+02  0.45594000000E+02  0.51100000000E-03 0. -1.
         11   -1    0    0    0    0 -0.00000000000E+00 -0.00000000000E+00 -0.45593999997E+02  0.45594000000E+02  0.51100000000E-03 0.  1.
    9900012    2    1    2    0    0  0.31261805088E+02 -0.34141952939E+01  0.52691031721E+01  0.59301942936E+02  0.49999998009E+02 0.  0.
        -12    1    1    2    0    0 -0.31261805088E+02  0.34141952939E+01 -0.52691031721E+01  0.31886057064E+02  0.00000000000E+00 0.  1.
         11    1    3    3    0    0  0.11530104897E+02  0.54015527541E+00  0.16678142252E+02  0.20282887267E+02  0.51100000000E-03 0. -1.
        -11    1    3    3    0    0  0.25349342076E+02 -0.83929918551E+01 -0.15397059518E+02  0.30823706754E+02  0.51100000000E-03 0.  1.
         12    1    3    3    0    0 -0.56176418858E+01  0.44386412858E+01  0.39880204380E+01  0.81953489148E+01  0.00000000000E+00 0. -1.
</event>
<event>
 7    1  0.1138240E-011  0.5930168E+02  0.7816164E-02  0.1266606E+00
        -11   -1    0    0    0    0  0.00000000000E+00  0.00000000000E+00  0.45593999997E+02  0.45594000000E+02  0.51100000000E-03 0.  1.
         11   -1    0    0    0    0 -0.00000000000E+00 -0.00000000000E+00 -0.45593999997E+02  0.45594000000E+02  0.51100000000E-03 0. -1.
    9900012    2    1    2    0    0  0.12592702192E+02  0.74567639887E+01 -0.28329450676E+02  0.59301682350E+02  0.49999522760E+02 0.  0.
        -12    1    1    2    0    0 -0.12592702192E+02 -0.74567639887E+01  0.28329450676E+02  0.31886317650E+02  0.00000000000E+00 0.  1.
         11    1    3    3    0    0 -0.15371323951E+02  0.12359479578E+02 -0.18186644388E+02  0.26828871944E+02  0.51100000000E-03 0. -1.
        -11    1    3    3    0    0  0.22588099190E+02 -0.18382200640E+01 -0.12463560294E+02  0.25863905612E+02  0.51100000000E-03 0.  1.
        -12    1    3    3    0    0  0.53759269526E+01 -0.30644955252E+01  0.23207540054E+01  0.66089047941E+01  0.00000000000E+00 0.  1.
</event>
<event>
 7    1  0.1138240E-011  0.5930194E+02  0.7816164E-02  0.1266605E+00
        -11   -1    0    0    0    0  0.00000000000E+00  0.00000000000E+00  0.45593999997E+02  0.45594000000E+02  0.51100000000E-03 0.  1.
         11   -1    0    0    0    0 -0.00000000000E+00 -0.00000000000E+00 -0.45593999997E+02  0.45594000000E+02  0.51100000000E-03 0. -1.
    9900012    2    1    2    0    0 -0.26230746188E+02 -0.18028021047E+02 -0.19128321600E+01  0.59301944814E+02  0.50000001434E+02 0.  0.
        -12    1    1    2    0    0  0.26230746188E+02  0.18028021047E+02  0.19128321600E+01  0.31886055186E+02  0.00000000000E+00 0.  1.
         11    1    3    3    0    0 -0.11498704969E+02 -0.20111185295E+02 -0.94760913395E+00  0.23185727361E+02  0.51100000000E-03 0. -1.
        -11    1    3    3    0    0 -0.19920909155E+02 -0.10142411695E+02 -0.34073191025E+01  0.22612407220E+02  0.51100000000E-03 0.  1.
         12    1    3    3    0    0  0.51888679364E+01  0.12225575942E+02  0.24420960764E+01  0.13503810234E+02  0.00000000000E+00 0. -1.
</event>
<event>
 7    1  0.1138240E-011  0.5930186E+02  0.7816164E-02  0.1266605E+00
        -11   -1    0    0    0    0  0.00000000000E+00  0.00000000000E+00  0.45593999997E+02  0.45594000000E+02  0.51100000000E-03 0. -1.
         11   -1    0    0    0    0 -0.00000000000E+00 -0.00000000000E+00 -0.45593999997E+02  0.45594000000E+02  0.51100000000E-03 0.  1.
    9900012    2    1    2    0    0 -0.26463789946E+02 -0.17003300603E+02 -0.52231728538E+01  0.59301859682E+02  0.49999846174E+02 0.  0.
        -12    1    1    2    0    0  0.26463789946E+02  0.17003300603E+02  0.52231728538E+01  0.31886140318E+02  0.00000000000E+00 0.  1.
         11    1    3    3    0    0 -0.15038101335E+02 -0.26793336520E+02  0.13726606780E+01  0.30755675432E+02  0.51100000000E-03 0. -1.
        -11    1    3    3    0    0 -0.10758942720E+02 -0.56497310060E+01 -0.44619726617E+01  0.12945404945E+02  0.51100000000E-03 0.  1.
         12    1    3    3    0    0 -0.66674589063E+00  0.15439766924E+02 -0.21338608700E+01  0.15600779306E+02  0.00000000000E+00 0. -1.
</event>
<event>
 7    1  0.1138240E-011  0.5930192E+02  0.7816164E-02  0.1266605E+00
        -11   -1    0    0    0    0  0.00000000000E+00  0.00000000000E+00  0.45593999997E+02  0.45594000000E+02  0.51100000000E-03 0. -1.
         11   -1    0    0    0    0 -0.00000000000E+00 -0.00000000000E+00 -0.45593999997E+02  0.45594000000E+02  0.51100000000E-03 0.  1.
    9900012    2    1    2    0    0  0.19570378414E+02 -0.91804908575E+01  0.23440161471E+02  0.59301916932E+02  0.49999950583E+02 0.  0.
        -12    1    1    2    0    0 -0.19570378414E+02  0.91804908575E+01 -0.23440161471E+02  0.31886083068E+02  0.00000000000E+00 0.  1.
         11    1    3    3    0    0  0.14709850026E+02 -0.57768194925E+00  0.20050784658E+02  0.24874633060E+02  0.51100000000E-03 0. -1.
        -11    1    3    3    0    0  0.84627229240E+01  0.11232762162E+02  0.21714683189E+01  0.14230527046E+02  0.51100000000E-03 0.  1.
        -12    1    3    3    0    0 -0.36021945358E+01 -0.19835571071E+02  0.12179084940E+01  0.20196756826E+02  0.00000000000E+00 0.  1.
</event>
<event>
 7    1  0.1138240E-011  0.5930191E+02  0.7816164E-02  0.1266605E+00
        -11   -1    0    0    0    0  0.00000000000E+00  0.00000000000E+00  0.45593999997E+02  0.45594000000E+02  0.51100000000E-03 0. -1.
         11   -1    0    0    0    0 -0.00000000000E+00 -0.00000000000E+00 -0.45593999997E+02  0.45594000000E+02  0.51100000000E-03 0.  1.
    9900012    2    1    2    0    0  0.17177258662E+02 -0.19388079058E+02  0.18594805236E+02  0.59301912023E+02  0.49999941631E+02 0.  0.
        -12    1    1    2    0    0 -0.17177258662E+02  0.19388079058E+02 -0.18594805236E+02  0.31886087977E+02  0.00000000000E+00 0.  1.
         11    1    3    3    0    0 -0.62643971887E+01 -0.94138683904E+00 -0.28662716484E+01  0.69530133570E+01  0.51100000000E-03 0. -1.
        -11    1    3    3    0    0 -0.39334040063E+00 -0.16238626352E+02 -0.46798900395E+01  0.16904114101E+02  0.51100000000E-03 0.  1.
         12    1    3    3    0    0  0.23834996252E+02 -0.22080658666E+01  0.26140966924E+02  0.35444784566E+02  0.00000000000E+00 0. -1.
</event>
<event>
 7    1  0.1138240E-011  0.5930158E+02  0.7816164E-02  0.1266606E+00
        -11   -1    0    0    0    0  0.00000000000E+00  0.00000000000E+00  0.45593999997E+02  0.45594000000E+02  0.51100000000E-03 0.  1.
         11   -1    0    0    0    0 -0.00000000000E+00 -0.00000000000E+00 -0.45593999997E+02  0.45594000000E+02  0.51100000000E-03 0. -1.
    9900012    2    1    2    0    0 -0.14802868311E+02 -0.10614230633E+02 -0.26171686737E+02  0.59301576732E+02  0.49999330136E+02 0.  0.
        -12    1    1    2    0    0  0.14802868311E+02  0.10614230633E+02  0.26171686737E+02  0.31886423268E+02  0.00000000000E+00 0.  1.
         11    1    3    3    0    0 -0.88289420112E+01 -0.62352997327E+01 -0.62473490321E+00  0.10826794251E+02  0.51100000000E-03 0. -1.
        -11    1    3    3    0    0  0.59011566931E+01  0.68533606630E+00 -0.33025263277E+02  0.33555347571E+02  0.51100000000E-03 0.  1.
         12    1    3    3    0    0 -0.11875082993E+02 -0.50642669662E+01  0.74783114428E+01  0.14919434910E+02  0.00000000000E+00 0. -1.
</event>
<event>
 7    1  0.1138240E-011  0.5930192E+02  0.7816164E-02  0.1266605E+00
        -11   -1    0    0    0    0  0.00000000000E+00  0.00000000000E+00  0.45593999997E+02  0.45594000000E+02  0.51100000000E-03 0. -1.
         11   -1    0    0    0    0 -0.00000000000E+00 -0.00000000000E+00 -0.45593999997E+02  0.45594000000E+02  0.51100000000E-03 0.  1.
    9900012    2    1    2    0    0  0.28057625799E+02 -0.11407592144E+02  0.99678779362E+01  0.59301919736E+02  0.49999955699E+02 0.  0.
        -12    1    1    2    0    0 -0.28057625799E+02  0.11407592144E+02 -0.99678779362E+01  0.31886080264E+02  0.00000000000E+00 0.  1.
         11    1    3    3    0    0  0.12992204447E+01 -0.22389494213E+01  0.74021824115E+01  0.78417582843E+01  0.51100000000E-03 0. -1.
        -11    1    3    3    0    0 -0.10828720938E+02 -0.70027190908E+01  0.47615653179E+01  0.13746700563E+02  0.51100000000E-03 0.  1.
        -12    1    3    3    0    0  0.37587126293E+02 -0.21659236319E+01 -0.21958697933E+01  0.37713460890E+02  0.00000000000E+00 0.  1.
</event>
<event>
 7    1  0.1138240E-011  0.5930179E+02  0.7816164E-02  0.1266605E+00
        -11   -1    0    0    0    0  0.00000000000E+00  0.00000000000E+00  0.45593999997E+02  0.45594000000E+02  0.51100000000E-03 0. -1.
         11   -1    0    0    0    0 -0.00000000000E+00 -0.00000000000E+00 -0.45593999997E+02  0.45594000000E+02  0.51100000000E-03 0.  1.
    9900012    2    1    2    0    0 -0.19884630615E+02 -0.12809040838E+02  0.21383649710E+02  0.59301787669E+02  0.49999714839E+02 0.  0.
        -12    1    1    2    0    0  0.19884630615E+02  0.12809040838E+02 -0.21383649710E+02  0.31886212331E+02  0.00000000000E+00 0.  1.
         11    1    3    3    0    0 -0.18299202194E+01  0.54783778867E+01  0.50814816102E+01  0.76930285255E+01  0.51100000000E-03 0. -1.
        -11    1    3    3    0    0 -0.29126215191E+01  0.55873639823E+01  0.21899823238E+02  0.22788248255E+02  0.51100000000E-03 0.  1.
        -12    1    3    3    0    0 -0.15142088876E+02 -0.23874782707E+02 -0.55976551382E+01  0.28820510889E+02  0.00000000000E+00 0.  1.
</event>
<event>
 7    1  0.2516839E-011  0.5930196E+02  0.7816164E-02  0.1266605E+00
        -11   -1    0    0    0    0  0.00000000000E+00  0.00000000000E+00  0.45593999997E+02  0.45594000000E+02  0.51100000000E-03 0. -1.
         11   -1    0    0    0    0 -0.00000000000E+00 -0.00000000000E+00 -0.45593999997E+02  0.45594000000E+02  0.51100000000E-03 0.  1.
    9900012    2    1    2    0    0 -0.19877441197E+02  0.58287944233E+01  0.24241127054E+02  0.59301956755E+02  0.50000023212E+02 0.  0.
        -12    1    1    2    0    0  0.19877441197E+02 -0.58287944233E+01 -0.24241127054E+02  0.31886043245E+02  0.00000000000E+00 0.  1.
         11    1    3    3    0    0 -0.24413125206E+02  0.15336042074E+02  0.22952823811E+02  0.36851417747E+02  0.51100000000E-03 0. -1.
        -11    1    3    3    0    0  0.13642624833E+01  0.58947854543E+01 -0.20243321648E+01  0.63802530240E+01  0.51100000000E-03 0.  1.
        -12    1    3    3    0    0  0.31714215261E+01 -0.15402033105E+02  0.33126354079E+01  0.16070285984E+02  0.00000000000E+00 0.  1.
</event>
<event>
 7    1  0.1138240E-011  0.5930197E+02  0.7816164E-02  0.1266605E+00
        -11   -1    0    0    0    0  0.00000000000E+00  0.00000000000E+00  0.45593999997E+02  0.45594000000E+02  0.51100000000E-03 0. -1.
         11   -1    0    0    0    0 -0.00000000000E+00 -0.00000000000E+00 -0.45593999997E+02  0.45594000000E+02  0.51100000000E-03 0.  1.
    9900012    2    1    2    0    0  0.80249732886E+01  0.28382782360E+02  0.12113484920E+02  0.59301967828E+02  0.50000043406E+02 0.  0.
        -12    1    1    2    0    0 -0.80249732886E+01 -0.28382782360E+02 -0.12113484920E+02  0.31886032172E+02  0.00000000000E+00 0.  1.
         11    1    3    3    0    0  0.23957177260E+02  0.14735680438E+01  0.13258226828E+01  0.24039042225E+02  0.51100000000E-03 0. -1.
        -11    1    3    3    0    0 -0.51484246389E+01  0.28852175195E+01  0.61512485709E+01  0.85245888839E+01  0.51100000000E-03 0.  1.
        -12    1    3    3    0    0 -0.10783779333E+02  0.24023996797E+02  0.46364136664E+01  0.26738336719E+02  0.00000000000E+00 0.  1.
</event>
<event>
 7    1  0.1138240E-011  0.5930195E+02  0.7816164E-02  0.1266605E+00
        -11   -1    0    0    0    0  0.00000000000E+00  0.00000000000E+00  0.45593999997E+02  0.45594000000E+02  0.51100000000E-03 0.  1.
         11   -1    0    0    0    0 -0.00000000000E+00 -0.00000000000E+00 -0.45593999997E+02  0.45594000000E+02  0.51100000000E-03 0. -1.
    9900012    2    1    2    0    0  0.24735293103E+02  0.19623357255E+02  0.44507891384E+01  0.59301946641E+02  0.50000004767E+02 0.  0.
        -12    1    1    2    0    0 -0.24735293103E+02 -0.19623357255E+02 -0.44507891384E+01  0.31886053359E+02  0.00000000000E+00 0.  1.
         11    1    3    3    0    0  0.92955560229E+01  0.28008687283E+02 -0.24676583138E+01  0.29613903203E+02  0.51100000000E-03 0. -1.
        -11    1    3    3    0    0 -0.22217191033E+01 -0.47686700820E+00 -0.60034132973E+01  0.64190660845E+01  0.51100000000E-03 0.  1.
        -12    1    3    3    0    0  0.17661456183E+02 -0.79084630203E+01  0.12921860750E+02  0.23268977354E+02  0.00000000000E+00 0.  1.
</event>
<event>
 7    1  0.1138240E-011  0.5930193E+02  0.7816164E-02  0.1266605E+00
        -11   -1    0    0    0    0  0.00000000000E+00  0.00000000000E+00  0.45593999997E+02  0.45594000000E+02  0.51100000000E-03 0.  1.
         11   -1    0    0    0    0 -0.00000000000E+00 -0.00000000000E+00 -0.45593999997E+02  0.45594000000E+02  0.51100000000E-03 0. -1.
    9900012    2    1    2    0    0  0.25730558778E+02  0.16653452584E+02 -0.87932999582E+01  0.59301933103E+02  0.49999980076E+02 0.  0.
        -12    1    1    2    0    0 -0.25730558778E+02 -0.16653452584E+02  0.87932999582E+01  0.31886066897E+02  0.00000000000E+00 0.  1.
         11    1    3    3    0    0  0.11351947867E+02  0.69095306309E+01  0.67543766090E+01  0.14907378628E+02  0.51100000000E-03 0. -1.
        -11    1    3    3    0    0  0.39346071571E+01 -0.95002194102E+01  0.74062844015E+01  0.12672345924E+02  0.51100000000E-03 0.  1.
         12    1    3    3    0    0  0.10444003754E+02  0.19244141363E+02 -0.22953960969E+02  0.31722208551E+02  0.00000000000E+00 0. -1.
</event>
<event>
 7    1  0.1138240E-011  0.5930191E+02  0.7816164E-02  0.1266605E+00
        -11   -1    0    0    0    0  0.00000000000E+00  0.00000000000E+00  0.45593999997E+02  0.45594000000E+02  0.51100000000E-03 0.  1.
         11   -1    0    0    0    0 -0.00000000000E+00 -0.00000000000E+00 -0.45593999997E+02  0.45594000000E+02  0.51100000000E-03 0. -1.
    9900012    2    1    2    0    0 -0.17808367263E+02 -0.24714841660E+02 -0.94213286992E+01  0.59301909344E+02  0.49999936745E+02 0.  0.
        -12    1    1    2    0    0  0.17808367263E+02  0.24714841660E+02  0.94213286992E+01  0.31886090656E+02  0.00000000000E+00 0.  1.
         11    1    3    3    0    0 -0.87280129344E+01 -0.29101330114E+02 -0.20987620805E+02  0.36926221734E+02  0.51100000000E-03 0. -1.
        -11    1    3    3    0    0 -0.36656512537E+01 -0.59352010042E+01  0.69260406480E+01  0.98302415735E+01  0.51100000000E-03 0.  1.
        -12    1    3    3    0    0 -0.54147030751E+01  0.10321689458E+02  0.46402514582E+01  0.12545446037E+02  0.00000000000E+00 0.  1.
</event>
<event>
 7    1  0.1138240E-011  0.5930190E+02  0.7816164E-02  0.1266605E+00
        -11   -1    0    0    0    0  0.00000000000E+00  0.00000000000E+00  0.45593999997E+02  0.45594000000E+02  0.51100000000E-03 0.  1.
         11   -1    0    0    0    0 -0.00000000000E+00 -0.00000000000E+00 -0.45593999997E+02  0.45594000000E+02  0.51100000000E-03 0. -1.
    9900012    2    1    2    0    0 -0.16363572577E+02 -0.27310344752E+02 -0.17611999593E+01  0.59301901725E+02  0.49999922849E+02 0.  0.
        -12    1    1    2    0    0  0.16363572577E+02  0.27310344752E+02  0.17611999593E+01  0.31886098275E+02  0.00000000000E+00 0.  1.
         11    1    3    3    0    0 -0.11406276602E+02 -0.29939217985E+02 -0.15171424209E+02  0.35449006082E+02  0.51100000000E-03 0. -1.
        -11    1    3    3    0    0 -0.58436495683E+01 -0.70134563636E+01  0.29378571447E+01  0.95899851567E+01  0.51100000000E-03 0.  1.
        -12    1    3    3    0    0  0.88635359349E+00  0.96423295966E+01  0.10472367105E+02  0.14262910486E+02  0.00000000000E+00 0.  1.
</event>
<event>
 7    1  0.1138240E-011  0.5930196E+02  0.7816164E-02  0.1266605E+00
        -11   -1    0    0    0    0  0.00000000000E+00  0.00000000000E+00  0.45593999997E+02  0.45594000000E+02  0.51100000000E-03 0.  1.
         11   -1    0    0    0    0 -0.00000000000E+00 -0.00000000000E+00 -0.45593999997E+02  0.45594000000E+02  0.51100000000E-03 0. -1.
    9900012    2    1    2    0    0 -0.18746923050E+02 -0.18537741126E+02 -0.17933898035E+02  0.59301958091E+02  0.50000025649E+02 0.  0.
        -12    1    1    2    0    0  0.18746923050E+02  0.18537741126E+02  0.17933898035E+02  0.31886041909E+02  0.00000000000E+00 0.  1.
         11    1    3    3    0    0  0.83275227489E-01  0.41270681872E+01 -0.53078837293E+01  0.67240803483E+01  0.51100000000E-03 0. -1.
        -11    1    3    3    0    0 -0.30205437674E+00 -0.18100041382E+02  0.11779680523E+02  0.21597768597E+02  0.51100000000E-03 0.  1.
         12    1    3    3    0    0 -0.18528143901E+02 -0.45647679306E+01 -0.24405694828E+02  0.30980109146E+02  0.00000000000E+00 0. -1.
</event>
<event>
 7    1  0.1138240E-011  0.5930186E+02  0.7816164E-02  0.1266605E+00
        -11   -1    0    0    0    0  0.00000000000E+00  0.00000000000E+00  0.45593999997E+02  0.45594000000E+02  0.51100000000E-03 0. -1.
         11   -1    0    0    0    0 -0.00000000000E+00 -0.00000000000E+00 -0.45593999997E+02  0.45594000000E+02  0.51100000000E-03 0.  1.
    9900012    2    1    2    0    0  0.31462126898E+02 -0.15058138760E+01  0.49591097494E+01  0.59301863923E+02  0.49999853909E+02 0.  0.
        -12    1    1    2    0    0 -0.31462126898E+02  0.15058138760E+01 -0.49591097494E+01  0.31886136077E+02  0.00000000000E+00 0.  1.
         11    1    3    3    0    0  0.75642102779E+01 -0.14766602517E+02 -0.15439519503E+02  0.22663816752E+02  0.51100000000E-03 0.  1.
        -11    1    3    3    0    0  0.90251720927E+01 -0.18145720099E+01  0.52152442380E+01  0.10580414718E+02  0.51100000000E-03 0. -1.
        -12    1    3    3    0    0  0.14872744528E+02  0.15075360651E+02  0.15183385015E+02  0.26057632453E+02  0.00000000000E+00 0.  1.
</event>
<event>
 7    1  0.1138240E-011  0.5930215E+02  0.7816164E-02  0.1266604E+00
        -11   -1    0    0    0    0  0.00000000000E+00  0.00000000000E+00  0.45593999997E+02  0.45594000000E+02  0.51100000000E-03 0.  1.
         11   -1    0    0    0    0 -0.00000000000E+00 -0.00000000000E+00 -0.45593999997E+02  0.45594000000E+02  0.51100000000E-03 0. -1.
    9900012    2    1    2    0    0 -0.25215913690E+01 -0.18638447539E+02 -0.25747956562E+02  0.59302150210E+02  0.50000376025E+02 0.  0.
        -12    1    1    2    0    0  0.25215913690E+01  0.18638447539E+02  0.25747956562E+02  0.31885849790E+02  0.00000000000E+00 0.  1.
         11    1    3    3    0    0 -0.12067404455E+02 -0.75246081426E+00 -0.21610992630E+02  0.24763348931E+02  0.51100000000E-03 0. -1.
        -11    1    3    3    0    0 -0.97818302945E+01 -0.45969393614E+01 -0.19381081963E+01  0.10980542748E+02  0.51100000000E-03 0.  1.
         12    1    3    3    0    0  0.19327643380E+02 -0.13289047363E+02 -0.21988557359E+01  0.23558258531E+02  0.00000000000E+00 0. -1.
</event>
<event>
 7    1  0.1138240E-011  0.5930197E+02  0.7816164E-02  0.1266605E+00
        -11   -1    0    0    0    0  0.00000000000E+00  0.00000000000E+00  0.45593999997E+02  0.45594000000E+02  0.51100000000E-03 0. -1.
         11   -1    0    0    0    0 -0.00000000000E+00 -0.00000000000E+00 -0.45593999997E+02  0.45594000000E+02  0.51100000000E-03 0.  1.
    9900012    2    1    2    0    0 -0.17654125571E+01 -0.22120905445E+01  0.31760179082E+02  0.59301968553E+02  0.50000044729E+02 0.  0.
        -12    1    1    2    0    0  0.17654125571E+01  0.22120905445E+01 -0.31760179082E+02  0.31886031447E+02  0.00000000000E+00 0.  1.
         11    1    3    3    0    0 -0.99164504056E+01 -0.80499727543E+01  0.10469044701E+02  0.16514809935E+02  0.51100000000E-03 0. -1.
        -11    1    3    3    0    0 -0.10262824819E+02  0.76899046189E+01 -0.20631713527E+01  0.12989106305E+02  0.51100000000E-03 0.  1.
        -12    1    3    3    0    0  0.18413862667E+02 -0.18520224092E+01  0.23354305735E+02  0.29798052313E+02  0.00000000000E+00 0.  1.
</event>
<event>
 7    1  0.1138240E-011  0.5930193E+02  0.7816164E-02  0.1266605E+00
        -11   -1    0    0    0    0  0.00000000000E+00  0.00000000000E+00  0.45593999997E+02  0.45594000000E+02  0.51100000000E-03 0.  1.
         11   -1    0    0    0    0 -0.00000000000E+00 -0.00000000000E+00 -0.45593999997E+02  0.45594000000E+02  0.51100000000E-03 0. -1.
    9900012    2    1    2    0    0 -0.57742545005E+01 -0.21389008690E+01 -0.31285851497E+02  0.59301930693E+02  0.49999975681E+02 0.  0.
        -12    1    1    2    0    0  0.57742545005E+01  0.21389008690E+01  0.31285851497E+02  0.31886069307E+02  0.00000000000E+00 0.  1.
         11    1    3    3    0    0 -0.65242749980E+01 -0.17832749515E+02 -0.47263684966E+01  0.19568129163E+02  0.51100000000E-03 0. -1.
        -11    1    3    3    0    0 -0.10803497766E+02  0.12381144033E+02 -0.98747863643E+01  0.19170803258E+02  0.51100000000E-03 0.  1.
        -12    1    3    3    0    0  0.11553518263E+02  0.33127046129E+01 -0.16684696636E+02  0.20562998272E+02  0.00000000000E+00 0.  1.
</event>
<event>
 7    1  0.1138240E-011  0.5930192E+02  0.7816164E-02  0.1266605E+00
        -11   -1    0    0    0    0  0.00000000000E+00  0.00000000000E+00  0.45593999997E+02  0.45594000000E+02  0.51100000000E-03 0.  1.
         11   -1    0    0    0    0 -0.00000000000E+00 -0.00000000000E+00 -0.45593999997E+02  0.45594000000E+02  0.51100000000E-03 0. -1.
    9900012    2    1    2    0    0  0.86475069869E+00  0.22499169256E+02 -0.22577897196E+02  0.59301923841E+02  0.49999963185E+02 0.  0.
        -12    1    1    2    0    0 -0.86475069869E+00 -0.22499169256E+02  0.22577897196E+02  0.31886076159E+02  0.00000000000E+00 0.  1.
         11    1    3    3    0    0 -0.91999402608E+01  0.72308618184E+01 -0.16399698264E+02  0.20146323904E+02  0.51100000000E-03 0. -1.
        -11    1    3    3    0    0 -0.11984614753E+02  0.77430069904E+00  0.19158512352E+00  0.12011129733E+02  0.51100000000E-03 0.  1.
        -12    1    3    3    0    0  0.22049305712E+02  0.14494006739E+02 -0.63697840555E+01  0.27144470204E+02  0.00000000000E+00 0.  1.
</event>
<event>
 7    1  0.1138240E-011  0.5930203E+02  0.7816164E-02  0.1266604E+00
        -11   -1    0    0    0    0  0.00000000000E+00  0.00000000000E+00  0.45593999997E+02  0.45594000000E+02  0.51100000000E-03 0.  1.
         11   -1    0    0    0    0 -0.00000000000E+00 -0.00000000000E+00 -0.45593999997E+02  0.45594000000E+02  0.51100000000E-03 0. -1.
    9900012    2    1    2    0    0 -0.16940090892E+02 -0.23269745356E+02 -0.13721050400E+02  0.59302032045E+02  0.50000160521E+02 0.  0.
        -12    1    1    2    0    0  0.16940090892E+02  0.23269745356E+02  0.13721050400E+02  0.31885967955E+02  0.00000000000E+00 0.  1.
         11    1    3    3    0    0  0.76787125869E+01 -0.22329493610E+01 -0.17906393529E+02  0.19610905622E+02  0.51100000000E-03 0. -1.
        -11    1    3    3    0    0 -0.19244230475E+01 -0.12570418454E+02 -0.51665090171E+01  0.13726311954E+02  0.51100000000E-03 0.  1.
         12    1    3    3    0    0 -0.22694380431E+02 -0.84663775414E+01  0.93518521459E+01  0.25964814469E+02  0.00000000000E+00 0. -1.
</event>
<event>
 7    1  0.1138240E-011  0.5930196E+02  0.7816164E-02  0.1266605E+00
        -11   -1    0    0    0    0  0.00000000000E+00  0.00000000000E+00  0.45593999997E+02  0.45594000000E+02  0.51100000000E-03 0.  1.
         11   -1    0    0    0    0 -0.00000000000E+00 -0.00000000000E+00 -0.45593999997E+02  0.45594000000E+02  0.51100000000E-03 0. -1.
    9900012    2    1    2    0    0  0.30693047587E+02  0.81469255080E+01  0.28782092991E+01  0.59301958317E+02  0.50000026061E+02 0.  0.
        -12    1    1    2    0    0 -0.30693047587E+02 -0.81469255080E+01 -0.28782092991E+01  0.31886041683E+02  0.00000000000E+00 0.  1.
         11    1    3    3    0    0  0.96519093201E+01  0.67567301262E+01 -0.39569358509E+00  0.11788525319E+02  0.51100000000E-03 0. -1.
        -11    1    3    3    0    0  0.23981496961E+01  0.12430841698E+02  0.17495839518E+02  0.21595864140E+02  0.51100000000E-03 0.  1.
        -12    1    3    3    0    0  0.18642988571E+02 -0.11040646316E+02 -0.14221936633E+02  0.25917568858E+02  0.00000000000E+00 0.  1.
</event>
<event>
 7    1  0.1138240E-011  0.5930156E+02  0.7816164E-02  0.1266606E+00
        -11   -1    0    0    0    0  0.00000000000E+00  0.00000000000E+00  0.45593999997E+02  0.45594000000E+02  0.51100000000E-03 0. -1.
         11   -1    0    0    0    0 -0.00000000000E+00 -0.00000000000E+00 -0.45593999997E+02  0.45594000000E+02  0.51100000000E-03 0.  1.
    9900012    2    1    2    0    0  0.43063662851E+01 -0.16322898151E+02  0.27051128838E+02  0.59301555136E+02  0.49999290750E+02 0.  0.
        -12    1    1    2    0    0 -0.43063662851E+01  0.16322898151E+02 -0.27051128838E+02  0.31886444864E+02  0.00000000000E+00 0.  1.
         11    1    3    3    0    0  0.66124522023E+01 -0.24609789875E+02  0.22985953767E+02  0.34317930483E+02  0.51100000000E-03 0. -1.
        -11    1    3    3    0    0 -0.10488621271E+02 -0.21742307742E+01 -0.10248038228E+01  0.10760514800E+02  0.51100000000E-03 0.  1.
         12    1    3    3    0    0  0.81825353536E+01  0.10461122498E+02  0.50899788942E+01  0.14223109853E+02  0.00000000000E+00 0. -1.
</event>
<event>
 7    1  0.1138240E-011  0.5930193E+02  0.7816164E-02  0.1266605E+00
        -11   -1    0    0    0    0  0.00000000000E+00  0.00000000000E+00  0.45593999997E+02  0.45594000000E+02  0.51100000000E-03 0. -1.
         11   -1    0    0    0    0 -0.00000000000E+00 -0.00000000000E+00 -0.45593999997E+02  0.45594000000E+02  0.51100000000E-03 0.  1.
    9900012    2    1    2    0    0  0.19902257491E+02  0.63446792576E+01  0.24090796636E+02  0.59301932656E+02  0.49999979261E+02 0.  0.
        -12    1    1    2    0    0 -0.19902257491E+02 -0.63446792576E+01 -0.24090796636E+02  0.31886067344E+02  0.00000000000E+00 0.  1.
         11    1    3    3    0    0  0.21531493521E+02  0.51433189135E+01  0.18529281708E+00  0.22138050419E+02  0.51100000000E-03 0. -1.
        -11    1    3    3    0    0  0.72813026339E+01  0.11043294172E+02  0.18695567760E+02  0.22901876961E+02  0.51100000000E-03 0.  1.
        -12    1    3    3    0    0 -0.89105386639E+01 -0.98419338278E+01  0.52099360590E+01  0.14262005276E+02  0.00000000000E+00 0.  1.
</event>
<event>
 7    1  0.1138240E-011  0.5930195E+02  0.7816164E-02  0.1266605E+00
        -11   -1    0    0    0    0  0.00000000000E+00  0.00000000000E+00  0.45593999997E+02  0.45594000000E+02  0.51100000000E-03 0.  1.
         11   -1    0    0    0    0 -0.00000000000E+00 -0.00000000000E+00 -0.45593999997E+02  0.45594000000E+02  0.51100000000E-03 0. -1.
    9900012    2    1    2    0    0  0.21046488805E+02 -0.15317884306E+02 -0.18415419632E+02  0.59301953665E+02  0.50000017576E+02 0.  0.
        -12    1    1    2    0    0 -0.21046488805E+02  0.15317884306E+02  0.18415419632E+02  0.31886046335E+02  0.00000000000E+00 0.  1.
         11    1    3    3    0    0  0.74968125256E+00  0.58469336080E+01  0.47241804232E+01  0.75542395731E+01  0.51100000000E-03 0. -1.
        -11    1    3    3    0    0 -0.10911236103E+01  0.90927812701E+01 -0.57778010306E+01  0.10828305822E+02  0.51100000000E-03 0.  1.
         12    1    3    3    0    0  0.21387931163E+02 -0.30257599184E+02 -0.17361799025E+02  0.40919408270E+02  0.00000000000E+00 0. -1.
</event>
<event>
 7    1  0.1138240E-011  0.5930189E+02  0.7816164E-02  0.1266605E+00
        -11   -1    0    0    0    0  0.00000000000E+00  0.00000000000E+00  0.45593999997E+02  0.45594000000E+02  0.51100000000E-03 0.  1.
         11   -1    0    0    0    0 -0.00000000000E+00 -0.00000000000E+00 -0.45593999997E+02  0.45594000000E+02  0.51100000000E-03 0. -1.
    9900012    2    1    2    0    0 -0.70031649372E+01 -0.30311705936E+02 -0.69914485834E+01  0.59301887205E+02  0.49999896369E+02 0.  0.
        -12    1    1    2    0    0  0.70031649372E+01  0.30311705936E+02  0.69914485834E+01  0.31886112795E+02  0.00000000000E+00 0.  1.
         11    1    3    3    0    0  0.31090542612E+01 -0.15034248340E+02  0.12771184325E+01  0.15405384555E+02  0.51100000000E-03 0. -1.
        -11    1    3    3    0    0  0.11866472024E+02 -0.17334818722E+01 -0.12959683648E+02  0.17657052931E+02  0.51100000000E-03 0.  1.
         12    1    3    3    0    0 -0.21978691223E+02 -0.13543975724E+02  0.46911166323E+01  0.26239449718E+02  0.00000000000E+00 0. -1.
</event>
<event>
 7    1  0.1138240E-011  0.5930194E+02  0.7816164E-02  0.1266605E+00
        -11   -1    0    0    0    0  0.00000000000E+00  0.00000000000E+00  0.45593999997E+02  0.45594000000E+02  0.51100000000E-03 0. -1.
         11   -1    0    0    0    0 -0.00000000000E+00 -0.00000000000E+00 -0.45593999997E+02  0.45594000000E+02  0.51100000000E-03 0.  1.
    9900012    2    1    2    0    0 -0.34890444455E+01 -0.17944970213E+02  0.26125193505E+02  0.59301935289E+02  0.49999984063E+02 0.  0.
        -12    1    1    2    0    0  0.34890444455E+01  0.17944970213E+02 -0.26125193505E+02  0.31886064711E+02  0.00000000000E+00 0.  1.
         11    1    3    3    0    0  0.12934156933E+02 -0.53265000964E+01 -0.26364077326E+01  0.14234277812E+02  0.51100000000E-03 0. -1.
        -11    1    3    3    0    0  0.22406079907E+01  0.67283376715E+01  0.10108642544E+02  0.12348097276E+02  0.51100000000E-03 0.  1.
         12    1    3    3    0    0 -0.18663809369E+02 -0.19346807788E+02  0.18652958693E+02  0.32719560201E+02  0.00000000000E+00 0. -1.
</event>
<event>
 7    1  0.1138240E-011  0.5930191E+02  0.7816164E-02  0.1266605E+00
        -11   -1    0    0    0    0  0.00000000000E+00  0.00000000000E+00  0.45593999997E+02  0.45594000000E+02  0.51100000000E-03 0.  1.
         11   -1    0    0    0    0 -0.00000000000E+00 -0.00000000000E+00 -0.45593999997E+02  0.45594000000E+02  0.51100000000E-03 0. -1.
    9900012    2    1    2    0    0 -0.21457361170E+02  0.18947861293E+02 -0.14045734272E+02  0.59301914521E+02  0.49999946186E+02 0.  0.
        -12    1    1    2    0    0  0.21457361170E+02 -0.18947861293E+02  0.14045734272E+02  0.31886085479E+02  0.00000000000E+00 0.  1.
         11    1    3    3    0    0 -0.57228390104E+01  0.17621346129E+02 -0.28594245769E+02  0.34071888957E+02  0.51100000000E-03 0. -1.
        -11    1    3    3    0    0  0.20865553102E+01 -0.12647474887E+01  0.28666697077E+01  0.37644514536E+01  0.51100000000E-03 0.  1.
        -12    1    3    3    0    0 -0.17821077469E+02  0.25912626529E+01  0.11681841789E+02  0.21465574110E+02  0.00000000000E+00 0.  1.
</event>
<event>
 7    1  0.1138240E-011  0.5930193E+02  0.7816164E-02  0.1266605E+00
        -11   -1    0    0    0    0  0.00000000000E+00  0.00000000000E+00  0.45593999997E+02  0.45594000000E+02  0.51100000000E-03 0.  1.
         11   -1    0    0    0    0 -0.00000000000E+00 -0.00000000000E+00 -0.45593999997E+02  0.45594000000E+02  0.51100000000E-03 0. -1.
    9900012    2    1    2    0    0  0.11745726751E+02  0.90806605331E+01 -0.28218803386E+02  0.59301931613E+02  0.49999977359E+02 0.  0.
        -12    1    1    2    0    0 -0.11745726751E+02 -0.90806605331E+01  0.28218803386E+02  0.31886068387E+02  0.00000000000E+00 0.  1.
         11    1    3    3    0    0  0.18139113781E+01 -0.47714825472E+01  0.80773093487E+01  0.95551162611E+01  0.51100000000E-03 0. -1.
        -11    1    3    3    0    0 -0.86188797755E+01 -0.10766503115E+01 -0.38503801321E+01  0.95010363593E+01  0.51100000000E-03 0.  1.
         12    1    3    3    0    0  0.18550695149E+02  0.14928793392E+02 -0.32445732602E+02  0.40245778993E+02  0.00000000000E+00 0. -1.
</event>
<event>
 7    1  0.1138240E-011  0.5930194E+02  0.7816164E-02  0.1266605E+00
        -11   -1    0    0    0    0  0.00000000000E+00  0.00000000000E+00  0.45593999997E+02  0.45594000000E+02  0.51100000000E-03 0. -1.
         11   -1    0    0    0    0 -0.00000000000E+00 -0.00000000000E+00 -0.45593999997E+02  0.45594000000E+02  0.51100000000E-03 0.  1.
    9900012    2    1    2    0    0  0.13557386729E+02  0.33801081139E+01  0.28661701361E+02  0.59301937360E+02  0.49999987840E+02 0.  0.
        -12    1    1    2    0    0 -0.13557386729E+02 -0.33801081139E+01 -0.28661701361E+02  0.31886062640E+02  0.00000000000E+00 0.  1.
         11    1    3    3    0    0 -0.36274840231E+01 -0.23323841971E+01  0.92830283440E+01  0.10235881588E+02  0.51100000000E-03 0. -1.
        -11    1    3    3    0    0 -0.51596828584E+01  0.11287044612E+02  0.22628643559E+02  0.25808432980E+02  0.51100000000E-03 0.  1.
        -12    1    3    3    0    0  0.22344553611E+02 -0.55745523015E+01 -0.32499705427E+01  0.23257622793E+02  0.00000000000E+00 0.  1.
</event>
<event>
 7    1  0.1138240E-011  0.5930193E+02  0.7816164E-02  0.1266605E+00
        -11   -1    0    0    0    0  0.00000000000E+00  0.00000000000E+00  0.45593999997E+02  0.45594000000E+02  0.51100000000E-03 0. -1.
         11   -1    0    0    0    0 -0.00000000000E+00 -0.00000000000E+00 -0.45593999997E+02  0.45594000000E+02  0.51100000000E-03 0.  1.
    9900012    2    1    2    0    0  0.21098495709E+02 -0.23802966601E+02 -0.22346249131E+01  0.59301932687E+02  0.49999979317E+02 0.  0.
        -12    1    1    2    0    0 -0.21098495709E+02  0.23802966601E+02  0.22346249131E+01  0.31886067313E+02  0.00000000000E+00 0.  1.
         11    1    3    3    0    0  0.14190534344E+02 -0.10027911266E+02 -0.38302358629E+00  0.17380361810E+02  0.51100000000E-03 0. -1.
        -11    1    3    3    0    0 -0.59261683138E+00  0.51239232271E+00 -0.18627827762E+02  0.18644294248E+02  0.51100000000E-03 0.  1.
         12    1    3    3    0    0  0.75005781964E+01 -0.14287447658E+02  0.16776226435E+02  0.23277276629E+02  0.00000000000E+00 0. -1.
</event>
<event>
 7    1  0.1138240E-011  0.5930191E+02  0.7816164E-02  0.1266605E+00
        -11   -1    0    0    0    0  0.00000000000E+00  0.00000000000E+00  0.45593999997E+02  0.45594000000E+02  0.51100000000E-03 0. -1.
         11   -1    0    0    0    0 -0.00000000000E+00 -0.00000000000E+00 -0.45593999997E+02  0.45594000000E+02  0.51100000000E-03 0.  1.
    9900012    2    1    2    0    0  0.31283153059E+02 -0.23709593801E+00  0.61669264352E+01  0.59301908025E+02  0.49999934339E+02 0.  0.
        -12    1    1    2    0    0 -0.31283153059E+02  0.23709593801E+00 -0.61669264352E+01  0.31886091975E+02  0.00000000000E+00 0.  1.
         11    1    3    3    0    0  0.24122160050E+02 -0.12146056712E+02  0.68797212933E+01  0.27869981422E+02  0.51100000000E-03 0. -1.
        -11    1    3    3    0    0  0.44770590102E+01 -0.71047504339E+01  0.68067688144E+01  0.10809886126E+02  0.51100000000E-03 0.  1.
        -12    1    3    3    0    0  0.26839339983E+01  0.19013711207E+02 -0.75195636725E+01  0.20622040476E+02  0.00000000000E+00 0.  1.
</event>
<event>
 7    1  0.1138240E-011  0.5930195E+02  0.7816164E-02  0.1266605E+00
        -11   -1    0    0    0    0  0.00000000000E+00  0.00000000000E+00  0.45593999997E+02  0.45594000000E+02  0.51100000000E-03 0. -1.
         11   -1    0    0    0    0 -0.00000000000E+00 -0.00000000000E+00 -0.45593999997E+02  0.45594000000E+02  0.51100000000E-03 0.  1.
    9900012    2    1    2    0    0 -0.22132468246E+02 -0.22401159934E+02  0.50062092433E+01  0.59301949005E+02  0.50000009078E+02 0.  0.
        -12    1    1    2    0    0  0.22132468246E+02  0.22401159934E+02 -0.50062092433E+01  0.31886050995E+02  0.00000000000E+00 0.  1.
         11    1    3    3    0    0 -0.10305923860E+02 -0.36816544046E+01 -0.13836978996E+01  0.11030923166E+02  0.51100000000E-03 0. -1.
        -11    1    3    3    0    0 -0.12418464325E+02  0.42118720826E+01  0.18230112364E+02  0.22456516196E+02  0.51100000000E-03 0.  1.
         12    1    3    3    0    0  0.59191993928E+00 -0.22931377613E+02 -0.11840205221E+02  0.25814509643E+02  0.00000000000E+00 0. -1.
</event>
<event>
 7    1  0.1138240E-011  0.5930195E+02  0.7816164E-02  0.1266605E+00
        -11   -1    0    0    0    0  0.00000000000E+00  0.00000000000E+00  0.45593999997E+02  0.45594000000E+02  0.51100000000E-03 0.  1.
         11   -1    0    0    0    0 -0.00000000000E+00 -0.00000000000E+00 -0.45593999997E+02  0.45594000000E+02  0.51100000000E-03 0. -1.
    9900012    2    1    2    0    0  0.20028919216E+02 -0.18274685803E+02 -0.16780894224E+02  0.59301950431E+02  0.50000011679E+02 0.  0.
        -12    1    1    2    0    0 -0.20028919216E+02  0.18274685803E+02  0.16780894224E+02  0.31886049569E+02  0.00000000000E+00 0.  1.
         11    1    3    3    0    0  0.13134653685E+02 -0.34638136045E+01 -0.41680764892E+01  0.14208799879E+02  0.51100000000E-03 0. -1.
        -11    1    3    3    0    0  0.15594000788E+02 -0.19667244457E+02  0.42988467813E+01  0.25464749146E+02  0.51100000000E-03 0.  1.
         12    1    3    3    0    0 -0.86997352581E+01  0.48563722593E+01 -0.16911664516E+02  0.19628401407E+02  0.00000000000E+00 0. -1.
</event>
<event>
 7    1  0.1138240E-011  0.5930197E+02  0.7816164E-02  0.1266605E+00
        -11   -1    0    0    0    0  0.00000000000E+00  0.00000000000E+00  0.45593999997E+02  0.45594000000E+02  0.51100000000E-03 0.  1.
         11   -1    0    0    0    0 -0.00000000000E+00 -0.00000000000E+00 -0.45593999997E+02  0.45594000000E+02  0.51100000000E-03 0. -1.
    9900012    2    1    2    0    0  0.38819165468E+01 -0.19422633847E+02 -0.24988221286E+02  0.59301965680E+02  0.50000039488E+02 0.  0.
        -12    1    1    2    0    0 -0.38819165468E+01  0.19422633847E+02  0.24988221286E+02  0.31886034320E+02  0.00000000000E+00 0.  1.
         11    1    3    3    0    0 -0.72859833117E+00  0.89525429924E+01 -0.36370229189E+01  0.96905530045E+01  0.51100000000E-03 0.  1.
        -11    1    3    3    0    0 -0.94942299938E+01 -0.13188540055E+01  0.35564089895E+01  0.10223884987E+02  0.51100000000E-03 0. -1.
         12    1    3    3    0    0  0.14104744872E+02 -0.27056322834E+02 -0.24907607357E+02  0.39387527689E+02  0.00000000000E+00 0. -1.
</event>
<event>
 7    1  0.1138240E-011  0.5930198E+02  0.7816164E-02  0.1266605E+00
        -11   -1    0    0    0    0  0.00000000000E+00  0.00000000000E+00  0.45593999997E+02  0.45594000000E+02  0.51100000000E-03 0.  1.
         11   -1    0    0    0    0 -0.00000000000E+00 -0.00000000000E+00 -0.45593999997E+02  0.45594000000E+02  0.51100000000E-03 0. -1.
    9900012    2    1    2    0    0  0.26507397148E+02  0.16576183247E+02  0.62694832322E+01  0.59301978383E+02  0.50000062655E+02 0.  0.
        -12    1    1    2    0    0 -0.26507397148E+02 -0.16576183247E+02 -0.62694832322E+01  0.31886021617E+02  0.00000000000E+00 0.  1.
         11    1    3    3    0    0  0.14422133709E+02  0.23955830757E+01  0.20065287949E+01  0.14756792235E+02  0.51100000000E-03 0. -1.
        -11    1    3    3    0    0  0.14759068667E+02  0.17475188848E+02  0.18670234120E+02  0.29526089744E+02  0.51100000000E-03 0.  1.
         12    1    3    3    0    0 -0.26738052279E+01 -0.32945886773E+01 -0.14407279683E+02  0.15019096404E+02  0.00000000000E+00 0. -1.
</event>
<event>
 7    1  0.1138240E-011  0.5930194E+02  0.7816164E-02  0.1266605E+00
        -11   -1    0    0    0    0  0.00000000000E+00  0.00000000000E+00  0.45593999997E+02  0.45594000000E+02  0.51100000000E-03 0.  1.
         11   -1    0    0    0    0 -0.00000000000E+00 -0.00000000000E+00 -0.45593999997E+02  0.45594000000E+02  0.51100000000E-03 0. -1.
    9900012    2    1    2    0    0  0.14324854529E+02  0.86805534467E+01 -0.27132405239E+02  0.59301939104E+02  0.49999991020E+02 0.  0.
        -12    1    1    2    0    0 -0.14324854529E+02 -0.86805534467E+01  0.27132405239E+02  0.31886060896E+02  0.00000000000E+00 0.  1.
         11    1    3    3    0    0  0.34183135342E+01  0.59471356723E+01 -0.31263418608E+01  0.75383886750E+01  0.51100000000E-03 0.  1.
        -11    1    3    3    0    0  0.21662648513E+02  0.17236165997E+02 -0.12678122841E+02  0.30448161815E+02  0.51100000000E-03 0. -1.
         12    1    3    3    0    0 -0.10756107518E+02 -0.14502748222E+02 -0.11327940537E+02  0.21315388614E+02  0.00000000000E+00 0. -1.
</event>
<event>
 7    1  0.1138240E-011  0.5930198E+02  0.7816164E-02  0.1266605E+00
        -11   -1    0    0    0    0  0.00000000000E+00  0.00000000000E+00  0.45593999997E+02  0.45594000000E+02  0.51100000000E-03 0. -1.
         11   -1    0    0    0    0 -0.00000000000E+00 -0.00000000000E+00 -0.45593999997E+02  0.45594000000E+02  0.51100000000E-03 0.  1.
    9900012    2    1    2    0    0 -0.67159281801E+00  0.36791253964E+01  0.31665930787E+02  0.59301981540E+02  0.50000068414E+02 0.  0.
        -12    1    1    2    0    0  0.67159281801E+00 -0.36791253964E+01 -0.31665930787E+02  0.31886018460E+02  0.00000000000E+00 0.  1.
         11    1    3    3    0    0  0.10624227318E+02 -0.48757470917E+01  0.84355316487E+01  0.14415453870E+02  0.51100000000E-03 0. -1.
        -11    1    3    3    0    0  0.23307971090E+01 -0.12784789090E+02  0.93746145807E+01  0.16023946020E+02  0.51100000000E-03 0.  1.
        -12    1    3    3    0    0 -0.13626617245E+02  0.21339661578E+02  0.13855784558E+02  0.28862581651E+02  0.00000000000E+00 0.  1.
</event>
<event>
 7    1  0.1138240E-011  0.5930198E+02  0.7816164E-02  0.1266605E+00
        -11   -1    0    0    0    0  0.00000000000E+00  0.00000000000E+00  0.45593999997E+02  0.45594000000E+02  0.51100000000E-03 0. -1.
         11   -1    0    0    0    0 -0.00000000000E+00 -0.00000000000E+00 -0.45593999997E+02  0.45594000000E+02  0.51100000000E-03 0.  1.
    9900012    2    1    2    0    0 -0.18110725184E+02 -0.18553262147E+02  0.18560606053E+02  0.59301984255E+02  0.50000073366E+02 0.  0.
        -12    1    1    2    0    0  0.18110725184E+02  0.18553262147E+02 -0.18560606053E+02  0.31886015745E+02  0.00000000000E+00 0.  1.
         11    1    3    3    0    0 -0.14120101490E+02 -0.11670099856E+02  0.22755264447E+01  0.18459320616E+02  0.51100000000E-03 0. -1.
        -11    1    3    3    0    0 -0.71330208159E+01 -0.15050717569E+02  0.23975195824E+02  0.29192706287E+02  0.51100000000E-03 0.  1.
        -12    1    3    3    0    0  0.31423971226E+01  0.81675552778E+01 -0.76901162156E+01  0.11649957352E+02  0.00000000000E+00 0.  1.
</event>
<event>
 7    1  0.1138240E-011  0.5930194E+02  0.7816164E-02  0.1266605E+00
        -11   -1    0    0    0    0  0.00000000000E+00  0.00000000000E+00  0.45593999997E+02  0.45594000000E+02  0.51100000000E-03 0. -1.
         11   -1    0    0    0    0 -0.00000000000E+00 -0.00000000000E+00 -0.45593999997E+02  0.45594000000E+02  0.51100000000E-03 0.  1.
    9900012    2    1    2    0    0 -0.29699094105E+02  0.11054028051E+02  0.35345642151E+01  0.59301939236E+02  0.49999991262E+02 0.  0.
        -12    1    1    2    0    0  0.29699094105E+02 -0.11054028051E+02 -0.35345642151E+01  0.31886060764E+02  0.00000000000E+00 0.  1.
         11    1    3    3    0    0 -0.36387903235E+01 -0.83084720801E+01 -0.48598299540E+01  0.10290259995E+02  0.51100000000E-03 0. -1.
        -11    1    3    3    0    0 -0.17449361107E+02 -0.77089078527E+01 -0.96757063809E+00  0.19100881040E+02  0.51100000000E-03 0.  1.
         12    1    3    3    0    0 -0.86109426749E+01  0.27071407984E+02  0.93619648072E+01  0.29910798201E+02  0.00000000000E+00 0. -1.
</event>
<event>
 7    1  0.1138240E-011  0.5930192E+02  0.7816164E-02  0.1266605E+00
        -11   -1    0    0    0    0  0.00000000000E+00  0.00000000000E+00  0.45593999997E+02  0.45594000000E+02  0.51100000000E-03 0. -1.
         11   -1    0    0    0    0 -0.00000000000E+00 -0.00000000000E+00 -0.45593999997E+02  0.45594000000E+02  0.51100000000E-03 0.  1.
    9900012    2    1    2    0    0  0.48725101080E+01  0.50738986245E+00  0.31507512017E+02  0.59301919766E+02  0.49999955752E+02 0.  0.
        -12    1    1    2    0    0 -0.48725101080E+01 -0.50738986245E+00 -0.31507512017E+02  0.31886080234E+02  0.00000000000E+00 0.  1.
         11    1    3    3    0    0  0.56638878599E+01 -0.19774037837E+02  0.25879386647E+02  0.33058052749E+02  0.51100000000E-03 0. -1.
        -11    1    3    3    0    0  0.42131617682E+01 -0.17855030143E+00  0.26262731030E+01  0.49678891864E+01  0.51100000000E-03 0.  1.
        -12    1    3    3    0    0 -0.50045395201E+01  0.20459978001E+02  0.30018522666E+01  0.21275977830E+02  0.00000000000E+00 0.  1.
</event>
<event>
 7    1  0.1138240E-011  0.5930195E+02  0.7816164E-02  0.1266605E+00
        -11   -1    0    0    0    0  0.00000000000E+00  0.00000000000E+00  0.45593999997E+02  0.45594000000E+02  0.51100000000E-03 0.  1.
         11   -1    0    0    0    0 -0.00000000000E+00 -0.00000000000E+00 -0.45593999997E+02  0.45594000000E+02  0.51100000000E-03 0. -1.
    9900012    2    1    2    0    0  0.25103574043E+02 -0.14966515229E+02 -0.12748887650E+02  0.59301950635E+02  0.50000012050E+02 0.  0.
        -12    1    1    2    0    0 -0.25103574043E+02  0.14966515229E+02  0.12748887650E+02  0.31886049365E+02  0.00000000000E+00 0.  1.
         11    1    3    3    0    0  0.10217796254E+00 -0.84159945174E+01 -0.50868539991E+01  0.98344032825E+01  0.51100000000E-03 0. -1.
        -11    1    3    3    0    0 -0.46296993127E+01  0.11677786138E+02 -0.75929957508E+01  0.14678500930E+02  0.51100000000E-03 0.  1.
         12    1    3    3    0    0  0.29631095393E+02 -0.18228306849E+02 -0.69037900332E-01  0.34789046423E+02  0.00000000000E+00 0. -1.
</event>
<event>
 7    1  0.1138240E-011  0.5930194E+02  0.7816164E-02  0.1266605E+00
        -11   -1    0    0    0    0  0.00000000000E+00  0.00000000000E+00  0.45593999997E+02  0.45594000000E+02  0.51100000000E-03 0. -1.
         11   -1    0    0    0    0 -0.00000000000E+00 -0.00000000000E+00 -0.45593999997E+02  0.45594000000E+02  0.51100000000E-03 0.  1.
    9900012    2    1    2    0    0  0.18995044524E+02 -0.21005087347E+02  0.14652483285E+02  0.59301942274E+02  0.49999996801E+02 0.  0.
        -12    1    1    2    0    0 -0.18995044524E+02  0.21005087347E+02 -0.14652483285E+02  0.31886057726E+02  0.00000000000E+00 0.  1.
         11    1    3    3    0    0  0.10451570435E+02 -0.17919327391E+02  0.20067848896E+02  0.28862712594E+02  0.51100000000E-03 0. -1.
        -11    1    3    3    0    0  0.13682097772E+02 -0.62855542291E+01  0.70168532554E+01  0.16611568899E+02  0.51100000000E-03 0.  1.
         12    1    3    3    0    0 -0.51386236831E+01  0.31997942733E+01 -0.12432218866E+02  0.13827660781E+02  0.00000000000E+00 0. -1.
</event>
<event>
 7    1  0.1138240E-011  0.5930194E+02  0.7816164E-02  0.1266605E+00
        -11   -1    0    0    0    0  0.00000000000E+00  0.00000000000E+00  0.45593999997E+02  0.45594000000E+02  0.51100000000E-03 0. -1.
         11   -1    0    0    0    0 -0.00000000000E+00 -0.00000000000E+00 -0.45593999997E+02  0.45594000000E+02  0.51100000000E-03 0.  1.
    9900012    2    1    2    0    0  0.29763268981E+02  0.48129368079E+01 -0.10378082384E+02  0.59301935096E+02  0.49999983710E+02 0.  0.
        -12    1    1    2    0    0 -0.29763268981E+02 -0.48129368079E+01  0.10378082384E+02  0.31886064904E+02  0.00000000000E+00 0.  1.
         11    1    3    3    0    0  0.77242074913E+01  0.11393076330E+02  0.90571966875E-01  0.13764947264E+02  0.51100000000E-03 0. -1.
        -11    1    3    3    0    0  0.61374620124E+01 -0.28445413374E+01  0.14327497538E+02  0.15844148489E+02  0.51100000000E-03 0.  1.
        -12    1    3    3    0    0  0.15901599477E+02 -0.37355981850E+01 -0.24796151889E+02  0.29692839343E+02  0.00000000000E+00 0.  1.
</event>
<event>
 7    1  0.1138240E-011  0.5930194E+02  0.7816164E-02  0.1266605E+00
        -11   -1    0    0    0    0  0.00000000000E+00  0.00000000000E+00  0.45593999997E+02  0.45594000000E+02  0.51100000000E-03 0.  1.
         11   -1    0    0    0    0 -0.00000000000E+00 -0.00000000000E+00 -0.45593999997E+02  0.45594000000E+02  0.51100000000E-03 0. -1.
    9900012    2    1    2    0    0  0.18022429000E+02 -0.16068474767E+02 -0.20825878067E+02  0.59301936812E+02  0.49999986840E+02 0.  0.
        -12    1    1    2    0    0 -0.18022429000E+02  0.16068474767E+02  0.20825878067E+02  0.31886063188E+02  0.00000000000E+00 0.  1.
         11    1    3    3    0    0  0.27009478145E+01  0.10433976363E+02 -0.83013946010E+01  0.13604268978E+02  0.51100000000E-03 0. -1.
        -11    1    3    3    0    0  0.88619548314E+01  0.54290221140E+01  0.96423581619E+00  0.10437350024E+02  0.51100000000E-03 0.  1.
         12    1    3    3    0    0  0.64595263538E+01 -0.31931473243E+02 -0.13488719283E+02  0.35260317810E+02  0.00000000000E+00 0. -1.
</event>
<event>
 7    1  0.1138240E-011  0.5930201E+02  0.7816164E-02  0.1266605E+00
        -11   -1    0    0    0    0  0.00000000000E+00  0.00000000000E+00  0.45593999997E+02  0.45594000000E+02  0.51100000000E-03 0. -1.
         11   -1    0    0    0    0 -0.00000000000E+00 -0.00000000000E+00 -0.45593999997E+02  0.45594000000E+02  0.51100000000E-03 0.  1.
    9900012    2    1    2    0    0 -0.21979231698E+02 -0.22213660304E+02  0.63389886709E+01  0.59302013933E+02  0.50000127490E+02 0.  0.
        -12    1    1    2    0    0  0.21979231698E+02  0.22213660304E+02 -0.63389886709E+01  0.31885986067E+02  0.00000000000E+00 0.  1.
         11    1    3    3    0    0 -0.17429910795E+02 -0.16762308666E+02  0.16757839840E+02  0.29421114501E+02  0.51100000000E-03 0. -1.
        -11    1    3    3    0    0 -0.14694807657E+02 -0.90179160557E+01 -0.60220375763E+01  0.18262670092E+02  0.51100000000E-03 0.  1.
         12    1    3    3    0    0  0.10145486754E+02  0.35665644179E+01 -0.43968135923E+01  0.11618229340E+02  0.00000000000E+00 0. -1.
</event>
<event>
 7    1  0.1138240E-011  0.5930195E+02  0.7816164E-02  0.1266605E+00
        -11   -1    0    0    0    0  0.00000000000E+00  0.00000000000E+00  0.45593999997E+02  0.45594000000E+02  0.51100000000E-03 0.  1.
         11   -1    0    0    0    0 -0.00000000000E+00 -0.00000000000E+00 -0.45593999997E+02  0.45594000000E+02  0.51100000000E-03 0. -1.
    9900012    2    1    2    0    0  0.69558439117E+01 -0.30714179263E+02 -0.49975320801E+01  0.59301954475E+02  0.50000019053E+02 0.  0.
        -12    1    1    2    0    0 -0.69558439117E+01  0.30714179263E+02  0.49975320801E+01  0.31886045525E+02  0.00000000000E+00 0.  1.
         11    1    3    3    0    0  0.42325808217E+01  0.59820234932E+01 -0.58824181505E+01  0.93969244460E+01  0.51100000000E-03 0.  1.
        -11    1    3    3    0    0  0.11688990988E+02  0.42252213470E+00  0.71532376345E+00  0.11718477872E+02  0.51100000000E-03 0. -1.
        -12    1    3    3    0    0 -0.89657278984E+01 -0.37118724891E+02  0.16956230698E+00  0.38186552157E+02  0.00000000000E+00 0.  1.
</event>
<event>
 7    1  0.1138240E-011  0.5930194E+02  0.7816164E-02  0.1266605E+00
        -11   -1    0    0    0    0  0.00000000000E+00  0.00000000000E+00  0.45593999997E+02  0.45594000000E+02  0.51100000000E-03 0.  1.
         11   -1    0    0    0    0 -0.00000000000E+00 -0.00000000000E+00 -0.45593999997E+02  0.45594000000E+02  0.51100000000E-03 0. -1.
    9900012    2    1    2    0    0  0.15144761239E+02 -0.24716679396E+02 -0.13283184895E+02  0.59301936676E+02  0.49999986592E+02 0.  0.
        -12    1    1    2    0    0 -0.15144761239E+02  0.24716679396E+02  0.13283184895E+02  0.31886063324E+02  0.00000000000E+00 0.  1.
         11    1    3    3    0    0  0.14756217278E+01 -0.14176634171E+01 -0.15771280408E+02  0.15903474935E+02  0.51100000000E-03 0. -1.
        -11    1    3    3    0    0 -0.96263368923E+01  0.56412339562E+00 -0.16877572945E+01  0.97894393157E+01  0.51100000000E-03 0.  1.
        -12    1    3    3    0    0  0.23295476404E+02 -0.23863139375E+02  0.41758528073E+01  0.33609022425E+02  0.00000000000E+00 0.  1.
</event>
<event>
 7    1  0.1138240E-011  0.5930196E+02  0.7816164E-02  0.1266605E+00
        -11   -1    0    0    0    0  0.00000000000E+00  0.00000000000E+00  0.45593999997E+02  0.45594000000E+02  0.51100000000E-03 0.  1.
         11   -1    0    0    0    0 -0.00000000000E+00 -0.00000000000E+00 -0.45593999997E+02  0.45594000000E+02  0.51100000000E-03 0. -1.
    9900012    2    1    2    0    0  0.18430034316E+02  0.26011628594E+02 -0.66966944107E+00  0.59301961611E+02  0.50000032067E+02 0.  0.
        -12    1    1    2    0    0 -0.18430034316E+02 -0.26011628594E+02  0.66966944107E+00  0.31886038389E+02  0.00000000000E+00 0.  1.
         11    1    3    3    0    0 -0.23735544327E+01  0.82070213276E+01 -0.41782889959E+01  0.95103658663E+01  0.51100000000E-03 0. -1.
        -11    1    3    3    0    0  0.50797101619E+01  0.10371475024E+02 -0.18458118639E+02  0.21773219639E+02  0.51100000000E-03 0.  1.
        -12    1    3    3    0    0  0.15723878587E+02  0.74331322425E+01  0.21966738193E+02  0.28018376106E+02  0.00000000000E+00 0.  1.
</event>
<event>
 7    1  0.1138240E-011  0.5930194E+02  0.7816164E-02  0.1266605E+00
        -11   -1    0    0    0    0  0.00000000000E+00  0.00000000000E+00  0.45593999997E+02  0.45594000000E+02  0.51100000000E-03 0. -1.
         11   -1    0    0    0    0 -0.00000000000E+00 -0.00000000000E+00 -0.45593999997E+02  0.45594000000E+02  0.51100000000E-03 0.  1.
    9900012    2    1    2    0    0  0.16155478535E+02  0.26601701902E+02 -0.69332949481E+01  0.59301943335E+02  0.49999998737E+02 0.  0.
        -12    1    1    2    0    0 -0.16155478535E+02 -0.26601701902E+02  0.69332949481E+01  0.31886056665E+02  0.00000000000E+00 0.  1.
         11    1    3    3    0    0 -0.48635323452E+01  0.33762828478E+00 -0.33882517849E+00  0.48869972881E+01  0.51100000000E-03 0. -1.
        -11    1    3    3    0    0 -0.51288986661E+01  0.15784285780E+02  0.12158691514E+02  0.20573844043E+02  0.51100000000E-03 0.  1.
        -12    1    3    3    0    0  0.26147909546E+02  0.10479787838E+02 -0.18753161283E+02  0.33841102005E+02  0.00000000000E+00 0.  1.
</event>
<event>
 7    1  0.1138240E-011  0.5930193E+02  0.7816164E-02  0.1266605E+00
        -11   -1    0    0    0    0  0.00000000000E+00  0.00000000000E+00  0.45593999997E+02  0.45594000000E+02  0.51100000000E-03 0.  1.
         11   -1    0    0    0    0 -0.00000000000E+00 -0.00000000000E+00 -0.45593999997E+02  0.45594000000E+02  0.51100000000E-03 0. -1.
    9900012    2    1    2    0    0 -0.55336844353E+01 -0.17951078944E+02 -0.25765452276E+02  0.59301930477E+02  0.49999975286E+02 0.  0.
        -12    1    1    2    0    0  0.55336844353E+01  0.17951078944E+02  0.25765452276E+02  0.31886069523E+02  0.00000000000E+00 0.  1.
         11    1    3    3    0    0 -0.99836607168E+01  0.29136154501E+00  0.34166194025E+01  0.10556119612E+02  0.51100000000E-03 0. -1.
        -11    1    3    3    0    0  0.31975643287E+01  0.97883712887E+01 -0.40101097999E+01  0.11050683734E+02  0.51100000000E-03 0.  1.
         12    1    3    3    0    0  0.12524119528E+01 -0.28030811777E+02 -0.25171961878E+02  0.37695127131E+02  0.00000000000E+00 0. -1.
</event>
<event>
 7    1  0.1138240E-011  0.5930189E+02  0.7816164E-02  0.1266605E+00
        -11   -1    0    0    0    0  0.00000000000E+00  0.00000000000E+00  0.45593999997E+02  0.45594000000E+02  0.51100000000E-03 0.  1.
         11   -1    0    0    0    0 -0.00000000000E+00 -0.00000000000E+00 -0.45593999997E+02  0.45594000000E+02  0.51100000000E-03 0. -1.
    9900012    2    1    2    0    0  0.12085987369E+02 -0.70937257934E+01 -0.28641438401E+02  0.59301889701E+02  0.49999900921E+02 0.  0.
        -12    1    1    2    0    0 -0.12085987369E+02  0.70937257934E+01  0.28641438401E+02  0.31886110299E+02  0.00000000000E+00 0.  1.
         11    1    3    3    0    0 -0.10429348958E+02 -0.17145728963E+02 -0.14366575157E+02  0.24680879712E+02  0.51100000000E-03 0. -1.
        -11    1    3    3    0    0 -0.24357194781E+01  0.53424200279E+01 -0.95780049221E+00  0.59490808680E+01  0.51100000000E-03 0.  1.
        -12    1    3    3    0    0  0.24951055805E+02  0.47095831415E+01 -0.13317062753E+02  0.28671929121E+02  0.00000000000E+00 0.  1.
</event>
<event>
 7    1  0.1138240E-011  0.5930197E+02  0.7816164E-02  0.1266605E+00
        -11   -1    0    0    0    0  0.00000000000E+00  0.00000000000E+00  0.45593999997E+02  0.45594000000E+02  0.51100000000E-03 0.  1.
         11   -1    0    0    0    0 -0.00000000000E+00 -0.00000000000E+00 -0.45593999997E+02  0.45594000000E+02  0.51100000000E-03 0. -1.
    9900012    2    1    2    0    0 -0.25678925528E+02 -0.61119230919E+01  0.17887309557E+02  0.59301973855E+02  0.50000054397E+02 0.  0.
        -12    1    1    2    0    0  0.25678925528E+02  0.61119230919E+01 -0.17887309557E+02  0.31886026145E+02  0.00000000000E+00 0.  1.
         11    1    3    3    0    0  0.35753785872E+01 -0.26618232792E+01 -0.77162245719E+01  0.89111591343E+01  0.51100000000E-03 0. -1.
        -11    1    3    3    0    0  0.60505452736E+01  0.40819455387E+01  0.45449037536E+01  0.85981118788E+01  0.51100000000E-03 0.  1.
         12    1    3    3    0    0 -0.35304849389E+02 -0.75320453515E+01  0.21058630375E+02  0.41792702842E+02  0.00000000000E+00 0. -1.
</event>
<event>
 7    1  0.1138240E-011  0.5930194E+02  0.7816164E-02  0.1266605E+00
        -11   -1    0    0    0    0  0.00000000000E+00  0.00000000000E+00  0.45593999997E+02  0.45594000000E+02  0.51100000000E-03 0.  1.
         11   -1    0    0    0    0 -0.00000000000E+00 -0.00000000000E+00 -0.45593999997E+02  0.45594000000E+02  0.51100000000E-03 0. -1.
    9900012    2    1    2    0    0  0.27478025732E+01 -0.31376894537E+02 -0.49659515410E+01  0.59301943416E+02  0.49999998885E+02 0.  0.
        -12    1    1    2    0    0 -0.27478025732E+01  0.31376894537E+02  0.49659515410E+01  0.31886056584E+02  0.00000000000E+00 0.  1.
         11    1    3    3    0    0 -0.92422935565E+01 -0.15500754699E+02 -0.54758695128E+01  0.18859441498E+02  0.51100000000E-03 0. -1.
        -11    1    3    3    0    0  0.12239999908E+02  0.91907982337E+01 -0.91541073808E+00  0.15333830148E+02  0.51100000000E-03 0.  1.
         12    1    3    3    0    0 -0.24990377809E+00 -0.25066938072E+02  0.14253287099E+01  0.25108671771E+02  0.00000000000E+00 0. -1.
</event>
<event>
 7    1  0.1138240E-011  0.5930194E+02  0.7816164E-02  0.1266605E+00
        -11   -1    0    0    0    0  0.00000000000E+00  0.00000000000E+00  0.45593999997E+02  0.45594000000E+02  0.51100000000E-03 0.  1.
         11   -1    0    0    0    0 -0.00000000000E+00 -0.00000000000E+00 -0.45593999997E+02  0.45594000000E+02  0.51100000000E-03 0. -1.
    9900012    2    1    2    0    0 -0.49356489863E+01  0.31490392149E+02  0.84565957767E+00  0.59301943977E+02  0.49999999907E+02 0.  0.
        -12    1    1    2    0    0  0.49356489863E+01 -0.31490392149E+02 -0.84565957767E+00  0.31886056023E+02  0.00000000000E+00 0.  1.
         11    1    3    3    0    0 -0.37143155692E+01 -0.88417773061E+01 -0.85002131311E+01  0.12815100063E+02  0.51100000000E-03 0. -1.
        -11    1    3    3    0    0  0.85073271197E+01  0.84273217249E+01  0.44472690796E+01  0.12773901859E+02  0.51100000000E-03 0.  1.
         12    1    3    3    0    0 -0.97286605369E+01  0.31904847730E+02  0.48986036292E+01  0.33712942055E+02  0.00000000000E+00 0. -1.
</event>
<event>
 7    1  0.1138240E-011  0.5930197E+02  0.7816164E-02  0.1266605E+00
        -11   -1    0    0    0    0  0.00000000000E+00  0.00000000000E+00  0.45593999997E+02  0.45594000000E+02  0.51100000000E-03 0.  1.
         11   -1    0    0    0    0 -0.00000000000E+00 -0.00000000000E+00 -0.45593999997E+02  0.45594000000E+02  0.51100000000E-03 0. -1.
    9900012    2    1    2    0    0 -0.90678331135E+01  0.46811161190E+01 -0.30208950620E+02  0.59301966332E+02  0.50000040678E+02 0.  0.
        -12    1    1    2    0    0  0.90678331135E+01 -0.46811161190E+01  0.30208950620E+02  0.31886033668E+02  0.00000000000E+00 0.  1.
         11    1    3    3    0    0 -0.33530926096E+01 -0.11920748715E+02 -0.48799747345E+01  0.13310207874E+02  0.51100000000E-03 0. -1.
        -11    1    3    3    0    0 -0.48046276181E+01 -0.21234782778E+01 -0.26683312899E+02  0.27195455394E+02  0.51100000000E-03 0.  1.
        -12    1    3    3    0    0 -0.91011288578E+00  0.18725343112E+02  0.13543370131E+01  0.18796303064E+02  0.00000000000E+00 0.  1.
</event>
<event>
 7    1  0.1138240E-011  0.5930196E+02  0.7816164E-02  0.1266605E+00
        -11   -1    0    0    0    0  0.00000000000E+00  0.00000000000E+00  0.45593999997E+02  0.45594000000E+02  0.51100000000E-03 0.  1.
         11   -1    0    0    0    0 -0.00000000000E+00 -0.00000000000E+00 -0.45593999997E+02  0.45594000000E+02  0.51100000000E-03 0. -1.
    9900012    2    1    2    0    0 -0.46788420690E+01 -0.28431340934E+02 -0.13656010053E+02  0.59301963543E+02  0.50000035591E+02 0.  0.
        -12    1    1    2    0    0  0.46788420690E+01  0.28431340934E+02  0.13656010053E+02  0.31886036457E+02  0.00000000000E+00 0.  1.
         11    1    3    3    0    0 -0.23918384070E+01 -0.72102333527E+01  0.28962223395E+01  0.81299729438E+01  0.51100000000E-03 0. -1.
        -11    1    3    3    0    0 -0.17919220755E+02 -0.56422374277E+00  0.36805056671E+01  0.18301992873E+02  0.51100000000E-03 0.  1.
         12    1    3    3    0    0  0.15632217093E+02 -0.20656883838E+02 -0.20232738059E+02  0.32869997726E+02  0.00000000000E+00 0. -1.
</event>
<event>
 7    1  0.1138240E-011  0.5930180E+02  0.7816164E-02  0.1266605E+00
        -11   -1    0    0    0    0  0.00000000000E+00  0.00000000000E+00  0.45593999997E+02  0.45594000000E+02  0.51100000000E-03 0.  1.
         11   -1    0    0    0    0 -0.00000000000E+00 -0.00000000000E+00 -0.45593999997E+02  0.45594000000E+02  0.51100000000E-03 0. -1.
    9900012    2    1    2    0    0  0.15884627940E+02 -0.20244456625E+02 -0.18830036361E+02  0.59301800820E+02  0.49999738822E+02 0.  0.
        -12    1    1    2    0    0 -0.15884627940E+02  0.20244456625E+02  0.18830036361E+02  0.31886199180E+02  0.00000000000E+00 0.  1.
         11    1    3    3    0    0  0.15651956078E+02  0.47128484954E+01 -0.25296324698E+02  0.30118079512E+02  0.51100000000E-03 0. -1.
        -11    1    3    3    0    0  0.21381983299E+01 -0.69828570586E+01 -0.39697899496E+01  0.83121247165E+01  0.51100000000E-03 0.  1.
        -12    1    3    3    0    0 -0.19055264681E+01 -0.17974448062E+02  0.10436078287E+02  0.20871596591E+02  0.00000000000E+00 0.  1.
</event>
<event>
 7    1  0.1138240E-011  0.5930201E+02  0.7816164E-02  0.1266605E+00
        -11   -1    0    0    0    0  0.00000000000E+00  0.00000000000E+00  0.45593999997E+02  0.45594000000E+02  0.51100000000E-03 0. -1.
         11   -1    0    0    0    0 -0.00000000000E+00 -0.00000000000E+00 -0.45593999997E+02  0.45594000000E+02  0.51100000000E-03 0.  1.
    9900012    2    1    2    0    0 -0.20273338432E+02 -0.20700312149E+02  0.13311841325E+02  0.59302011013E+02  0.50000122164E+02 0.  0.
        -12    1    1    2    0    0  0.20273338432E+02  0.20700312149E+02 -0.13311841325E+02  0.31885988987E+02  0.00000000000E+00 0.  1.
         11    1    3    3    0    0 -0.30989322062E+01 -0.15511143817E+02  0.23802265602E+01  0.15995763254E+02  0.51100000000E-03 0. -1.
        -11    1    3    3    0    0 -0.17720004774E+01 -0.29709283256E+01 -0.13722517305E+02  0.14151815511E+02  0.51100000000E-03 0.  1.
         12    1    3    3    0    0 -0.15402405748E+02 -0.22182400060E+01  0.24654132070E+02  0.29154432248E+02  0.00000000000E+00 0. -1.
</event>
<event>
 7    1  0.1138240E-011  0.5930197E+02  0.7816164E-02  0.1266605E+00
        -11   -1    0    0    0    0  0.00000000000E+00  0.00000000000E+00  0.45593999997E+02  0.45594000000E+02  0.51100000000E-03 0.  1.
         11   -1    0    0    0    0 -0.00000000000E+00 -0.00000000000E+00 -0.45593999997E+02  0.45594000000E+02  0.51100000000E-03 0. -1.
    9900012    2    1    2    0    0 -0.95436301195E+01 -0.12205072890E+02 -0.27868876529E+02  0.59301969217E+02  0.50000045939E+02 0.  0.
        -12    1    1    2    0    0  0.95436301195E+01  0.12205072890E+02  0.27868876529E+02  0.31886030783E+02  0.00000000000E+00 0.  1.
         11    1    3    3    0    0 -0.11835091027E+02 -0.34062855755E+01 -0.91151721731E+00  0.12349211511E+02  0.51100000000E-03 0. -1.
        -11    1    3    3    0    0  0.26657806154E+01  0.33508489085E+00  0.92380357921E+01  0.96208094114E+01  0.51100000000E-03 0.  1.
        -12    1    3    3    0    0 -0.37431970759E+00 -0.91338722054E+01 -0.36195395104E+02  0.37331948294E+02  0.00000000000E+00 0.  1.
</event>
<event>
 7    1  0.1138240E-011  0.5930195E+02  0.7816164E-02  0.1266605E+00
        -11   -1    0    0    0    0  0.00000000000E+00  0.00000000000E+00  0.45593999997E+02  0.45594000000E+02  0.51100000000E-03 0.  1.
         11   -1    0    0    0    0 -0.00000000000E+00 -0.00000000000E+00 -0.45593999997E+02  0.45594000000E+02  0.51100000000E-03 0. -1.
    9900012    2    1    2    0    0  0.90194675876E+01  0.29791441863E+02  0.69166000032E+01  0.59301950395E+02  0.50000011612E+02 0.  0.
        -12    1    1    2    0    0 -0.90194675876E+01 -0.29791441863E+02 -0.69166000032E+01  0.31886049605E+02  0.00000000000E+00 0.  1.
         11    1    3    3    0    0  0.38544558475E+01  0.15092397488E+02 -0.13843468096E+02  0.20839359419E+02  0.51100000000E-03 0. -1.
        -11    1    3    3    0    0  0.12939764819E+02  0.11461227422E+02  0.13908882007E+01  0.17341620969E+02  0.51100000000E-03 0.  1.
        -12    1    3    3    0    0 -0.77747530788E+01  0.32378169529E+01  0.19369179899E+02  0.21120970006E+02  0.00000000000E+00 0.  1.
</event>
<event>
 7    1  0.1138240E-011  0.5930190E+02  0.7816164E-02  0.1266605E+00
        -11   -1    0    0    0    0  0.00000000000E+00  0.00000000000E+00  0.45593999997E+02  0.45594000000E+02  0.51100000000E-03 0.  1.
         11   -1    0    0    0    0 -0.00000000000E+00 -0.00000000000E+00 -0.45593999997E+02  0.45594000000E+02  0.51100000000E-03 0. -1.
    9900012    2    1    2    0    0  0.18646771096E+02  0.10041063071E+02 -0.23836907014E+02  0.59301903408E+02  0.49999925920E+02 0.  0.
        -12    1    1    2    0    0 -0.18646771096E+02 -0.10041063071E+02  0.23836907014E+02  0.31886096592E+02  0.00000000000E+00 0.  1.
         11    1    3    3    0    0  0.10710028021E+01  0.11889192025E+02 -0.51942500647E+01  0.13018454901E+02  0.51100000000E-03 0. -1.
        -11    1    3    3    0    0 -0.59828376332E+01 -0.69703831612E+00  0.84404663680E+01  0.10369266191E+02  0.51100000000E-03 0.  1.
         12    1    3    3    0    0  0.23558605927E+02 -0.11510906387E+01 -0.27083123317E+02  0.35914182317E+02  0.00000000000E+00 0. -1.
</event>
<event>
 7    1  0.1138240E-011  0.5930193E+02  0.7816164E-02  0.1266605E+00
        -11   -1    0    0    0    0  0.00000000000E+00  0.00000000000E+00  0.45593999997E+02  0.45594000000E+02  0.51100000000E-03 0. -1.
         11   -1    0    0    0    0 -0.00000000000E+00 -0.00000000000E+00 -0.45593999997E+02  0.45594000000E+02  0.51100000000E-03 0.  1.
    9900012    2    1    2    0    0 -0.21646900569E+02 -0.21189116391E+02 -0.99576332920E+01  0.59301930653E+02  0.49999975607E+02 0.  0.
        -12    1    1    2    0    0  0.21646900569E+02  0.21189116391E+02  0.99576332920E+01  0.31886069347E+02  0.00000000000E+00 0.  1.
         11    1    3    3    0    0 -0.33652921982E+00 -0.50063514199E+01  0.75549647522E+01  0.90694155889E+01  0.51100000000E-03 0. -1.
        -11    1    3    3    0    0 -0.87365176347E+01 -0.26075893038E+02 -0.14155943604E+01  0.27536936028E+02  0.51100000000E-03 0.  1.
        -12    1    3    3    0    0 -0.12573853714E+02  0.98931280678E+01 -0.16097003684E+02  0.22695579036E+02  0.00000000000E+00 0.  1.
</event>
<event>
 7    1  0.1138240E-011  0.5930195E+02  0.7816164E-02  0.1266605E+00
        -11   -1    0    0    0    0  0.00000000000E+00  0.00000000000E+00  0.45593999997E+02  0.45594000000E+02  0.51100000000E-03 0.  1.
         11   -1    0    0    0    0 -0.00000000000E+00 -0.00000000000E+00 -0.45593999997E+02  0.45594000000E+02  0.51100000000E-03 0. -1.
    9900012    2    1    2    0    0 -0.74614910844E+01 -0.76579413818E+01 -0.30040015601E+02  0.59301945796E+02  0.50000003224E+02 0.  0.
        -12    1    1    2    0    0  0.74614910844E+01  0.76579413818E+01  0.30040015601E+02  0.31886054204E+02  0.00000000000E+00 0.  1.
         11    1    3    3    0    0 -0.49986725787E+01  0.10657833716E+02  0.16186517535E+01  0.11882599919E+02  0.51100000000E-03 0. -1.
        -11    1    3    3    0    0 -0.51942713420E+01 -0.11165322187E+02  0.23700056132E+01  0.12540406739E+02  0.51100000000E-03 0.  1.
         12    1    3    3    0    0  0.27314528362E+01 -0.71504529104E+01 -0.34028672968E+02  0.34878939138E+02  0.00000000000E+00 0. -1.
</event>
<event>
 7    1  0.1138240E-011  0.5930199E+02  0.7816164E-02  0.1266605E+00
        -11   -1    0    0    0    0  0.00000000000E+00  0.00000000000E+00  0.45593999997E+02  0.45594000000E+02  0.51100000000E-03 0. -1.
         11   -1    0    0    0    0 -0.00000000000E+00 -0.00000000000E+00 -0.45593999997E+02  0.45594000000E+02  0.51100000000E-03 0.  1.
    9900012    2    1    2    0    0 -0.77947283947E+01  0.30295088584E+01  0.30769825651E+02  0.59301986055E+02  0.50000076648E+02 0.  0.
        -12    1    1    2    0    0  0.77947283947E+01 -0.30295088584E+01 -0.30769825651E+02  0.31886013945E+02  0.00000000000E+00 0.  1.
         11    1    3    3    0    0  0.10814133814E+01  0.52160746981E+01  0.11169336058E+01  0.54428330030E+01  0.51100000000E-03 0. -1.
        -11    1    3    3    0    0 -0.93872070600E+01 -0.18138675995E+01 -0.10212086980E+02  0.13989156258E+02  0.51100000000E-03 0.  1.
         12    1    3    3    0    0  0.51106528392E+00 -0.37269824024E+00  0.39864979025E+02  0.39869996795E+02  0.00000000000E+00 0. -1.
</event>
<event>
 7    1  0.1138240E-011  0.5930199E+02  0.7816164E-02  0.1266605E+00
        -11   -1    0    0    0    0  0.00000000000E+00  0.00000000000E+00  0.45593999997E+02  0.45594000000E+02  0.51100000000E-03 0.  1.
         11   -1    0    0    0    0 -0.00000000000E+00 -0.00000000000E+00 -0.45593999997E+02  0.45594000000E+02  0.51100000000E-03 0. -1.
    9900012    2    1    2    0    0 -0.12125134059E+02  0.26037655739E+02  0.13846994763E+02  0.59301989646E+02  0.50000083198E+02 0.  0.
        -12    1    1    2    0    0  0.12125134059E+02 -0.26037655739E+02 -0.13846994763E+02  0.31886010354E+02  0.00000000000E+00 0.  1.
         11    1    3    3    0    0  0.11390922802E+02 -0.25925308992E+01  0.32702652248E+01  0.12131322008E+02  0.51100000000E-03 0. -1.
        -11    1    3    3    0    0 -0.93094623940E+01 -0.39727413158E+01  0.45604904143E+01  0.11101659187E+02  0.51100000000E-03 0.  1.
        -12    1    3    3    0    0 -0.14206594467E+02  0.32602927953E+02  0.60162391237E+01  0.36069008452E+02  0.00000000000E+00 0.  1.
</event>
<event>
 7    1  0.1138240E-011  0.5930195E+02  0.7816164E-02  0.1266605E+00
        -11   -1    0    0    0    0  0.00000000000E+00  0.00000000000E+00  0.45593999997E+02  0.45594000000E+02  0.51100000000E-03 0. -1.
         11   -1    0    0    0    0 -0.00000000000E+00 -0.00000000000E+00 -0.45593999997E+02  0.45594000000E+02  0.51100000000E-03 0.  1.
    9900012    2    1    2    0    0  0.27132885112E+02  0.33766644644E+01  0.16405032820E+02  0.59301946321E+02  0.50000004182E+02 0.  0.
        -12    1    1    2    0    0 -0.27132885112E+02 -0.33766644644E+01 -0.16405032820E+02  0.31886053679E+02  0.00000000000E+00 0.  1.
         11    1    3    3    0    0  0.10851783618E+02 -0.90305330539E+01  0.73159630161E+01  0.15900787718E+02  0.51100000000E-03 0. -1.
        -11    1    3    3    0    0  0.21884487187E+02 -0.34088331481E+01 -0.35013978278E+01  0.22423441080E+02  0.51100000000E-03 0.  1.
        -12    1    3    3    0    0 -0.56033856930E+01  0.15816030666E+02  0.12590467632E+02  0.20977717523E+02  0.00000000000E+00 0.  1.
</event>
<event>
 7    1  0.1138240E-011  0.5930198E+02  0.7816164E-02  0.1266605E+00
        -11   -1    0    0    0    0  0.00000000000E+00  0.00000000000E+00  0.45593999997E+02  0.45594000000E+02  0.51100000000E-03 0. -1.
         11   -1    0    0    0    0 -0.00000000000E+00 -0.00000000000E+00 -0.45593999997E+02  0.45594000000E+02  0.51100000000E-03 0.  1.
    9900012    2    1    2    0    0  0.77993115959E+01  0.13197480350E+02  0.27959178472E+02  0.59301977831E+02  0.50000061648E+02 0.  0.
        -12    1    1    2    0    0 -0.77993115959E+01 -0.13197480350E+02 -0.27959178472E+02  0.31886022169E+02  0.00000000000E+00 0.  1.
         11    1    3    3    0    0 -0.67748538335E-01  0.17589374467E+02  0.11136431638E+02  0.20818520454E+02  0.51100000000E-03 0. -1.
        -11    1    3    3    0    0  0.20645065019E+02 -0.62289807500E+01  0.12168570101E+02  0.24760715042E+02  0.51100000000E-03 0.  1.
         12    1    3    3    0    0 -0.12778004885E+02  0.18370866332E+01  0.46541767327E+01  0.13722742335E+02  0.00000000000E+00 0. -1.
</event>
<event>
 7    1  0.1138240E-011  0.5930195E+02  0.7816164E-02  0.1266605E+00
        -11   -1    0    0    0    0  0.00000000000E+00  0.00000000000E+00  0.45593999997E+02  0.45594000000E+02  0.51100000000E-03 0.  1.
         11   -1    0    0    0    0 -0.00000000000E+00 -0.00000000000E+00 -0.45593999997E+02  0.45594000000E+02  0.51100000000E-03 0. -1.
    9900012    2    1    2    0    0  0.61647117123E+00  0.53806997557E+01 -0.31422736424E+02  0.59301947705E+02  0.50000006707E+02 0.  0.
        -12    1    1    2    0    0 -0.61647117123E+00 -0.53806997557E+01  0.31422736424E+02  0.31886052295E+02  0.00000000000E+00 0.  1.
         11    1    3    3    0    0  0.17626117632E+02  0.62747789088E+01 -0.52014270602E+01  0.19419261491E+02  0.51100000000E-03 0. -1.
        -11    1    3    3    0    0  0.23321533920E+01  0.37165379674E+01 -0.17724628807E+02  0.18259629255E+02  0.51100000000E-03 0.  1.
        -12    1    3    3    0    0 -0.19341799853E+02 -0.46106171204E+01 -0.84966805566E+01  0.21623056959E+02  0.00000000000E+00 0.  1.
</event>
<event>
 7    1  0.1138240E-011  0.5930200E+02  0.7816164E-02  0.1266605E+00
        -11   -1    0    0    0    0  0.00000000000E+00  0.00000000000E+00  0.45593999997E+02  0.45594000000E+02  0.51100000000E-03 0.  1.
         11   -1    0    0    0    0 -0.00000000000E+00 -0.00000000000E+00 -0.45593999997E+02  0.45594000000E+02  0.51100000000E-03 0. -1.
    9900012    2    1    2    0    0 -0.24864572513E+02 -0.74825031333E+01 -0.18506266512E+02  0.59302004334E+02  0.50000109984E+02 0.  0.
        -12    1    1    2    0    0  0.24864572513E+02  0.74825031333E+01  0.18506266512E+02  0.31885995666E+02  0.00000000000E+00 0.  1.
         11    1    3    3    0    0 -0.93878834619E+01 -0.87765293500E+01 -0.52525943287E+01  0.13883427919E+02  0.51100000000E-03 0. -1.
        -11    1    3    3    0    0 -0.87591603734E+01 -0.11280373441E+02  0.10492374109E+02  0.17721727628E+02  0.51100000000E-03 0.  1.
        -12    1    3    3    0    0 -0.67175286780E+01  0.12574399658E+02 -0.23746046292E+02  0.27696848788E+02  0.00000000000E+00 0.  1.
</event>
<event>
 7    1  0.1138240E-011  0.5930196E+02  0.7816164E-02  0.1266605E+00
        -11   -1    0    0    0    0  0.00000000000E+00  0.00000000000E+00  0.45593999997E+02  0.45594000000E+02  0.51100000000E-03 0. -1.
         11   -1    0    0    0    0 -0.00000000000E+00 -0.00000000000E+00 -0.45593999997E+02  0.45594000000E+02  0.51100000000E-03 0.  1.
    9900012    2    1    2    0    0 -0.16628606826E+02 -0.23435070760E+02  0.13820517258E+02  0.59301955971E+02  0.50000021782E+02 0.  0.
        -12    1    1    2    0    0  0.16628606826E+02  0.23435070760E+02 -0.13820517258E+02  0.31886044029E+02  0.00000000000E+00 0.  1.
         11    1    3    3    0    0  0.35764007894E+01  0.62814165699E+01 -0.77595481734E+01  0.10604594516E+02  0.51100000000E-03 0. -1.
        -11    1    3    3    0    0  0.55743750404E+01 -0.86389324656E+01  0.63159778579E+01  0.12066332823E+02  0.51100000000E-03 0.  1.
         12    1    3    3    0    0 -0.25779382656E+02 -0.21077554864E+02  0.15264087574E+02  0.36631028632E+02  0.00000000000E+00 0. -1.
</event>
<event>
 7    1  0.1138240E-011  0.5930195E+02  0.7816164E-02  0.1266605E+00
        -11   -1    0    0    0    0  0.00000000000E+00  0.00000000000E+00  0.45593999997E+02  0.45594000000E+02  0.51100000000E-03 0. -1.
         11   -1    0    0    0    0 -0.00000000000E+00 -0.00000000000E+00 -0.45593999997E+02  0.45594000000E+02  0.51100000000E-03 0.  1.
    9900012    2    1    2    0    0 -0.41220845762E+01 -0.16561880804E+02  0.26933863930E+02  0.59301945004E+02  0.50000001781E+02 0.  0.
        -12    1    1    2    0    0  0.41220845762E+01  0.16561880804E+02 -0.26933863930E+02  0.31886054996E+02  0.00000000000E+00 0.  1.
         11    1    3    3    0    0 -0.41160137128E+01  0.40660009113E+01 -0.63394861454E+01  0.85827161868E+01  0.51100000000E-03 0. -1.
        -11    1    3    3    0    0  0.41188608639E+01  0.76154263402E+01  0.13345936414E+02  0.15908291932E+02  0.51100000000E-03 0.  1.
         12    1    3    3    0    0 -0.41249317272E+01 -0.28243308055E+02  0.19927413661E+02  0.34810936886E+02  0.00000000000E+00 0. -1.
</event>
<event>
 7    1  0.1138240E-011  0.5930188E+02  0.7816164E-02  0.1266605E+00
        -11   -1    0    0    0    0  0.00000000000E+00  0.00000000000E+00  0.45593999997E+02  0.45594000000E+02  0.51100000000E-03 0.  1.
         11   -1    0    0    0    0 -0.00000000000E+00 -0.00000000000E+00 -0.45593999997E+02  0.45594000000E+02  0.51100000000E-03 0. -1.
    9900012    2    1    2    0    0  0.54800688307E+01  0.31004713992E+02 -0.50399661132E+01  0.59301879155E+02  0.49999881687E+02 0.  0.
        -12    1    1    2    0    0 -0.54800688307E+01 -0.31004713992E+02  0.50399661132E+01  0.31886120845E+02  0.00000000000E+00 0.  1.
         11    1    3    3    0    0  0.70297118614E+01  0.27257269967E+01 -0.10977160163E+02  0.13317074829E+02  0.51100000000E-03 0. -1.
        -11    1    3    3    0    0  0.97571448450E+01  0.31068786346E+02  0.92933218772E+01  0.33864984753E+02  0.51100000000E-03 0.  1.
         12    1    3    3    0    0 -0.11306787876E+02 -0.27897993502E+01 -0.33561278278E+01  0.12119819573E+02  0.00000000000E+00 0. -1.
</event>
<event>
 7    1  0.1138240E-011  0.5930194E+02  0.7816164E-02  0.1266605E+00
        -11   -1    0    0    0    0  0.00000000000E+00  0.00000000000E+00  0.45593999997E+02  0.45594000000E+02  0.51100000000E-03 0.  1.
         11   -1    0    0    0    0 -0.00000000000E+00 -0.00000000000E+00 -0.45593999997E+02  0.45594000000E+02  0.51100000000E-03 0. -1.
    9900012    2    1    2    0    0  0.23296360028E+02  0.66768694001E+01 -0.20722447403E+02  0.59301940320E+02  0.49999993237E+02 0.  0.
        -12    1    1    2    0    0 -0.23296360028E+02 -0.66768694001E+01  0.20722447403E+02  0.31886059680E+02  0.00000000000E+00 0.  1.
         11    1    3    3    0    0 -0.38267058907E+01  0.32063028967E+01 -0.61009976744E+01  0.78832879640E+01  0.51100000000E-03 0. -1.
        -11    1    3    3    0    0  0.13122406314E+02  0.16836883321E+02 -0.22045826038E+02  0.30687075999E+02  0.51100000000E-03 0.  1.
        -12    1    3    3    0    0  0.14000659605E+02 -0.13366316817E+02  0.74243763089E+01  0.20731576356E+02  0.00000000000E+00 0.  1.
</event>
<event>
 7    1  0.1138240E-011  0.5930195E+02  0.7816164E-02  0.1266605E+00
        -11   -1    0    0    0    0  0.00000000000E+00  0.00000000000E+00  0.45593999997E+02  0.45594000000E+02  0.51100000000E-03 0.  1.
         11   -1    0    0    0    0 -0.00000000000E+00 -0.00000000000E+00 -0.45593999997E+02  0.45594000000E+02  0.51100000000E-03 0. -1.
    9900012    2    1    2    0    0 -0.11169506460E+02 -0.21262218388E+02 -0.20973329154E+02  0.59301947545E+02  0.50000006416E+02 0.  0.
        -12    1    1    2    0    0  0.11169506460E+02  0.21262218388E+02  0.20973329154E+02  0.31886052455E+02  0.00000000000E+00 0.  1.
         11    1    3    3    0    0  0.20057453302E+01  0.14937827752E+01 -0.72778226697E+01  0.76955249582E+01  0.51100000000E-03 0.  1.
        -11    1    3    3    0    0  0.14730407295E+02 -0.10729077062E+02 -0.10549818644E+02  0.21056986189E+02  0.51100000000E-03 0. -1.
        -12    1    3    3    0    0 -0.27905659085E+02 -0.12026924100E+02 -0.31456878406E+01  0.30549436398E+02  0.00000000000E+00 0.  1.
</event>
<event>
 7    1  0.1138240E-011  0.5930193E+02  0.7816164E-02  0.1266605E+00
        -11   -1    0    0    0    0  0.00000000000E+00  0.00000000000E+00  0.45593999997E+02  0.45594000000E+02  0.51100000000E-03 0.  1.
         11   -1    0    0    0    0 -0.00000000000E+00 -0.00000000000E+00 -0.45593999997E+02  0.45594000000E+02  0.51100000000E-03 0. -1.
    9900012    2    1    2    0    0 -0.19495184020E+02  0.32753254986E+01 -0.25018622555E+02  0.59301930445E+02  0.49999975229E+02 0.  0.
        -12    1    1    2    0    0  0.19495184020E+02 -0.32753254986E+01  0.25018622555E+02  0.31886069555E+02  0.00000000000E+00 0.  1.
         11    1    3    3    0    0 -0.18786173177E-01  0.63042000108E+01  0.54667818526E+01  0.83443990066E+01  0.51100000000E-03 0. -1.
        -11    1    3    3    0    0  0.53844789942E+01 -0.10791252420E+02 -0.17680247526E+01  0.12188915235E+02  0.51100000000E-03 0.  1.
         12    1    3    3    0    0 -0.24860876841E+02  0.77623779077E+01 -0.28717379655E+02  0.38768616203E+02  0.00000000000E+00 0. -1.
</event>
<event>
 7    1  0.1138240E-011  0.5930198E+02  0.7816164E-02  0.1266605E+00
        -11   -1    0    0    0    0  0.00000000000E+00  0.00000000000E+00  0.45593999997E+02  0.45594000000E+02  0.51100000000E-03 0.  1.
         11   -1    0    0    0    0 -0.00000000000E+00 -0.00000000000E+00 -0.45593999997E+02  0.45594000000E+02  0.51100000000E-03 0. -1.
    9900012    2    1    2    0    0  0.21201514797E+02 -0.19713598180E+02 -0.13363687544E+02  0.59301979119E+02  0.50000063997E+02 0.  0.
        -12    1    1    2    0    0 -0.21201514797E+02  0.19713598180E+02  0.13363687544E+02  0.31886020881E+02  0.00000000000E+00 0.  1.
         11    1    3    3    0    0 -0.29486338794E+01 -0.23870421838E+01  0.56631992823E+01  0.68164681848E+01  0.51100000000E-03 0.  1.
        -11    1    3    3    0    0  0.34425059134E+02 -0.13664302903E+02 -0.18889526845E+02  0.41576581087E+02  0.51100000000E-03 0. -1.
         12    1    3    3    0    0 -0.10274910458E+02 -0.36622530931E+01 -0.13735998091E+00  0.10908929847E+02  0.00000000000E+00 0. -1.
</event>
<event>
 7    1  0.1138240E-011  0.5930195E+02  0.7816164E-02  0.1266605E+00
        -11   -1    0    0    0    0  0.00000000000E+00  0.00000000000E+00  0.45593999997E+02  0.45594000000E+02  0.51100000000E-03 0. -1.
         11   -1    0    0    0    0 -0.00000000000E+00 -0.00000000000E+00 -0.45593999997E+02  0.45594000000E+02  0.51100000000E-03 0.  1.
    9900012    2    1    2    0    0 -0.17947051032E+02  0.26347092487E+02  0.67380742517E+00  0.59301953840E+02  0.50000017895E+02 0.  0.
        -12    1    1    2    0    0  0.17947051032E+02 -0.26347092487E+02 -0.67380742517E+00  0.31886046160E+02  0.00000000000E+00 0.  1.
         11    1    3    3    0    0  0.15656109076E+00  0.13180029893E+02  0.90717688412E+01  0.16001084011E+02  0.51100000000E-03 0. -1.
        -11    1    3    3    0    0  0.29743819741E+00 -0.25441405308E+01 -0.17323034240E+02  0.17511385898E+02  0.51100000000E-03 0.  1.
         12    1    3    3    0    0 -0.18401050320E+02  0.15711203125E+02  0.89250728243E+01  0.25789483931E+02  0.00000000000E+00 0. -1.
</event>
<event>
 7    1  0.1138240E-011  0.5930193E+02  0.7816164E-02  0.1266605E+00
        -11   -1    0    0    0    0  0.00000000000E+00  0.00000000000E+00  0.45593999997E+02  0.45594000000E+02  0.51100000000E-03 0.  1.
         11   -1    0    0    0    0 -0.00000000000E+00 -0.00000000000E+00 -0.45593999997E+02  0.45594000000E+02  0.51100000000E-03 0. -1.
    9900012    2    1    2    0    0  0.16197559258E+02  0.15391297609E+02 -0.22747927610E+02  0.59301934414E+02  0.49999982467E+02 0.  0.
        -12    1    1    2    0    0 -0.16197559258E+02 -0.15391297609E+02  0.22747927610E+02  0.31886065586E+02  0.00000000000E+00 0.  1.
         11    1    3    3    0    0  0.37753248431E+01  0.15957881617E+02 -0.67774139136E+01  0.17743742643E+02  0.51100000000E-03 0. -1.
        -11    1    3    3    0    0  0.96998852060E+01 -0.14523523425E+01  0.10826570678E+02  0.14608618458E+02  0.51100000000E-03 0.  1.
         12    1    3    3    0    0  0.27223492091E+01  0.88576833452E+00 -0.26797084375E+02  0.26949573313E+02  0.00000000000E+00 0. -1.
</event>
<event>
 7    1  0.1138240E-011  0.5930194E+02  0.7816164E-02  0.1266605E+00
        -11   -1    0    0    0    0  0.00000000000E+00  0.00000000000E+00  0.45593999997E+02  0.45594000000E+02  0.51100000000E-03 0.  1.
         11   -1    0    0    0    0 -0.00000000000E+00 -0.00000000000E+00 -0.45593999997E+02  0.45594000000E+02  0.51100000000E-03 0. -1.
    9900012    2    1    2    0    0  0.23076065595E+02  0.52214921589E+01 -0.21376432885E+02  0.59301942442E+02  0.49999997108E+02 0.  0.
        -12    1    1    2    0    0 -0.23076065595E+02 -0.52214921589E+01  0.21376432885E+02  0.31886057558E+02  0.00000000000E+00 0.  1.
         11    1    3    3    0    0  0.96695032243E+00 -0.91818209200E+01 -0.62820523582E+01  0.11167139760E+02  0.51100000000E-03 0. -1.
        -11    1    3    3    0    0  0.55195273779E+01  0.15922305632E+02  0.87962827342E+01  0.19009460522E+02  0.51100000000E-03 0.  1.
        -12    1    3    3    0    0  0.16589587895E+02 -0.15189925533E+01 -0.23890663261E+02  0.29125342160E+02  0.00000000000E+00 0.  1.
</event>
<event>
 7    1  0.1138240E-011  0.5930192E+02  0.7816164E-02  0.1266605E+00
        -11   -1    0    0    0    0  0.00000000000E+00  0.00000000000E+00  0.45593999997E+02  0.45594000000E+02  0.51100000000E-03 0. -1.
         11   -1    0    0    0    0 -0.00000000000E+00 -0.00000000000E+00 -0.45593999997E+02  0.45594000000E+02  0.51100000000E-03 0.  1.
    9900012    2    1    2    0    0 -0.35270254955E+01  0.30280114874E+02 -0.93486350832E+01  0.59301917714E+02  0.49999952010E+02 0.  0.
        -12    1    1    2    0    0  0.35270254955E+01 -0.30280114874E+02  0.93486350832E+01  0.31886082286E+02  0.00000000000E+00 0.  1.
         11    1    3    3    0    0  0.24304725074E+01  0.17397607617E+02 -0.42788032077E+01  0.18080157758E+02  0.51100000000E-03 0. -1.
        -11    1    3    3    0    0 -0.15145782266E+02  0.17041402682E+02 -0.14820893037E+02  0.27193068905E+02  0.51100000000E-03 0.  1.
         12    1    3    3    0    0  0.91882842628E+01 -0.41588954249E+01  0.97510611611E+01  0.14028691051E+02  0.00000000000E+00 0. -1.
</event>
<event>
 7    1  0.1138240E-011  0.5930196E+02  0.7816164E-02  0.1266605E+00
        -11   -1    0    0    0    0  0.00000000000E+00  0.00000000000E+00  0.45593999997E+02  0.45594000000E+02  0.51100000000E-03 0.  1.
         11   -1    0    0    0    0 -0.00000000000E+00 -0.00000000000E+00 -0.45593999997E+02  0.45594000000E+02  0.51100000000E-03 0. -1.
    9900012    2    1    2    0    0 -0.99099755985E+01 -0.27326587634E+02 -0.13106081451E+02  0.59301962631E+02  0.50000033928E+02 0.  0.
        -12    1    1    2    0    0  0.99099755985E+01  0.27326587634E+02  0.13106081451E+02  0.31886037369E+02  0.00000000000E+00 0.  1.
         11    1    3    3    0    0  0.27186139663E+01  0.43969058488E+01 -0.11712644395E+01  0.53005191811E+01  0.51100000000E-03 0. -1.
        -11    1    3    3    0    0 -0.70725666985E+01  0.55415841510E+01  0.74118684983E+01  0.11647581273E+02  0.51100000000E-03 0.  1.
         12    1    3    3    0    0 -0.55560228664E+01 -0.37265077634E+02 -0.19346685509E+02  0.42353862177E+02  0.00000000000E+00 0. -1.
</event>
<event>
 7    1  0.1138240E-011  0.5930196E+02  0.7816164E-02  0.1266605E+00
        -11   -1    0    0    0    0  0.00000000000E+00  0.00000000000E+00  0.45593999997E+02  0.45594000000E+02  0.51100000000E-03 0. -1.
         11   -1    0    0    0    0 -0.00000000000E+00 -0.00000000000E+00 -0.45593999997E+02  0.45594000000E+02  0.51100000000E-03 0.  1.
    9900012    2    1    2    0    0 -0.12911688908E+02 -0.18150305127E+01 -0.29098347337E+02  0.59301955028E+02  0.50000020061E+02 0.  0.
        -12    1    1    2    0    0  0.12911688908E+02  0.18150305127E+01  0.29098347337E+02  0.31886044972E+02  0.00000000000E+00 0.  1.
         11    1    3    3    0    0 -0.47827767608E+01 -0.13152052496E+02  0.30086367431E+01  0.14314444932E+02  0.51100000000E-03 0. -1.
        -11    1    3    3    0    0  0.71445849499E+01 -0.11121785778E+01 -0.21343476766E+02  0.22534995807E+02  0.51100000000E-03 0.  1.
         12    1    3    3    0    0 -0.15273497097E+02  0.12449200561E+02 -0.10763507314E+02  0.22452514289E+02  0.00000000000E+00 0. -1.
</event>
<event>
 7    1  0.1138240E-011  0.5930199E+02  0.7816164E-02  0.1266605E+00
        -11   -1    0    0    0    0  0.00000000000E+00  0.00000000000E+00  0.45593999997E+02  0.45594000000E+02  0.51100000000E-03 0.  1.
         11   -1    0    0    0    0 -0.00000000000E+00 -0.00000000000E+00 -0.45593999997E+02  0.45594000000E+02  0.51100000000E-03 0. -1.
    9900012    2    1    2    0    0  0.23937993718E+02  0.12599291244E+02 -0.16880410529E+02  0.59301985155E+02  0.50000075005E+02 0.  0.
        -12    1    1    2    0    0 -0.23937993718E+02 -0.12599291244E+02  0.16880410529E+02  0.31886014845E+02  0.00000000000E+00 0.  1.
         11    1    3    3    0    0 -0.14070558571E+01  0.10655666052E+01  0.57018316266E+01  0.59687622280E+01  0.51100000000E-03 0.  1.
        -11    1    3    3    0    0  0.12939186418E+02  0.25242373222E+02 -0.19902650876E+02  0.34651341435E+02  0.51100000000E-03 0. -1.
         12    1    3    3    0    0  0.12405863157E+02 -0.13708648584E+02 -0.26795912796E+01  0.18681881492E+02  0.00000000000E+00 0. -1.
</event>
<event>
 7    1  0.1138240E-011  0.5930195E+02  0.7816164E-02  0.1266605E+00
        -11   -1    0    0    0    0  0.00000000000E+00  0.00000000000E+00  0.45593999997E+02  0.45594000000E+02  0.51100000000E-03 0. -1.
         11   -1    0    0    0    0 -0.00000000000E+00 -0.00000000000E+00 -0.45593999997E+02  0.45594000000E+02  0.51100000000E-03 0.  1.
    9900012    2    1    2    0    0  0.16700531147E+02 -0.12834945842E+01  0.27132362321E+02  0.59301950008E+02  0.50000010907E+02 0.  0.
        -12    1    1    2    0    0 -0.16700531147E+02  0.12834945842E+01 -0.27132362321E+02  0.31886049992E+02  0.00000000000E+00 0.  1.
         11    1    3    3    0    0 -0.37143746044E+01 -0.72409206485E+00  0.15022116084E+00  0.37872753634E+01  0.51100000000E-03 0. -1.
        -11    1    3    3    0    0  0.16227225799E+01 -0.20738916357E+02  0.95304067607E+01  0.22881532586E+02  0.51100000000E-03 0.  1.
        -12    1    3    3    0    0  0.18792183171E+02  0.20179513837E+02  0.17451734400E+02  0.32633142059E+02  0.00000000000E+00 0.  1.
</event>
<event>
 7    1  0.1138240E-011  0.5930195E+02  0.7816164E-02  0.1266605E+00
        -11   -1    0    0    0    0  0.00000000000E+00  0.00000000000E+00  0.45593999997E+02  0.45594000000E+02  0.51100000000E-03 0.  1.
         11   -1    0    0    0    0 -0.00000000000E+00 -0.00000000000E+00 -0.45593999997E+02  0.45594000000E+02  0.51100000000E-03 0. -1.
    9900012    2    1    2    0    0 -0.11923523734E+02  0.38042628056E+01 -0.29327074959E+02  0.59301950396E+02  0.50000011614E+02 0.  0.
        -12    1    1    2    0    0  0.11923523734E+02 -0.38042628056E+01  0.29327074959E+02  0.31886049604E+02  0.00000000000E+00 0.  1.
         11    1    3    3    0    0  0.42057675479E+01  0.12118907502E+02 -0.78317761467E+01  0.15029741102E+02  0.51100000000E-03 0. -1.
        -11    1    3    3    0    0  0.10240691739E+02 -0.14954429199E+01 -0.14427103735E+01  0.10449379422E+02  0.51100000000E-03 0.  1.
         12    1    3    3    0    0 -0.26369983022E+02 -0.68192017768E+01 -0.20052588439E+02  0.33822829871E+02  0.00000000000E+00 0. -1.
</event>
<event>
 7    1  0.1138240E-011  0.5930195E+02  0.7816164E-02  0.1266605E+00
        -11   -1    0    0    0    0  0.00000000000E+00  0.00000000000E+00  0.45593999997E+02  0.45594000000E+02  0.51100000000E-03 0. -1.
         11   -1    0    0    0    0 -0.00000000000E+00 -0.00000000000E+00 -0.45593999997E+02  0.45594000000E+02  0.51100000000E-03 0.  1.
    9900012    2    1    2    0    0 -0.92428315039E+01  0.27004650426E+02  0.14214045812E+02  0.59301950116E+02  0.50000011104E+02 0.  0.
        -12    1    1    2    0    0  0.92428315039E+01 -0.27004650426E+02 -0.14214045812E+02  0.31886049884E+02  0.00000000000E+00 0.  1.
         11    1    3    3    0    0 -0.46935485556E+01 -0.58874060636E+01  0.18404474428E+01  0.77510125308E+01  0.51100000000E-03 0. -1.
        -11    1    3    3    0    0  0.69783533370E+01  0.32231226846E+02  0.19177606689E+02  0.38148787633E+02  0.51100000000E-03 0.  1.
         12    1    3    3    0    0 -0.11527636285E+02  0.66082964366E+00 -0.68040083194E+01  0.13402149953E+02  0.00000000000E+00 0. -1.
</event>
<event>
 7    1  0.1138240E-011  0.5930196E+02  0.7816164E-02  0.1266605E+00
        -11   -1    0    0    0    0  0.00000000000E+00  0.00000000000E+00  0.45593999997E+02  0.45594000000E+02  0.51100000000E-03 0.  1.
         11   -1    0    0    0    0 -0.00000000000E+00 -0.00000000000E+00 -0.45593999997E+02  0.45594000000E+02  0.51100000000E-03 0. -1.
    9900012    2    1    2    0    0 -0.18304134072E+02 -0.73197744308E+00 -0.26098702554E+02  0.59301962458E+02  0.50000033613E+02 0.  0.
        -12    1    1    2    0    0  0.18304134072E+02  0.73197744308E+00  0.26098702554E+02  0.31886037542E+02  0.00000000000E+00 0.  1.
         11    1    3    3    0    0  0.39235364524E+01 -0.14730501972E+01 -0.84494194178E+00  0.42752710234E+01  0.51100000000E-03 0. -1.
        -11    1    3    3    0    0 -0.56994438035E+01  0.19971070600E+02 -0.24288662345E+01  0.20909966811E+02  0.51100000000E-03 0.  1.
         12    1    3    3    0    0 -0.16528226721E+02 -0.19229997846E+02 -0.22824894378E+02  0.34116724624E+02  0.00000000000E+00 0. -1.
</event>
<event>
 7    1  0.1138240E-011  0.5930194E+02  0.7816164E-02  0.1266605E+00
        -11   -1    0    0    0    0  0.00000000000E+00  0.00000000000E+00  0.45593999997E+02  0.45594000000E+02  0.51100000000E-03 0.  1.
         11   -1    0    0    0    0 -0.00000000000E+00 -0.00000000000E+00 -0.45593999997E+02  0.45594000000E+02  0.51100000000E-03 0. -1.
    9900012    2    1    2    0    0 -0.12301802248E+02  0.27750127696E+02 -0.97630449588E+01  0.59301937644E+02  0.49999988357E+02 0.  0.
        -12    1    1    2    0    0  0.12301802248E+02 -0.27750127696E+02  0.97630449588E+01  0.31886062356E+02  0.00000000000E+00 0.  1.
         11    1    3    3    0    0  0.18512321327E+00  0.75119351616E+01  0.30630815477E+01  0.81145492361E+01  0.51100000000E-03 0. -1.
        -11    1    3    3    0    0  0.10181340706E+02  0.31321451996E+01  0.10108018398E+02  0.14684756325E+02  0.51100000000E-03 0.  1.
         12    1    3    3    0    0 -0.22668266167E+02  0.17106047335E+02 -0.22934144905E+02  0.36502632083E+02  0.00000000000E+00 0. -1.
</event>
<event>
 7    1  0.1138240E-011  0.5930202E+02  0.7816164E-02  0.1266605E+00
        -11   -1    0    0    0    0  0.00000000000E+00  0.00000000000E+00  0.45593999997E+02  0.45594000000E+02  0.51100000000E-03 0. -1.
         11   -1    0    0    0    0 -0.00000000000E+00 -0.00000000000E+00 -0.45593999997E+02  0.45594000000E+02  0.51100000000E-03 0.  1.
    9900012    2    1    2    0    0  0.55811240821E+01 -0.15206026826E+02  0.27465320454E+02  0.59302015218E+02  0.50000129833E+02 0.  0.
        -12    1    1    2    0    0 -0.55811240821E+01  0.15206026826E+02 -0.27465320454E+02  0.31885984782E+02  0.00000000000E+00 0.  1.
         11    1    3    3    0    0 -0.10799869693E+02 -0.17783979242E+02  0.19180903769E+02  0.28298660263E+02  0.51100000000E-03 0. -1.
        -11    1    3    3    0    0  0.19160544027E+02 -0.63848235118E+01  0.76549104892E+01  0.21598381271E+02  0.51100000000E-03 0.  1.
         12    1    3    3    0    0 -0.27795502523E+01  0.89627759273E+01  0.62950619630E+00  0.94049736831E+01  0.00000000000E+00 0. -1.
</event>
<event>
 7    1  0.1138240E-011  0.5930198E+02  0.7816164E-02  0.1266605E+00
        -11   -1    0    0    0    0  0.00000000000E+00  0.00000000000E+00  0.45593999997E+02  0.45594000000E+02  0.51100000000E-03 0.  1.
         11   -1    0    0    0    0 -0.00000000000E+00 -0.00000000000E+00 -0.45593999997E+02  0.45594000000E+02  0.51100000000E-03 0. -1.
    9900012    2    1    2    0    0 -0.76822474498E+01 -0.30922517406E+02 -0.12244623146E+01  0.59301979292E+02  0.50000064314E+02 0.  0.
        -12    1    1    2    0    0  0.76822474498E+01  0.30922517406E+02  0.12244623146E+01  0.31886020708E+02  0.00000000000E+00 0.  1.
         11    1    3    3    0    0 -0.17614201632E+01 -0.29574231861E+02 -0.94204215807E+01  0.31088295775E+02  0.51100000000E-03 0. -1.
        -11    1    3    3    0    0 -0.54614671609E+01 -0.12865419732E+02  0.90580837523E+01  0.16655195284E+02  0.51100000000E-03 0.  1.
         12    1    3    3    0    0 -0.45936012570E+00  0.11517134187E+02 -0.86212448615E+00  0.11558488233E+02  0.00000000000E+00 0. -1.
</event>
<event>
 7    1  0.1138240E-011  0.5930198E+02  0.7816164E-02  0.1266605E+00
        -11   -1    0    0    0    0  0.00000000000E+00  0.00000000000E+00  0.45593999997E+02  0.45594000000E+02  0.51100000000E-03 0. -1.
         11   -1    0    0    0    0 -0.00000000000E+00 -0.00000000000E+00 -0.45593999997E+02  0.45594000000E+02  0.51100000000E-03 0.  1.
    9900012    2    1    2    0    0 -0.21916634587E+02  0.22209707002E+02 -0.65657093960E+01  0.59301976469E+02  0.50000059165E+02 0.  0.
        -12    1    1    2    0    0  0.21916634587E+02 -0.22209707002E+02  0.65657093960E+01  0.31886023531E+02  0.00000000000E+00 0.  1.
         11    1    3    3    0    0  0.36901779351E+01  0.18225208261E+02 -0.97227724936E-01  0.18595297331E+02  0.51100000000E-03 0. -1.
        -11    1    3    3    0    0 -0.25824943327E+02  0.12372305537E+02 -0.11572408988E+02  0.30885632456E+02  0.51100000000E-03 0.  1.
        -12    1    3    3    0    0  0.21813080530E+00 -0.83878067952E+01  0.51039273167E+01  0.98210466823E+01  0.00000000000E+00 0.  1.
</event>
<event>
 7    1  0.1138240E-011  0.5930196E+02  0.7816164E-02  0.1266605E+00
        -11   -1    0    0    0    0  0.00000000000E+00  0.00000000000E+00  0.45593999997E+02  0.45594000000E+02  0.51100000000E-03 0. -1.
         11   -1    0    0    0    0 -0.00000000000E+00 -0.00000000000E+00 -0.45593999997E+02  0.45594000000E+02  0.51100000000E-03 0.  1.
    9900012    2    1    2    0    0 -0.13113501979E+02  0.15719485689E+02  0.24446949117E+02  0.59301960960E+02  0.50000030881E+02 0.  0.
        -12    1    1    2    0    0  0.13113501979E+02 -0.15719485689E+02 -0.24446949117E+02  0.31886039040E+02  0.00000000000E+00 0.  1.
         11    1    3    3    0    0 -0.80937322621E+00 -0.32155470932E+01  0.56684915626E+01  0.65670864913E+01  0.51100000000E-03 0. -1.
        -11    1    3    3    0    0  0.93428279046E+01  0.49284854207E+01  0.24184783186E+02  0.26390948066E+02  0.51100000000E-03 0.  1.
         12    1    3    3    0    0 -0.21646956657E+02  0.14006547362E+02 -0.54063256311E+01  0.26343926403E+02  0.00000000000E+00 0. -1.
</event>
<event>
 7    1  0.1138240E-011  0.5930195E+02  0.7816164E-02  0.1266605E+00
        -11   -1    0    0    0    0  0.00000000000E+00  0.00000000000E+00  0.45593999997E+02  0.45594000000E+02  0.51100000000E-03 0.  1.
         11   -1    0    0    0    0 -0.00000000000E+00 -0.00000000000E+00 -0.45593999997E+02  0.45594000000E+02  0.51100000000E-03 0. -1.
    9900012    2    1    2    0    0  0.55154743571E+01  0.22617425271E+02 -0.21788801280E+02  0.59301949061E+02  0.50000009179E+02 0.  0.
        -12    1    1    2    0    0 -0.55154743571E+01 -0.22617425271E+02  0.21788801280E+02  0.31886050939E+02  0.00000000000E+00 0.  1.
         11    1    3    3    0    0 -0.82273291668E+01  0.14011801882E+02 -0.34360119731E+01  0.16608001558E+02  0.51100000000E-03 0. -1.
        -11    1    3    3    0    0 -0.89013158161E+01 -0.36432723105E+01  0.20629169262E+01  0.98367923070E+01  0.51100000000E-03 0.  1.
        -12    1    3    3    0    0  0.22644119340E+02  0.12248895699E+02 -0.20415706233E+02  0.32857155196E+02  0.00000000000E+00 0.  1.
</event>
<event>
 7    1  0.1138240E-011  0.5930192E+02  0.7816164E-02  0.1266605E+00
        -11   -1    0    0    0    0  0.00000000000E+00  0.00000000000E+00  0.45593999997E+02  0.45594000000E+02  0.51100000000E-03 0.  1.
         11   -1    0    0    0    0 -0.00000000000E+00 -0.00000000000E+00 -0.45593999997E+02  0.45594000000E+02  0.51100000000E-03 0. -1.
    9900012    2    1    2    0    0  0.69952606327E+00  0.31781593213E+02 -0.24826185068E+01  0.59301915284E+02  0.49999947578E+02 0.  0.
        -12    1    1    2    0    0 -0.69952606327E+00 -0.31781593213E+02  0.24826185068E+01  0.31886084716E+02  0.00000000000E+00 0.  1.
         11    1    3    3    0    0  0.46438419259E+01  0.12407854059E+02 -0.80244348055E+01  0.15489082103E+02  0.51100000000E-03 0. -1.
        -11    1    3    3    0    0 -0.48603127672E+01 -0.10596381877E+02  0.73378460825E+01  0.13774974936E+02  0.51100000000E-03 0.  1.
         12    1    3    3    0    0  0.91599690451E+00  0.29970121032E+02 -0.17960297839E+01  0.30037858245E+02  0.00000000000E+00 0. -1.
</event>
<event>
 7    1  0.1138240E-011  0.5930192E+02  0.7816164E-02  0.1266605E+00
        -11   -1    0    0    0    0  0.00000000000E+00  0.00000000000E+00  0.45593999997E+02  0.45594000000E+02  0.51100000000E-03 0.  1.
         11   -1    0    0    0    0 -0.00000000000E+00 -0.00000000000E+00 -0.45593999997E+02  0.45594000000E+02  0.51100000000E-03 0. -1.
    9900012    2    1    2    0    0  0.22440935707E+01 -0.84809048157E+01 -0.30655516617E+02  0.59301915237E+02  0.49999947492E+02 0.  0.
        -12    1    1    2    0    0 -0.22440935707E+01  0.84809048157E+01  0.30655516617E+02  0.31886084763E+02  0.00000000000E+00 0.  1.
         11    1    3    3    0    0 -0.26554559313E+01  0.39339242263E+01 -0.18361303991E+02  0.18964827722E+02  0.51100000000E-03 0. -1.
        -11    1    3    3    0    0  0.81691538809E+01  0.14712782669E+01 -0.21710910165E+02  0.23243565891E+02  0.51100000000E-03 0.  1.
        -12    1    3    3    0    0 -0.32696043789E+01 -0.13886107309E+02  0.94166975383E+01  0.17093521624E+02  0.00000000000E+00 0.  1.
</event>
<event>
 7    1  0.1138240E-011  0.5930194E+02  0.7816164E-02  0.1266605E+00
        -11   -1    0    0    0    0  0.00000000000E+00  0.00000000000E+00  0.45593999997E+02  0.45594000000E+02  0.51100000000E-03 0.  1.
         11   -1    0    0    0    0 -0.00000000000E+00 -0.00000000000E+00 -0.45593999997E+02  0.45594000000E+02  0.51100000000E-03 0. -1.
    9900012    2    1    2    0    0  0.12015511441E+02 -0.28647929219E+02 -0.71864110230E+01  0.59301939298E+02  0.49999991374E+02 0.  0.
        -12    1    1    2    0    0 -0.12015511441E+02  0.28647929219E+02  0.71864110230E+01  0.31886060702E+02  0.00000000000E+00 0.  1.
         11    1    3    3    0    0 -0.91210854621E+00 -0.24310660467E+01  0.74961066413E+01  0.79330724920E+01  0.51100000000E-03 0.  1.
        -11    1    3    3    0    0  0.26473050430E+02 -0.23388613476E+02 -0.93693120766E+01  0.36546321955E+02  0.51100000000E-03 0. -1.
         12    1    3    3    0    0 -0.13545430443E+02 -0.28282496961E+01 -0.53132055877E+01  0.14822544850E+02  0.00000000000E+00 0. -1.
</event>
<event>
 7    1  0.1138240E-011  0.5930193E+02  0.7816164E-02  0.1266605E+00
        -11   -1    0    0    0    0  0.00000000000E+00  0.00000000000E+00  0.45593999997E+02  0.45594000000E+02  0.51100000000E-03 0. -1.
         11   -1    0    0    0    0 -0.00000000000E+00 -0.00000000000E+00 -0.45593999997E+02  0.45594000000E+02  0.51100000000E-03 0.  1.
    9900012    2    1    2    0    0 -0.98887530423E+01 -0.28608046351E+02  0.10025637324E+02  0.59301934760E+02  0.49999983098E+02 0.  0.
        -12    1    1    2    0    0  0.98887530423E+01  0.28608046351E+02 -0.10025637324E+02  0.31886065240E+02  0.00000000000E+00 0.  1.
         11    1    3    3    0    0 -0.62852343480E+01 -0.19086815789E+02  0.35741745823E+01  0.20410424590E+02  0.51100000000E-03 0. -1.
        -11    1    3    3    0    0  0.10438471340E+02 -0.11007600316E+02 -0.92554732568E+01  0.17770558069E+02  0.51100000000E-03 0.  1.
        -12    1    3    3    0    0 -0.14041990035E+02  0.14863697534E+01  0.15706935998E+02  0.21120952100E+02  0.00000000000E+00 0.  1.
</event>
<event>
 7    1  0.1447392E-011  0.5930194E+02  0.7816164E-02  0.1266605E+00
        -11   -1    0    0    0    0  0.00000000000E+00  0.00000000000E+00  0.45593999997E+02  0.45594000000E+02  0.51100000000E-03 0. -1.
         11   -1    0    0    0    0 -0.00000000000E+00 -0.00000000000E+00 -0.45593999997E+02  0.45594000000E+02  0.51100000000E-03 0.  1.
    9900012    2    1    2    0    0 -0.95896638264E+01 -0.14935771283E+02  0.26489275246E+02  0.59301943185E+02  0.49999998464E+02 0.  0.
        -12    1    1    2    0    0  0.95896638264E+01  0.14935771283E+02 -0.26489275246E+02  0.31886056815E+02  0.00000000000E+00 0.  1.
         11    1    3    3    0    0 -0.15118147817E+02 -0.11368256012E+01  0.21215821787E+02  0.26076078314E+02  0.51100000000E-03 0. -1.
        -11    1    3    3    0    0 -0.83615067391E+01  0.31119520718E+01 -0.35873483993E+01  0.96160339768E+01  0.51100000000E-03 0.  1.
         12    1    3    3    0    0  0.13889990730E+02 -0.16910897753E+02  0.88608018585E+01  0.23609830894E+02  0.00000000000E+00 0. -1.
</event>
<event>
 7    1  0.1138240E-011  0.5930208E+02  0.7816164E-02  0.1266604E+00
        -11   -1    0    0    0    0  0.00000000000E+00  0.00000000000E+00  0.45593999997E+02  0.45594000000E+02  0.51100000000E-03 0.  1.
         11   -1    0    0    0    0 -0.00000000000E+00 -0.00000000000E+00 -0.45593999997E+02  0.45594000000E+02  0.51100000000E-03 0. -1.
    9900012    2    1    2    0    0  0.16303482388E+02  0.15827172262E+02 -0.22369825467E+02  0.59302078166E+02  0.50000244636E+02 0.  0.
        -12    1    1    2    0    0 -0.16303482388E+02 -0.15827172262E+02  0.22369825467E+02  0.31885921834E+02  0.00000000000E+00 0.  1.
         11    1    3    3    0    0  0.61825375432E+01  0.86766639096E+00 -0.32953570669E+01  0.70594613037E+01  0.51100000000E-03 0. -1.
        -11    1    3    3    0    0 -0.11512152319E+02 -0.95856574979E+01 -0.13731963577E+01  0.15043275879E+02  0.51100000000E-03 0.  1.
         12    1    3    3    0    0  0.21633097163E+02  0.24545163369E+02 -0.17701272042E+02  0.37199340983E+02  0.00000000000E+00 0. -1.
</event>
<event>
 7    1  0.1138240E-011  0.5930195E+02  0.7816164E-02  0.1266605E+00
        -11   -1    0    0    0    0  0.00000000000E+00  0.00000000000E+00  0.45593999997E+02  0.45594000000E+02  0.51100000000E-03 0.  1.
         11   -1    0    0    0    0 -0.00000000000E+00 -0.00000000000E+00 -0.45593999997E+02  0.45594000000E+02  0.51100000000E-03 0. -1.
    9900012    2    1    2    0    0  0.67791052959E+01 -0.30286393976E+02  0.73142615356E+01  0.59301947398E+02  0.50000006147E+02 0.  0.
        -12    1    1    2    0    0 -0.67791052959E+01  0.30286393976E+02 -0.73142615356E+01  0.31886052602E+02  0.00000000000E+00 0.  1.
         11    1    3    3    0    0  0.17655540178E+02 -0.34584358588E+02  0.10792358305E+02  0.40302245049E+02  0.51100000000E-03 0. -1.
        -11    1    3    3    0    0  0.36157025689E+01  0.44261957362E+00 -0.11761443006E+01  0.38278626975E+01  0.51100000000E-03 0.  1.
        -12    1    3    3    0    0 -0.14492137451E+02  0.38553450379E+01 -0.23019524688E+01  0.15171839652E+02  0.00000000000E+00 0.  1.
</event>
<event>
 7    1  0.1138240E-011  0.5930191E+02  0.7816164E-02  0.1266605E+00
        -11   -1    0    0    0    0  0.00000000000E+00  0.00000000000E+00  0.45593999997E+02  0.45594000000E+02  0.51100000000E-03 0.  1.
         11   -1    0    0    0    0 -0.00000000000E+00 -0.00000000000E+00 -0.45593999997E+02  0.45594000000E+02  0.51100000000E-03 0. -1.
    9900012    2    1    2    0    0 -0.13244169801E+02  0.25577184856E+02 -0.13679264944E+02  0.59301910426E+02  0.49999938719E+02 0.  0.
        -12    1    1    2    0    0  0.13244169801E+02 -0.25577184856E+02  0.13679264944E+02  0.31886089574E+02  0.00000000000E+00 0.  1.
         11    1    3    3    0    0  0.92659548556E+01  0.23508333055E+02 -0.19364604001E+01  0.25342642355E+02  0.51100000000E-03 0. -1.
        -11    1    3    3    0    0 -0.76281229249E+01 -0.82759800817E+01  0.17146854615E+01  0.11385089027E+02  0.51100000000E-03 0.  1.
        -12    1    3    3    0    0 -0.14882001732E+02  0.10344831883E+02 -0.13457490006E+02  0.22574179044E+02  0.00000000000E+00 0.  1.
</event>
<event>
 7    1  0.1138240E-011  0.5930196E+02  0.7816164E-02  0.1266605E+00
        -11   -1    0    0    0    0  0.00000000000E+00  0.00000000000E+00  0.45593999997E+02  0.45594000000E+02  0.51100000000E-03 0.  1.
         11   -1    0    0    0    0 -0.00000000000E+00 -0.00000000000E+00 -0.45593999997E+02  0.45594000000E+02  0.51100000000E-03 0. -1.
    9900012    2    1    2    0    0  0.24912113888E+02  0.49692606907E+01 -0.19272070169E+02  0.59301958245E+02  0.50000025929E+02 0.  0.
        -12    1    1    2    0    0 -0.24912113888E+02 -0.49692606907E+01  0.19272070169E+02  0.31886041755E+02  0.00000000000E+00 0.  1.
         11    1    3    3    0    0  0.25456031267E+01 -0.63519779868E+01  0.76400899796E+01  0.10256641496E+02  0.51100000000E-03 0. -1.
        -11    1    3    3    0    0  0.52925018760E+01  0.55793393427E+01  0.71580827518E+01  0.10506081694E+02  0.51100000000E-03 0.  1.
         12    1    3    3    0    0  0.17074008886E+02  0.57418993347E+01 -0.34070242900E+02  0.38539235056E+02  0.00000000000E+00 0. -1.
</event>
<event>
 7    1  0.1138240E-011  0.5930196E+02  0.7816164E-02  0.1266605E+00
        -11   -1    0    0    0    0  0.00000000000E+00  0.00000000000E+00  0.45593999997E+02  0.45594000000E+02  0.51100000000E-03 0.  1.
         11   -1    0    0    0    0 -0.00000000000E+00 -0.00000000000E+00 -0.45593999997E+02  0.45594000000E+02  0.51100000000E-03 0. -1.
    9900012    2    1    2    0    0  0.25771947756E+02 -0.62486860356E+01 -0.17705371285E+02  0.59301960098E+02  0.50000029309E+02 0.  0.
        -12    1    1    2    0    0 -0.25771947756E+02  0.62486860356E+01  0.17705371285E+02  0.31886039902E+02  0.00000000000E+00 0.  1.
         11    1    3    3    0    0 -0.51611478964E+00  0.28657174564E+01 -0.77028644474E+01  0.82348547026E+01  0.51100000000E-03 0. -1.
        -11    1    3    3    0    0  0.34132763471E+01 -0.94866853704E+01  0.14425095789E+02  0.17599177353E+02  0.51100000000E-03 0.  1.
         12    1    3    3    0    0  0.22874786198E+02  0.37228187841E+00 -0.24427602626E+02  0.33467928042E+02  0.00000000000E+00 0. -1.
</event>
<event>
 7    1  0.1138240E-011  0.5930196E+02  0.7816164E-02  0.1266605E+00
        -11   -1    0    0    0    0  0.00000000000E+00  0.00000000000E+00  0.45593999997E+02  0.45594000000E+02  0.51100000000E-03 0. -1.
         11   -1    0    0    0    0 -0.00000000000E+00 -0.00000000000E+00 -0.45593999997E+02  0.45594000000E+02  0.51100000000E-03 0.  1.
    9900012    2    1    2    0    0 -0.30757765381E+02 -0.80791637397E+01  0.23252491065E+01  0.59301956009E+02  0.50000021852E+02 0.  0.
        -12    1    1    2    0    0  0.30757765381E+02  0.80791637397E+01 -0.23252491065E+01  0.31886043991E+02  0.00000000000E+00 0.  1.
         11    1    3    3    0    0 -0.19069768502E+02  0.13828561311E+01  0.16185623264E+01  0.19188228320E+02  0.51100000000E-03 0. -1.
        -11    1    3    3    0    0 -0.23976463995E+02 -0.33682163600E+01  0.67347746825E+01  0.25131114131E+02  0.51100000000E-03 0.  1.
        -12    1    3    3    0    0  0.12288467116E+02 -0.60938035109E+01 -0.60280879025E+01  0.14982613559E+02  0.00000000000E+00 0.  1.
</event>
<event>
 7    1  0.1138240E-011  0.5930204E+02  0.7816164E-02  0.1266604E+00
        -11   -1    0    0    0    0  0.00000000000E+00  0.00000000000E+00  0.45593999997E+02  0.45594000000E+02  0.51100000000E-03 0.  1.
         11   -1    0    0    0    0 -0.00000000000E+00 -0.00000000000E+00 -0.45593999997E+02  0.45594000000E+02  0.51100000000E-03 0. -1.
    9900012    2    1    2    0    0 -0.13760205979E+01  0.31622855796E+02  0.38491305274E+01  0.59302043103E+02  0.50000180690E+02 0.  0.
        -12    1    1    2    0    0  0.13760205979E+01 -0.31622855796E+02 -0.38491305274E+01  0.31885956897E+02  0.00000000000E+00 0.  1.
         11    1    3    3    0    0  0.47313405378E+01  0.18841364537E+01 -0.76508023245E+01  0.91907741748E+01  0.51100000000E-03 0. -1.
        -11    1    3    3    0    0 -0.48414866116E+01 -0.84411005704E+01 -0.13124706339E+01  0.98191013273E+01  0.51100000000E-03 0.  1.
         12    1    3    3    0    0 -0.12658745241E+01  0.38179819913E+02  0.12812403486E+02  0.40292167601E+02  0.00000000000E+00 0. -1.
</event>
<event>
 7    1  0.1138240E-011  0.5930177E+02  0.7816164E-02  0.1266605E+00
        -11   -1    0    0    0    0  0.00000000000E+00  0.00000000000E+00  0.45593999997E+02  0.45594000000E+02  0.51100000000E-03 0.  1.
         11   -1    0    0    0    0 -0.00000000000E+00 -0.00000000000E+00 -0.45593999997E+02  0.45594000000E+02  0.51100000000E-03 0. -1.
    9900012    2    1    2    0    0  0.34026268313E+01 -0.26538431400E+02 -0.17345482643E+02  0.59301765060E+02  0.49999673605E+02 0.  0.
        -12    1    1    2    0    0 -0.34026268313E+01  0.26538431400E+02  0.17345482643E+02  0.31886234940E+02  0.00000000000E+00 0.  1.
         11    1    3    3    0    0  0.13208591077E+02 -0.11836276513E+02  0.13912909395E+02  0.22541813770E+02  0.51100000000E-03 0.  1.
        -11    1    3    3    0    0 -0.24912812719E+01 -0.28162254884E+01 -0.14356411541E+02  0.14840625356E+02  0.51100000000E-03 0. -1.
        -12    1    3    3    0    0 -0.73146829738E+01 -0.11885929398E+02 -0.16901980497E+02  0.21919325934E+02  0.00000000000E+00 0.  1.
</event>
<event>
 7    1  0.1138240E-011  0.5930185E+02  0.7816164E-02  0.1266605E+00
        -11   -1    0    0    0    0  0.00000000000E+00  0.00000000000E+00  0.45593999997E+02  0.45594000000E+02  0.51100000000E-03 0.  1.
         11   -1    0    0    0    0 -0.00000000000E+00 -0.00000000000E+00 -0.45593999997E+02  0.45594000000E+02  0.51100000000E-03 0. -1.
    9900012    2    1    2    0    0 -0.69308677438E+01 -0.40136454277E+01 -0.30863896152E+02  0.59301853118E+02  0.49999834203E+02 0.  0.
        -12    1    1    2    0    0  0.69308677438E+01  0.40136454277E+01  0.30863896152E+02  0.31886146882E+02  0.00000000000E+00 0.  1.
         11    1    3    3    0    0  0.32283428293E+01  0.47126625838E+01 -0.19010055065E+02  0.19849775311E+02  0.51100000000E-03 0. -1.
        -11    1    3    3    0    0  0.13089952586E+02 -0.12194709688E+01 -0.31680740314E+01  0.13522967924E+02  0.51100000000E-03 0.  1.
        -12    1    3    3    0    0 -0.23249163159E+02 -0.75068370427E+01 -0.86857670552E+01  0.25929109883E+02  0.00000000000E+00 0.  1.
</event>
<event>
 7    1  0.1138240E-011  0.5930203E+02  0.7816164E-02  0.1266604E+00
        -11   -1    0    0    0    0  0.00000000000E+00  0.00000000000E+00  0.45593999997E+02  0.45594000000E+02  0.51100000000E-03 0. -1.
         11   -1    0    0    0    0 -0.00000000000E+00 -0.00000000000E+00 -0.45593999997E+02  0.45594000000E+02  0.51100000000E-03 0.  1.
    9900012    2    1    2    0    0 -0.15397196874E+01  0.11673005566E+02  0.29632505364E+02  0.59302028637E+02  0.50000154306E+02 0.  0.
        -12    1    1    2    0    0  0.15397196874E+01 -0.11673005566E+02 -0.29632505364E+02  0.31885971363E+02  0.00000000000E+00 0.  1.
         11    1    3    3    0    0 -0.64115599513E+01 -0.46931052561E+01  0.31351659243E+02  0.32342848909E+02  0.51100000000E-03 0. -1.
        -11    1    3    3    0    0 -0.78524003024E+01  0.36026177296E+01  0.11293508794E+01  0.87128915226E+01  0.51100000000E-03 0.  1.
         12    1    3    3    0    0  0.12724240566E+02  0.12763493092E+02 -0.28485047592E+01  0.18246288205E+02  0.00000000000E+00 0. -1.
</event>
<event>
 7    1  0.1138240E-011  0.5930195E+02  0.7816164E-02  0.1266605E+00
        -11   -1    0    0    0    0  0.00000000000E+00  0.00000000000E+00  0.45593999997E+02  0.45594000000E+02  0.51100000000E-03 0.  1.
         11   -1    0    0    0    0 -0.00000000000E+00 -0.00000000000E+00 -0.45593999997E+02  0.45594000000E+02  0.51100000000E-03 0. -1.
    9900012    2    1    2    0    0 -0.27268190662E+02 -0.16349241528E+02  0.24224961256E+01  0.59301946496E+02  0.50000004502E+02 0.  0.
        -12    1    1    2    0    0  0.27268190662E+02  0.16349241528E+02 -0.24224961256E+01  0.31886053504E+02  0.00000000000E+00 0.  1.
         11    1    3    3    0    0 -0.14530495211E+02  0.95002017346E+01  0.71489550193E+01  0.18774894999E+02  0.51100000000E-03 0. -1.
        -11    1    3    3    0    0 -0.16992086129E+02 -0.64634354899E+01 -0.89064647379E+01  0.20244310404E+02  0.51100000000E-03 0.  1.
        -12    1    3    3    0    0  0.42543906780E+01 -0.19386007773E+02  0.41800058442E+01  0.20282741094E+02  0.00000000000E+00 0.  1.
</event>
<event>
 7    1  0.1138240E-011  0.5930188E+02  0.7816164E-02  0.1266605E+00
        -11   -1    0    0    0    0  0.00000000000E+00  0.00000000000E+00  0.45593999997E+02  0.45594000000E+02  0.51100000000E-03 0. -1.
         11   -1    0    0    0    0 -0.00000000000E+00 -0.00000000000E+00 -0.45593999997E+02  0.45594000000E+02  0.51100000000E-03 0.  1.
    9900012    2    1    2    0    0  0.10130598331E+02  0.10456457378E+02  0.28368262046E+02  0.59301877392E+02  0.49999878472E+02 0.  0.
        -12    1    1    2    0    0 -0.10130598331E+02 -0.10456457378E+02 -0.28368262046E+02  0.31886122608E+02  0.00000000000E+00 0.  1.
         11    1    3    3    0    0  0.24240473730E+02  0.18293101010E+02  0.21498472155E+02  0.37207827355E+02  0.51100000000E-03 0. -1.
        -11    1    3    3    0    0  0.14622361237E+01 -0.64752616039E+00  0.45048337646E+01  0.47802669505E+01  0.51100000000E-03 0.  1.
        -12    1    3    3    0    0 -0.15572111522E+02 -0.71891174719E+01  0.23649561268E+01  0.17313783087E+02  0.00000000000E+00 0.  1.
</event>
<event>
 7    1  0.1138240E-011  0.5930197E+02  0.7816164E-02  0.1266605E+00
        -11   -1    0    0    0    0  0.00000000000E+00  0.00000000000E+00  0.45593999997E+02  0.45594000000E+02  0.51100000000E-03 0. -1.
         11   -1    0    0    0    0 -0.00000000000E+00 -0.00000000000E+00 -0.45593999997E+02  0.45594000000E+02  0.51100000000E-03 0.  1.
    9900012    2    1    2    0    0  0.24003681608E+02  0.58021109559E+01  0.20171208030E+02  0.59301970839E+02  0.50000048897E+02 0.  0.
        -12    1    1    2    0    0 -0.24003681608E+02 -0.58021109559E+01 -0.20171208030E+02  0.31886029161E+02  0.00000000000E+00 0.  1.
         11    1    3    3    0    0  0.18226750830E+02 -0.32234772460E+01  0.38373532058E+00  0.18513576220E+02  0.51100000000E-03 0. -1.
        -11    1    3    3    0    0  0.14660562920E+02  0.12151980658E+02  0.18730217459E+00  0.19043051788E+02  0.51100000000E-03 0.  1.
        -12    1    3    3    0    0 -0.88836321426E+01 -0.31263924562E+01  0.19600170535E+02  0.21745342831E+02  0.00000000000E+00 0.  1.
</event>
<event>
 7    1  0.1138240E-011  0.5930195E+02  0.7816164E-02  0.1266605E+00
        -11   -1    0    0    0    0  0.00000000000E+00  0.00000000000E+00  0.45593999997E+02  0.45594000000E+02  0.51100000000E-03 0. -1.
         11   -1    0    0    0    0 -0.00000000000E+00 -0.00000000000E+00 -0.45593999997E+02  0.45594000000E+02  0.51100000000E-03 0.  1.
    9900012    2    1    2    0    0 -0.92601543804E+01 -0.30356525758E+02 -0.30742839089E+01  0.59301947614E+02  0.50000006540E+02 0.  0.
        -12    1    1    2    0    0  0.92601543804E+01  0.30356525758E+02  0.30742839089E+01  0.31886052386E+02  0.00000000000E+00 0.  1.
         11    1    3    3    0    0  0.77062805040E+01 -0.27689691228E+02 -0.46681914134E+01  0.29118684222E+02  0.51100000000E-03 0. -1.
        -11    1    3    3    0    0 -0.15325402966E+02 -0.81292226846E+01  0.10000808664E+02  0.20024195657E+02  0.51100000000E-03 0.  1.
        -12    1    3    3    0    0 -0.16410319187E+01  0.54623881550E+01 -0.84069011600E+01  0.10159067734E+02  0.00000000000E+00 0.  1.
</event>
<event>
 7    1  0.1138240E-011  0.5930193E+02  0.7816164E-02  0.1266605E+00
        -11   -1    0    0    0    0  0.00000000000E+00  0.00000000000E+00  0.45593999997E+02  0.45594000000E+02  0.51100000000E-03 0.  1.
         11   -1    0    0    0    0 -0.00000000000E+00 -0.00000000000E+00 -0.45593999997E+02  0.45594000000E+02  0.51100000000E-03 0. -1.
    9900012    2    1    2    0    0 -0.85354150697E+01  0.21789453565E+02 -0.21658433612E+02  0.59301931826E+02  0.49999977747E+02 0.  0.
        -12    1    1    2    0    0  0.85354150697E+01 -0.21789453565E+02  0.21658433612E+02  0.31886068174E+02  0.00000000000E+00 0.  1.
         11    1    3    3    0    0  0.44836366003E+01 -0.58504306686E+01 -0.20846763895E+02  0.22111492517E+02  0.51100000000E-03 0. -1.
        -11    1    3    3    0    0  0.31774959259E+01 -0.10477215107E+01  0.23596395206E+01  0.40941543268E+01  0.51100000000E-03 0.  1.
        -12    1    3    3    0    0 -0.16196547596E+02  0.28687605744E+02 -0.31713092377E+01  0.33096284982E+02  0.00000000000E+00 0.  1.
</event>
<event>
 7    1  0.1138240E-011  0.5930227E+02  0.7816164E-02  0.1266604E+00
        -11   -1    0    0    0    0  0.00000000000E+00  0.00000000000E+00  0.45593999997E+02  0.45594000000E+02  0.51100000000E-03 0.  1.
         11   -1    0    0    0    0 -0.00000000000E+00 -0.00000000000E+00 -0.45593999997E+02  0.45594000000E+02  0.51100000000E-03 0. -1.
    9900012    2    1    2    0    0  0.24138391945E+02 -0.72198380073E+00 -0.20821057834E+02  0.59302271599E+02  0.50000597408E+02 0.  0.
        -12    1    1    2    0    0 -0.24138391945E+02  0.72198380073E+00  0.20821057834E+02  0.31885728401E+02  0.00000000000E+00 0.  1.
         11    1    3    3    0    0  0.53613696674E+01  0.39976565621E+01  0.11153978628E+02  0.13005259790E+02  0.51100000000E-03 0. -1.
        -11    1    3    3    0    0  0.24492910425E+02 -0.48289457040E+01 -0.16826707539E+02  0.30105804499E+02  0.51100000000E-03 0.  1.
         12    1    3    3    0    0 -0.57158881474E+01  0.10930534118E+00 -0.15148328924E+02  0.16191207310E+02  0.00000000000E+00 0. -1.
</event>
<event>
 7    1  0.1138240E-011  0.5930194E+02  0.7816164E-02  0.1266605E+00
        -11   -1    0    0    0    0  0.00000000000E+00  0.00000000000E+00  0.45593999997E+02  0.45594000000E+02  0.51100000000E-03 0.  1.
         11   -1    0    0    0    0 -0.00000000000E+00 -0.00000000000E+00 -0.45593999997E+02  0.45594000000E+02  0.51100000000E-03 0. -1.
    9900012    2    1    2    0    0 -0.13899516349E+02 -0.16166838657E+02 -0.23709867040E+02  0.59301936870E+02  0.49999986946E+02 0.  0.
        -12    1    1    2    0    0  0.13899516349E+02  0.16166838657E+02  0.23709867040E+02  0.31886063130E+02  0.00000000000E+00 0.  1.
         11    1    3    3    0    0 -0.55261364500E+01 -0.11220341528E+02 -0.18157513506E+02  0.22048345631E+02  0.51100000000E-03 0. -1.
        -11    1    3    3    0    0 -0.21608838075E+02 -0.81121203528E+01 -0.50958213156E+01  0.23637169346E+02  0.51100000000E-03 0.  1.
        -12    1    3    3    0    0  0.13235458176E+02  0.31656232233E+01 -0.45653221778E+00  0.13616421893E+02  0.00000000000E+00 0.  1.
</event>
<event>
 7    1  0.1138240E-011  0.5930196E+02  0.7816164E-02  0.1266605E+00
        -11   -1    0    0    0    0  0.00000000000E+00  0.00000000000E+00  0.45593999997E+02  0.45594000000E+02  0.51100000000E-03 0.  1.
         11   -1    0    0    0    0 -0.00000000000E+00 -0.00000000000E+00 -0.45593999997E+02  0.45594000000E+02  0.51100000000E-03 0. -1.
    9900012    2    1    2    0    0  0.20109073841E+01  0.30771505576E+02 -0.81111235799E+01  0.59301958702E+02  0.50000026763E+02 0.  0.
        -12    1    1    2    0    0 -0.20109073841E+01 -0.30771505576E+02  0.81111235799E+01  0.31886041298E+02  0.00000000000E+00 0.  1.
         11    1    3    3    0    0 -0.42697003454E+01 -0.42804895936E+01 -0.42861512363E+01  0.74110744755E+01  0.51100000000E-03 0. -1.
        -11    1    3    3    0    0  0.10906784811E+02  0.22430856105E+01  0.10945846586E+02  0.15614126479E+02  0.51100000000E-03 0.  1.
         12    1    3    3    0    0 -0.46261770813E+01  0.32808909559E+02 -0.14770818930E+02  0.36276757748E+02  0.00000000000E+00 0. -1.
</event>
<event>
 7    1  0.1138240E-011  0.5930194E+02  0.7816164E-02  0.1266605E+00
        -11   -1    0    0    0    0  0.00000000000E+00  0.00000000000E+00  0.45593999997E+02  0.45594000000E+02  0.51100000000E-03 0. -1.
         11   -1    0    0    0    0 -0.00000000000E+00 -0.00000000000E+00 -0.45593999997E+02  0.45594000000E+02  0.51100000000E-03 0.  1.
    9900012    2    1    2    0    0  0.15573102355E+02  0.22431551988E+02  0.16462826011E+02  0.59301942203E+02  0.49999996673E+02 0.  0.
        -12    1    1    2    0    0 -0.15573102355E+02 -0.22431551988E+02 -0.16462826011E+02  0.31886057797E+02  0.00000000000E+00 0.  1.
         11    1    3    3    0    0  0.47905918826E+01 -0.69990015954E+01  0.81196997471E+01  0.11741606285E+02  0.51100000000E-03 0. -1.
        -11    1    3    3    0    0  0.18610591323E+02  0.42424735607E+01 -0.20759647866E+01  0.19200581276E+02  0.51100000000E-03 0.  1.
        -12    1    3    3    0    0 -0.78280808504E+01  0.25188080022E+02  0.10419091051E+02  0.28359754642E+02  0.00000000000E+00 0.  1.
</event>
<event>
 7    1  0.1138240E-011  0.5930195E+02  0.7816164E-02  0.1266605E+00
        -11   -1    0    0    0    0  0.00000000000E+00  0.00000000000E+00  0.45593999997E+02  0.45594000000E+02  0.51100000000E-03 0.  1.
         11   -1    0    0    0    0 -0.00000000000E+00 -0.00000000000E+00 -0.45593999997E+02  0.45594000000E+02  0.51100000000E-03 0. -1.
    9900012    2    1    2    0    0 -0.28466657225E+02  0.94462697974E+01 -0.10822999455E+02  0.59301954402E+02  0.50000018921E+02 0.  0.
        -12    1    1    2    0    0  0.28466657225E+02 -0.94462697974E+01  0.10822999455E+02  0.31886045598E+02  0.00000000000E+00 0.  1.
         11    1    3    3    0    0  0.55516794804E+01  0.70271636115E+01 -0.58849850752E+01  0.10716119777E+02  0.51100000000E-03 0. -1.
        -11    1    3    3    0    0 -0.13105917520E+02 -0.15735799687E+02 -0.13688205937E+00  0.20479238336E+02  0.51100000000E-03 0.  1.
         12    1    3    3    0    0 -0.20912419185E+02  0.18154905873E+02 -0.48011323202E+01  0.28106596290E+02  0.00000000000E+00 0. -1.
</event>
<event>
 7    1  0.1138240E-011  0.5930195E+02  0.7816164E-02  0.1266605E+00
        -11   -1    0    0    0    0  0.00000000000E+00  0.00000000000E+00  0.45593999997E+02  0.45594000000E+02  0.51100000000E-03 0.  1.
         11   -1    0    0    0    0 -0.00000000000E+00 -0.00000000000E+00 -0.45593999997E+02  0.45594000000E+02  0.51100000000E-03 0. -1.
    9900012    2    1    2    0    0  0.16837937195E+02  0.97542308274E+01 -0.25259831689E+02  0.59301949054E+02  0.50000009166E+02 0.  0.
        -12    1    1    2    0    0 -0.16837937195E+02 -0.97542308274E+01  0.25259831689E+02  0.31886050946E+02  0.00000000000E+00 0.  1.
         11    1    3    3    0    0 -0.12975106444E+02  0.76295091249E+01 -0.63450766316E+01  0.16334711337E+02  0.51100000000E-03 0. -1.
        -11    1    3    3    0    0  0.13801256369E+02 -0.11019625329E+02 -0.65175758670E+01  0.18825132541E+02  0.51100000000E-03 0.  1.
         12    1    3    3    0    0  0.16011787270E+02  0.13144347031E+02 -0.12397179190E+02  0.24142105176E+02  0.00000000000E+00 0. -1.
</event>
<event>
 7    1  0.1138240E-011  0.5930196E+02  0.7816164E-02  0.1266605E+00
        -11   -1    0    0    0    0  0.00000000000E+00  0.00000000000E+00  0.45593999997E+02  0.45594000000E+02  0.51100000000E-03 0.  1.
         11   -1    0    0    0    0 -0.00000000000E+00 -0.00000000000E+00 -0.45593999997E+02  0.45594000000E+02  0.51100000000E-03 0. -1.
    9900012    2    1    2    0    0 -0.18365743948E+02  0.75137924630E+01 -0.24959211427E+02  0.59301955043E+02  0.50000020089E+02 0.  0.
        -12    1    1    2    0    0  0.18365743948E+02 -0.75137924630E+01  0.24959211427E+02  0.31886044957E+02  0.00000000000E+00 0.  1.
         11    1    3    3    0    0 -0.88622243732E+01 -0.43567452344E+01 -0.29696712479E+02  0.31295606436E+02  0.51100000000E-03 0. -1.
        -11    1    3    3    0    0 -0.81206926922E+01 -0.53139710128E+01 -0.11860144579E+01  0.97770429211E+01  0.51100000000E-03 0.  1.
        -12    1    3    3    0    0 -0.13828268829E+01  0.17184508710E+02  0.59235155094E+01  0.18229305686E+02  0.00000000000E+00 0.  1.
</event>
<event>
 7    1  0.1138240E-011  0.5930196E+02  0.7816164E-02  0.1266605E+00
        -11   -1    0    0    0    0  0.00000000000E+00  0.00000000000E+00  0.45593999997E+02  0.45594000000E+02  0.51100000000E-03 0.  1.
         11   -1    0    0    0    0 -0.00000000000E+00 -0.00000000000E+00 -0.45593999997E+02  0.45594000000E+02  0.51100000000E-03 0. -1.
    9900012    2    1    2    0    0  0.69103786462E+00  0.31361604953E+02 -0.57176540334E+01  0.59301962833E+02  0.50000034297E+02 0.  0.
        -12    1    1    2    0    0 -0.69103786462E+00 -0.31361604953E+02  0.57176540334E+01  0.31886037167E+02  0.00000000000E+00 0.  1.
         11    1    3    3    0    0 -0.14416472745E+02  0.10875506314E+02  0.39510314613E+01  0.18485723515E+02  0.51100000000E-03 0. -1.
        -11    1    3    3    0    0  0.13173036165E+01  0.11280423854E+02  0.99713109088E+01  0.15113248911E+02  0.51100000000E-03 0.  1.
         12    1    3    3    0    0  0.13790206993E+02  0.92056747850E+01 -0.19639996403E+02  0.25702990408E+02  0.00000000000E+00 0. -1.
</event>
<event>
 7    1  0.1138240E-011  0.5930194E+02  0.7816164E-02  0.1266605E+00
        -11   -1    0    0    0    0  0.00000000000E+00  0.00000000000E+00  0.45593999997E+02  0.45594000000E+02  0.51100000000E-03 0.  1.
         11   -1    0    0    0    0 -0.00000000000E+00 -0.00000000000E+00 -0.45593999997E+02  0.45594000000E+02  0.51100000000E-03 0. -1.
    9900012    2    1    2    0    0  0.21499637335E+02  0.42187277630E+01 -0.23166549286E+02  0.59301936034E+02  0.49999985421E+02 0.  0.
        -12    1    1    2    0    0 -0.21499637335E+02 -0.42187277630E+01  0.23166549286E+02  0.31886063966E+02  0.00000000000E+00 0.  1.
         11    1    3    3    0    0  0.20892090524E+02 -0.18404971977E+01 -0.18241201579E+02  0.27795832631E+02  0.51100000000E-03 0. -1.
        -11    1    3    3    0    0  0.15351878109E+02  0.62761296253E+00 -0.32439876771E+01  0.15703423697E+02  0.51100000000E-03 0.  1.
        -12    1    3    3    0    0 -0.14744331298E+02  0.54316119982E+01 -0.16813600300E+01  0.15802679705E+02  0.00000000000E+00 0.  1.
</event>
<event>
 7    1  0.1138240E-011  0.5930168E+02  0.7816164E-02  0.1266606E+00
        -11   -1    0    0    0    0  0.00000000000E+00  0.00000000000E+00  0.45593999997E+02  0.45594000000E+02  0.51100000000E-03 0. -1.
         11   -1    0    0    0    0 -0.00000000000E+00 -0.00000000000E+00 -0.45593999997E+02  0.45594000000E+02  0.51100000000E-03 0.  1.
    9900012    2    1    2    0    0 -0.94977391072E+01 -0.29972632620E+02  0.53077149299E+01  0.59301677037E+02  0.49999513070E+02 0.  0.
        -12    1    1    2    0    0  0.94977391072E+01  0.29972632620E+02 -0.53077149299E+01  0.31886322963E+02  0.00000000000E+00 0.  1.
         11    1    3    3    0    0 -0.20068858521E+00 -0.60741782341E+01 -0.13097075123E+02  0.14438465783E+02  0.51100000000E-03 0. -1.
        -11    1    3    3    0    0  0.94301734578E+01  0.11070312850E+01  0.25595551271E+01  0.98338706734E+01  0.51100000000E-03 0.  1.
         12    1    3    3    0    0 -0.18727223980E+02 -0.25005485671E+02  0.15845234926E+02  0.35029340580E+02  0.00000000000E+00 0. -1.
</event>
<event>
 7    1  0.1138240E-011  0.5930192E+02  0.7816164E-02  0.1266605E+00
        -11   -1    0    0    0    0  0.00000000000E+00  0.00000000000E+00  0.45593999997E+02  0.45594000000E+02  0.51100000000E-03 0.  1.
         11   -1    0    0    0    0 -0.00000000000E+00 -0.00000000000E+00 -0.45593999997E+02  0.45594000000E+02  0.51100000000E-03 0. -1.
    9900012    2    1    2    0    0  0.18856822523E+02 -0.10661863369E+01 -0.25690577858E+02  0.59301916835E+02  0.49999950406E+02 0.  0.
        -12    1    1    2    0    0 -0.18856822523E+02  0.10661863369E+01  0.25690577858E+02  0.31886083165E+02  0.00000000000E+00 0.  1.
         11    1    3    3    0    0 -0.30114484906E+01 -0.95182805867E+01 -0.48912771930E+01  0.11117152521E+02  0.51100000000E-03 0. -1.
        -11    1    3    3    0    0  0.19789623635E+02 -0.25743090410E+01  0.45452848298E+01  0.20467434746E+02  0.51100000000E-03 0.  1.
         12    1    3    3    0    0  0.20786473790E+01  0.11026403291E+02 -0.25344585494E+02  0.27717329567E+02  0.00000000000E+00 0. -1.
</event>
<event>
 7    1  0.1138240E-011  0.5930193E+02  0.7816164E-02  0.1266605E+00
        -11   -1    0    0    0    0  0.00000000000E+00  0.00000000000E+00  0.45593999997E+02  0.45594000000E+02  0.51100000000E-03 0.  1.
         11   -1    0    0    0    0 -0.00000000000E+00 -0.00000000000E+00 -0.45593999997E+02  0.45594000000E+02  0.51100000000E-03 0. -1.
    9900012    2    1    2    0    0  0.29550133902E+02  0.10015317098E+02  0.65730102940E+01  0.59301930086E+02  0.49999974574E+02 0.  0.
        -12    1    1    2    0    0 -0.29550133902E+02 -0.10015317098E+02 -0.65730102940E+01  0.31886069914E+02  0.00000000000E+00 0.  1.
         11    1    3    3    0    0  0.14356164235E+02 -0.10288172662E+02 -0.10290645768E+02  0.20441216667E+02  0.51100000000E-03 0. -1.
        -11    1    3    3    0    0  0.14092008785E+02  0.42952927057E+01 -0.11011101255E+01  0.14773174838E+02  0.51100000000E-03 0.  1.
        -12    1    3    3    0    0  0.11019608826E+01  0.16008197054E+02  0.17964766188E+02  0.24087538581E+02  0.00000000000E+00 0.  1.
</event>
<event>
 7    1  0.1138240E-011  0.5930193E+02  0.7816164E-02  0.1266605E+00
        -11   -1    0    0    0    0  0.00000000000E+00  0.00000000000E+00  0.45593999997E+02  0.45594000000E+02  0.51100000000E-03 0.  1.
         11   -1    0    0    0    0 -0.00000000000E+00 -0.00000000000E+00 -0.45593999997E+02  0.45594000000E+02  0.51100000000E-03 0. -1.
    9900012    2    1    2    0    0 -0.11704230433E+02  0.17061810965E+02 -0.24261632743E+02  0.59301933658E+02  0.49999981088E+02 0.  0.
        -12    1    1    2    0    0  0.11704230433E+02 -0.17061810965E+02  0.24261632743E+02  0.31886066342E+02  0.00000000000E+00 0.  1.
         11    1    3    3    0    0  0.21144608017E+01  0.39368027080E+01 -0.12949223042E+02  0.13698603494E+02  0.51100000000E-03 0. -1.
        -11    1    3    3    0    0  0.33635322945E+01  0.23701010653E+02 -0.49220058218E+01  0.24439259339E+02  0.51100000000E-03 0.  1.
         12    1    3    3    0    0 -0.17182223529E+02 -0.10576002397E+02 -0.63904038792E+01  0.21164070824E+02  0.00000000000E+00 0. -1.
</event>
<event>
 7    1  0.1138240E-011  0.5930194E+02  0.7816164E-02  0.1266605E+00
        -11   -1    0    0    0    0  0.00000000000E+00  0.00000000000E+00  0.45593999997E+02  0.45594000000E+02  0.51100000000E-03 0. -1.
         11   -1    0    0    0    0 -0.00000000000E+00 -0.00000000000E+00 -0.45593999997E+02  0.45594000000E+02  0.51100000000E-03 0.  1.
    9900012    2    1    2    0    0  0.15594046679E+02  0.27083394896E+02  0.63274397603E+01  0.59301936197E+02  0.49999985719E+02 0.  0.
        -12    1    1    2    0    0 -0.15594046679E+02 -0.27083394896E+02 -0.63274397603E+01  0.31886063803E+02  0.00000000000E+00 0.  1.
         11    1    3    3    0    0  0.17383655260E+01  0.34673154307E+01 -0.11540546114E+02  0.12174908455E+02  0.51100000000E-03 0.  1.
        -11    1    3    3    0    0 -0.72185635350E+01  0.20635163571E+02  0.12475418500E+02  0.25170492688E+02  0.51100000000E-03 0. -1.
        -12    1    3    3    0    0  0.21074244688E+02  0.29809158941E+01  0.53925673747E+01  0.21956535055E+02  0.00000000000E+00 0.  1.
</event>
<event>
 7    1  0.1138240E-011  0.5930192E+02  0.7816164E-02  0.1266605E+00
        -11   -1    0    0    0    0  0.00000000000E+00  0.00000000000E+00  0.45593999997E+02  0.45594000000E+02  0.51100000000E-03 0. -1.
         11   -1    0    0    0    0 -0.00000000000E+00 -0.00000000000E+00 -0.45593999997E+02  0.45594000000E+02  0.51100000000E-03 0.  1.
    9900012    2    1    2    0    0 -0.25850738326E+02  0.16678122617E+02 -0.83846222904E+01  0.59301916249E+02  0.49999949338E+02 0.  0.
        -12    1    1    2    0    0  0.25850738326E+02 -0.16678122617E+02  0.83846222904E+01  0.31886083751E+02  0.00000000000E+00 0.  1.
         11    1    3    3    0    0  0.17253968470E+01  0.58676361307E+01  0.67406742380E+00  0.61530898900E+01  0.51100000000E-03 0. -1.
        -11    1    3    3    0    0  0.59723965148E+01 -0.96759927002E+01  0.34751000888E+01  0.11889940107E+02  0.51100000000E-03 0.  1.
        -12    1    3    3    0    0 -0.33548531688E+02  0.20486479186E+02 -0.12533789803E+02  0.41258886252E+02  0.00000000000E+00 0.  1.
</event>
<event>
 7    1  0.1138240E-011  0.5930194E+02  0.7816164E-02  0.1266605E+00
        -11   -1    0    0    0    0  0.00000000000E+00  0.00000000000E+00  0.45593999997E+02  0.45594000000E+02  0.51100000000E-03 0. -1.
         11   -1    0    0    0    0 -0.00000000000E+00 -0.00000000000E+00 -0.45593999997E+02  0.45594000000E+02  0.51100000000E-03 0.  1.
    9900012    2    1    2    0    0 -0.80894652801E+01  0.28854683868E+02  0.10894418892E+02  0.59301943602E+02  0.49999999223E+02 0.  0.
        -12    1    1    2    0    0  0.80894652801E+01 -0.28854683868E+02 -0.10894418892E+02  0.31886056398E+02  0.00000000000E+00 0.  1.
         11    1    3    3    0    0  0.11217224430E+02  0.18699988075E+02  0.15604489865E+02  0.26814469641E+02  0.51100000000E-03 0.  1.
        -11    1    3    3    0    0 -0.15873114476E+02  0.17350174812E+02 -0.61292772000E+00  0.23523605374E+02  0.51100000000E-03 0. -1.
        -12    1    3    3    0    0 -0.34335752341E+01 -0.71954790186E+01 -0.40971432534E+01  0.89638685864E+01  0.00000000000E+00 0.  1.
</event>
<event>
 7    1  0.1138240E-011  0.5930193E+02  0.7816164E-02  0.1266605E+00
        -11   -1    0    0    0    0  0.00000000000E+00  0.00000000000E+00  0.45593999997E+02  0.45594000000E+02  0.51100000000E-03 0. -1.
         11   -1    0    0    0    0 -0.00000000000E+00 -0.00000000000E+00 -0.45593999997E+02  0.45594000000E+02  0.51100000000E-03 0.  1.
    9900012    2    1    2    0    0  0.48677538643E+01  0.19656682040E+02  0.24630087620E+02  0.59301931057E+02  0.49999976344E+02 0.  0.
        -12    1    1    2    0    0 -0.48677538643E+01 -0.19656682040E+02 -0.24630087620E+02  0.31886068943E+02  0.00000000000E+00 0.  1.
         11    1    3    3    0    0 -0.40723067001E+01  0.18665577277E+02  0.13233584684E+02  0.23240379102E+02  0.51100000000E-03 0. -1.
        -11    1    3    3    0    0 -0.10127185170E+02 -0.14562594540E+01  0.13259318193E+02  0.16747838376E+02  0.51100000000E-03 0.  1.
        -12    1    3    3    0    0  0.19067245735E+02  0.24473642167E+01 -0.18628152579E+01  0.19313713579E+02  0.00000000000E+00 0.  1.
</event>
<event>
 7    1  0.1138240E-011  0.5930196E+02  0.7816164E-02  0.1266605E+00
        -11   -1    0    0    0    0  0.00000000000E+00  0.00000000000E+00  0.45593999997E+02  0.45594000000E+02  0.51100000000E-03 0. -1.
         11   -1    0    0    0    0 -0.00000000000E+00 -0.00000000000E+00 -0.45593999997E+02  0.45594000000E+02  0.51100000000E-03 0.  1.
    9900012    2    1    2    0    0  0.13547486591E+02  0.24715215723E+02  0.14911173243E+02  0.59301962795E+02  0.50000034227E+02 0.  0.
        -12    1    1    2    0    0 -0.13547486591E+02 -0.24715215723E+02 -0.14911173243E+02  0.31886037205E+02  0.00000000000E+00 0.  1.
         11    1    3    3    0    0 -0.64039092131E+01  0.15702917705E+02 -0.68710703726E+00  0.16972442193E+02  0.51100000000E-03 0. -1.
        -11    1    3    3    0    0 -0.45581369030E+01  0.58009194249E+01  0.15987323115E+02  0.17607435328E+02  0.51100000000E-03 0.  1.
         12    1    3    3    0    0  0.24509532707E+02  0.32113785929E+01 -0.38904283406E+00  0.24722085274E+02  0.00000000000E+00 0. -1.
</event>
<event>
 7    1  0.1138240E-011  0.5930195E+02  0.7816164E-02  0.1266605E+00
        -11   -1    0    0    0    0  0.00000000000E+00  0.00000000000E+00  0.45593999997E+02  0.45594000000E+02  0.51100000000E-03 0.  1.
         11   -1    0    0    0    0 -0.00000000000E+00 -0.00000000000E+00 -0.45593999997E+02  0.45594000000E+02  0.51100000000E-03 0. -1.
    9900012    2    1    2    0    0 -0.68845411507E+01 -0.30875064034E+02 -0.40066716634E+01  0.59301954404E+02  0.50000018924E+02 0.  0.
        -12    1    1    2    0    0  0.68845411507E+01  0.30875064034E+02  0.40066716634E+01  0.31886045596E+02  0.00000000000E+00 0.  1.
         11    1    3    3    0    0  0.19032205443E+01  0.69235551818E+00 -0.25053891387E+01  0.32215802956E+01  0.51100000000E-03 0. -1.
        -11    1    3    3    0    0 -0.92993149354E+01  0.12185379600E+00  0.17003185955E+02  0.19380413812E+02  0.51100000000E-03 0.  1.
         12    1    3    3    0    0  0.51155324049E+00 -0.31689273348E+02 -0.18504468480E+02  0.36699960297E+02  0.00000000000E+00 0. -1.
</event>
<event>
 7    1  0.1138240E-011  0.5930201E+02  0.7816164E-02  0.1266605E+00
        -11   -1    0    0    0    0  0.00000000000E+00  0.00000000000E+00  0.45593999997E+02  0.45594000000E+02  0.51100000000E-03 0.  1.
         11   -1    0    0    0    0 -0.00000000000E+00 -0.00000000000E+00 -0.45593999997E+02  0.45594000000E+02  0.51100000000E-03 0. -1.
    9900012    2    1    2    0    0 -0.99942193569E+01  0.25575932814E+01 -0.30171018267E+02  0.59302014878E+02  0.50000129214E+02 0.  0.
        -12    1    1    2    0    0  0.99942193569E+01 -0.25575932814E+01  0.30171018267E+02  0.31885985122E+02  0.00000000000E+00 0.  1.
         11    1    3    3    0    0 -0.95340825976E+01 -0.94316193083E+01 -0.35972111627E+01  0.13885031587E+02  0.51100000000E-03 0. -1.
        -11    1    3    3    0    0 -0.14287888837E+02  0.78545448938E+01 -0.13555458669E+01  0.16360780781E+02  0.51100000000E-03 0.  1.
         12    1    3    3    0    0  0.13827752078E+02  0.41346676959E+01 -0.25218261237E+02  0.29056202510E+02  0.00000000000E+00 0. -1.
</event>
<event>
 7    1  0.1138240E-011  0.5930211E+02  0.7816164E-02  0.1266604E+00
        -11   -1    0    0    0    0  0.00000000000E+00  0.00000000000E+00  0.45593999997E+02  0.45594000000E+02  0.51100000000E-03 0.  1.
         11   -1    0    0    0    0 -0.00000000000E+00 -0.00000000000E+00 -0.45593999997E+02  0.45594000000E+02  0.51100000000E-03 0. -1.
    9900012    2    1    2    0    0 -0.66139603806E+01  0.14103976956E+02 -0.27821636506E+02  0.59302108202E+02  0.50000299413E+02 0.  0.
        -12    1    1    2    0    0  0.66139603806E+01 -0.14103976956E+02  0.27821636506E+02  0.31885891798E+02  0.00000000000E+00 0.  1.
         11    1    3    3    0    0 -0.17111020388E+02 -0.67554298397E+01 -0.31084545801E+01  0.18657045349E+02  0.51100000000E-03 0. -1.
        -11    1    3    3    0    0 -0.42925079046E+01  0.70677901506E+01  0.54720691060E+00  0.82872623578E+01  0.51100000000E-03 0.  1.
         12    1    3    3    0    0  0.14789567911E+02  0.13791616645E+02 -0.25260388837E+02  0.32357800495E+02  0.00000000000E+00 0. -1.
</event>
<event>
 7    1  0.1138240E-011  0.5930194E+02  0.7816164E-02  0.1266605E+00
        -11   -1    0    0    0    0  0.00000000000E+00  0.00000000000E+00  0.45593999997E+02  0.45594000000E+02  0.51100000000E-03 0.  1.
         11   -1    0    0    0    0 -0.00000000000E+00 -0.00000000000E+00 -0.45593999997E+02  0.45594000000E+02  0.51100000000E-03 0. -1.
    9900012    2    1    2    0    0 -0.21984130531E+02 -0.14660919901E+02 -0.17845897972E+02  0.59301942828E+02  0.49999997811E+02 0.  0.
        -12    1    1    2    0    0  0.21984130531E+02  0.14660919901E+02  0.17845897972E+02  0.31886057172E+02  0.00000000000E+00 0.  1.
         11    1    3    3    0    0 -0.18742582496E+02  0.27064237632E+01 -0.22196443395E+02  0.29176895446E+02  0.51100000000E-03 0. -1.
        -11    1    3    3    0    0 -0.10702349132E+02  0.12770481365E+00  0.46799499088E+00  0.10713337717E+02  0.51100000000E-03 0.  1.
        -12    1    3    3    0    0  0.74608010970E+01 -0.17495048478E+02  0.38825504318E+01  0.19411709665E+02  0.00000000000E+00 0.  1.
</event>
<event>
 7    1  0.1138240E-011  0.5930194E+02  0.7816164E-02  0.1266605E+00
        -11   -1    0    0    0    0  0.00000000000E+00  0.00000000000E+00  0.45593999997E+02  0.45594000000E+02  0.51100000000E-03 0.  1.
         11   -1    0    0    0    0 -0.00000000000E+00 -0.00000000000E+00 -0.45593999997E+02  0.45594000000E+02  0.51100000000E-03 0. -1.
    9900012    2    1    2    0    0 -0.16001044041E+02 -0.12110871853E+02 -0.24779313878E+02  0.59301936842E+02  0.49999986895E+02 0.  0.
        -12    1    1    2    0    0  0.16001044041E+02  0.12110871853E+02  0.24779313878E+02  0.31886063158E+02  0.00000000000E+00 0.  1.
         11    1    3    3    0    0  0.13672011494E+01 -0.17267609303E+02 -0.11352910717E+02  0.20710580679E+02  0.51100000000E-03 0. -1.
        -11    1    3    3    0    0 -0.85131736379E+01 -0.22415582668E+01  0.94834692231E+01  0.12939663737E+02  0.51100000000E-03 0.  1.
        -12    1    3    3    0    0 -0.88550715529E+01  0.73982957171E+01 -0.22909872384E+02  0.25651692427E+02  0.00000000000E+00 0.  1.
</event>
<event>
 7    1  0.1138240E-011  0.5930195E+02  0.7816164E-02  0.1266605E+00
        -11   -1    0    0    0    0  0.00000000000E+00  0.00000000000E+00  0.45593999997E+02  0.45594000000E+02  0.51100000000E-03 0.  1.
         11   -1    0    0    0    0 -0.00000000000E+00 -0.00000000000E+00 -0.45593999997E+02  0.45594000000E+02  0.51100000000E-03 0. -1.
    9900012    2    1    2    0    0  0.27026092619E+02 -0.18430149199E+01 -0.16820035216E+02  0.59301953351E+02  0.50000017003E+02 0.  0.
        -12    1    1    2    0    0 -0.27026092619E+02  0.18430149199E+01  0.16820035216E+02  0.31886046649E+02  0.00000000000E+00 0.  1.
         11    1    3    3    0    0 -0.58030409745E+01  0.46281443805E+01 -0.10333460064E+02  0.12723026453E+02  0.51100000000E-03 0. -1.
        -11    1    3    3    0    0  0.46187982036E+01 -0.26208713006E+00 -0.15614533010E+02  0.16285442208E+02  0.51100000000E-03 0.  1.
        -12    1    3    3    0    0  0.28210335390E+02 -0.62090721703E+01  0.91279578583E+01  0.30293484690E+02  0.00000000000E+00 0.  1.
</event>
<event>
 7    1  0.1138240E-011  0.5930183E+02  0.7816164E-02  0.1266605E+00
        -11   -1    0    0    0    0  0.00000000000E+00  0.00000000000E+00  0.45593999997E+02  0.45594000000E+02  0.51100000000E-03 0. -1.
         11   -1    0    0    0    0 -0.00000000000E+00 -0.00000000000E+00 -0.45593999997E+02  0.45594000000E+02  0.51100000000E-03 0.  1.
    9900012    2    1    2    0    0  0.26943856428E+02 -0.16379030168E+02 -0.47417053363E+01  0.59301830616E+02  0.49999793164E+02 0.  0.
        -12    1    1    2    0    0 -0.26943856428E+02  0.16379030168E+02  0.47417053363E+01  0.31886169384E+02  0.00000000000E+00 0.  1.
         11    1    3    3    0    0  0.12256356618E+02 -0.16848691760E+01  0.19047886622E+02  0.22712970891E+02  0.51100000000E-03 0. -1.
        -11    1    3    3    0    0 -0.20293511399E+01 -0.27132140650E+00  0.18455605757E+01  0.27564425360E+01  0.51100000000E-03 0.  1.
        -12    1    3    3    0    0  0.16716850950E+02 -0.14422839586E+02 -0.25635152534E+02  0.33832417189E+02  0.00000000000E+00 0.  1.
</event>
<event>
 7    1  0.1138240E-011  0.5930196E+02  0.7816164E-02  0.1266605E+00
        -11   -1    0    0    0    0  0.00000000000E+00  0.00000000000E+00  0.45593999997E+02  0.45594000000E+02  0.51100000000E-03 0.  1.
         11   -1    0    0    0    0 -0.00000000000E+00 -0.00000000000E+00 -0.45593999997E+02  0.45594000000E+02  0.51100000000E-03 0. -1.
    9900012    2    1    2    0    0 -0.68901095933E+01 -0.24956462505E+02 -0.18612392270E+02  0.59301956392E+02  0.50000022549E+02 0.  0.
        -12    1    1    2    0    0  0.68901095933E+01  0.24956462505E+02  0.18612392270E+02  0.31886043608E+02  0.00000000000E+00 0.  1.
         11    1    3    3    0    0  0.12647882807E+02 -0.58479522319E+01 -0.10132024143E+02  0.17228621486E+02  0.51100000000E-03 0. -1.
        -11    1    3    3    0    0 -0.90050335442E+01  0.80455113885E+01 -0.20890254678E+01  0.12254995320E+02  0.51100000000E-03 0.  1.
         12    1    3    3    0    0 -0.10532958856E+02 -0.27154021662E+02 -0.63913426596E+01  0.29818339586E+02  0.00000000000E+00 0. -1.
</event>
<event>
 7    1  0.1138240E-011  0.5930194E+02  0.7816164E-02  0.1266605E+00
        -11   -1    0    0    0    0  0.00000000000E+00  0.00000000000E+00  0.45593999997E+02  0.45594000000E+02  0.51100000000E-03 0.  1.
         11   -1    0    0    0    0 -0.00000000000E+00 -0.00000000000E+00 -0.45593999997E+02  0.45594000000E+02  0.51100000000E-03 0. -1.
    9900012    2    1    2    0    0 -0.18711275852E+02 -0.22932406945E+02 -0.11862293123E+02  0.59301935168E+02  0.49999983842E+02 0.  0.
        -12    1    1    2    0    0  0.18711275852E+02  0.22932406945E+02  0.11862293123E+02  0.31886064832E+02  0.00000000000E+00 0.  1.
         11    1    3    3    0    0 -0.22044225654E+02 -0.94190590987E+01 -0.12240461523E+02  0.26916453287E+02  0.51100000000E-03 0. -1.
        -11    1    3    3    0    0 -0.12806568936E+02 -0.88934619214E+01  0.43107361446E+00  0.15597682443E+02  0.51100000000E-03 0.  1.
        -12    1    3    3    0    0  0.16139518737E+02 -0.46198859252E+01 -0.52905213865E-01  0.16787799439E+02  0.00000000000E+00 0.  1.
</event>
<event>
 7    1  0.1138240E-011  0.5930195E+02  0.7816164E-02  0.1266605E+00
        -11   -1    0    0    0    0  0.00000000000E+00  0.00000000000E+00  0.45593999997E+02  0.45594000000E+02  0.51100000000E-03 0. -1.
         11   -1    0    0    0    0 -0.00000000000E+00 -0.00000000000E+00 -0.45593999997E+02  0.45594000000E+02  0.51100000000E-03 0.  1.
    9900012    2    1    2    0    0  0.10405829971E+02  0.29604860111E+02 -0.56560874324E+01  0.59301947177E+02  0.50000005744E+02 0.  0.
        -12    1    1    2    0    0 -0.10405829971E+02 -0.29604860111E+02  0.56560874324E+01  0.31886052823E+02  0.00000000000E+00 0.  1.
         11    1    3    3    0    0 -0.56379885445E+01  0.14587175537E+02 -0.85813184640E+01  0.17838487375E+02  0.51100000000E-03 0. -1.
        -11    1    3    3    0    0  0.25096432248E+02  0.78146348652E+01 -0.58683573479E+01  0.26932082130E+02  0.51100000000E-03 0.  1.
         12    1    3    3    0    0 -0.90526137318E+01  0.72030497080E+01  0.87935883794E+01  0.14531377672E+02  0.00000000000E+00 0. -1.
</event>
<event>
 7    1  0.1138240E-011  0.5930197E+02  0.7816164E-02  0.1266605E+00
        -11   -1    0    0    0    0  0.00000000000E+00  0.00000000000E+00  0.45593999997E+02  0.45594000000E+02  0.51100000000E-03 0.  1.
         11   -1    0    0    0    0 -0.00000000000E+00 -0.00000000000E+00 -0.45593999997E+02  0.45594000000E+02  0.51100000000E-03 0. -1.
    9900012    2    1    2    0    0  0.19058332796E+02 -0.25556880725E+02 -0.58729328459E+00  0.59301966776E+02  0.50000041487E+02 0.  0.
        -12    1    1    2    0    0 -0.19058332796E+02  0.25556880725E+02  0.58729328459E+00  0.31886033224E+02  0.00000000000E+00 0.  1.
         11    1    3    3    0    0  0.84458907120E+01 -0.34324043179E+02  0.58535010281E+00  0.35352731791E+02  0.51100000000E-03 0. -1.
        -11    1    3    3    0    0 -0.22040322731E+01 -0.17080306409E+00 -0.69476779197E+01  0.72908957395E+01  0.51100000000E-03 0.  1.
         12    1    3    3    0    0  0.12816474357E+02  0.89379655183E+01  0.57750345323E+01  0.16658339245E+02  0.00000000000E+00 0. -1.
</event>
<event>
 7    1  0.1138240E-011  0.5930195E+02  0.7816164E-02  0.1266605E+00
        -11   -1    0    0    0    0  0.00000000000E+00  0.00000000000E+00  0.45593999997E+02  0.45594000000E+02  0.51100000000E-03 0.  1.
         11   -1    0    0    0    0 -0.00000000000E+00 -0.00000000000E+00 -0.45593999997E+02  0.45594000000E+02  0.51100000000E-03 0. -1.
    9900012    2    1    2    0    0 -0.16133513284E+01  0.24993216096E+01 -0.31746982019E+02  0.59301946962E+02  0.50000005352E+02 0.  0.
        -12    1    1    2    0    0  0.16133513284E+01 -0.24993216096E+01  0.31746982019E+02  0.31886053038E+02  0.00000000000E+00 0.  1.
         11    1    3    3    0    0  0.97557288896E+01  0.53775115610E+01  0.16278880230E+01  0.11257970351E+02  0.51100000000E-03 0. -1.
        -11    1    3    3    0    0 -0.28756578161E+01  0.40780516455E+01  0.56302540000E+01  0.75232754479E+01  0.51100000000E-03 0.  1.
         12    1    3    3    0    0 -0.84934224019E+01 -0.69562415969E+01 -0.39005124042E+02  0.40520701163E+02  0.00000000000E+00 0. -1.
</event>
<event>
 7    1  0.1138240E-011  0.5930198E+02  0.7816164E-02  0.1266605E+00
        -11   -1    0    0    0    0  0.00000000000E+00  0.00000000000E+00  0.45593999997E+02  0.45594000000E+02  0.51100000000E-03 0.  1.
         11   -1    0    0    0    0 -0.00000000000E+00 -0.00000000000E+00 -0.45593999997E+02  0.45594000000E+02  0.51100000000E-03 0. -1.
    9900012    2    1    2    0    0  0.18744049915E+02  0.10196884588E+02 -0.23693927952E+02  0.59301982935E+02  0.50000070957E+02 0.  0.
        -12    1    1    2    0    0 -0.18744049915E+02 -0.10196884588E+02  0.23693927952E+02  0.31886017065E+02  0.00000000000E+00 0.  1.
         11    1    3    3    0    0  0.11817603639E+02 -0.84600032479E+01  0.24416349513E+01  0.14737333280E+02  0.51100000000E-03 0.  1.
        -11    1    3    3    0    0  0.77189801026E+01 -0.14802209416E+01 -0.22826961160E+02  0.24142159471E+02  0.51100000000E-03 0. -1.
        -12    1    3    3    0    0 -0.79253382700E+00  0.20137108777E+02 -0.33086017429E+01  0.20422490183E+02  0.00000000000E+00 0.  1.
</event>
<event>
 7    1  0.1138240E-011  0.5930182E+02  0.7816164E-02  0.1266605E+00
        -11   -1    0    0    0    0  0.00000000000E+00  0.00000000000E+00  0.45593999997E+02  0.45594000000E+02  0.51100000000E-03 0. -1.
         11   -1    0    0    0    0 -0.00000000000E+00 -0.00000000000E+00 -0.45593999997E+02  0.45594000000E+02  0.51100000000E-03 0.  1.
    9900012    2    1    2    0    0  0.22235710796E+02 -0.15903579092E+02  0.16412727435E+02  0.59301822989E+02  0.49999779254E+02 0.  0.
        -12    1    1    2    0    0 -0.22235710796E+02  0.15903579092E+02 -0.16412727435E+02  0.31886177011E+02  0.00000000000E+00 0.  1.
         11    1    3    3    0    0 -0.26631247406E+01  0.59566790311E+01 -0.52769399294E+01  0.83916836060E+01  0.51100000000E-03 0. -1.
        -11    1    3    3    0    0 -0.73194310167E+01 -0.46216851174E+01  0.83037428745E+01  0.11995256968E+02  0.51100000000E-03 0.  1.
         12    1    3    3    0    0  0.32218266553E+02 -0.17238573006E+02  0.13385924490E+02  0.38914882415E+02  0.00000000000E+00 0. -1.
</event>
<event>
 7    1  0.1138240E-011  0.5930194E+02  0.7816164E-02  0.1266605E+00
        -11   -1    0    0    0    0  0.00000000000E+00  0.00000000000E+00  0.45593999997E+02  0.45594000000E+02  0.51100000000E-03 0.  1.
         11   -1    0    0    0    0 -0.00000000000E+00 -0.00000000000E+00 -0.45593999997E+02  0.45594000000E+02  0.51100000000E-03 0. -1.
    9900012    2    1    2    0    0 -0.92799535716E+01  0.19237080436E+02 -0.23675682077E+02  0.59301941545E+02  0.49999995473E+02 0.  0.
        -12    1    1    2    0    0  0.92799535716E+01 -0.19237080436E+02  0.23675682077E+02  0.31886058455E+02  0.00000000000E+00 0.  1.
         11    1    3    3    0    0  0.90801746954E+01  0.32581467873E+01  0.28000608183E+01  0.10045169677E+02  0.51100000000E-03 0. -1.
        -11    1    3    3    0    0 -0.46423132212E+01  0.10844450827E+02  0.62883026975E+01  0.13367719958E+02  0.51100000000E-03 0.  1.
         12    1    3    3    0    0 -0.13717815046E+02  0.51344828209E+01 -0.32764045593E+02  0.35889051911E+02  0.00000000000E+00 0. -1.
</event>
<event>
 7    1  0.1138240E-011  0.5930196E+02  0.7816164E-02  0.1266605E+00
        -11   -1    0    0    0    0  0.00000000000E+00  0.00000000000E+00  0.45593999997E+02  0.45594000000E+02  0.51100000000E-03 0.  1.
         11   -1    0    0    0    0 -0.00000000000E+00 -0.00000000000E+00 -0.45593999997E+02  0.45594000000E+02  0.51100000000E-03 0. -1.
    9900012    2    1    2    0    0 -0.11256453861E+02 -0.16738387389E+02  0.24694900710E+02  0.59301960939E+02  0.50000030843E+02 0.  0.
        -12    1    1    2    0    0  0.11256453861E+02  0.16738387389E+02 -0.24694900710E+02  0.31886039061E+02  0.00000000000E+00 0.  1.
         11    1    3    3    0    0  0.19235323040E+02 -0.20998317467E+01  0.61689806723E+01  0.20309191727E+02  0.51100000000E-03 0.  1.
        -11    1    3    3    0    0 -0.13639165427E+02 -0.89291172361E+01  0.66846015578E+01  0.17619303801E+02  0.51100000000E-03 0. -1.
        -12    1    3    3    0    0 -0.16852611473E+02 -0.57094384064E+01  0.11841318480E+02  0.21373465412E+02  0.00000000000E+00 0.  1.
</event>
<event>
 7    1  0.1138240E-011  0.5930196E+02  0.7816164E-02  0.1266605E+00
        -11   -1    0    0    0    0  0.00000000000E+00  0.00000000000E+00  0.45593999997E+02  0.45594000000E+02  0.51100000000E-03 0.  1.
         11   -1    0    0    0    0 -0.00000000000E+00 -0.00000000000E+00 -0.45593999997E+02  0.45594000000E+02  0.51100000000E-03 0. -1.
    9900012    2    1    2    0    0 -0.27553448556E+02 -0.12725060131E+02 -0.97775120280E+01  0.59301961925E+02  0.50000032641E+02 0.  0.
        -12    1    1    2    0    0  0.27553448556E+02  0.12725060131E+02  0.97775120280E+01  0.31886038075E+02  0.00000000000E+00 0.  1.
         11    1    3    3    0    0 -0.19639403264E+02 -0.53346745441E+01 -0.76356145424E+00  0.20365361264E+02  0.51100000000E-03 0. -1.
        -11    1    3    3    0    0 -0.17655934510E+02 -0.94747976422E+01 -0.16914125921E+02  0.26221965405E+02  0.51100000000E-03 0.  1.
        -12    1    3    3    0    0  0.97418892186E+01  0.20844120558E+01  0.79001753470E+01  0.12714635255E+02  0.00000000000E+00 0.  1.
</event>
<event>
 7    1  0.1138240E-011  0.5930192E+02  0.7816164E-02  0.1266605E+00
        -11   -1    0    0    0    0  0.00000000000E+00  0.00000000000E+00  0.45593999997E+02  0.45594000000E+02  0.51100000000E-03 0.  1.
         11   -1    0    0    0    0 -0.00000000000E+00 -0.00000000000E+00 -0.45593999997E+02  0.45594000000E+02  0.51100000000E-03 0. -1.
    9900012    2    1    2    0    0 -0.12461880730E+01 -0.29292962045E+02 -0.12533602437E+02  0.59301924667E+02  0.49999964691E+02 0.  0.
        -12    1    1    2    0    0  0.12461880730E+01  0.29292962045E+02  0.12533602437E+02  0.31886075333E+02  0.00000000000E+00 0.  1.
         11    1    3    3    0    0  0.64016066978E+01 -0.57072376758E+01  0.57959068588E+01  0.10351119108E+02  0.51100000000E-03 0. -1.
        -11    1    3    3    0    0  0.98763505397E+01 -0.24597477444E+02 -0.51534912061E+01  0.27002530779E+02  0.51100000000E-03 0.  1.
         12    1    3    3    0    0 -0.17524145310E+02  0.10117530754E+01 -0.13176018090E+02  0.21948274781E+02  0.00000000000E+00 0. -1.
</event>
<event>
 7    1  0.1138240E-011  0.5930210E+02  0.7816164E-02  0.1266604E+00
        -11   -1    0    0    0    0  0.00000000000E+00  0.00000000000E+00  0.45593999997E+02  0.45594000000E+02  0.51100000000E-03 0.  1.
         11   -1    0    0    0    0 -0.00000000000E+00 -0.00000000000E+00 -0.45593999997E+02  0.45594000000E+02  0.51100000000E-03 0. -1.
    9900012    2    1    2    0    0 -0.18034309026E+02  0.18806623288E+02 -0.18378939543E+02  0.59302097155E+02  0.50000279266E+02 0.  0.
        -12    1    1    2    0    0  0.18034309026E+02 -0.18806623288E+02  0.18378939543E+02  0.31885902845E+02  0.00000000000E+00 0.  1.
         11    1    3    3    0    0 -0.11954222674E+02  0.16648430911E+02 -0.32110049656E+01  0.20745704246E+02  0.51100000000E-03 0. -1.
        -11    1    3    3    0    0 -0.89980001519E+00 -0.12964015423E+02  0.40009558685E+01  0.13597168237E+02  0.51100000000E-03 0.  1.
         12    1    3    3    0    0 -0.51802863368E+01  0.15122207800E+02 -0.19168890446E+02  0.24959224671E+02  0.00000000000E+00 0. -1.
</event>
<event>
 7    1  0.1138240E-011  0.5930196E+02  0.7816164E-02  0.1266605E+00
        -11   -1    0    0    0    0  0.00000000000E+00  0.00000000000E+00  0.45593999997E+02  0.45594000000E+02  0.51100000000E-03 0.  1.
         11   -1    0    0    0    0 -0.00000000000E+00 -0.00000000000E+00 -0.45593999997E+02  0.45594000000E+02  0.51100000000E-03 0. -1.
    9900012    2    1    2    0    0  0.29937218931E+01 -0.30186972070E+02  0.98236476111E+01  0.59301957506E+02  0.50000024581E+02 0.  0.
        -12    1    1    2    0    0 -0.29937218931E+01  0.30186972070E+02 -0.98236476111E+01  0.31886042494E+02  0.00000000000E+00 0.  1.
         11    1    3    3    0    0  0.14391157013E+01 -0.52693470414E+01 -0.84471896515E+01  0.10059427693E+02  0.51100000000E-03 0. -1.
        -11    1    3    3    0    0  0.11096228721E+02  0.60394330307E+01  0.13778933939E+01  0.12708250612E+02  0.51100000000E-03 0.  1.
        -12    1    3    3    0    0 -0.95416225289E+01 -0.30957058059E+02  0.16892943869E+02  0.36534279201E+02  0.00000000000E+00 0.  1.
</event>
<event>
 7    1  0.1138240E-011  0.5930194E+02  0.7816164E-02  0.1266605E+00
        -11   -1    0    0    0    0  0.00000000000E+00  0.00000000000E+00  0.45593999997E+02  0.45594000000E+02  0.51100000000E-03 0.  1.
         11   -1    0    0    0    0 -0.00000000000E+00 -0.00000000000E+00 -0.45593999997E+02  0.45594000000E+02  0.51100000000E-03 0. -1.
    9900012    2    1    2    0    0 -0.21873454274E+02  0.21461951360E+02  0.88123523965E+01  0.59301938581E+02  0.49999990066E+02 0.  0.
        -12    1    1    2    0    0  0.21873454274E+02 -0.21461951360E+02 -0.88123523965E+01  0.31886061419E+02  0.00000000000E+00 0.  1.
         11    1    3    3    0    0  0.80650085691E+01  0.18671721179E+02  0.23149063052E+01  0.20470376804E+02  0.51100000000E-03 0. -1.
        -11    1    3    3    0    0 -0.22990684253E+00 -0.51919935114E+01  0.61706242878E+01  0.80676054775E+01  0.51100000000E-03 0.  1.
        -12    1    3    3    0    0 -0.29708556001E+02  0.79822236923E+01  0.32682180358E+00  0.30763956300E+02  0.00000000000E+00 0.  1.
</event>
<event>
 7    1  0.1138240E-011  0.5930194E+02  0.7816164E-02  0.1266605E+00
        -11   -1    0    0    0    0  0.00000000000E+00  0.00000000000E+00  0.45593999997E+02  0.45594000000E+02  0.51100000000E-03 0.  1.
         11   -1    0    0    0    0 -0.00000000000E+00 -0.00000000000E+00 -0.45593999997E+02  0.45594000000E+02  0.51100000000E-03 0. -1.
    9900012    2    1    2    0    0 -0.87487317912E+01 -0.15840510983E+02 -0.26253736816E+02  0.59301940460E+02  0.49999993494E+02 0.  0.
        -12    1    1    2    0    0  0.87487317912E+01  0.15840510983E+02  0.26253736816E+02  0.31886059540E+02  0.00000000000E+00 0.  1.
         11    1    3    3    0    0  0.70956484618E+01 -0.28527609673E+02 -0.16905594450E+02  0.33911235081E+02  0.51100000000E-03 0. -1.
        -11    1    3    3    0    0 -0.69016287753E+00  0.74917982396E+01 -0.38655652158E+01  0.84584845190E+01  0.51100000000E-03 0.  1.
        -12    1    3    3    0    0 -0.15154217376E+02  0.51953004511E+01 -0.54825771503E+01  0.16932220860E+02  0.00000000000E+00 0.  1.
</event>
<event>
 7    1  0.1138240E-011  0.5930193E+02  0.7816164E-02  0.1266605E+00
        -11   -1    0    0    0    0  0.00000000000E+00  0.00000000000E+00  0.45593999997E+02  0.45594000000E+02  0.51100000000E-03 0.  1.
         11   -1    0    0    0    0 -0.00000000000E+00 -0.00000000000E+00 -0.45593999997E+02  0.45594000000E+02  0.51100000000E-03 0. -1.
    9900012    2    1    2    0    0 -0.13763603402E+02 -0.86326204150E+01 -0.27436520143E+02  0.59301928568E+02  0.49999971805E+02 0.  0.
        -12    1    1    2    0    0  0.13763603402E+02  0.86326204150E+01  0.27436520143E+02  0.31886071432E+02  0.00000000000E+00 0.  1.
         11    1    3    3    0    0 -0.56068773280E+01 -0.98743153418E+01  0.94903446137E+01  0.14798845157E+02  0.51100000000E-03 0. -1.
        -11    1    3    3    0    0  0.84490644406E+00 -0.10063665755E+02 -0.11940902397E+02  0.15638938124E+02  0.51100000000E-03 0.  1.
        -12    1    3    3    0    0 -0.90016325177E+01  0.11305360682E+02 -0.24985962359E+02  0.28864145287E+02  0.00000000000E+00 0.  1.
</event>
<event>
 7    1  0.1138240E-011  0.5930195E+02  0.7816164E-02  0.1266605E+00
        -11   -1    0    0    0    0  0.00000000000E+00  0.00000000000E+00  0.45593999997E+02  0.45594000000E+02  0.51100000000E-03 0. -1.
         11   -1    0    0    0    0 -0.00000000000E+00 -0.00000000000E+00 -0.45593999997E+02  0.45594000000E+02  0.51100000000E-03 0.  1.
    9900012    2    1    2    0    0 -0.26518332842E+02  0.16855161353E+02  0.54223646338E+01  0.59301945381E+02  0.50000002468E+02 0.  0.
        -12    1    1    2    0    0  0.26518332842E+02 -0.16855161353E+02 -0.54223646338E+01  0.31886054619E+02  0.00000000000E+00 0.  1.
         11    1    3    3    0    0 -0.13048583975E+02  0.14685840702E+02 -0.78036061553E+01  0.21138489307E+02  0.51100000000E-03 0. -1.
        -11    1    3    3    0    0 -0.17353468623E+02  0.56935015433E+00 -0.60870897174E+01  0.18398904704E+02  0.51100000000E-03 0.  1.
        -12    1    3    3    0    0  0.38837197548E+01  0.15999704961E+01  0.19313060506E+02  0.19764551370E+02  0.00000000000E+00 0.  1.
</event>
<event>
 7    1  0.1138240E-011  0.5930195E+02  0.7816164E-02  0.1266605E+00
        -11   -1    0    0    0    0  0.00000000000E+00  0.00000000000E+00  0.45593999997E+02  0.45594000000E+02  0.51100000000E-03 0. -1.
         11   -1    0    0    0    0 -0.00000000000E+00 -0.00000000000E+00 -0.45593999997E+02  0.45594000000E+02  0.51100000000E-03 0.  1.
    9900012    2    1    2    0    0  0.92727632847E+01  0.16367977882E+02 -0.25745393082E+02  0.59301951267E+02  0.50000013202E+02 0.  0.
        -12    1    1    2    0    0 -0.92727632847E+01 -0.16367977882E+02  0.25745393082E+02  0.31886048733E+02  0.00000000000E+00 0.  1.
         11    1    3    3    0    0  0.32416056448E+01 -0.28388538713E+01  0.11031191138E+02  0.11842899841E+02  0.51100000000E-03 0. -1.
        -11    1    3    3    0    0 -0.41640346768E+01  0.43972734825E+01  0.49628320181E+00  0.60763061268E+01  0.51100000000E-03 0.  1.
        -12    1    3    3    0    0  0.10195192317E+02  0.14809558271E+02 -0.37272867422E+02  0.41382745298E+02  0.00000000000E+00 0.  1.
</event>
<event>
 7    1  0.1138240E-011  0.5930192E+02  0.7816164E-02  0.1266605E+00
        -11   -1    0    0    0    0  0.00000000000E+00  0.00000000000E+00  0.45593999997E+02  0.45594000000E+02  0.51100000000E-03 0. -1.
         11   -1    0    0    0    0 -0.00000000000E+00 -0.00000000000E+00 -0.45593999997E+02  0.45594000000E+02  0.51100000000E-03 0.  1.
    9900012    2    1    2    0    0 -0.47078496977E+01 -0.88942349075E+01 -0.30256418457E+02  0.59301919632E+02  0.49999955508E+02 0.  0.
        -12    1    1    2    0    0  0.47078496977E+01  0.88942349075E+01  0.30256418457E+02  0.31886080368E+02  0.00000000000E+00 0.  1.
         11    1    3    3    0    0 -0.12740592095E+02 -0.53694329186E+01 -0.24348531490E+01  0.14038589919E+02  0.51100000000E-03 0. -1.
        -11    1    3    3    0    0 -0.51339037402E+01 -0.16130797966E+02 -0.17355579880E+02  0.24244087194E+02  0.51100000000E-03 0.  1.
        -12    1    3    3    0    0  0.13166646137E+02  0.12605995978E+02 -0.10465985429E+02  0.21019242519E+02  0.00000000000E+00 0.  1.
</event>
<event>
 7    1  0.1138240E-011  0.5930194E+02  0.7816164E-02  0.1266605E+00
        -11   -1    0    0    0    0  0.00000000000E+00  0.00000000000E+00  0.45593999997E+02  0.45594000000E+02  0.51100000000E-03 0.  1.
         11   -1    0    0    0    0 -0.00000000000E+00 -0.00000000000E+00 -0.45593999997E+02  0.45594000000E+02  0.51100000000E-03 0. -1.
    9900012    2    1    2    0    0  0.70877633612E+01 -0.25382079906E+02 -0.17950888287E+02  0.59301940976E+02  0.49999994434E+02 0.  0.
        -12    1    1    2    0    0 -0.70877633612E+01  0.25382079906E+02  0.17950888287E+02  0.31886059024E+02  0.00000000000E+00 0.  1.
         11    1    3    3    0    0 -0.45558767614E+01 -0.96545136432E+01 -0.23606759553E+02  0.25908391375E+02  0.51100000000E-03 0. -1.
        -11    1    3    3    0    0 -0.78074810529E+00 -0.19661965105E+02  0.52007975251E+01  0.20353150482E+02  0.51100000000E-03 0.  1.
        -12    1    3    3    0    0  0.12424388228E+02  0.39343988421E+01  0.45507374136E+00  0.13040399119E+02  0.00000000000E+00 0.  1.
</event>
<event>
 7    1  0.1138240E-011  0.5930196E+02  0.7816164E-02  0.1266605E+00
        -11   -1    0    0    0    0  0.00000000000E+00  0.00000000000E+00  0.45593999997E+02  0.45594000000E+02  0.51100000000E-03 0. -1.
         11   -1    0    0    0    0 -0.00000000000E+00 -0.00000000000E+00 -0.45593999997E+02  0.45594000000E+02  0.51100000000E-03 0.  1.
    9900012    2    1    2    0    0 -0.18740235947E+02  0.24535882170E+02 -0.79695586948E+01  0.59301955670E+02  0.50000021233E+02 0.  0.
        -12    1    1    2    0    0  0.18740235947E+02 -0.24535882170E+02  0.79695586948E+01  0.31886044330E+02  0.00000000000E+00 0.  1.
         11    1    3    3    0    0 -0.25515877280E+02  0.68296824608E+01  0.75246773815E+01  0.27464983631E+02  0.51100000000E-03 0. -1.
        -11    1    3    3    0    0 -0.66868561585E+01  0.32867607634E+01 -0.74384602354E+01  0.10528415481E+02  0.51100000000E-03 0.  1.
        -12    1    3    3    0    0  0.13462497492E+02  0.14419438945E+02 -0.80557758409E+01  0.21308556559E+02  0.00000000000E+00 0.  1.
</event>
<event>
 7    1  0.1138240E-011  0.5930198E+02  0.7816164E-02  0.1266605E+00
        -11   -1    0    0    0    0  0.00000000000E+00  0.00000000000E+00  0.45593999997E+02  0.45594000000E+02  0.51100000000E-03 0.  1.
         11   -1    0    0    0    0 -0.00000000000E+00 -0.00000000000E+00 -0.45593999997E+02  0.45594000000E+02  0.51100000000E-03 0. -1.
    9900012    2    1    2    0    0  0.17924567141E+00 -0.31478207706E+02  0.50802081970E+01  0.59301981047E+02  0.50000067513E+02 0.  0.
        -12    1    1    2    0    0 -0.17924567141E+00  0.31478207706E+02 -0.50802081970E+01  0.31886018953E+02  0.00000000000E+00 0.  1.
         11    1    3    3    0    0 -0.79024199080E+01 -0.34776341223E+02  0.65659314824E+01  0.36262289031E+02  0.51100000000E-03 0. -1.
        -11    1    3    3    0    0 -0.57268598976E+01 -0.38035750706E+00 -0.57526471066E+01  0.81261642313E+01  0.51100000000E-03 0.  1.
        -12    1    3    3    0    0  0.13808525477E+02  0.36784910248E+01  0.42669238212E+01  0.14913527784E+02  0.00000000000E+00 0.  1.
</event>
<event>
 7    1  0.1138240E-011  0.5930201E+02  0.7816164E-02  0.1266605E+00
        -11   -1    0    0    0    0  0.00000000000E+00  0.00000000000E+00  0.45593999997E+02  0.45594000000E+02  0.51100000000E-03 0.  1.
         11   -1    0    0    0    0 -0.00000000000E+00 -0.00000000000E+00 -0.45593999997E+02  0.45594000000E+02  0.51100000000E-03 0. -1.
    9900012    2    1    2    0    0  0.18210071424E+02 -0.15851937512E+02 -0.20828483242E+02  0.59302010313E+02  0.50000120889E+02 0.  0.
        -12    1    1    2    0    0 -0.18210071424E+02  0.15851937512E+02  0.20828483242E+02  0.31885989687E+02  0.00000000000E+00 0.  1.
         11    1    3    3    0    0  0.53355056134E+01 -0.58683019415E+01 -0.18920578310E+02  0.20515673805E+02  0.51100000000E-03 0. -1.
        -11    1    3    3    0    0  0.20171647581E+02 -0.90462459722E+01 -0.12872782392E+02  0.25581994822E+02  0.51100000000E-03 0.  1.
        -12    1    3    3    0    0 -0.72970817697E+01 -0.93738959839E+00  0.10964877461E+02  0.13204341686E+02  0.00000000000E+00 0.  1.
</event>
<event>
 7    1  0.1138240E-011  0.5930193E+02  0.7816164E-02  0.1266605E+00
        -11   -1    0    0    0    0  0.00000000000E+00  0.00000000000E+00  0.45593999997E+02  0.45594000000E+02  0.51100000000E-03 0. -1.
         11   -1    0    0    0    0 -0.00000000000E+00 -0.00000000000E+00 -0.45593999997E+02  0.45594000000E+02  0.51100000000E-03 0.  1.
    9900012    2    1    2    0    0 -0.19123961303E+02 -0.21503128072E+02 -0.13733573507E+02  0.59301930093E+02  0.49999974587E+02 0.  0.
        -12    1    1    2    0    0  0.19123961303E+02  0.21503128072E+02  0.13733573507E+02  0.31886069907E+02  0.00000000000E+00 0.  1.
         11    1    3    3    0    0 -0.19281530245E+02 -0.62567586409E+01  0.47092955380E+01  0.20811100451E+02  0.51100000000E-03 0. -1.
        -11    1    3    3    0    0 -0.63792833263E+01 -0.20607650781E+02 -0.20532951651E+02  0.29782085727E+02  0.51100000000E-03 0.  1.
        -12    1    3    3    0    0  0.65368522676E+01  0.53612813495E+01  0.20900826064E+01  0.87087439151E+01  0.00000000000E+00 0.  1.
</event>
<event>
 7    1  0.1138240E-011  0.5930171E+02  0.7816164E-02  0.1266606E+00
        -11   -1    0    0    0    0  0.00000000000E+00  0.00000000000E+00  0.45593999997E+02  0.45594000000E+02  0.51100000000E-03 0. -1.
         11   -1    0    0    0    0 -0.00000000000E+00 -0.00000000000E+00 -0.45593999997E+02  0.45594000000E+02  0.51100000000E-03 0.  1.
    9900012    2    1    2    0    0 -0.23497889587E+02 -0.20932671367E+02  0.51388736290E+01  0.59301708780E+02  0.49999570962E+02 0.  0.
        -12    1    1    2    0    0  0.23497889587E+02  0.20932671367E+02 -0.51388736290E+01  0.31886291220E+02  0.00000000000E+00 0.  1.
         11    1    3    3    0    0 -0.26029688915E+02 -0.16969973168E+02  0.41411148744E+00  0.31075652575E+02  0.51100000000E-03 0. -1.
        -11    1    3    3    0    0 -0.39156147533E+01  0.10901787830E+02  0.27317498637E+01  0.11901406403E+02  0.51100000000E-03 0.  1.
        -12    1    3    3    0    0  0.64474140812E+01 -0.14864486028E+02  0.19930122778E+01  0.16324649802E+02  0.00000000000E+00 0.  1.
</event>
<event>
 7    1  0.1138240E-011  0.5930209E+02  0.7816164E-02  0.1266604E+00
        -11   -1    0    0    0    0  0.00000000000E+00  0.00000000000E+00  0.45593999997E+02  0.45594000000E+02  0.51100000000E-03 0.  1.
         11   -1    0    0    0    0 -0.00000000000E+00 -0.00000000000E+00 -0.45593999997E+02  0.45594000000E+02  0.51100000000E-03 0. -1.
    9900012    2    1    2    0    0  0.29558545602E+02  0.96306238467E+01 -0.70890389796E+01  0.59302093906E+02  0.50000273342E+02 0.  0.
        -12    1    1    2    0    0 -0.29558545602E+02 -0.96306238467E+01  0.70890389796E+01  0.31885906094E+02  0.00000000000E+00 0.  1.
         11    1    3    3    0    0 -0.20164481204E+01  0.14616179847E+02 -0.77049113259E+00  0.14774722779E+02  0.51100000000E-03 0. -1.
        -11    1    3    3    0    0 -0.15527219001E+01 -0.44667123926E+01  0.73065858004E+01  0.87033706813E+01  0.51100000000E-03 0.  1.
        -12    1    3    3    0    0  0.33127715622E+02 -0.51884360815E+00 -0.13625133647E+02  0.35824000446E+02  0.00000000000E+00 0.  1.
</event>
<event>
 7    1  0.1138240E-011  0.5930196E+02  0.7816164E-02  0.1266605E+00
        -11   -1    0    0    0    0  0.00000000000E+00  0.00000000000E+00  0.45593999997E+02  0.45594000000E+02  0.51100000000E-03 0.  1.
         11   -1    0    0    0    0 -0.00000000000E+00 -0.00000000000E+00 -0.45593999997E+02  0.45594000000E+02  0.51100000000E-03 0. -1.
    9900012    2    1    2    0    0  0.17950982770E+02 -0.17559886112E+02 -0.19650245196E+02  0.59301960438E+02  0.50000029929E+02 0.  0.
        -12    1    1    2    0    0 -0.17950982770E+02  0.17559886112E+02  0.19650245196E+02  0.31886039562E+02  0.00000000000E+00 0.  1.
         11    1    3    3    0    0  0.84795895254E+01 -0.26844280744E+01 -0.58577959752E-01  0.88945502553E+01  0.51100000000E-03 0. -1.
        -11    1    3    3    0    0  0.58704677999E+01 -0.70657079142E+01  0.13437290565E+02  0.16277204874E+02  0.51100000000E-03 0.  1.
         12    1    3    3    0    0  0.36009254450E+01 -0.78097501230E+01 -0.33028957801E+02  0.34130205309E+02  0.00000000000E+00 0. -1.
</event>
<event>
 7    1  0.1138240E-011  0.5930194E+02  0.7816164E-02  0.1266605E+00
        -11   -1    0    0    0    0  0.00000000000E+00  0.00000000000E+00  0.45593999997E+02  0.45594000000E+02  0.51100000000E-03 0. -1.
         11   -1    0    0    0    0 -0.00000000000E+00 -0.00000000000E+00 -0.45593999997E+02  0.45594000000E+02  0.51100000000E-03 0.  1.
    9900012    2    1    2    0    0  0.85505732544E+00 -0.13115687640E+02  0.29051134395E+02  0.59301940430E+02  0.49999993438E+02 0.  0.
        -12    1    1    2    0    0 -0.85505732544E+00  0.13115687640E+02 -0.29051134395E+02  0.31886059570E+02  0.00000000000E+00 0.  1.
         11    1    3    3    0    0 -0.15204059250E+02 -0.67047039443E+01  0.16673328030E+02  0.23539675880E+02  0.51100000000E-03 0. -1.
        -11    1    3    3    0    0 -0.11414717201E+01 -0.14188915704E+02  0.82014687333E+01  0.16428401510E+02  0.51100000000E-03 0.  1.
        -12    1    3    3    0    0  0.17200588295E+02  0.77779320082E+01  0.41763376310E+01  0.19333863040E+02  0.00000000000E+00 0.  1.
</event>
<event>
 7    1  0.1138240E-011  0.5930194E+02  0.7816164E-02  0.1266605E+00
        -11   -1    0    0    0    0  0.00000000000E+00  0.00000000000E+00  0.45593999997E+02  0.45594000000E+02  0.51100000000E-03 0. -1.
         11   -1    0    0    0    0 -0.00000000000E+00 -0.00000000000E+00 -0.45593999997E+02  0.45594000000E+02  0.51100000000E-03 0.  1.
    9900012    2    1    2    0    0 -0.17394911779E+02  0.23443809585E+02  0.12826757050E+02  0.59301939408E+02  0.49999991575E+02 0.  0.
        -12    1    1    2    0    0  0.17394911779E+02 -0.23443809585E+02 -0.12826757050E+02  0.31886060592E+02  0.00000000000E+00 0.  1.
         11    1    3    3    0    0 -0.17780460667E+02  0.15809535898E+02  0.32403791764E+01  0.24012210734E+02  0.51100000000E-03 0. -1.
        -11    1    3    3    0    0  0.11499330160E+01  0.18984753712E+02 -0.19111672640E+01  0.19115328405E+02  0.51100000000E-03 0.  1.
        -12    1    3    3    0    0 -0.76438412744E+00 -0.11350480025E+02  0.11497545138E+02  0.16174400270E+02  0.00000000000E+00 0.  1.
</event>
<event>
 7    1  0.1138240E-011  0.5930197E+02  0.7816164E-02  0.1266605E+00
        -11   -1    0    0    0    0  0.00000000000E+00  0.00000000000E+00  0.45593999997E+02  0.45594000000E+02  0.51100000000E-03 0. -1.
         11   -1    0    0    0    0 -0.00000000000E+00 -0.00000000000E+00 -0.45593999997E+02  0.45594000000E+02  0.51100000000E-03 0.  1.
    9900012    2    1    2    0    0  0.32157012926E+01  0.20770929457E+02  0.23978051859E+02  0.59301965184E+02  0.50000038584E+02 0.  0.
        -12    1    1    2    0    0 -0.32157012926E+01 -0.20770929457E+02 -0.23978051859E+02  0.31886034816E+02  0.00000000000E+00 0.  1.
         11    1    3    3    0    0  0.37401602883E+01  0.75987741582E+01  0.91862000439E+00  0.85190393040E+01  0.51100000000E-03 0. -1.
        -11    1    3    3    0    0 -0.17969872183E+02  0.14073369297E+02  0.12763163603E+01  0.22860555841E+02  0.51100000000E-03 0.  1.
         12    1    3    3    0    0  0.17445413187E+02 -0.90121399839E+00  0.21783115495E+02  0.27922370039E+02  0.00000000000E+00 0. -1.
</event>
<event>
 7    1  0.1138240E-011  0.5930195E+02  0.7816164E-02  0.1266605E+00
        -11   -1    0    0    0    0  0.00000000000E+00  0.00000000000E+00  0.45593999997E+02  0.45594000000E+02  0.51100000000E-03 0.  1.
         11   -1    0    0    0    0 -0.00000000000E+00 -0.00000000000E+00 -0.45593999997E+02  0.45594000000E+02  0.51100000000E-03 0. -1.
    9900012    2    1    2    0    0 -0.20830378702E+02  0.13290456041E+01 -0.24104962756E+02  0.59301948683E+02  0.50000008490E+02 0.  0.
        -12    1    1    2    0    0  0.20830378702E+02 -0.13290456041E+01  0.24104962756E+02  0.31886051317E+02  0.00000000000E+00 0.  1.
         11    1    3    3    0    0  0.85618928612E+00  0.13750066951E+02 -0.22296212043E+02  0.26209129573E+02  0.51100000000E-03 0. -1.
        -11    1    3    3    0    0 -0.18824950156E+02 -0.45139866581E+01 -0.96186973746E+01  0.21616525238E+02  0.51100000000E-03 0.  1.
        -12    1    3    3    0    0 -0.28616178330E+01 -0.79070346883E+01  0.78099466616E+01  0.11476293872E+02  0.00000000000E+00 0.  1.
</event>
<event>
 7    1  0.1138240E-011  0.5930196E+02  0.7816164E-02  0.1266605E+00
        -11   -1    0    0    0    0  0.00000000000E+00  0.00000000000E+00  0.45593999997E+02  0.45594000000E+02  0.51100000000E-03 0. -1.
         11   -1    0    0    0    0 -0.00000000000E+00 -0.00000000000E+00 -0.45593999997E+02  0.45594000000E+02  0.51100000000E-03 0.  1.
    9900012    2    1    2    0    0 -0.11800593054E+02  0.29487607702E+02  0.28189150553E+01  0.59301964083E+02  0.50000036576E+02 0.  0.
        -12    1    1    2    0    0  0.11800593054E+02 -0.29487607702E+02 -0.28189150553E+01  0.31886035917E+02  0.00000000000E+00 0.  1.
         11    1    3    3    0    0 -0.66301642515E+01 -0.29994411623E+01  0.49422645742E+01  0.87966871418E+01  0.51100000000E-03 0. -1.
        -11    1    3    3    0    0  0.10874438652E+02  0.29992914798E+02  0.58183313551E+01  0.32429636663E+02  0.51100000000E-03 0.  1.
         12    1    3    3    0    0 -0.16044867454E+02  0.24941340662E+01 -0.79416808740E+01  0.18075640278E+02  0.00000000000E+00 0. -1.
</event>
<event>
 7    1  0.1138240E-011  0.5930192E+02  0.7816164E-02  0.1266605E+00
        -11   -1    0    0    0    0  0.00000000000E+00  0.00000000000E+00  0.45593999997E+02  0.45594000000E+02  0.51100000000E-03 0.  1.
         11   -1    0    0    0    0 -0.00000000000E+00 -0.00000000000E+00 -0.45593999997E+02  0.45594000000E+02  0.51100000000E-03 0. -1.
    9900012    2    1    2    0    0  0.26138479715E+02 -0.59687222994E+01 -0.17259101582E+02  0.59301915965E+02  0.49999948820E+02 0.  0.
        -12    1    1    2    0    0 -0.26138479715E+02  0.59687222994E+01  0.17259101582E+02  0.31886084035E+02  0.00000000000E+00 0.  1.
         11    1    3    3    0    0  0.20933995108E+02 -0.62498368498E+01 -0.19851904141E+02  0.29519327738E+02  0.51100000000E-03 0. -1.
        -11    1    3    3    0    0  0.98350835841E+01 -0.96817244492E+01 -0.67477960354E+01  0.15362207166E+02  0.51100000000E-03 0.  1.
        -12    1    3    3    0    0 -0.46305989769E+01  0.99628389996E+01  0.93405985950E+01  0.14420381060E+02  0.00000000000E+00 0.  1.
</event>
<event>
 7    1  0.1148376E-011  0.5930194E+02  0.7816164E-02  0.1266605E+00
        -11   -1    0    0    0    0  0.00000000000E+00  0.00000000000E+00  0.45593999997E+02  0.45594000000E+02  0.51100000000E-03 0. -1.
         11   -1    0    0    0    0 -0.00000000000E+00 -0.00000000000E+00 -0.45593999997E+02  0.45594000000E+02  0.51100000000E-03 0.  1.
    9900012    2    1    2    0    0  0.11116875776E+02  0.50297670732E+01  0.29459081071E+02  0.59301938133E+02  0.49999989249E+02 0.  0.
        -12    1    1    2    0    0 -0.11116875776E+02 -0.50297670732E+01 -0.29459081071E+02  0.31886061867E+02  0.00000000000E+00 0.  1.
         11    1    3    3    0    0  0.21760010986E+02  0.10744742650E+02  0.26070217138E+02  0.35617464742E+02  0.51100000000E-03 0. -1.
        -11    1    3    3    0    0  0.22116976672E+01  0.47052481380E+01 -0.29340282269E+01  0.59698817835E+01  0.51100000000E-03 0.  1.
        -12    1    3    3    0    0 -0.12854832877E+02 -0.10420223715E+02  0.63228921599E+01  0.17714591608E+02  0.00000000000E+00 0.  1.
</event>
<event>
 7    1  0.1138240E-011  0.5930192E+02  0.7816164E-02  0.1266605E+00
        -11   -1    0    0    0    0  0.00000000000E+00  0.00000000000E+00  0.45593999997E+02  0.45594000000E+02  0.51100000000E-03 0.  1.
         11   -1    0    0    0    0 -0.00000000000E+00 -0.00000000000E+00 -0.45593999997E+02  0.45594000000E+02  0.51100000000E-03 0. -1.
    9900012    2    1    2    0    0 -0.28651234463E+02  0.13164420217E+01 -0.13931821951E+02  0.59301922807E+02  0.49999961299E+02 0.  0.
        -12    1    1    2    0    0  0.28651234463E+02 -0.13164420217E+01  0.13931821951E+02  0.31886077193E+02  0.00000000000E+00 0.  1.
         11    1    3    3    0    0  0.53572484011E+01 -0.52165721743E+00 -0.13556284336E+02  0.14585783556E+02  0.51100000000E-03 0. -1.
        -11    1    3    3    0    0 -0.48961744801E+00 -0.80492096372E-01  0.96614747820E+01  0.96742079493E+01  0.51100000000E-03 0.  1.
        -12    1    3    3    0    0 -0.33518865416E+02  0.19185913355E+01 -0.10037012397E+02  0.35041931302E+02  0.00000000000E+00 0.  1.
</event>
<event>
 7    1  0.1138240E-011  0.5930195E+02  0.7816164E-02  0.1266605E+00
        -11   -1    0    0    0    0  0.00000000000E+00  0.00000000000E+00  0.45593999997E+02  0.45594000000E+02  0.51100000000E-03 0.  1.
         11   -1    0    0    0    0 -0.00000000000E+00 -0.00000000000E+00 -0.45593999997E+02  0.45594000000E+02  0.51100000000E-03 0. -1.
    9900012    2    1    2    0    0  0.20206042004E+02  0.68479928203E+01 -0.23696863831E+02  0.59301945140E+02  0.50000002028E+02 0.  0.
        -12    1    1    2    0    0 -0.20206042004E+02 -0.68479928203E+01  0.23696863831E+02  0.31886054860E+02  0.00000000000E+00 0.  1.
         11    1    3    3    0    0  0.41196446781E+01  0.13215680577E+01 -0.29577712268E+02  0.29892458542E+02  0.51100000000E-03 0. -1.
        -11    1    3    3    0    0 -0.57235410716E+01  0.27124184584E+01  0.36392405870E+01  0.73048072255E+01  0.51100000000E-03 0.  1.
        -12    1    3    3    0    0  0.21809938398E+02  0.28140063042E+01  0.22416078510E+01  0.22104679372E+02  0.00000000000E+00 0.  1.
</event>
<event>
 7    1  0.1138240E-011  0.5930195E+02  0.7816164E-02  0.1266605E+00
        -11   -1    0    0    0    0  0.00000000000E+00  0.00000000000E+00  0.45593999997E+02  0.45594000000E+02  0.51100000000E-03 0.  1.
         11   -1    0    0    0    0 -0.00000000000E+00 -0.00000000000E+00 -0.45593999997E+02  0.45594000000E+02  0.51100000000E-03 0. -1.
    9900012    2    1    2    0    0  0.27807025107E+02  0.37091342004E+01 -0.15156917180E+02  0.59301945678E+02  0.50000003010E+02 0.  0.
        -12    1    1    2    0    0 -0.27807025107E+02 -0.37091342004E+01  0.15156917180E+02  0.31886054322E+02  0.00000000000E+00 0.  1.
         11    1    3    3    0    0 -0.50720172578E+01 -0.29185199027E+01  0.31040074687E+01  0.66240456002E+01  0.51100000000E-03 0. -1.
        -11    1    3    3    0    0  0.13344140186E+02  0.13120167382E+02 -0.24809378951E+02  0.31075877359E+02  0.51100000000E-03 0.  1.
         12    1    3    3    0    0  0.19534902178E+02 -0.64925132790E+01  0.65484543024E+01  0.21602022719E+02  0.00000000000E+00 0. -1.
</event>
<event>
 7    1  0.1138240E-011  0.5930195E+02  0.7816164E-02  0.1266605E+00
        -11   -1    0    0    0    0  0.00000000000E+00  0.00000000000E+00  0.45593999997E+02  0.45594000000E+02  0.51100000000E-03 0.  1.
         11   -1    0    0    0    0 -0.00000000000E+00 -0.00000000000E+00 -0.45593999997E+02  0.45594000000E+02  0.51100000000E-03 0. -1.
    9900012    2    1    2    0    0 -0.85942539372E+01  0.30130966749E+02 -0.59147029299E+01  0.59301951817E+02  0.50000014206E+02 0.  0.
        -12    1    1    2    0    0  0.85942539372E+01 -0.30130966749E+02  0.59147029299E+01  0.31886048183E+02  0.00000000000E+00 0.  1.
         11    1    3    3    0    0  0.12079331267E+02 -0.43439301796E+01  0.95589297807E+01  0.16004784037E+02  0.51100000000E-03 0.  1.
        -11    1    3    3    0    0 -0.31285313116E+01  0.73453342881E+01 -0.45646424971E+01  0.91966083617E+01  0.51100000000E-03 0. -1.
        -12    1    3    3    0    0 -0.17545053892E+02  0.27129562641E+02 -0.10908990213E+02  0.34100559418E+02  0.00000000000E+00 0.  1.
</event>
<event>
 7    1  0.1138240E-011  0.5930195E+02  0.7816164E-02  0.1266605E+00
        -11   -1    0    0    0    0  0.00000000000E+00  0.00000000000E+00  0.45593999997E+02  0.45594000000E+02  0.51100000000E-03 0.  1.
         11   -1    0    0    0    0 -0.00000000000E+00 -0.00000000000E+00 -0.45593999997E+02  0.45594000000E+02  0.51100000000E-03 0. -1.
    9900012    2    1    2    0    0  0.74584824781E+00 -0.13215971351E+02 -0.29008659309E+02  0.59301945003E+02  0.50000001779E+02 0.  0.
        -12    1    1    2    0    0 -0.74584824781E+00  0.13215971351E+02  0.29008659309E+02  0.31886054997E+02  0.00000000000E+00 0.  1.
         11    1    3    3    0    0 -0.33740067393E+01 -0.51606483270E+01 -0.22914237036E+02  0.23729274575E+02  0.51100000000E-03 0. -1.
        -11    1    3    3    0    0 -0.14271011844E+02 -0.79140003413E+01 -0.53243873004E+01  0.17165147271E+02  0.51100000000E-03 0.  1.
         12    1    3    3    0    0  0.18390866832E+02 -0.14132268296E+00 -0.77003497203E+00  0.18407523157E+02  0.00000000000E+00 0. -1.
</event>
<event>
 7    1  0.1138240E-011  0.5930203E+02  0.7816164E-02  0.1266604E+00
        -11   -1    0    0    0    0  0.00000000000E+00  0.00000000000E+00  0.45593999997E+02  0.45594000000E+02  0.51100000000E-03 0.  1.
         11   -1    0    0    0    0 -0.00000000000E+00 -0.00000000000E+00 -0.45593999997E+02  0.45594000000E+02  0.51100000000E-03 0. -1.
    9900012    2    1    2    0    0 -0.22519452030E+02 -0.22108117254E+02  0.45629680846E+01  0.59302027442E+02  0.50000152127E+02 0.  0.
        -12    1    1    2    0    0  0.22519452030E+02  0.22108117254E+02 -0.45629680846E+01  0.31885972558E+02  0.00000000000E+00 0.  1.
         11    1    3    3    0    0  0.23085067655E+01  0.38548531815E+00  0.43575579272E+01  0.49463232574E+01  0.51100000000E-03 0.  1.
        -11    1    3    3    0    0 -0.25572540706E+01  0.83762356763E+01 -0.11570208503E+02  0.14511050877E+02  0.51100000000E-03 0. -1.
         12    1    3    3    0    0 -0.22270704724E+02 -0.30869838248E+02  0.11775618660E+02  0.39844653308E+02  0.00000000000E+00 0. -1.
</event>
<event>
 7    1  0.1138240E-011  0.5930195E+02  0.7816164E-02  0.1266605E+00
        -11   -1    0    0    0    0  0.00000000000E+00  0.00000000000E+00  0.45593999997E+02  0.45594000000E+02  0.51100000000E-03 0.  1.
         11   -1    0    0    0    0 -0.00000000000E+00 -0.00000000000E+00 -0.45593999997E+02  0.45594000000E+02  0.51100000000E-03 0. -1.
    9900012    2    1    2    0    0  0.18554641228E+02  0.89008633871E+01 -0.24356115687E+02  0.59301945815E+02  0.50000003259E+02 0.  0.
        -12    1    1    2    0    0 -0.18554641228E+02 -0.89008633871E+01  0.24356115687E+02  0.31886054185E+02  0.00000000000E+00 0.  1.
         11    1    3    3    0    0 -0.71960046095E+00  0.20549618562E+02 -0.81769317444E+01  0.22128417496E+02  0.51100000000E-03 0. -1.
        -11    1    3    3    0    0  0.13052900013E+02  0.50270956884E+01 -0.14344673736E+01  0.14060852987E+02  0.51100000000E-03 0.  1.
         12    1    3    3    0    0  0.62213416761E+01 -0.16675850864E+02 -0.14744716569E+02  0.23112675332E+02  0.00000000000E+00 0. -1.
</event>
<event>
 7    1  0.1138240E-011  0.5930192E+02  0.7816164E-02  0.1266605E+00
        -11   -1    0    0    0    0  0.00000000000E+00  0.00000000000E+00  0.45593999997E+02  0.45594000000E+02  0.51100000000E-03 0.  1.
         11   -1    0    0    0    0 -0.00000000000E+00 -0.00000000000E+00 -0.45593999997E+02  0.45594000000E+02  0.51100000000E-03 0. -1.
    9900012    2    1    2    0    0  0.12641734214E+02  0.19510723971E+02 -0.21822926358E+02  0.59301922966E+02  0.49999961588E+02 0.  0.
        -12    1    1    2    0    0 -0.12641734214E+02 -0.19510723971E+02  0.21822926358E+02  0.31886077034E+02  0.00000000000E+00 0.  1.
         11    1    3    3    0    0 -0.39988513434E+01  0.55336412495E+01 -0.23787486770E+00  0.68314407162E+01  0.51100000000E-03 0. -1.
        -11    1    3    3    0    0  0.85185486181E+01  0.17024895141E+02  0.87265306662E+01  0.20941945059E+02  0.51100000000E-03 0.  1.
         12    1    3    3    0    0  0.81220369396E+01 -0.30478124196E+01 -0.30311582156E+02  0.31528537191E+02  0.00000000000E+00 0. -1.
</event>
<event>
 7    1  0.1138240E-011  0.5930195E+02  0.7816164E-02  0.1266605E+00
        -11   -1    0    0    0    0  0.00000000000E+00  0.00000000000E+00  0.45593999997E+02  0.45594000000E+02  0.51100000000E-03 0.  1.
         11   -1    0    0    0    0 -0.00000000000E+00 -0.00000000000E+00 -0.45593999997E+02  0.45594000000E+02  0.51100000000E-03 0. -1.
    9900012    2    1    2    0    0 -0.34983208144E+01  0.18158233618E+02 -0.25976146612E+02  0.59301954628E+02  0.50000019332E+02 0.  0.
        -12    1    1    2    0    0  0.34983208144E+01 -0.18158233618E+02  0.25976146612E+02  0.31886045372E+02  0.00000000000E+00 0.  1.
         11    1    3    3    0    0 -0.58585281435E+01 -0.51742919987E+01 -0.26759081705E+02  0.27877304455E+02  0.51100000000E-03 0. -1.
        -11    1    3    3    0    0  0.92954279726E+01  0.27910107865E+01  0.86462603196E+00  0.97438339908E+01  0.51100000000E-03 0.  1.
        -12    1    3    3    0    0 -0.69352206435E+01  0.20541514831E+02 -0.81690938462E-01  0.21680816182E+02  0.00000000000E+00 0.  1.
</event>
<event>
 7    1  0.1138240E-011  0.5930197E+02  0.7816164E-02  0.1266605E+00
        -11   -1    0    0    0    0  0.00000000000E+00  0.00000000000E+00  0.45593999997E+02  0.45594000000E+02  0.51100000000E-03 0. -1.
         11   -1    0    0    0    0 -0.00000000000E+00 -0.00000000000E+00 -0.45593999997E+02  0.45594000000E+02  0.51100000000E-03 0.  1.
    9900012    2    1    2    0    0 -0.12004773311E+02  0.25368538623E+02 -0.15134129606E+02  0.59301965234E+02  0.50000038676E+02 0.  0.
        -12    1    1    2    0    0  0.12004773311E+02 -0.25368538623E+02  0.15134129606E+02  0.31886034766E+02  0.00000000000E+00 0.  1.
         11    1    3    3    0    0 -0.20738358868E+01  0.25387240691E+02  0.59125184786E+01  0.26149008780E+02  0.51100000000E-03 0. -1.
        -11    1    3    3    0    0  0.75023446930E+01  0.10761630013E+01 -0.97557308660E+01  0.12353849104E+02  0.51100000000E-03 0.  1.
         12    1    3    3    0    0 -0.17433282118E+02 -0.10948650689E+01 -0.11290917219E+02  0.20799107350E+02  0.00000000000E+00 0. -1.
</event>
<event>
 7    1  0.1138240E-011  0.5930197E+02  0.7816164E-02  0.1266605E+00
        -11   -1    0    0    0    0  0.00000000000E+00  0.00000000000E+00  0.45593999997E+02  0.45594000000E+02  0.51100000000E-03 0.  1.
         11   -1    0    0    0    0 -0.00000000000E+00 -0.00000000000E+00 -0.45593999997E+02  0.45594000000E+02  0.51100000000E-03 0. -1.
    9900012    2    1    2    0    0  0.12960286729E+02 -0.25962430965E+02 -0.13217486622E+02  0.59301971613E+02  0.50000050308E+02 0.  0.
        -12    1    1    2    0    0 -0.12960286729E+02  0.25962430965E+02  0.13217486622E+02  0.31886028387E+02  0.00000000000E+00 0.  1.
         11    1    3    3    0    0  0.15534309995E+02 -0.33027108633E+00 -0.17591694973E+02  0.23471080042E+02  0.51100000000E-03 0. -1.
        -11    1    3    3    0    0  0.10547168532E+02 -0.70827713070E+01  0.64990712953E-01  0.12704827330E+02  0.51100000000E-03 0.  1.
        -12    1    3    3    0    0 -0.13121191799E+02 -0.18549388572E+02  0.43092176381E+01  0.23126064241E+02  0.00000000000E+00 0.  1.
</event>
<event>
 7    1  0.1138240E-011  0.5930195E+02  0.7816164E-02  0.1266605E+00
        -11   -1    0    0    0    0  0.00000000000E+00  0.00000000000E+00  0.45593999997E+02  0.45594000000E+02  0.51100000000E-03 0. -1.
         11   -1    0    0    0    0 -0.00000000000E+00 -0.00000000000E+00 -0.45593999997E+02  0.45594000000E+02  0.51100000000E-03 0.  1.
    9900012    2    1    2    0    0  0.19422859891E+02  0.48932017420E+01  0.24809865133E+02  0.59301947915E+02  0.50000007090E+02 0.  0.
        -12    1    1    2    0    0 -0.19422859891E+02 -0.48932017420E+01 -0.24809865133E+02  0.31886052085E+02  0.00000000000E+00 0.  1.
         11    1    3    3    0    0  0.10327117258E+01  0.59284880693E+01  0.69763758281E+01  0.92132124827E+01  0.51100000000E-03 0. -1.
        -11    1    3    3    0    0  0.95074118012E+01  0.70987227343E+00  0.31937144955E+02  0.33329806870E+02  0.51100000000E-03 0.  1.
        -12    1    3    3    0    0  0.88827363644E+01 -0.17451586007E+01 -0.14103655651E+02  0.16758928563E+02  0.00000000000E+00 0.  1.
</event>
<event>
 7    1  0.1138240E-011  0.5930194E+02  0.7816164E-02  0.1266605E+00
        -11   -1    0    0    0    0  0.00000000000E+00  0.00000000000E+00  0.45593999997E+02  0.45594000000E+02  0.51100000000E-03 0.  1.
         11   -1    0    0    0    0 -0.00000000000E+00 -0.00000000000E+00 -0.45593999997E+02  0.45594000000E+02  0.51100000000E-03 0. -1.
    9900012    2    1    2    0    0  0.25750369577E+02  0.18135813768E+02 -0.49730972012E+01  0.59301937682E+02  0.49999988427E+02 0.  0.
        -12    1    1    2    0    0 -0.25750369577E+02 -0.18135813768E+02  0.49730972012E+01  0.31886062318E+02  0.00000000000E+00 0.  1.
         11    1    3    3    0    0  0.13555411583E+02  0.27207893941E+02 -0.65110672039E+01  0.31087178584E+02  0.51100000000E-03 0. -1.
        -11    1    3    3    0    0 -0.40497921965E+01  0.51034574165E+01  0.13519449187E+01  0.66538597642E+01  0.51100000000E-03 0.  1.
        -12    1    3    3    0    0  0.16244750191E+02 -0.14175537590E+02  0.18602508402E+00  0.21560899334E+02  0.00000000000E+00 0.  1.
</event>
<event>
 7    1  0.1138240E-011  0.5930195E+02  0.7816164E-02  0.1266605E+00
        -11   -1    0    0    0    0  0.00000000000E+00  0.00000000000E+00  0.45593999997E+02  0.45594000000E+02  0.51100000000E-03 0.  1.
         11   -1    0    0    0    0 -0.00000000000E+00 -0.00000000000E+00 -0.45593999997E+02  0.45594000000E+02  0.51100000000E-03 0. -1.
    9900012    2    1    2    0    0  0.20209665239E+02  0.22157378546E+02 -0.10832354704E+02  0.59301954438E+02  0.50000018987E+02 0.  0.
        -12    1    1    2    0    0 -0.20209665239E+02 -0.22157378546E+02  0.10832354704E+02  0.31886045562E+02  0.00000000000E+00 0.  1.
         11    1    3    3    0    0  0.13796235142E+02  0.74817181742E+01 -0.60461098669E+01  0.16818669856E+02  0.51100000000E-03 0. -1.
        -11    1    3    3    0    0  0.19446399436E+02  0.39717752279E+01  0.79176515205E+01  0.21368824380E+02  0.51100000000E-03 0.  1.
         12    1    3    3    0    0 -0.13032969340E+02  0.10703885144E+02 -0.12703896358E+02  0.21114460203E+02  0.00000000000E+00 0. -1.
</event>
<event>
 7    1  0.1138240E-011  0.5930195E+02  0.7816164E-02  0.1266605E+00
        -11   -1    0    0    0    0  0.00000000000E+00  0.00000000000E+00  0.45593999997E+02  0.45594000000E+02  0.51100000000E-03 0.  1.
         11   -1    0    0    0    0 -0.00000000000E+00 -0.00000000000E+00 -0.45593999997E+02  0.45594000000E+02  0.51100000000E-03 0. -1.
    9900012    2    1    2    0    0 -0.40933263293E+01  0.12298745221E+02 -0.29132549638E+02  0.59301954418E+02  0.50000018949E+02 0.  0.
        -12    1    1    2    0    0  0.40933263293E+01 -0.12298745221E+02  0.29132549638E+02  0.31886045582E+02  0.00000000000E+00 0.  1.
         11    1    3    3    0    0  0.67063837287E+01  0.87286965569E+01 -0.90607199103E+01  0.14257011323E+02  0.51100000000E-03 0. -1.
        -11    1    3    3    0    0  0.89809633105E+01 -0.11819116331E+02 -0.43843876294E+01  0.15478115776E+02  0.51100000000E-03 0.  1.
         12    1    3    3    0    0 -0.19780673368E+02  0.15389164995E+02 -0.15687442098E+02  0.29566827319E+02  0.00000000000E+00 0. -1.
</event>
<event>
 7    1  0.1138240E-011  0.5930196E+02  0.7816164E-02  0.1266605E+00
        -11   -1    0    0    0    0  0.00000000000E+00  0.00000000000E+00  0.45593999997E+02  0.45594000000E+02  0.51100000000E-03 0.  1.
         11   -1    0    0    0    0 -0.00000000000E+00 -0.00000000000E+00 -0.45593999997E+02  0.45594000000E+02  0.51100000000E-03 0. -1.
    9900012    2    1    2    0    0 -0.84880725153E+01 -0.19235305127E+02 -0.23972386633E+02  0.59301958238E+02  0.50000025916E+02 0.  0.
        -12    1    1    2    0    0  0.84880725153E+01  0.19235305127E+02  0.23972386633E+02  0.31886041762E+02  0.00000000000E+00 0.  1.
         11    1    3    3    0    0 -0.10996712321E+00 -0.71699510035E+01 -0.15473706970E+02  0.17054497876E+02  0.51100000000E-03 0. -1.
        -11    1    3    3    0    0  0.14621671406E+01  0.10080060662E+02 -0.14081802286E+02  0.17379376042E+02  0.51100000000E-03 0.  1.
        -12    1    3    3    0    0 -0.98402725328E+01 -0.22145414786E+02  0.55831226225E+01  0.24868084320E+02  0.00000000000E+00 0.  1.
</event>
<event>
 7    1  0.1138240E-011  0.5930196E+02  0.7816164E-02  0.1266605E+00
        -11   -1    0    0    0    0  0.00000000000E+00  0.00000000000E+00  0.45593999997E+02  0.45594000000E+02  0.51100000000E-03 0. -1.
         11   -1    0    0    0    0 -0.00000000000E+00 -0.00000000000E+00 -0.45593999997E+02  0.45594000000E+02  0.51100000000E-03 0.  1.
    9900012    2    1    2    0    0  0.21437916926E+02 -0.22629996821E+02  0.67095969672E+01  0.59301957133E+02  0.50000023901E+02 0.  0.
        -12    1    1    2    0    0 -0.21437916926E+02  0.22629996821E+02 -0.67095969672E+01  0.31886042867E+02  0.00000000000E+00 0.  1.
         11    1    3    3    0    0 -0.79726201946E+01  0.48718619443E+01  0.80251117482E+01  0.12316660684E+02  0.51100000000E-03 0. -1.
        -11    1    3    3    0    0  0.70063255946E+01  0.34726415698E+01 -0.37653339291E+01  0.86790309175E+01  0.51100000000E-03 0.  1.
         12    1    3    3    0    0  0.22404211526E+02 -0.30974500335E+02  0.24498191480E+01  0.38306265532E+02  0.00000000000E+00 0. -1.
</event>
<event>
 7    1  0.1138240E-011  0.5930195E+02  0.7816164E-02  0.1266605E+00
        -11   -1    0    0    0    0  0.00000000000E+00  0.00000000000E+00  0.45593999997E+02  0.45594000000E+02  0.51100000000E-03 0. -1.
         11   -1    0    0    0    0 -0.00000000000E+00 -0.00000000000E+00 -0.45593999997E+02  0.45594000000E+02  0.51100000000E-03 0.  1.
    9900012    2    1    2    0    0 -0.87177386739E+01 -0.54940092817E+01  0.30175109170E+02  0.59301947893E+02  0.50000007049E+02 0.  0.
        -12    1    1    2    0    0  0.87177386739E+01  0.54940092817E+01 -0.30175109170E+02  0.31886052107E+02  0.00000000000E+00 0.  1.
         11    1    3    3    0    0 -0.11462506395E+01  0.14257307779E+02  0.26646802560E+02  0.30242962860E+02  0.51100000000E-03 0. -1.
        -11    1    3    3    0    0  0.58242993708E+01 -0.10774020847E+02 -0.10596828998E+01  0.12293287456E+02  0.51100000000E-03 0.  1.
        -12    1    3    3    0    0 -0.13395787405E+02 -0.89772962137E+01  0.45879895098E+01  0.16765697577E+02  0.00000000000E+00 0.  1.
</event>
<event>
 7    1  0.1138240E-011  0.5930183E+02  0.7816164E-02  0.1266605E+00
        -11   -1    0    0    0    0  0.00000000000E+00  0.00000000000E+00  0.45593999997E+02  0.45594000000E+02  0.51100000000E-03 0.  1.
         11   -1    0    0    0    0 -0.00000000000E+00 -0.00000000000E+00 -0.45593999997E+02  0.45594000000E+02  0.51100000000E-03 0. -1.
    9900012    2    1    2    0    0  0.21236155655E+02  0.49197555485E+01 -0.23271222333E+02  0.59301826028E+02  0.49999784797E+02 0.  0.
        -12    1    1    2    0    0 -0.21236155655E+02 -0.49197555485E+01  0.23271222333E+02  0.31886173972E+02  0.00000000000E+00 0.  1.
         11    1    3    3    0    0  0.16694107674E+02  0.56845183197E+01 -0.50832308634E+01  0.18353370694E+02  0.51100000000E-03 0.  1.
        -11    1    3    3    0    0  0.14523841532E+02 -0.13894118061E+02 -0.85193569731E+01  0.21830435933E+02  0.51100000000E-03 0. -1.
         12    1    3    3    0    0 -0.99817935507E+01  0.13129355290E+02 -0.96686344968E+01  0.19118019402E+02  0.00000000000E+00 0. -1.
</event>
<event>
 7    1  0.1138240E-011  0.5930188E+02  0.7816164E-02  0.1266605E+00
        -11   -1    0    0    0    0  0.00000000000E+00  0.00000000000E+00  0.45593999997E+02  0.45594000000E+02  0.51100000000E-03 0. -1.
         11   -1    0    0    0    0 -0.00000000000E+00 -0.00000000000E+00 -0.45593999997E+02  0.45594000000E+02  0.51100000000E-03 0.  1.
    9900012    2    1    2    0    0  0.79823544310E+00  0.11214000204E+02  0.29838460068E+02  0.59301879515E+02  0.49999882343E+02 0.  0.
        -12    1    1    2    0    0 -0.79823544310E+00 -0.11214000204E+02 -0.29838460068E+02  0.31886120485E+02  0.00000000000E+00 0.  1.
         11    1    3    3    0    0 -0.11453117664E+02  0.94675996340E+01  0.70202737772E+01  0.16434524368E+02  0.51100000000E-03 0. -1.
        -11    1    3    3    0    0  0.14477544950E+02  0.15606605218E+02  0.88189412575E+01  0.23042117077E+02  0.51100000000E-03 0.  1.
         12    1    3    3    0    0 -0.22261918431E+01 -0.13860204648E+02  0.13999245033E+02  0.19825238070E+02  0.00000000000E+00 0. -1.
</event>
<event>
 7    1  0.1138240E-011  0.5930194E+02  0.7816164E-02  0.1266605E+00
        -11   -1    0    0    0    0  0.00000000000E+00  0.00000000000E+00  0.45593999997E+02  0.45594000000E+02  0.51100000000E-03 0. -1.
         11   -1    0    0    0    0 -0.00000000000E+00 -0.00000000000E+00 -0.45593999997E+02  0.45594000000E+02  0.51100000000E-03 0.  1.
    9900012    2    1    2    0    0  0.70979723257E+01  0.17251145287E+02  0.25859960302E+02  0.59301940794E+02  0.49999994103E+02 0.  0.
        -12    1    1    2    0    0 -0.70979723257E+01 -0.17251145287E+02 -0.25859960302E+02  0.31886059206E+02  0.00000000000E+00 0.  1.
         11    1    3    3    0    0 -0.10547700046E+01  0.12146759775E+02  0.73060967938E+00  0.12214340078E+02  0.51100000000E-03 0. -1.
        -11    1    3    3    0    0  0.12007571754E+02  0.72495080537E+01 -0.62814000514E+01  0.15368576164E+02  0.51100000000E-03 0.  1.
         12    1    3    3    0    0 -0.38548294233E+01 -0.21451225415E+01  0.31410750674E+02  0.31719024552E+02  0.00000000000E+00 0. -1.
</event>
<event>
 7    1  0.1138240E-011  0.5930195E+02  0.7816164E-02  0.1266605E+00
        -11   -1    0    0    0    0  0.00000000000E+00  0.00000000000E+00  0.45593999997E+02  0.45594000000E+02  0.51100000000E-03 0. -1.
         11   -1    0    0    0    0 -0.00000000000E+00 -0.00000000000E+00 -0.45593999997E+02  0.45594000000E+02  0.51100000000E-03 0.  1.
    9900012    2    1    2    0    0  0.29648788040E+02 -0.21228659629E+01  0.11539624859E+02  0.59301950794E+02  0.50000012339E+02 0.  0.
        -12    1    1    2    0    0 -0.29648788040E+02  0.21228659629E+01 -0.11539624859E+02  0.31886049206E+02  0.00000000000E+00 0.  1.
         11    1    3    3    0    0  0.44743365536E+01 -0.19227933506E+02  0.15177164531E+02  0.24901394298E+02  0.51100000000E-03 0. -1.
        -11    1    3    3    0    0  0.25762770463E+01 -0.15072358719E+01 -0.41596249150E+01  0.51197112309E+01  0.51100000000E-03 0.  1.
        -12    1    3    3    0    0  0.22598174440E+02  0.18612303415E+02  0.52208524229E+00  0.29280845265E+02  0.00000000000E+00 0.  1.
</event>
<event>
 7    1  0.1138240E-011  0.5930197E+02  0.7816164E-02  0.1266605E+00
        -11   -1    0    0    0    0  0.00000000000E+00  0.00000000000E+00  0.45593999997E+02  0.45594000000E+02  0.51100000000E-03 0. -1.
         11   -1    0    0    0    0 -0.00000000000E+00 -0.00000000000E+00 -0.45593999997E+02  0.45594000000E+02  0.51100000000E-03 0.  1.
    9900012    2    1    2    0    0  0.26872609103E+02 -0.13070080208E+02 -0.11124516272E+02  0.59301968906E+02  0.50000045372E+02 0.  0.
        -12    1    1    2    0    0 -0.26872609103E+02  0.13070080208E+02  0.11124516272E+02  0.31886031094E+02  0.00000000000E+00 0.  1.
         11    1    3    3    0    0  0.23077495273E+02 -0.21040972126E+01  0.51490397366E+01  0.23738378707E+02  0.51100000000E-03 0. -1.
        -11    1    3    3    0    0 -0.10794854521E+02 -0.54354308501E+01  0.11906019811E+01  0.12144559523E+02  0.51100000000E-03 0.  1.
         12    1    3    3    0    0  0.14589968351E+02 -0.55305521455E+01 -0.17464157990E+02  0.23419030676E+02  0.00000000000E+00 0. -1.
</event>
<event>
 7    1  0.1138240E-011  0.5930194E+02  0.7816164E-02  0.1266605E+00
        -11   -1    0    0    0    0  0.00000000000E+00  0.00000000000E+00  0.45593999997E+02  0.45594000000E+02  0.51100000000E-03 0.  1.
         11   -1    0    0    0    0 -0.00000000000E+00 -0.00000000000E+00 -0.45593999997E+02  0.45594000000E+02  0.51100000000E-03 0. -1.
    9900012    2    1    2    0    0 -0.56994756689E+00 -0.24060990727E+02 -0.20915655755E+02  0.59301940810E+02  0.49999994132E+02 0.  0.
        -12    1    1    2    0    0  0.56994756689E+00  0.24060990727E+02  0.20915655755E+02  0.31886059190E+02  0.00000000000E+00 0.  1.
         11    1    3    3    0    0  0.94760932753E+00  0.54937110610E+01 -0.46875984429E+01  0.72837081272E+01  0.51100000000E-03 0. -1.
        -11    1    3    3    0    0 -0.16790811384E+02 -0.71834776967E+01 -0.16956109700E+02  0.24920741465E+02  0.51100000000E-03 0.  1.
        -12    1    3    3    0    0  0.15273254489E+02 -0.22371224091E+02  0.72805238791E+00  0.27097491218E+02  0.00000000000E+00 0.  1.
</event>
<event>
 7    1  0.1138240E-011  0.5930203E+02  0.7816164E-02  0.1266604E+00
        -11   -1    0    0    0    0  0.00000000000E+00  0.00000000000E+00  0.45593999997E+02  0.45594000000E+02  0.51100000000E-03 0.  1.
         11   -1    0    0    0    0 -0.00000000000E+00 -0.00000000000E+00 -0.45593999997E+02  0.45594000000E+02  0.51100000000E-03 0. -1.
    9900012    2    1    2    0    0 -0.11065653309E+02 -0.21018991018E+02 -0.21271300650E+02  0.59302032900E+02  0.50000162081E+02 0.  0.
        -12    1    1    2    0    0  0.11065653309E+02  0.21018991018E+02  0.21271300650E+02  0.31885967100E+02  0.00000000000E+00 0.  1.
         11    1    3    3    0    0 -0.16476205864E+02 -0.16464848618E+02 -0.14100874282E+02  0.27228500794E+02  0.51100000000E-03 0. -1.
        -11    1    3    3    0    0  0.46999743002E+01 -0.16198722516E+02  0.23317364008E+01  0.17027194850E+02  0.51100000000E-03 0.  1.
        -12    1    3    3    0    0  0.71057825517E+00  0.11644580116E+02 -0.95021627691E+01  0.15046337256E+02  0.00000000000E+00 0.  1.
</event>
<event>
 7    1  0.1138240E-011  0.5930195E+02  0.7816164E-02  0.1266605E+00
        -11   -1    0    0    0    0  0.00000000000E+00  0.00000000000E+00  0.45593999997E+02  0.45594000000E+02  0.51100000000E-03 0. -1.
         11   -1    0    0    0    0 -0.00000000000E+00 -0.00000000000E+00 -0.45593999997E+02  0.45594000000E+02  0.51100000000E-03 0.  1.
    9900012    2    1    2    0    0 -0.26029818599E+02 -0.18192984416E+02  0.28607569440E+01  0.59301951820E+02  0.50000014211E+02 0.  0.
        -12    1    1    2    0    0  0.26029818599E+02  0.18192984416E+02 -0.28607569440E+01  0.31886048180E+02  0.00000000000E+00 0.  1.
         11    1    3    3    0    0 -0.25139086955E+01 -0.12953749118E+02 -0.35563613297E+01  0.13666274522E+02  0.51100000000E-03 0. -1.
        -11    1    3    3    0    0 -0.25626138756E+02  0.40255268165E+01 -0.90578152153E+01  0.27476314717E+02  0.51100000000E-03 0.  1.
         12    1    3    3    0    0  0.21102288526E+01 -0.92647621140E+01  0.15474933489E+02  0.18159362580E+02  0.00000000000E+00 0. -1.
</event>
<event>
 7    1  0.1138240E-011  0.5930199E+02  0.7816164E-02  0.1266605E+00
        -11   -1    0    0    0    0  0.00000000000E+00  0.00000000000E+00  0.45593999997E+02  0.45594000000E+02  0.51100000000E-03 0. -1.
         11   -1    0    0    0    0 -0.00000000000E+00 -0.00000000000E+00 -0.45593999997E+02  0.45594000000E+02  0.51100000000E-03 0.  1.
    9900012    2    1    2    0    0  0.12289730332E+02  0.20020547870E+02 -0.21560555174E+02  0.59301994479E+02  0.50000092011E+02 0.  0.
        -12    1    1    2    0    0 -0.12289730332E+02 -0.20020547870E+02  0.21560555174E+02  0.31886005521E+02  0.00000000000E+00 0.  1.
         11    1    3    3    0    0  0.85056692166E+01  0.45276685858E+01  0.72488383222E+01  0.12057854242E+02  0.51100000000E-03 0. -1.
        -11    1    3    3    0    0 -0.10986209035E+02  0.17507276827E+02 -0.23790556855E+02  0.31514950842E+02  0.51100000000E-03 0.  1.
         12    1    3    3    0    0  0.14770270150E+02 -0.20143975426E+01 -0.50188366418E+01  0.15729189395E+02  0.00000000000E+00 0. -1.
</event>
<event>
 7    1  0.1138240E-011  0.5930195E+02  0.7816164E-02  0.1266605E+00
        -11   -1    0    0    0    0  0.00000000000E+00  0.00000000000E+00  0.45593999997E+02  0.45594000000E+02  0.51100000000E-03 0.  1.
         11   -1    0    0    0    0 -0.00000000000E+00 -0.00000000000E+00 -0.45593999997E+02  0.45594000000E+02  0.51100000000E-03 0. -1.
    9900012    2    1    2    0    0  0.17337530281E+02  0.24511653436E+02  0.10738213883E+02  0.59301947441E+02  0.50000006225E+02 0.  0.
        -12    1    1    2    0    0 -0.17337530281E+02 -0.24511653436E+02 -0.10738213883E+02  0.31886052559E+02  0.00000000000E+00 0.  1.
         11    1    3    3    0    0  0.10502060943E+02  0.19159606535E+02  0.41270092378E+01  0.22235467436E+02  0.51100000000E-03 0. -1.
        -11    1    3    3    0    0  0.66004699919E+01  0.12851731231E+02  0.18214379431E+02  0.23248587442E+02  0.51100000000E-03 0.  1.
        -12    1    3    3    0    0  0.23499934653E+00 -0.74996843300E+01 -0.11603174786E+02  0.13817892562E+02  0.00000000000E+00 0.  1.
</event>
<event>
 7    1  0.1138240E-011  0.5930189E+02  0.7816164E-02  0.1266605E+00
        -11   -1    0    0    0    0  0.00000000000E+00  0.00000000000E+00  0.45593999997E+02  0.45594000000E+02  0.51100000000E-03 0.  1.
         11   -1    0    0    0    0 -0.00000000000E+00 -0.00000000000E+00 -0.45593999997E+02  0.45594000000E+02  0.51100000000E-03 0. -1.
    9900012    2    1    2    0    0  0.10507530757E+02  0.25315397498E+02 -0.16292518266E+02  0.59301894805E+02  0.49999910229E+02 0.  0.
        -12    1    1    2    0    0 -0.10507530757E+02 -0.25315397498E+02  0.16292518266E+02  0.31886105195E+02  0.00000000000E+00 0.  1.
         11    1    3    3    0    0 -0.40764870275E+01  0.16172673432E+02 -0.10557298126E+02  0.19739038892E+02  0.51100000000E-03 0. -1.
        -11    1    3    3    0    0  0.23644903491E+02  0.11229939176E+02 -0.11534012475E+02  0.28604657646E+02  0.51100000000E-03 0.  1.
        -12    1    3    3    0    0 -0.90608857064E+01 -0.20872151096E+01  0.57987923355E+01  0.10958198267E+02  0.00000000000E+00 0.  1.
</event>
<event>
 7    1  0.1138240E-011  0.5930195E+02  0.7816164E-02  0.1266605E+00
        -11   -1    0    0    0    0  0.00000000000E+00  0.00000000000E+00  0.45593999997E+02  0.45594000000E+02  0.51100000000E-03 0.  1.
         11   -1    0    0    0    0 -0.00000000000E+00 -0.00000000000E+00 -0.45593999997E+02  0.45594000000E+02  0.51100000000E-03 0. -1.
    9900012    2    1    2    0    0  0.27420652113E+02 -0.90910797052E+01 -0.13497421806E+02  0.59301948380E+02  0.50000007937E+02 0.  0.
        -12    1    1    2    0    0 -0.27420652113E+02  0.90910797052E+01  0.13497421806E+02  0.31886051620E+02  0.00000000000E+00 0.  1.
         11    1    3    3    0    0  0.12141708803E+02  0.10000233216E+02 -0.83241007824E+01  0.17796528064E+02  0.51100000000E-03 0. -1.
        -11    1    3    3    0    0 -0.95138372739E+01 -0.10650715507E+02  0.18225797243E+01  0.14396966263E+02  0.51100000000E-03 0.  1.
         12    1    3    3    0    0  0.24792780585E+02 -0.84405974148E+01 -0.69959007479E+01  0.27108454052E+02  0.00000000000E+00 0. -1.
</event>
<event>
 7    1  0.1138240E-011  0.5930195E+02  0.7816164E-02  0.1266605E+00
        -11   -1    0    0    0    0  0.00000000000E+00  0.00000000000E+00  0.45593999997E+02  0.45594000000E+02  0.51100000000E-03 0. -1.
         11   -1    0    0    0    0 -0.00000000000E+00 -0.00000000000E+00 -0.45593999997E+02  0.45594000000E+02  0.51100000000E-03 0.  1.
    9900012    2    1    2    0    0  0.13198222441E+02 -0.24035349175E+02  0.16273576963E+02  0.59301946737E+02  0.50000004941E+02 0.  0.
        -12    1    1    2    0    0 -0.13198222441E+02  0.24035349175E+02 -0.16273576963E+02  0.31886053263E+02  0.00000000000E+00 0.  1.
         11    1    3    3    0    0  0.97549140404E+01 -0.17987593141E+01 -0.30542064097E+01  0.10378923839E+02  0.51100000000E-03 0. -1.
        -11    1    3    3    0    0  0.11057957299E+02 -0.56872263263E+01  0.26556913055E+02  0.29323925286E+02  0.51100000000E-03 0.  1.
         12    1    3    3    0    0 -0.76146488979E+01 -0.16549363534E+02 -0.72291296828E+01  0.19599097612E+02  0.00000000000E+00 0. -1.
</event>
<event>
 7    1  0.1138240E-011  0.5930193E+02  0.7816164E-02  0.1266605E+00
        -11   -1    0    0    0    0  0.00000000000E+00  0.00000000000E+00  0.45593999997E+02  0.45594000000E+02  0.51100000000E-03 0.  1.
         11   -1    0    0    0    0 -0.00000000000E+00 -0.00000000000E+00 -0.45593999997E+02  0.45594000000E+02  0.51100000000E-03 0. -1.
    9900012    2    1    2    0    0  0.19408195690E+02 -0.22226367693E+02 -0.12084367974E+02  0.59301930470E+02  0.49999975273E+02 0.  0.
        -12    1    1    2    0    0 -0.19408195690E+02  0.22226367693E+02  0.12084367974E+02  0.31886069530E+02  0.00000000000E+00 0.  1.
         11    1    3    3    0    0  0.24072726580E+02 -0.34392304539E+01  0.37385285634E+01  0.24602867053E+02  0.51100000000E-03 0.  1.
        -11    1    3    3    0    0  0.12302515724E+01 -0.10824346606E+02  0.47348938118E+01  0.11878519186E+02  0.51100000000E-03 0. -1.
        -12    1    3    3    0    0 -0.58947824627E+01 -0.79627906327E+01 -0.20557790350E+02  0.22820544231E+02  0.00000000000E+00 0.  1.
</event>
<event>
 7    1  0.1138240E-011  0.5930198E+02  0.7816164E-02  0.1266605E+00
        -11   -1    0    0    0    0  0.00000000000E+00  0.00000000000E+00  0.45593999997E+02  0.45594000000E+02  0.51100000000E-03 0.  1.
         11   -1    0    0    0    0 -0.00000000000E+00 -0.00000000000E+00 -0.45593999997E+02  0.45594000000E+02  0.51100000000E-03 0. -1.
    9900012    2    1    2    0    0 -0.71138172527E+01 -0.64191990655E+01 -0.30412260316E+02  0.59301982844E+02  0.50000070791E+02 0.  0.
        -12    1    1    2    0    0  0.71138172527E+01  0.64191990655E+01  0.30412260316E+02  0.31886017156E+02  0.00000000000E+00 0.  1.
         11    1    3    3    0    0 -0.10801828550E+02 -0.37555806219E+01 -0.57822849917E+01  0.12814784657E+02  0.51100000000E-03 0. -1.
        -11    1    3    3    0    0  0.22749948378E+01 -0.64301091239E+01  0.97355124508E+01  0.11887056313E+02  0.51100000000E-03 0.  1.
         12    1    3    3    0    0  0.14130164594E+01  0.37664906803E+01 -0.34365487776E+02  0.34600141873E+02  0.00000000000E+00 0. -1.
</event>
<event>
 7    1  0.1138240E-011  0.5930195E+02  0.7816164E-02  0.1266605E+00
        -11   -1    0    0    0    0  0.00000000000E+00  0.00000000000E+00  0.45593999997E+02  0.45594000000E+02  0.51100000000E-03 0. -1.
         11   -1    0    0    0    0 -0.00000000000E+00 -0.00000000000E+00 -0.45593999997E+02  0.45594000000E+02  0.51100000000E-03 0.  1.
    9900012    2    1    2    0    0 -0.30504562888E+02 -0.20046355618E+01  0.90649512055E+01  0.59301948801E+02  0.50000008705E+02 0.  0.
        -12    1    1    2    0    0  0.30504562888E+02  0.20046355618E+01 -0.90649512055E+01  0.31886051199E+02  0.00000000000E+00 0.  1.
         11    1    3    3    0    0 -0.12866087413E+02  0.84706667041E+01 -0.11447299322E+02  0.19191900942E+02  0.51100000000E-03 0. -1.
        -11    1    3    3    0    0  0.43972527788E+01  0.51707808101E+01  0.11985551004E+01  0.68927019939E+01  0.51100000000E-03 0.  1.
         12    1    3    3    0    0 -0.22035728253E+02 -0.15646083076E+02  0.19313695427E+02  0.33217345865E+02  0.00000000000E+00 0. -1.
</event>
<event>
 7    1  0.1138240E-011  0.5930195E+02  0.7816164E-02  0.1266605E+00
        -11   -1    0    0    0    0  0.00000000000E+00  0.00000000000E+00  0.45593999997E+02  0.45594000000E+02  0.51100000000E-03 0.  1.
         11   -1    0    0    0    0 -0.00000000000E+00 -0.00000000000E+00 -0.45593999997E+02  0.45594000000E+02  0.51100000000E-03 0. -1.
    9900012    2    1    2    0    0 -0.10875006445E+01 -0.69629193657E+01 -0.31097509931E+02  0.59301952461E+02  0.50000015380E+02 0.  0.
        -12    1    1    2    0    0  0.10875006445E+01  0.69629193657E+01  0.31097509931E+02  0.31886047539E+02  0.00000000000E+00 0.  1.
         11    1    3    3    0    0 -0.17490530058E+01  0.55507993311E+01 -0.27589112928E+01  0.64406638954E+01  0.51100000000E-03 0. -1.
        -11    1    3    3    0    0  0.14543401265E+02 -0.61390233931E+01  0.46927929428E+01  0.16468771492E+02  0.51100000000E-03 0.  1.
        -12    1    3    3    0    0 -0.13881848904E+02 -0.63746953037E+01 -0.33031391581E+02  0.36392517074E+02  0.00000000000E+00 0.  1.
</event>
<event>
 7    1  0.2577308E-011  0.5930198E+02  0.7816164E-02  0.1266605E+00
        -11   -1    0    0    0    0  0.00000000000E+00  0.00000000000E+00  0.45593999997E+02  0.45594000000E+02  0.51100000000E-03 0. -1.
         11   -1    0    0    0    0 -0.00000000000E+00 -0.00000000000E+00 -0.45593999997E+02  0.45594000000E+02  0.51100000000E-03 0.  1.
    9900012    2    1    2    0    0 -0.10924343202E+02 -0.12840527156E+02  0.27064699247E+02  0.59301978652E+02  0.50000063147E+02 0.  0.
        -12    1    1    2    0    0  0.10924343202E+02  0.12840527156E+02 -0.27064699247E+02  0.31886021348E+02  0.00000000000E+00 0.  1.
         11    1    3    3    0    0 -0.17694583677E+02 -0.69060176566E+01  0.30697204655E+02  0.36098611404E+02  0.51100000000E-03 0. -1.
        -11    1    3    3    0    0 -0.60949619683E+01  0.19572871554E+01 -0.48939047472E+01  0.80579053320E+01  0.51100000000E-03 0.  1.
        -12    1    3    3    0    0  0.12865202444E+02 -0.78917966549E+01  0.12613993392E+01  0.15145461916E+02  0.00000000000E+00 0.  1.
</event>
<event>
 7    1  0.1138240E-011  0.5930194E+02  0.7816164E-02  0.1266605E+00
        -11   -1    0    0    0    0  0.00000000000E+00  0.00000000000E+00  0.45593999997E+02  0.45594000000E+02  0.51100000000E-03 0.  1.
         11   -1    0    0    0    0 -0.00000000000E+00 -0.00000000000E+00 -0.45593999997E+02  0.45594000000E+02  0.51100000000E-03 0. -1.
    9900012    2    1    2    0    0 -0.21825362281E+02  0.28813979416E+01 -0.23066683313E+02  0.59301940792E+02  0.49999994098E+02 0.  0.
        -12    1    1    2    0    0  0.21825362281E+02 -0.28813979416E+01  0.23066683313E+02  0.31886059208E+02  0.00000000000E+00 0.  1.
         11    1    3    3    0    0 -0.10806332486E+02  0.17881477055E+02 -0.42198930617E+01  0.21315054333E+02  0.51100000000E-03 0. -1.
        -11    1    3    3    0    0 -0.13247131376E+02  0.27106474324E+01 -0.24361057124E+01  0.13739312591E+02  0.51100000000E-03 0.  1.
         12    1    3    3    0    0  0.22281015805E+01 -0.17710726546E+02 -0.16410684538E+02  0.24247573868E+02  0.00000000000E+00 0. -1.
</event>
<event>
 7    1  0.1138240E-011  0.5930195E+02  0.7816164E-02  0.1266605E+00
        -11   -1    0    0    0    0  0.00000000000E+00  0.00000000000E+00  0.45593999997E+02  0.45594000000E+02  0.51100000000E-03 0.  1.
         11   -1    0    0    0    0 -0.00000000000E+00 -0.00000000000E+00 -0.45593999997E+02  0.45594000000E+02  0.51100000000E-03 0. -1.
    9900012    2    1    2    0    0  0.12614193536E+02  0.14567629220E+02 -0.25404454129E+02  0.59301953063E+02  0.50000016478E+02 0.  0.
        -12    1    1    2    0    0 -0.12614193536E+02 -0.14567629220E+02  0.25404454129E+02  0.31886046937E+02  0.00000000000E+00 0.  1.
         11    1    3    3    0    0 -0.96620868274E+01  0.11664732690E+01 -0.41085105447E+01  0.10563921663E+02  0.51100000000E-03 0. -1.
        -11    1    3    3    0    0  0.28792245817E+01 -0.11517406252E+02 -0.30097667460E+01  0.12247419201E+02  0.51100000000E-03 0.  1.
         12    1    3    3    0    0  0.19397055781E+02  0.24918562203E+02 -0.18286176839E+02  0.36490612199E+02  0.00000000000E+00 0. -1.
</event>
<event>
 7    1  0.1138240E-011  0.5930207E+02  0.7816164E-02  0.1266604E+00
        -11   -1    0    0    0    0  0.00000000000E+00  0.00000000000E+00  0.45593999997E+02  0.45594000000E+02  0.51100000000E-03 0.  1.
         11   -1    0    0    0    0 -0.00000000000E+00 -0.00000000000E+00 -0.45593999997E+02  0.45594000000E+02  0.51100000000E-03 0. -1.
    9900012    2    1    2    0    0 -0.25731907386E+02 -0.21569581013E+01 -0.18706383380E+02  0.59302073557E+02  0.50000236229E+02 0.  0.
        -12    1    1    2    0    0  0.25731907386E+02  0.21569581013E+01  0.18706383380E+02  0.31885926443E+02  0.00000000000E+00 0.  1.
         11    1    3    3    0    0  0.48225079648E+01  0.20272825179E+01 -0.22581755671E+02  0.23179778837E+02  0.51100000000E-03 0. -1.
        -11    1    3    3    0    0 -0.18167946701E+02 -0.42723115707E+01 -0.67055281527E+01  0.19831566795E+02  0.51100000000E-03 0.  1.
        -12    1    3    3    0    0 -0.12386468650E+02  0.88070951506E-01  0.10580900444E+02  0.16290727925E+02  0.00000000000E+00 0.  1.
</event>
<event>
 7    1  0.1138240E-011  0.5930193E+02  0.7816164E-02  0.1266605E+00
        -11   -1    0    0    0    0  0.00000000000E+00  0.00000000000E+00  0.45593999997E+02  0.45594000000E+02  0.51100000000E-03 0. -1.
         11   -1    0    0    0    0 -0.00000000000E+00 -0.00000000000E+00 -0.45593999997E+02  0.45594000000E+02  0.51100000000E-03 0.  1.
    9900012    2    1    2    0    0  0.24271265602E+02 -0.20085778069E+02 -0.49182221281E+01  0.59301925869E+02  0.49999966883E+02 0.  0.
        -12    1    1    2    0    0 -0.24271265602E+02  0.20085778069E+02  0.49182221281E+01  0.31886074131E+02  0.00000000000E+00 0.  1.
         11    1    3    3    0    0  0.19754458961E+02 -0.22726244562E+01 -0.17510878690E+02  0.26495930697E+02  0.51100000000E-03 0. -1.
        -11    1    3    3    0    0  0.27620811929E+01 -0.60703267724E+01 -0.71440375562E+01  0.97731894745E+01  0.51100000000E-03 0.  1.
        -12    1    3    3    0    0  0.17547254485E+01 -0.11742826840E+02  0.19736694118E+02  0.23032805698E+02  0.00000000000E+00 0.  1.
</event>
<event>
 7    1  0.1138240E-011  0.5930194E+02  0.7816164E-02  0.1266605E+00
        -11   -1    0    0    0    0  0.00000000000E+00  0.00000000000E+00  0.45593999997E+02  0.45594000000E+02  0.51100000000E-03 0. -1.
         11   -1    0    0    0    0 -0.00000000000E+00 -0.00000000000E+00 -0.45593999997E+02  0.45594000000E+02  0.51100000000E-03 0.  1.
    9900012    2    1    2    0    0 -0.53725511557E+01  0.31330684072E+02 -0.24988941409E+01  0.59301944391E+02  0.50000000663E+02 0.  0.
        -12    1    1    2    0    0  0.53725511557E+01 -0.31330684072E+02  0.24988941409E+01  0.31886055609E+02  0.00000000000E+00 0.  1.
         11    1    3    3    0    0 -0.11990079643E+01 -0.46902113096E+01 -0.84019995863E+01  0.96968706053E+01  0.51100000000E-03 0. -1.
        -11    1    3    3    0    0  0.59500956952E+01 -0.43734495919E+01 -0.79145180596E+00  0.74267823676E+01  0.51100000000E-03 0.  1.
         12    1    3    3    0    0 -0.10123638886E+02  0.40394344974E+02  0.66945572514E+01  0.42178291418E+02  0.00000000000E+00 0. -1.
</event>
<event>
 7    1  0.1138240E-011  0.5930163E+02  0.7816164E-02  0.1266606E+00
        -11   -1    0    0    0    0  0.00000000000E+00  0.00000000000E+00  0.45593999997E+02  0.45594000000E+02  0.51100000000E-03 0.  1.
         11   -1    0    0    0    0 -0.00000000000E+00 -0.00000000000E+00 -0.45593999997E+02  0.45594000000E+02  0.51100000000E-03 0. -1.
    9900012    2    1    2    0    0  0.26340718571E+02 -0.49226806804E+01 -0.17282193879E+02  0.59301631985E+02  0.49999430905E+02 0.  0.
        -12    1    1    2    0    0 -0.26340718571E+02  0.49226806804E+01  0.17282193879E+02  0.31886368015E+02  0.00000000000E+00 0.  1.
         11    1    3    3    0    0  0.64502573468E+01 -0.18181308446E+02 -0.30565220917E+00  0.19294020322E+02  0.51100000000E-03 0. -1.
        -11    1    3    3    0    0  0.37133503780E+01 -0.31856700275E+01  0.58015530006E+01  0.75891687314E+01  0.51100000000E-03 0.  1.
         12    1    3    3    0    0  0.16177110847E+02  0.16444297794E+02 -0.22778094670E+02  0.32418442931E+02  0.00000000000E+00 0. -1.
</event>
<event>
 7    1  0.1138240E-011  0.5930195E+02  0.7816164E-02  0.1266605E+00
        -11   -1    0    0    0    0  0.00000000000E+00  0.00000000000E+00  0.45593999997E+02  0.45594000000E+02  0.51100000000E-03 0.  1.
         11   -1    0    0    0    0 -0.00000000000E+00 -0.00000000000E+00 -0.45593999997E+02  0.45594000000E+02  0.51100000000E-03 0. -1.
    9900012    2    1    2    0    0  0.12617565806E+02  0.28071535020E+02  0.83370307997E+01  0.59301950891E+02  0.50000012517E+02 0.  0.
        -12    1    1    2    0    0 -0.12617565806E+02 -0.28071535020E+02 -0.83370307997E+01  0.31886049109E+02  0.00000000000E+00 0.  1.
         11    1    3    3    0    0  0.40449077709E+01 -0.36006346082E+01  0.11152963812E+02  0.12398163191E+02  0.51100000000E-03 0.  1.
        -11    1    3    3    0    0 -0.10817034777E+02  0.79866181774E+01  0.64627402747E+01  0.14918489314E+02  0.51100000000E-03 0. -1.
         12    1    3    3    0    0  0.19389692812E+02  0.23685551451E+02 -0.92786732873E+01  0.31985298386E+02  0.00000000000E+00 0. -1.
</event>
<event>
 7    1  0.1138240E-011  0.5930193E+02  0.7816164E-02  0.1266605E+00
        -11   -1    0    0    0    0  0.00000000000E+00  0.00000000000E+00  0.45593999997E+02  0.45594000000E+02  0.51100000000E-03 0.  1.
         11   -1    0    0    0    0 -0.00000000000E+00 -0.00000000000E+00 -0.45593999997E+02  0.45594000000E+02  0.51100000000E-03 0. -1.
    9900012    2    1    2    0    0 -0.11854234312E+02 -0.19451119746E+02 -0.22312613567E+02  0.59301926948E+02  0.49999968850E+02 0.  0.
        -12    1    1    2    0    0  0.11854234312E+02  0.19451119746E+02  0.22312613567E+02  0.31886073052E+02  0.00000000000E+00 0.  1.
         11    1    3    3    0    0  0.78891869270E+01 -0.94518885973E+01 -0.56630147573E+01  0.13551649524E+02  0.51100000000E-03 0. -1.
        -11    1    3    3    0    0 -0.84533570650E+01  0.81841359486E+01 -0.20848051588E+02  0.23939101532E+02  0.51100000000E-03 0.  1.
        -12    1    3    3    0    0 -0.11290064174E+02 -0.18183367097E+02  0.41984527773E+01  0.21811175892E+02  0.00000000000E+00 0.  1.
</event>
<event>
 7    1  0.1138240E-011  0.5930192E+02  0.7816164E-02  0.1266605E+00
        -11   -1    0    0    0    0  0.00000000000E+00  0.00000000000E+00  0.45593999997E+02  0.45594000000E+02  0.51100000000E-03 0. -1.
         11   -1    0    0    0    0 -0.00000000000E+00 -0.00000000000E+00 -0.45593999997E+02  0.45594000000E+02  0.51100000000E-03 0.  1.
    9900012    2    1    2    0    0  0.27104272573E+02 -0.80833984434E+01  0.14722060538E+02  0.59301921712E+02  0.49999959301E+02 0.  0.
        -12    1    1    2    0    0 -0.27104272573E+02  0.80833984434E+01 -0.14722060538E+02  0.31886078288E+02  0.00000000000E+00 0.  1.
         11    1    3    3    0    0 -0.33067228470E+01  0.83121482170E+01 -0.48232171371E+00  0.89587308512E+01  0.51100000000E-03 0. -1.
        -11    1    3    3    0    0 -0.70484589657E+01 -0.56173957216E+01  0.28717665158E+01  0.94595428889E+01  0.51100000000E-03 0.  1.
         12    1    3    3    0    0  0.37459454386E+02 -0.10778150939E+02  0.12332615736E+02  0.40883647971E+02  0.00000000000E+00 0. -1.
</event>
<event>
 7    1  0.2696595E-011  0.5930193E+02  0.7816164E-02  0.1266605E+00
        -11   -1    0    0    0    0  0.00000000000E+00  0.00000000000E+00  0.45593999997E+02  0.45594000000E+02  0.51100000000E-03 0. -1.
         11   -1    0    0    0    0 -0.00000000000E+00 -0.00000000000E+00 -0.45593999997E+02  0.45594000000E+02  0.51100000000E-03 0.  1.
    9900012    2    1    2    0    0 -0.22457854595E+02  0.12597354160E+02  0.18806189796E+02  0.59301931891E+02  0.49999977865E+02 0.  0.
        -12    1    1    2    0    0  0.22457854595E+02 -0.12597354160E+02 -0.18806189796E+02  0.31886068109E+02  0.00000000000E+00 0.  1.
         11    1    3    3    0    0 -0.19936768616E+02  0.17247473844E+02  0.22604513433E+02  0.34726274270E+02  0.51100000000E-03 0. -1.
        -11    1    3    3    0    0 -0.69260331800E+01  0.42724959831E+01 -0.99676039925E+01  0.12867683830E+02  0.51100000000E-03 0.  1.
        -12    1    3    3    0    0  0.44049472015E+01 -0.89226156673E+01  0.61692803555E+01  0.11707973791E+02  0.00000000000E+00 0.  1.
</event>
<event>
 7    1  0.1138240E-011  0.5930211E+02  0.7816164E-02  0.1266604E+00
        -11   -1    0    0    0    0  0.00000000000E+00  0.00000000000E+00  0.45593999997E+02  0.45594000000E+02  0.51100000000E-03 0.  1.
         11   -1    0    0    0    0 -0.00000000000E+00 -0.00000000000E+00 -0.45593999997E+02  0.45594000000E+02  0.51100000000E-03 0. -1.
    9900012    2    1    2    0    0  0.16123419469E+02  0.14392247520E+02 -0.23443733988E+02  0.59302108020E+02  0.50000299082E+02 0.  0.
        -12    1    1    2    0    0 -0.16123419469E+02 -0.14392247520E+02  0.23443733988E+02  0.31885891980E+02  0.00000000000E+00 0.  1.
         11    1    3    3    0    0  0.12043326350E+02  0.24374661154E+02 -0.25110977060E+02  0.37009822819E+02  0.51100000000E-03 0. -1.
        -11    1    3    3    0    0  0.11462035632E+02 -0.25390579686E+01  0.60550852958E+00  0.11755497311E+02  0.51100000000E-03 0.  1.
        -12    1    3    3    0    0 -0.73819425120E+01 -0.74433556651E+01  0.10617345420E+01  0.10536787890E+02  0.00000000000E+00 0.  1.
</event>
<event>
 7    1  0.1138240E-011  0.5930193E+02  0.7816164E-02  0.1266605E+00
        -11   -1    0    0    0    0  0.00000000000E+00  0.00000000000E+00  0.45593999997E+02  0.45594000000E+02  0.51100000000E-03 0.  1.
         11   -1    0    0    0    0 -0.00000000000E+00 -0.00000000000E+00 -0.45593999997E+02  0.45594000000E+02  0.51100000000E-03 0. -1.
    9900012    2    1    2    0    0  0.16472292642E+02 -0.25805282456E+01 -0.27179510762E+02  0.59301931629E+02  0.49999977388E+02 0.  0.
        -12    1    1    2    0    0 -0.16472292642E+02  0.25805282456E+01  0.27179510762E+02  0.31886068371E+02  0.00000000000E+00 0.  1.
         11    1    3    3    0    0 -0.11616086334E+01 -0.12188704115E+02 -0.15506846515E+02  0.19757938448E+02  0.51100000000E-03 0. -1.
        -11    1    3    3    0    0  0.18717265479E+02  0.12672154385E+01  0.62270639643E+01  0.19766592722E+02  0.51100000000E-03 0.  1.
         12    1    3    3    0    0 -0.10833642030E+01  0.83409604305E+01 -0.17899728211E+02  0.19777400459E+02  0.00000000000E+00 0. -1.
</event>
<event>
 7    1  0.1138240E-011  0.5930194E+02  0.7816164E-02  0.1266605E+00
        -11   -1    0    0    0    0  0.00000000000E+00  0.00000000000E+00  0.45593999997E+02  0.45594000000E+02  0.51100000000E-03 0.  1.
         11   -1    0    0    0    0 -0.00000000000E+00 -0.00000000000E+00 -0.45593999997E+02  0.45594000000E+02  0.51100000000E-03 0. -1.
    9900012    2    1    2    0    0 -0.14008008388E+02  0.23100979168E+02 -0.16936381919E+02  0.59301943956E+02  0.49999999869E+02 0.  0.
        -12    1    1    2    0    0  0.14008008388E+02 -0.23100979168E+02  0.16936381919E+02  0.31886056044E+02  0.00000000000E+00 0.  1.
         11    1    3    3    0    0  0.62411428807E+01 -0.45866242582E+01 -0.50384168905E+01  0.92398393691E+01  0.51100000000E-03 0. -1.
        -11    1    3    3    0    0 -0.10242399407E+02  0.74369879532E+01  0.11813313229E+02  0.17313864535E+02  0.51100000000E-03 0.  1.
         12    1    3    3    0    0 -0.10006751862E+02  0.20250615474E+02 -0.23711278257E+02  0.32748240052E+02  0.00000000000E+00 0. -1.
</event>
<event>
 7    1  0.1138240E-011  0.5930166E+02  0.7816164E-02  0.1266606E+00
        -11   -1    0    0    0    0  0.00000000000E+00  0.00000000000E+00  0.45593999997E+02  0.45594000000E+02  0.51100000000E-03 0. -1.
         11   -1    0    0    0    0 -0.00000000000E+00 -0.00000000000E+00 -0.45593999997E+02  0.45594000000E+02  0.51100000000E-03 0.  1.
    9900012    2    1    2    0    0 -0.13044189799E+02 -0.23675496439E+02  0.16913276558E+02  0.59301655853E+02  0.49999474435E+02 0.  0.
        -12    1    1    2    0    0  0.13044189799E+02  0.23675496439E+02 -0.16913276558E+02  0.31886344147E+02  0.00000000000E+00 0.  1.
         11    1    3    3    0    0  0.48741970302E+01 -0.15454288604E+01  0.12888763875E+02  0.13866015345E+02  0.51100000000E-03 0. -1.
        -11    1    3    3    0    0 -0.49146135682E+01 -0.10723745005E+02  0.19127545396E+02  0.22472541614E+02  0.51100000000E-03 0.  1.
        -12    1    3    3    0    0 -0.13003773261E+02 -0.11406322574E+02 -0.15103032713E+02  0.22963098894E+02  0.00000000000E+00 0.  1.
</event>
<event>
 7    1  0.1138240E-011  0.5930195E+02  0.7816164E-02  0.1266605E+00
        -11   -1    0    0    0    0  0.00000000000E+00  0.00000000000E+00  0.45593999997E+02  0.45594000000E+02  0.51100000000E-03 0.  1.
         11   -1    0    0    0    0 -0.00000000000E+00 -0.00000000000E+00 -0.45593999997E+02  0.45594000000E+02  0.51100000000E-03 0. -1.
    9900012    2    1    2    0    0 -0.19555146782E+02 -0.29504638336E+00 -0.25183913697E+02  0.59301947765E+02  0.50000006816E+02 0.  0.
        -12    1    1    2    0    0  0.19555146782E+02  0.29504638336E+00  0.25183913697E+02  0.31886052235E+02  0.00000000000E+00 0.  1.
         11    1    3    3    0    0 -0.17296907795E+02 -0.67968430588E+01 -0.26230481325E+02  0.32146823259E+02  0.51100000000E-03 0. -1.
        -11    1    3    3    0    0  0.49306753452E+01 -0.85775216417E+01 -0.22047499366E+01  0.10136387888E+02  0.51100000000E-03 0.  1.
        -12    1    3    3    0    0 -0.71889143317E+01  0.15079318317E+02  0.32513175640E+01  0.17018736618E+02  0.00000000000E+00 0.  1.
</event>
<event>
 7    1  0.1138240E-011  0.5930194E+02  0.7816164E-02  0.1266605E+00
        -11   -1    0    0    0    0  0.00000000000E+00  0.00000000000E+00  0.45593999997E+02  0.45594000000E+02  0.51100000000E-03 0.  1.
         11   -1    0    0    0    0 -0.00000000000E+00 -0.00000000000E+00 -0.45593999997E+02  0.45594000000E+02  0.51100000000E-03 0. -1.
    9900012    2    1    2    0    0 -0.23613673129E+02 -0.21425999017E+02 -0.20519240404E+00  0.59301935702E+02  0.49999984816E+02 0.  0.
        -12    1    1    2    0    0  0.23613673129E+02  0.21425999017E+02  0.20519240404E+00  0.31886064298E+02  0.00000000000E+00 0.  1.
         11    1    3    3    0    0 -0.86714436813E+00 -0.20437312413E+02 -0.75660350007E+01  0.21810102336E+02  0.51100000000E-03 0. -1.
        -11    1    3    3    0    0 -0.11258760709E+02 -0.14733637653E+02  0.13305523508E+01  0.18590592809E+02  0.51100000000E-03 0.  1.
        -12    1    3    3    0    0 -0.11487768052E+02  0.13744951049E+02  0.60302902458E+01  0.18901240557E+02  0.00000000000E+00 0.  1.
</event>
<event>
 7    1  0.1138240E-011  0.5930191E+02  0.7816164E-02  0.1266605E+00
        -11   -1    0    0    0    0  0.00000000000E+00  0.00000000000E+00  0.45593999997E+02  0.45594000000E+02  0.51100000000E-03 0. -1.
         11   -1    0    0    0    0 -0.00000000000E+00 -0.00000000000E+00 -0.45593999997E+02  0.45594000000E+02  0.51100000000E-03 0.  1.
    9900012    2    1    2    0    0  0.25186887284E+02 -0.18812594371E+02 -0.53319440444E+01  0.59301911727E+02  0.49999941091E+02 0.  0.
        -12    1    1    2    0    0 -0.25186887284E+02  0.18812594371E+02  0.53319440444E+01  0.31886088273E+02  0.00000000000E+00 0.  1.
         11    1    3    3    0    0  0.16343317402E+02  0.16358415388E+01 -0.46073627323E+01  0.17058950520E+02  0.51100000000E-03 0. -1.
        -11    1    3    3    0    0  0.10024197221E+02  0.15153729227E+01 -0.13441272350E+02  0.16835934416E+02  0.51100000000E-03 0.  1.
        -12    1    3    3    0    0 -0.11806273387E+01 -0.21963808833E+02  0.12716691038E+02  0.25407026790E+02  0.00000000000E+00 0.  1.
</event>
<event>
 7    1  0.1138240E-011  0.5930197E+02  0.7816164E-02  0.1266605E+00
        -11   -1    0    0    0    0  0.00000000000E+00  0.00000000000E+00  0.45593999997E+02  0.45594000000E+02  0.51100000000E-03 0.  1.
         11   -1    0    0    0    0 -0.00000000000E+00 -0.00000000000E+00 -0.45593999997E+02  0.45594000000E+02  0.51100000000E-03 0. -1.
    9900012    2    1    2    0    0  0.18985804431E+02 -0.13198747279E+02 -0.21955667580E+02  0.59301967972E+02  0.50000043668E+02 0.  0.
        -12    1    1    2    0    0 -0.18985804431E+02  0.13198747279E+02  0.21955667580E+02  0.31886032028E+02  0.00000000000E+00 0.  1.
         11    1    3    3    0    0 -0.39785527229E+01 -0.30248204997E+01 -0.14553774672E+02  0.15388007613E+02  0.51100000000E-03 0. -1.
        -11    1    3    3    0    0 -0.18678808986E+01  0.35715645909E+01  0.98892126728E+01  0.10679025247E+02  0.51100000000E-03 0.  1.
         12    1    3    3    0    0  0.24832238053E+02 -0.13745491370E+02 -0.17291105581E+02  0.33234935112E+02  0.00000000000E+00 0. -1.
</event>
<event>
 7    1  0.1138240E-011  0.5930196E+02  0.7816164E-02  0.1266605E+00
        -11   -1    0    0    0    0  0.00000000000E+00  0.00000000000E+00  0.45593999997E+02  0.45594000000E+02  0.51100000000E-03 0. -1.
         11   -1    0    0    0    0 -0.00000000000E+00 -0.00000000000E+00 -0.45593999997E+02  0.45594000000E+02  0.51100000000E-03 0.  1.
    9900012    2    1    2    0    0  0.30191699224E+02  0.40877194432E+01  0.94059098913E+01  0.59301963979E+02  0.50000036385E+02 0.  0.
        -12    1    1    2    0    0 -0.30191699224E+02 -0.40877194432E+01 -0.94059098913E+01  0.31886036021E+02  0.00000000000E+00 0.  1.
         11    1    3    3    0    0 -0.21871872248E+01 -0.15446378544E+02 -0.12298051847E+01  0.15648859995E+02  0.51100000000E-03 0. -1.
        -11    1    3    3    0    0 -0.24873085102E+01  0.13577787751E+01 -0.27692925672E+00  0.28472718348E+01  0.51100000000E-03 0.  1.
        -12    1    3    3    0    0  0.34866194959E+02  0.18176319212E+02  0.10912644333E+02  0.40805832149E+02  0.00000000000E+00 0.  1.
</event>
<event>
 7    1  0.1138240E-011  0.5930194E+02  0.7816164E-02  0.1266605E+00
        -11   -1    0    0    0    0  0.00000000000E+00  0.00000000000E+00  0.45593999997E+02  0.45594000000E+02  0.51100000000E-03 0. -1.
         11   -1    0    0    0    0 -0.00000000000E+00 -0.00000000000E+00 -0.45593999997E+02  0.45594000000E+02  0.51100000000E-03 0.  1.
    9900012    2    1    2    0    0  0.31706042609E+02 -0.42579847925E+00  0.33565602838E+01  0.59301938167E+02  0.49999989312E+02 0.  0.
        -12    1    1    2    0    0 -0.31706042609E+02  0.42579847925E+00 -0.33565602838E+01  0.31886061833E+02  0.00000000000E+00 0.  1.
         11    1    3    3    0    0  0.11536145763E+02  0.19809661475E+02 -0.40092390727E+01  0.23271857360E+02  0.51100000000E-03 0. -1.
        -11    1    3    3    0    0  0.10501504945E+02 -0.43544184670E+01 -0.62609648449E+01  0.12978530246E+02  0.51100000000E-03 0.  1.
         12    1    3    3    0    0  0.96683919015E+01 -0.15881041487E+02  0.13626764201E+02  0.23051550561E+02  0.00000000000E+00 0. -1.
</event>
<event>
 7    1  0.1138240E-011  0.5930193E+02  0.7816164E-02  0.1266605E+00
        -11   -1    0    0    0    0  0.00000000000E+00  0.00000000000E+00  0.45593999997E+02  0.45594000000E+02  0.51100000000E-03 0.  1.
         11   -1    0    0    0    0 -0.00000000000E+00 -0.00000000000E+00 -0.45593999997E+02  0.45594000000E+02  0.51100000000E-03 0. -1.
    9900012    2    1    2    0    0  0.11761546459E+02 -0.12961994618E+02 -0.26652846809E+02  0.59301929019E+02  0.49999972627E+02 0.  0.
        -12    1    1    2    0    0 -0.11761546459E+02  0.12961994618E+02  0.26652846809E+02  0.31886070981E+02  0.00000000000E+00 0.  1.
         11    1    3    3    0    0 -0.88449688837E+01 -0.12573539814E+02 -0.30977455241E+02  0.34582222477E+02  0.51100000000E-03 0. -1.
        -11    1    3    3    0    0 -0.12290682614E+01  0.12113284301E+01  0.20922403521E+01  0.27120832046E+01  0.51100000000E-03 0.  1.
         12    1    3    3    0    0  0.21835583604E+02 -0.15997832345E+01  0.22323680791E+01  0.22007623337E+02  0.00000000000E+00 0. -1.
</event>
<event>
 7    1  0.1138240E-011  0.5930177E+02  0.7816164E-02  0.1266605E+00
        -11   -1    0    0    0    0  0.00000000000E+00  0.00000000000E+00  0.45593999997E+02  0.45594000000E+02  0.51100000000E-03 0. -1.
         11   -1    0    0    0    0 -0.00000000000E+00 -0.00000000000E+00 -0.45593999997E+02  0.45594000000E+02  0.51100000000E-03 0.  1.
    9900012    2    1    2    0    0  0.21913205414E+02 -0.69743389027E+01  0.22088496906E+02  0.59301769896E+02  0.49999682425E+02 0.  0.
        -12    1    1    2    0    0 -0.21913205414E+02  0.69743389027E+01 -0.22088496906E+02  0.31886230104E+02  0.00000000000E+00 0.  1.
         11    1    3    3    0    0 -0.54392226695E+01 -0.34729431710E+01 -0.23877681501E+01  0.68809820896E+01  0.51100000000E-03 0. -1.
        -11    1    3    3    0    0  0.74463395758E+01 -0.12805637988E+02 -0.50190436306E+01  0.15640432749E+02  0.51100000000E-03 0.  1.
         12    1    3    3    0    0  0.19906088507E+02  0.93042422562E+01  0.29495308687E+02  0.36780355058E+02  0.00000000000E+00 0. -1.
</event>
<event>
 7    1  0.1138240E-011  0.5930195E+02  0.7816164E-02  0.1266605E+00
        -11   -1    0    0    0    0  0.00000000000E+00  0.00000000000E+00  0.45593999997E+02  0.45594000000E+02  0.51100000000E-03 0.  1.
         11   -1    0    0    0    0 -0.00000000000E+00 -0.00000000000E+00 -0.45593999997E+02  0.45594000000E+02  0.51100000000E-03 0. -1.
    9900012    2    1    2    0    0 -0.24846093723E+02 -0.86078503841E+01  0.18035977531E+02  0.59301953726E+02  0.50000017687E+02 0.  0.
        -12    1    1    2    0    0  0.24846093723E+02  0.86078503841E+01 -0.18035977531E+02  0.31886046274E+02  0.00000000000E+00 0.  1.
         11    1    3    3    0    0  0.72301441683E+01 -0.83716024478E-02 -0.11264088273E+02  0.13384869804E+02  0.51100000000E-03 0. -1.
        -11    1    3    3    0    0 -0.53940101949E+01  0.30886665996E+01  0.47841406168E+01  0.78436731860E+01  0.51100000000E-03 0.  1.
        -12    1    3    3    0    0 -0.26682227696E+02 -0.11688145381E+02  0.24515925187E+02  0.38073410736E+02  0.00000000000E+00 0.  1.
</event>
<event>
 7    1  0.1138240E-011  0.5930194E+02  0.7816164E-02  0.1266605E+00
        -11   -1    0    0    0    0  0.00000000000E+00  0.00000000000E+00  0.45593999997E+02  0.45594000000E+02  0.51100000000E-03 0.  1.
         11   -1    0    0    0    0 -0.00000000000E+00 -0.00000000000E+00 -0.45593999997E+02  0.45594000000E+02  0.51100000000E-03 0. -1.
    9900012    2    1    2    0    0 -0.21483153548E+01  0.46781957626E+01 -0.31467760754E+02  0.59301941270E+02  0.49999994970E+02 0.  0.
        -12    1    1    2    0    0  0.21483153548E+01 -0.46781957626E+01  0.31467760754E+02  0.31886058730E+02  0.00000000000E+00 0.  1.
         11    1    3    3    0    0  0.66451436881E+01  0.56264748547E+01 -0.73419681999E+01  0.11389453509E+02  0.51100000000E-03 0. -1.
        -11    1    3    3    0    0  0.92334454267E+01 -0.71488497200E+01 -0.26250791194E+02  0.28730934641E+02  0.51100000000E-03 0.  1.
        -12    1    3    3    0    0 -0.18026904470E+02  0.62005706280E+01  0.21249986399E+01  0.19181553120E+02  0.00000000000E+00 0.  1.
</event>
<event>
 7    1  0.1138240E-011  0.5930195E+02  0.7816164E-02  0.1266605E+00
        -11   -1    0    0    0    0  0.00000000000E+00  0.00000000000E+00  0.45593999997E+02  0.45594000000E+02  0.51100000000E-03 0. -1.
         11   -1    0    0    0    0 -0.00000000000E+00 -0.00000000000E+00 -0.45593999997E+02  0.45594000000E+02  0.51100000000E-03 0.  1.
    9900012    2    1    2    0    0 -0.72562003745E+00 -0.29364142690E+02 -0.12407293310E+02  0.59301947757E+02  0.50000006802E+02 0.  0.
        -12    1    1    2    0    0  0.72562003745E+00  0.29364142690E+02  0.12407293310E+02  0.31886052243E+02  0.00000000000E+00 0.  1.
         11    1    3    3    0    0  0.10182809396E+02 -0.57804157956E+00  0.44230511095E+01  0.11116974437E+02  0.51100000000E-03 0. -1.
        -11    1    3    3    0    0 -0.23456907390E+01 -0.19038090796E+01  0.92704173944E+01  0.97502509190E+01  0.51100000000E-03 0.  1.
        -12    1    3    3    0    0 -0.85627386944E+01 -0.26882292031E+02 -0.26100761813E+02  0.38434722401E+02  0.00000000000E+00 0.  1.
</event>
<event>
 7    1  0.1138240E-011  0.5930201E+02  0.7816164E-02  0.1266605E+00
        -11   -1    0    0    0    0  0.00000000000E+00  0.00000000000E+00  0.45593999997E+02  0.45594000000E+02  0.51100000000E-03 0.  1.
         11   -1    0    0    0    0 -0.00000000000E+00 -0.00000000000E+00 -0.45593999997E+02  0.45594000000E+02  0.51100000000E-03 0. -1.
    9900012    2    1    2    0    0  0.16060145802E+02 -0.24641223152E+02 -0.12312511225E+02  0.59302014140E+02  0.50000127868E+02 0.  0.
        -12    1    1    2    0    0 -0.16060145802E+02  0.24641223152E+02  0.12312511225E+02  0.31885985860E+02  0.00000000000E+00 0.  1.
         11    1    3    3    0    0  0.47815311936E+01  0.58214869370E+01  0.72061912064E+01  0.10425063198E+02  0.51100000000E-03 0. -1.
        -11    1    3    3    0    0  0.16430111710E+02 -0.22881706712E+02 -0.96878900589E+00  0.28186160172E+02  0.51100000000E-03 0.  1.
         12    1    3    3    0    0 -0.51514971018E+01 -0.75810033771E+01 -0.18549913426E+02  0.20690790770E+02  0.00000000000E+00 0. -1.
</event>
<event>
 7    1  0.1138240E-011  0.5930194E+02  0.7816164E-02  0.1266605E+00
        -11   -1    0    0    0    0  0.00000000000E+00  0.00000000000E+00  0.45593999997E+02  0.45594000000E+02  0.51100000000E-03 0. -1.
         11   -1    0    0    0    0 -0.00000000000E+00 -0.00000000000E+00 -0.45593999997E+02  0.45594000000E+02  0.51100000000E-03 0.  1.
    9900012    2    1    2    0    0  0.30890998085E+02 -0.71891077072E+01 -0.32838984916E+01  0.59301936875E+02  0.49999986955E+02 0.  0.
        -12    1    1    2    0    0 -0.30890998085E+02  0.71891077072E+01  0.32838984916E+01  0.31886063125E+02  0.00000000000E+00 0.  1.
         11    1    3    3    0    0  0.83448661502E+01 -0.33072637761E+01 -0.75194526923E+01  0.11709694864E+02  0.51100000000E-03 0. -1.
        -11    1    3    3    0    0  0.20285234641E+02  0.13880507110E+02 -0.80645878352E+01  0.25868838383E+02  0.51100000000E-03 0.  1.
         12    1    3    3    0    0  0.22608972938E+01 -0.17762351042E+02  0.12300142036E+02  0.21723403628E+02  0.00000000000E+00 0. -1.
</event>
<event>
 7    1  0.1138240E-011  0.5930199E+02  0.7816164E-02  0.1266605E+00
        -11   -1    0    0    0    0  0.00000000000E+00  0.00000000000E+00  0.45593999997E+02  0.45594000000E+02  0.51100000000E-03 0. -1.
         11   -1    0    0    0    0 -0.00000000000E+00 -0.00000000000E+00 -0.45593999997E+02  0.45594000000E+02  0.51100000000E-03 0.  1.
    9900012    2    1    2    0    0  0.51947569693E+01  0.27703759768E+02 -0.14907518877E+02  0.59301985443E+02  0.50000075531E+02 0.  0.
        -12    1    1    2    0    0 -0.51947569693E+01 -0.27703759768E+02  0.14907518877E+02  0.31886014557E+02  0.00000000000E+00 0.  1.
         11    1    3    3    0    0 -0.91684000855E+01  0.12160715361E+01 -0.59917600707E+00  0.92680851451E+01  0.51100000000E-03 0. -1.
        -11    1    3    3    0    0 -0.15823404953E+01 -0.26461499913E+01 -0.16465697860E+02  0.16751869075E+02  0.51100000000E-03 0.  1.
         12    1    3    3    0    0  0.15945497550E+02  0.29133838224E+02  0.21573549909E+01  0.33282031223E+02  0.00000000000E+00 0. -1.
</event>
<event>
 7    1  0.1138240E-011  0.5930194E+02  0.7816164E-02  0.1266605E+00
        -11   -1    0    0    0    0  0.00000000000E+00  0.00000000000E+00  0.45593999997E+02  0.45594000000E+02  0.51100000000E-03 0.  1.
         11   -1    0    0    0    0 -0.00000000000E+00 -0.00000000000E+00 -0.45593999997E+02  0.45594000000E+02  0.51100000000E-03 0. -1.
    9900012    2    1    2    0    0 -0.19968546541E+02  0.12936325454E+02 -0.21228035910E+02  0.59301939162E+02  0.49999991126E+02 0.  0.
        -12    1    1    2    0    0  0.19968546541E+02 -0.12936325454E+02  0.21228035910E+02  0.31886060838E+02  0.00000000000E+00 0.  1.
         11    1    3    3    0    0  0.40830704272E+01 -0.33055584070E+01 -0.52485382223E+01  0.74259904543E+01  0.51100000000E-03 0. -1.
        -11    1    3    3    0    0 -0.10950758551E+02 -0.41402702155E+01 -0.23710269222E+02  0.26443105285E+02  0.51100000000E-03 0.  1.
        -12    1    3    3    0    0 -0.13100858417E+02  0.20382154076E+02  0.77307715341E+01  0.25432843423E+02  0.00000000000E+00 0.  1.
</event>
<event>
 7    1  0.1138240E-011  0.5930196E+02  0.7816164E-02  0.1266605E+00
        -11   -1    0    0    0    0  0.00000000000E+00  0.00000000000E+00  0.45593999997E+02  0.45594000000E+02  0.51100000000E-03 0.  1.
         11   -1    0    0    0    0 -0.00000000000E+00 -0.00000000000E+00 -0.45593999997E+02  0.45594000000E+02  0.51100000000E-03 0. -1.
    9900012    2    1    2    0    0 -0.51791908752E+01 -0.25757162357E+02 -0.18068320387E+02  0.59301958659E+02  0.50000026683E+02 0.  0.
        -12    1    1    2    0    0  0.51791908752E+01  0.25757162357E+02  0.18068320387E+02  0.31886041341E+02  0.00000000000E+00 0.  1.
         11    1    3    3    0    0 -0.20784344372E+02 -0.24516107129E+01 -0.14288812564E+02  0.25341064122E+02  0.51100000000E-03 0. -1.
        -11    1    3    3    0    0 -0.30508581960E+01 -0.13622277905E+01  0.28662104901E+01  0.44021089400E+01  0.51100000000E-03 0.  1.
        -12    1    3    3    0    0  0.18656011693E+02 -0.21943323854E+02 -0.66457183134E+01  0.29558785597E+02  0.00000000000E+00 0.  1.
</event>
<event>
 7    1  0.1138240E-011  0.5930198E+02  0.7816164E-02  0.1266605E+00
        -11   -1    0    0    0    0  0.00000000000E+00  0.00000000000E+00  0.45593999997E+02  0.45594000000E+02  0.51100000000E-03 0.  1.
         11   -1    0    0    0    0 -0.00000000000E+00 -0.00000000000E+00 -0.45593999997E+02  0.45594000000E+02  0.51100000000E-03 0. -1.
    9900012    2    1    2    0    0 -0.44780504200E+01  0.27852125150E+02  0.14863537987E+02  0.59301975280E+02  0.50000056997E+02 0.  0.
        -12    1    1    2    0    0  0.44780504200E+01 -0.27852125150E+02 -0.14863537987E+02  0.31886024720E+02  0.00000000000E+00 0.  1.
         11    1    3    3    0    0  0.30354966173E+01  0.23003699425E+02  0.32847307009E+01  0.23434459307E+02  0.51100000000E-03 0. -1.
        -11    1    3    3    0    0  0.12614983224E+02  0.31735684019E+01  0.82320629926E+01  0.15394031295E+02  0.51100000000E-03 0.  1.
        -12    1    3    3    0    0 -0.20128530261E+02  0.16748573229E+01  0.33467442936E+01  0.20473484679E+02  0.00000000000E+00 0.  1.
</event>
<event>
 7    1  0.1138240E-011  0.5930196E+02  0.7816164E-02  0.1266605E+00
        -11   -1    0    0    0    0  0.00000000000E+00  0.00000000000E+00  0.45593999997E+02  0.45594000000E+02  0.51100000000E-03 0. -1.
         11   -1    0    0    0    0 -0.00000000000E+00 -0.00000000000E+00 -0.45593999997E+02  0.45594000000E+02  0.51100000000E-03 0.  1.
    9900012    2    1    2    0    0 -0.47793225057E+01 -0.25572902665E+01  0.31421936455E+02  0.59301956851E+02  0.50000023387E+02 0.  0.
        -12    1    1    2    0    0  0.47793225057E+01  0.25572902665E+01 -0.31421936455E+02  0.31886043149E+02  0.00000000000E+00 0.  1.
         11    1    3    3    0    0  0.50311429642E+01 -0.10030581133E+02  0.13723706398E+02  0.17727523091E+02  0.51100000000E-03 0. -1.
        -11    1    3    3    0    0 -0.16724054284E+02  0.40130006493E+00  0.24431485906E+02  0.29610007384E+02  0.51100000000E-03 0.  1.
        -12    1    3    3    0    0  0.69135888141E+01  0.70719908011E+01 -0.67332558490E+01  0.11964426376E+02  0.00000000000E+00 0.  1.
</event>
<event>
 7    1  0.1138240E-011  0.5930195E+02  0.7816164E-02  0.1266605E+00
        -11   -1    0    0    0    0  0.00000000000E+00  0.00000000000E+00  0.45593999997E+02  0.45594000000E+02  0.51100000000E-03 0.  1.
         11   -1    0    0    0    0 -0.00000000000E+00 -0.00000000000E+00 -0.45593999997E+02  0.45594000000E+02  0.51100000000E-03 0. -1.
    9900012    2    1    2    0    0  0.83194312882E+01  0.28288702073E+02 -0.12134925321E+02  0.59301952668E+02  0.50000015757E+02 0.  0.
        -12    1    1    2    0    0 -0.83194312882E+01 -0.28288702073E+02  0.12134925321E+02  0.31886047332E+02  0.00000000000E+00 0.  1.
         11    1    3    3    0    0 -0.38601783609E+01 -0.16289053731E+00 -0.96395404453E+00  0.39820494680E+01  0.51100000000E-03 0. -1.
        -11    1    3    3    0    0 -0.66039724470E+01  0.25681020731E+02  0.86311659018E+01  0.27885915853E+02  0.51100000000E-03 0.  1.
         12    1    3    3    0    0  0.18783582096E+02  0.27705718792E+01 -0.19802137178E+02  0.27433987346E+02  0.00000000000E+00 0. -1.
</event>
<event>
 7    1  0.1138240E-011  0.5930195E+02  0.7816164E-02  0.1266605E+00
        -11   -1    0    0    0    0  0.00000000000E+00  0.00000000000E+00  0.45593999997E+02  0.45594000000E+02  0.51100000000E-03 0. -1.
         11   -1    0    0    0    0 -0.00000000000E+00 -0.00000000000E+00 -0.45593999997E+02  0.45594000000E+02  0.51100000000E-03 0.  1.
    9900012    2    1    2    0    0 -0.29352846324E+02  0.31684277255E+01  0.12045409766E+02  0.59301946340E+02  0.50000004217E+02 0.  0.
        -12    1    1    2    0    0  0.29352846324E+02 -0.31684277255E+01 -0.12045409766E+02  0.31886053660E+02  0.00000000000E+00 0.  1.
         11    1    3    3    0    0 -0.10044250312E+02 -0.11961281330E+02  0.16580523581E+02  0.22778783503E+02  0.51100000000E-03 0. -1.
        -11    1    3    3    0    0  0.30552714704E+01  0.54777226219E+00  0.68336066736E+01  0.75055258736E+01  0.51100000000E-03 0.  1.
        -12    1    3    3    0    0 -0.22363867482E+02  0.14581936793E+02 -0.11368720489E+02  0.29017636964E+02  0.00000000000E+00 0.  1.
</event>
<event>
 7    1  0.1138240E-011  0.5930197E+02  0.7816164E-02  0.1266605E+00
        -11   -1    0    0    0    0  0.00000000000E+00  0.00000000000E+00  0.45593999997E+02  0.45594000000E+02  0.51100000000E-03 0.  1.
         11   -1    0    0    0    0 -0.00000000000E+00 -0.00000000000E+00 -0.45593999997E+02  0.45594000000E+02  0.51100000000E-03 0. -1.
    9900012    2    1    2    0    0 -0.95906384655E+01 -0.43772276373E+00 -0.30406362678E+02  0.59301971105E+02  0.50000049383E+02 0.  0.
        -12    1    1    2    0    0  0.95906384655E+01  0.43772276373E+00  0.30406362678E+02  0.31886028895E+02  0.00000000000E+00 0.  1.
         11    1    3    3    0    0 -0.10734071803E+02 -0.12371837683E+02 -0.10638398653E+02  0.19530954694E+02  0.51100000000E-03 0. -1.
        -11    1    3    3    0    0 -0.12502287907E+02  0.69810861859E+00 -0.18109532454E+02  0.22017032600E+02  0.51100000000E-03 0.  1.
         12    1    3    3    0    0  0.13645721245E+02  0.11236006301E+02 -0.16584315713E+01  0.17753983811E+02  0.00000000000E+00 0. -1.
</event>
<event>
 7    1  0.1138240E-011  0.5930199E+02  0.7816164E-02  0.1266605E+00
        -11   -1    0    0    0    0  0.00000000000E+00  0.00000000000E+00  0.45593999997E+02  0.45594000000E+02  0.51100000000E-03 0. -1.
         11   -1    0    0    0    0 -0.00000000000E+00 -0.00000000000E+00 -0.45593999997E+02  0.45594000000E+02  0.51100000000E-03 0.  1.
    9900012    2    1    2    0    0  0.94296616516E+01  0.19784202682E+02  0.23159980289E+02  0.59301986113E+02  0.50000076753E+02 0.  0.
        -12    1    1    2    0    0 -0.94296616516E+01 -0.19784202682E+02 -0.23159980289E+02  0.31886013887E+02  0.00000000000E+00 0.  1.
         11    1    3    3    0    0  0.16434263611E+01  0.53750081883E+01 -0.22313031471E+01  0.60473363743E+01  0.51100000000E-03 0. -1.
        -11    1    3    3    0    0 -0.17086831537E+02  0.54219595488E+01  0.18845274501E+02  0.26009648760E+02  0.51100000000E-03 0.  1.
         12    1    3    3    0    0  0.24873066828E+02  0.89872349449E+01  0.65460089353E+01  0.27245000979E+02  0.00000000000E+00 0. -1.
</event>
<event>
 7    1  0.1138240E-011  0.5930194E+02  0.7816164E-02  0.1266605E+00
        -11   -1    0    0    0    0  0.00000000000E+00  0.00000000000E+00  0.45593999997E+02  0.45594000000E+02  0.51100000000E-03 0. -1.
         11   -1    0    0    0    0 -0.00000000000E+00 -0.00000000000E+00 -0.45593999997E+02  0.45594000000E+02  0.51100000000E-03 0.  1.
    9900012    2    1    2    0    0  0.22980476860E+02  0.14312565739E+02  0.16845444596E+02  0.59301939434E+02  0.49999991623E+02 0.  0.
        -12    1    1    2    0    0 -0.22980476860E+02 -0.14312565739E+02 -0.16845444596E+02  0.31886060566E+02  0.00000000000E+00 0.  1.
         11    1    3    3    0    0  0.59444601002E+01  0.51635669575E+01 -0.38613630761E+01  0.87697864669E+01  0.51100000000E-03 0. -1.
        -11    1    3    3    0    0 -0.59049334364E+01  0.13103730446E+02 -0.55810987647E+01  0.15418322028E+02  0.51100000000E-03 0.  1.
         12    1    3    3    0    0  0.22940950196E+02 -0.39547316637E+01  0.26287906436E+02  0.35113830940E+02  0.00000000000E+00 0. -1.
</event>
<event>
 7    1  0.1138240E-011  0.5930208E+02  0.7816164E-02  0.1266604E+00
        -11   -1    0    0    0    0  0.00000000000E+00  0.00000000000E+00  0.45593999997E+02  0.45594000000E+02  0.51100000000E-03 0.  1.
         11   -1    0    0    0    0 -0.00000000000E+00 -0.00000000000E+00 -0.45593999997E+02  0.45594000000E+02  0.51100000000E-03 0. -1.
    9900012    2    1    2    0    0  0.12477724524E+02  0.23205705821E+02 -0.17958666901E+02  0.59302076636E+02  0.50000241845E+02 0.  0.
        -12    1    1    2    0    0 -0.12477724524E+02 -0.23205705821E+02  0.17958666901E+02  0.31885923364E+02  0.00000000000E+00 0.  1.
         11    1    3    3    0    0 -0.14200816161E+01 -0.78884620034E+00 -0.12579620896E+02  0.12684075539E+02  0.51100000000E-03 0. -1.
        -11    1    3    3    0    0  0.12574574520E+02  0.12842700969E+02 -0.20832827969E+02  0.27514752661E+02  0.51100000000E-03 0.  1.
        -12    1    3    3    0    0  0.13232316200E+01  0.11151851052E+02  0.15453781965E+02  0.19103248436E+02  0.00000000000E+00 0.  1.
</event>
<event>
 7    1  0.1138240E-011  0.5930198E+02  0.7816164E-02  0.1266605E+00
        -11   -1    0    0    0    0  0.00000000000E+00  0.00000000000E+00  0.45593999997E+02  0.45594000000E+02  0.51100000000E-03 0.  1.
         11   -1    0    0    0    0 -0.00000000000E+00 -0.00000000000E+00 -0.45593999997E+02  0.45594000000E+02  0.51100000000E-03 0. -1.
    9900012    2    1    2    0    0  0.99811649167E+01 -0.89986356587E+00 -0.30270202786E+02  0.59301975095E+02  0.50000056659E+02 0.  0.
        -12    1    1    2    0    0 -0.99811649167E+01  0.89986356587E+00  0.30270202786E+02  0.31886024905E+02  0.00000000000E+00 0.  1.
         11    1    3    3    0    0 -0.50641397584E+01 -0.20958689597E+00  0.11760988916E+01  0.52031381900E+01  0.51100000000E-03 0. -1.
        -11    1    3    3    0    0 -0.86481664739E+01  0.13344788564E+02 -0.15843166776E+02  0.22447273753E+02  0.51100000000E-03 0.  1.
         12    1    3    3    0    0  0.23693471149E+02 -0.14035065234E+02 -0.15603134902E+02  0.31651563152E+02  0.00000000000E+00 0. -1.
</event>
<event>
 7    1  0.1138240E-011  0.5930195E+02  0.7816164E-02  0.1266605E+00
        -11   -1    0    0    0    0  0.00000000000E+00  0.00000000000E+00  0.45593999997E+02  0.45594000000E+02  0.51100000000E-03 0. -1.
         11   -1    0    0    0    0 -0.00000000000E+00 -0.00000000000E+00 -0.45593999997E+02  0.45594000000E+02  0.51100000000E-03 0.  1.
    9900012    2    1    2    0    0  0.27624458553E+02  0.64609503269E+01  0.14555593732E+02  0.59301954488E+02  0.50000019078E+02 0.  0.
        -12    1    1    2    0    0 -0.27624458553E+02 -0.64609503269E+01 -0.14555593732E+02  0.31886045512E+02  0.00000000000E+00 0.  1.
         11    1    3    3    0    0  0.14852422076E+02 -0.26017082821E+01  0.16268481494E+02  0.22181677527E+02  0.51100000000E-03 0. -1.
        -11    1    3    3    0    0  0.81551037518E+01 -0.12480345196E+02 -0.22738583117E+01  0.15080953726E+02  0.51100000000E-03 0.  1.
         12    1    3    3    0    0  0.46169327255E+01  0.21543003805E+02  0.56097054982E+00  0.22039323236E+02  0.00000000000E+00 0. -1.
</event>
<event>
 7    1  0.1138240E-011  0.5930194E+02  0.7816164E-02  0.1266605E+00
        -11   -1    0    0    0    0  0.00000000000E+00  0.00000000000E+00  0.45593999997E+02  0.45594000000E+02  0.51100000000E-03 0.  1.
         11   -1    0    0    0    0 -0.00000000000E+00 -0.00000000000E+00 -0.45593999997E+02  0.45594000000E+02  0.51100000000E-03 0. -1.
    9900012    2    1    2    0    0  0.11976273641E+02 -0.29438660107E+02  0.25796679419E+01  0.59301944648E+02  0.50000001131E+02 0.  0.
        -12    1    1    2    0    0 -0.11976273641E+02  0.29438660107E+02 -0.25796679419E+01  0.31886055352E+02  0.00000000000E+00 0.  1.
         11    1    3    3    0    0  0.58454878367E+01  0.56288497366E+01 -0.13280320729E+02  0.15563437806E+02  0.51100000000E-03 0. -1.
        -11    1    3    3    0    0 -0.48711513035E+01 -0.11323747863E+01  0.29140672173E+01  0.57881063990E+01  0.51100000000E-03 0.  1.
        -12    1    3    3    0    0  0.11001937107E+02 -0.33935135058E+02  0.12945921454E+02  0.37950400443E+02  0.00000000000E+00 0.  1.
</event>
<event>
 7    1  0.1138240E-011  0.5930196E+02  0.7816164E-02  0.1266605E+00
        -11   -1    0    0    0    0  0.00000000000E+00  0.00000000000E+00  0.45593999997E+02  0.45594000000E+02  0.51100000000E-03 0. -1.
         11   -1    0    0    0    0 -0.00000000000E+00 -0.00000000000E+00 -0.45593999997E+02  0.45594000000E+02  0.51100000000E-03 0.  1.
    9900012    2    1    2    0    0 -0.29135320804E+02 -0.10915507528E+02  0.69788669163E+01  0.59301955931E+02  0.50000021708E+02 0.  0.
        -12    1    1    2    0    0  0.29135320804E+02  0.10915507528E+02 -0.69788669163E+01  0.31886044069E+02  0.00000000000E+00 0.  1.
         11    1    3    3    0    0  0.34817448793E+01 -0.55983705141E+00  0.71868587050E+01  0.80054296097E+01  0.51100000000E-03 0. -1.
        -11    1    3    3    0    0 -0.22945374885E+02  0.12116561068E+02 -0.48431850083E+01  0.26396168700E+02  0.51100000000E-03 0.  1.
         12    1    3    3    0    0 -0.96716907982E+01 -0.22472231545E+02  0.46351932197E+01  0.24900357621E+02  0.00000000000E+00 0. -1.
</event>
<event>
 7    1  0.1138240E-011  0.5930194E+02  0.7816164E-02  0.1266605E+00
        -11   -1    0    0    0    0  0.00000000000E+00  0.00000000000E+00  0.45593999997E+02  0.45594000000E+02  0.51100000000E-03 0. -1.
         11   -1    0    0    0    0 -0.00000000000E+00 -0.00000000000E+00 -0.45593999997E+02  0.45594000000E+02  0.51100000000E-03 0.  1.
    9900012    2    1    2    0    0 -0.37700301780E+01 -0.31494698686E+02 -0.32544706615E+01  0.59301941100E+02  0.49999994661E+02 0.  0.
        -12    1    1    2    0    0  0.37700301780E+01  0.31494698686E+02  0.32544706615E+01  0.31886058900E+02  0.00000000000E+00 0.  1.
         11    1    3    3    0    0 -0.85454339290E-01  0.76394579637E+01  0.29712888047E+01  0.81973884771E+01  0.51100000000E-03 0. -1.
        -11    1    3    3    0    0  0.51825166963E+01  0.24908101796E+01 -0.63216351264E+01  0.85455067486E+01  0.51100000000E-03 0.  1.
         12    1    3    3    0    0 -0.88670925350E+01 -0.41624966830E+02  0.95875660118E-01  0.42559045874E+02  0.00000000000E+00 0. -1.
</event>
<event>
 7    1  0.1138240E-011  0.5930193E+02  0.7816164E-02  0.1266605E+00
        -11   -1    0    0    0    0  0.00000000000E+00  0.00000000000E+00  0.45593999997E+02  0.45594000000E+02  0.51100000000E-03 0.  1.
         11   -1    0    0    0    0 -0.00000000000E+00 -0.00000000000E+00 -0.45593999997E+02  0.45594000000E+02  0.51100000000E-03 0. -1.
    9900012    2    1    2    0    0 -0.55232474281E-01  0.73238528072E+01 -0.31033518569E+02  0.59301934935E+02  0.49999983417E+02 0.  0.
        -12    1    1    2    0    0  0.55232474281E-01 -0.73238528072E+01  0.31033518569E+02  0.31886065065E+02  0.00000000000E+00 0.  1.
         11    1    3    3    0    0  0.55821490686E+01  0.50657025747E+01 -0.20474509369E+02  0.21818049064E+02  0.51100000000E-03 0. -1.
        -11    1    3    3    0    0  0.14137661035E+02  0.50942711530E+01 -0.30955823122E+00  0.15030664811E+02  0.51100000000E-03 0.  1.
         12    1    3    3    0    0 -0.19775042577E+02 -0.28361209205E+01 -0.10249450969E+02  0.22453221060E+02  0.00000000000E+00 0. -1.
</event>
<event>
 7    1  0.1138240E-011  0.5930191E+02  0.7816164E-02  0.1266605E+00
        -11   -1    0    0    0    0  0.00000000000E+00  0.00000000000E+00  0.45593999997E+02  0.45594000000E+02  0.51100000000E-03 0.  1.
         11   -1    0    0    0    0 -0.00000000000E+00 -0.00000000000E+00 -0.45593999997E+02  0.45594000000E+02  0.51100000000E-03 0. -1.
    9900012    2    1    2    0    0 -0.11991772625E+02 -0.18499607401E+02 -0.23036591391E+02  0.59301911692E+02  0.49999941027E+02 0.  0.
        -12    1    1    2    0    0  0.11991772625E+02  0.18499607401E+02  0.23036591391E+02  0.31886088308E+02  0.00000000000E+00 0.  1.
         11    1    3    3    0    0 -0.12359543920E+02 -0.94539691069E+01 -0.61030897573E+01  0.16714770792E+02  0.51100000000E-03 0. -1.
        -11    1    3    3    0    0 -0.56426694847E+01 -0.19335569801E+02  0.19729537592E+01  0.20238491180E+02  0.51100000000E-03 0.  1.
        -12    1    3    3    0    0  0.60104407797E+01  0.10289931507E+02 -0.18906455392E+02  0.22348649720E+02  0.00000000000E+00 0.  1.
</event>
<event>
 7    1  0.1138240E-011  0.5930196E+02  0.7816164E-02  0.1266605E+00
        -11   -1    0    0    0    0  0.00000000000E+00  0.00000000000E+00  0.45593999997E+02  0.45594000000E+02  0.51100000000E-03 0.  1.
         11   -1    0    0    0    0 -0.00000000000E+00 -0.00000000000E+00 -0.45593999997E+02  0.45594000000E+02  0.51100000000E-03 0. -1.
    9900012    2    1    2    0    0  0.83152563027E+00  0.20206757938E+02 -0.24651878797E+02  0.59301958705E+02  0.50000026768E+02 0.  0.
        -12    1    1    2    0    0 -0.83152563027E+00 -0.20206757938E+02  0.24651878797E+02  0.31886041295E+02  0.00000000000E+00 0.  1.
         11    1    3    3    0    0  0.35683346930E+01 -0.39602093355E+01  0.32856868529E+01  0.62619492827E+01  0.51100000000E-03 0. -1.
        -11    1    3    3    0    0 -0.17334953880E+02  0.40955935464E+01 -0.33892875574E+01  0.18131789291E+02  0.51100000000E-03 0.  1.
         12    1    3    3    0    0  0.14598144817E+02  0.20071373727E+02 -0.24548278093E+02  0.34908220131E+02  0.00000000000E+00 0. -1.
</event>
<event>
 7    1  0.1138240E-011  0.5930186E+02  0.7816164E-02  0.1266605E+00
        -11   -1    0    0    0    0  0.00000000000E+00  0.00000000000E+00  0.45593999997E+02  0.45594000000E+02  0.51100000000E-03 0.  1.
         11   -1    0    0    0    0 -0.00000000000E+00 -0.00000000000E+00 -0.45593999997E+02  0.45594000000E+02  0.51100000000E-03 0. -1.
    9900012    2    1    2    0    0 -0.15197536678E+02 -0.13177101662E+02 -0.24741154348E+02  0.59301861197E+02  0.49999848936E+02 0.  0.
        -12    1    1    2    0    0  0.15197536678E+02  0.13177101662E+02  0.24741154348E+02  0.31886138803E+02  0.00000000000E+00 0.  1.
         11    1    3    3    0    0 -0.30335620570E+01  0.95922133027E+01 -0.14703298587E+02  0.17815724639E+02  0.51100000000E-03 0. -1.
        -11    1    3    3    0    0  0.52847214997E+01  0.50268440981E+01 -0.50688379940E+00  0.73112498496E+01  0.51100000000E-03 0.  1.
        -12    1    3    3    0    0 -0.17448696121E+02 -0.27796159063E+02 -0.95309719617E+01  0.34174886708E+02  0.00000000000E+00 0.  1.
</event>
<event>
 7    1  0.1138240E-011  0.5930196E+02  0.7816164E-02  0.1266605E+00
        -11   -1    0    0    0    0  0.00000000000E+00  0.00000000000E+00  0.45593999997E+02  0.45594000000E+02  0.51100000000E-03 0. -1.
         11   -1    0    0    0    0 -0.00000000000E+00 -0.00000000000E+00 -0.45593999997E+02  0.45594000000E+02  0.51100000000E-03 0.  1.
    9900012    2    1    2    0    0 -0.15004989046E+02  0.13209546287E+02  0.24841055655E+02  0.59301955162E+02  0.50000020306E+02 0.  0.
        -12    1    1    2    0    0  0.15004989046E+02 -0.13209546287E+02 -0.24841055655E+02  0.31886044838E+02  0.00000000000E+00 0.  1.
         11    1    3    3    0    0 -0.31846142565E+01 -0.83185167289E+01 -0.12652845389E+01  0.89966901557E+01  0.51100000000E-03 0. -1.
        -11    1    3    3    0    0  0.82103829555E+01 -0.50366495274E+01  0.73149590820E+01  0.12094910226E+02  0.51100000000E-03 0.  1.
         12    1    3    3    0    0 -0.20030757745E+02  0.26564712543E+02  0.18791381112E+02  0.38210354780E+02  0.00000000000E+00 0. -1.
</event>
<event>
 7    1  0.1138240E-011  0.5930194E+02  0.7816164E-02  0.1266605E+00
        -11   -1    0    0    0    0  0.00000000000E+00  0.00000000000E+00  0.45593999997E+02  0.45594000000E+02  0.51100000000E-03 0.  1.
         11   -1    0    0    0    0 -0.00000000000E+00 -0.00000000000E+00 -0.45593999997E+02  0.45594000000E+02  0.51100000000E-03 0. -1.
    9900012    2    1    2    0    0 -0.12350028340E+02  0.18350235142E+02 -0.22966642893E+02  0.59301936970E+02  0.49999987129E+02 0.  0.
        -12    1    1    2    0    0  0.12350028340E+02 -0.18350235142E+02  0.22966642893E+02  0.31886063030E+02  0.00000000000E+00 0.  1.
         11    1    3    3    0    0 -0.66941413707E+01  0.18198454863E+02 -0.16556764197E+01  0.19461154970E+02  0.51100000000E-03 0. -1.
        -11    1    3    3    0    0 -0.16433730344E+02  0.33132326133E+01 -0.12017849641E+01  0.16807417730E+02  0.51100000000E-03 0.  1.
        -12    1    3    3    0    0  0.10777843375E+02 -0.31614523339E+01 -0.20109181509E+02  0.23033364271E+02  0.00000000000E+00 0.  1.
</event>
<event>
 7    1  0.1138240E-011  0.5930195E+02  0.7816164E-02  0.1266605E+00
        -11   -1    0    0    0    0  0.00000000000E+00  0.00000000000E+00  0.45593999997E+02  0.45594000000E+02  0.51100000000E-03 0.  1.
         11   -1    0    0    0    0 -0.00000000000E+00 -0.00000000000E+00 -0.45593999997E+02  0.45594000000E+02  0.51100000000E-03 0. -1.
    9900012    2    1    2    0    0 -0.17340375102E+02  0.93531413347E+01 -0.25070902620E+02  0.59301952586E+02  0.50000015609E+02 0.  0.
        -12    1    1    2    0    0  0.17340375102E+02 -0.93531413347E+01  0.25070902620E+02  0.31886047414E+02  0.00000000000E+00 0.  1.
         11    1    3    3    0    0  0.20944703458E+01  0.14076643977E+02 -0.10500503540E+02  0.17686132605E+02  0.51100000000E-03 0. -1.
        -11    1    3    3    0    0  0.95484500243E+01  0.12313207483E+00 -0.44600558038E+01  0.10539457169E+02  0.51100000000E-03 0.  1.
         12    1    3    3    0    0 -0.28983295472E+02 -0.48466347167E+01 -0.10110343275E+02  0.31076362812E+02  0.00000000000E+00 0. -1.
</event>
<event>
 7    1  0.1138240E-011  0.5930164E+02  0.7816164E-02  0.1266606E+00
        -11   -1    0    0    0    0  0.00000000000E+00  0.00000000000E+00  0.45593999997E+02  0.45594000000E+02  0.51100000000E-03 0. -1.
         11   -1    0    0    0    0 -0.00000000000E+00 -0.00000000000E+00 -0.45593999997E+02  0.45594000000E+02  0.51100000000E-03 0.  1.
    9900012    2    1    2    0    0 -0.27202515086E+02 -0.11297380019E+02 -0.12211970220E+02  0.59301641805E+02  0.49999448815E+02 0.  0.
        -12    1    1    2    0    0  0.27202515086E+02  0.11297380019E+02  0.12211970220E+02  0.31886358195E+02  0.00000000000E+00 0.  1.
         11    1    3    3    0    0 -0.22236913442E+02 -0.81754736040E+01 -0.17572197049E+02  0.29497471035E+02  0.51100000000E-03 0. -1.
        -11    1    3    3    0    0 -0.81907354630E+01 -0.88600871863E+00 -0.10567876053E+02  0.13399744901E+02  0.51100000000E-03 0.  1.
         12    1    3    3    0    0  0.32251338190E+01 -0.22358976959E+01  0.15928102882E+02  0.16404425869E+02  0.00000000000E+00 0. -1.
</event>
<event>
 7    1  0.1138240E-011  0.5930194E+02  0.7816164E-02  0.1266605E+00
        -11   -1    0    0    0    0  0.00000000000E+00  0.00000000000E+00  0.45593999997E+02  0.45594000000E+02  0.51100000000E-03 0.  1.
         11   -1    0    0    0    0 -0.00000000000E+00 -0.00000000000E+00 -0.45593999997E+02  0.45594000000E+02  0.51100000000E-03 0. -1.
    9900012    2    1    2    0    0  0.27866141863E+02  0.48727165336E+01 -0.14712435938E+02  0.59301937215E+02  0.49999987575E+02 0.  0.
        -12    1    1    2    0    0 -0.27866141863E+02 -0.48727165336E+01  0.14712435938E+02  0.31886062785E+02  0.00000000000E+00 0.  1.
         11    1    3    3    0    0  0.13786539119E+02 -0.83426071641E+00 -0.21062238509E+02  0.25186951842E+02  0.51100000000E-03 0. -1.
        -11    1    3    3    0    0 -0.29505262929E+01 -0.80220551890E+01 -0.45411055550E+01  0.96788746651E+01  0.51100000000E-03 0.  1.
         12    1    3    3    0    0  0.17030129037E+02  0.13729032439E+02  0.10890908126E+02  0.24436110708E+02  0.00000000000E+00 0. -1.
</event>
<event>
 7    1  0.1138240E-011  0.5930194E+02  0.7816164E-02  0.1266605E+00
        -11   -1    0    0    0    0  0.00000000000E+00  0.00000000000E+00  0.45593999997E+02  0.45594000000E+02  0.51100000000E-03 0. -1.
         11   -1    0    0    0    0 -0.00000000000E+00 -0.00000000000E+00 -0.45593999997E+02  0.45594000000E+02  0.51100000000E-03 0.  1.
    9900012    2    1    2    0    0 -0.13191196336E+02 -0.29029435023E+02  0.69681347528E-01  0.59301943267E+02  0.49999998612E+02 0.  0.
        -12    1    1    2    0    0  0.13191196336E+02  0.29029435023E+02 -0.69681347528E-01  0.31886056733E+02  0.00000000000E+00 0.  1.
         11    1    3    3    0    0 -0.10866259794E+01  0.33148809831E+01 -0.72976865269E+01  0.80885982010E+01  0.51100000000E-03 0. -1.
        -11    1    3    3    0    0 -0.12301512186E+02  0.47006681073E+01  0.50204900350E+01  0.14093573116E+02  0.51100000000E-03 0.  1.
         12    1    3    3    0    0  0.19694182934E+00 -0.37044984113E+02  0.23468778394E+01  0.37119771950E+02  0.00000000000E+00 0. -1.
</event>
<event>
 7    1  0.1138240E-011  0.5930190E+02  0.7816164E-02  0.1266605E+00
        -11   -1    0    0    0    0  0.00000000000E+00  0.00000000000E+00  0.45593999997E+02  0.45594000000E+02  0.51100000000E-03 0.  1.
         11   -1    0    0    0    0 -0.00000000000E+00 -0.00000000000E+00 -0.45593999997E+02  0.45594000000E+02  0.51100000000E-03 0. -1.
    9900012    2    1    2    0    0  0.19403829536E+02  0.15393969802E+02 -0.20080841851E+02  0.59301904028E+02  0.49999927050E+02 0.  0.
        -12    1    1    2    0    0 -0.19403829536E+02 -0.15393969802E+02  0.20080841851E+02  0.31886095972E+02  0.00000000000E+00 0.  1.
         11    1    3    3    0    0  0.61048345533E+01  0.47646389512E+01 -0.27210054635E+02  0.28290596719E+02  0.51100000000E-03 0. -1.
        -11    1    3    3    0    0  0.26807289447E+00  0.11627935791E+02  0.12325595415E+02  0.16947007300E+02  0.51100000000E-03 0.  1.
         12    1    3    3    0    0  0.13030922088E+02 -0.99860493976E+00 -0.51963826307E+01  0.14064300009E+02  0.00000000000E+00 0. -1.
</event>
<event>
 7    1  0.1138240E-011  0.5930195E+02  0.7816164E-02  0.1266605E+00
        -11   -1    0    0    0    0  0.00000000000E+00  0.00000000000E+00  0.45593999997E+02  0.45594000000E+02  0.51100000000E-03 0.  1.
         11   -1    0    0    0    0 -0.00000000000E+00 -0.00000000000E+00 -0.45593999997E+02  0.45594000000E+02  0.51100000000E-03 0. -1.
    9900012    2    1    2    0    0  0.17566537165E+02  0.25956743021E+02 -0.58637997547E+01  0.59301954717E+02  0.50000019495E+02 0.  0.
        -12    1    1    2    0    0 -0.17566537165E+02 -0.25956743021E+02  0.58637997547E+01  0.31886045283E+02  0.00000000000E+00 0.  1.
         11    1    3    3    0    0  0.57442663056E+01  0.24866021485E+02 -0.14247549420E+02  0.29228552558E+02  0.51100000000E-03 0. -1.
        -11    1    3    3    0    0 -0.25269032810E+01  0.10551733534E+02  0.68187372373E+01  0.12814815587E+02  0.51100000000E-03 0.  1.
        -12    1    3    3    0    0  0.14349174141E+02 -0.94610119987E+01  0.15650124278E+01  0.17258586572E+02  0.00000000000E+00 0.  1.
</event>
<event>
 7    1  0.1138240E-011  0.5930196E+02  0.7816164E-02  0.1266605E+00
        -11   -1    0    0    0    0  0.00000000000E+00  0.00000000000E+00  0.45593999997E+02  0.45594000000E+02  0.51100000000E-03 0.  1.
         11   -1    0    0    0    0 -0.00000000000E+00 -0.00000000000E+00 -0.45593999997E+02  0.45594000000E+02  0.51100000000E-03 0. -1.
    9900012    2    1    2    0    0 -0.11299678869E+02 -0.29699755848E+02  0.26384685894E+01  0.59301956713E+02  0.50000023135E+02 0.  0.
        -12    1    1    2    0    0  0.11299678869E+02  0.29699755848E+02 -0.26384685894E+01  0.31886043287E+02  0.00000000000E+00 0.  1.
         11    1    3    3    0    0 -0.44111951057E+01 -0.20787237191E+01  0.55882632579E+00  0.49083624239E+01  0.51100000000E-03 0. -1.
        -11    1    3    3    0    0 -0.26798619320E+01 -0.37960102178E+02  0.11535027953E+02  0.39764404779E+02  0.51100000000E-03 0.  1.
         12    1    3    3    0    0 -0.42086218312E+01  0.10339070048E+02 -0.94553856896E+01  0.14629189510E+02  0.00000000000E+00 0. -1.
</event>
<event>
 7    1  0.1138240E-011  0.5930192E+02  0.7816164E-02  0.1266605E+00
        -11   -1    0    0    0    0  0.00000000000E+00  0.00000000000E+00  0.45593999997E+02  0.45594000000E+02  0.51100000000E-03 0. -1.
         11   -1    0    0    0    0 -0.00000000000E+00 -0.00000000000E+00 -0.45593999997E+02  0.45594000000E+02  0.51100000000E-03 0.  1.
    9900012    2    1    2    0    0 -0.20159084077E+02  0.22002367389E+02 -0.11235171924E+02  0.59301922635E+02  0.49999960986E+02 0.  0.
        -12    1    1    2    0    0  0.20159084077E+02 -0.22002367389E+02  0.11235171924E+02  0.31886077365E+02  0.00000000000E+00 0.  1.
         11    1    3    3    0    0 -0.17906476046E+02  0.87485680036E+00  0.14230834015E+02  0.22889383911E+02  0.51100000000E-03 0. -1.
        -11    1    3    3    0    0  0.60387860879E+01  0.80781009563E+01 -0.67479071868E+01  0.12134945576E+02  0.51100000000E-03 0.  1.
        -12    1    3    3    0    0 -0.82913941188E+01  0.13049409632E+02 -0.18718098752E+02  0.24277593148E+02  0.00000000000E+00 0.  1.
</event>
<event>
 7    1  0.1138240E-011  0.5930194E+02  0.7816164E-02  0.1266605E+00
        -11   -1    0    0    0    0  0.00000000000E+00  0.00000000000E+00  0.45593999997E+02  0.45594000000E+02  0.51100000000E-03 0.  1.
         11   -1    0    0    0    0 -0.00000000000E+00 -0.00000000000E+00 -0.45593999997E+02  0.45594000000E+02  0.51100000000E-03 0. -1.
    9900012    2    1    2    0    0 -0.18382197146E+02 -0.26052074861E+02 -0.32459470362E+00  0.59301935047E+02  0.49999983622E+02 0.  0.
        -12    1    1    2    0    0  0.18382197146E+02  0.26052074861E+02  0.32459470362E+00  0.31886064953E+02  0.00000000000E+00 0.  1.
         11    1    3    3    0    0 -0.14363167705E+01 -0.23382102849E+00 -0.79935033191E+01  0.81248860738E+01  0.51100000000E-03 0. -1.
        -11    1    3    3    0    0 -0.12529039167E+02  0.89360336901E+01  0.38527802416E+00  0.15394088475E+02  0.51100000000E-03 0.  1.
         12    1    3    3    0    0 -0.44168412081E+01 -0.34754287522E+02  0.72836305913E+01  0.35782960498E+02  0.00000000000E+00 0. -1.
</event>
<event>
 7    1  0.1138240E-011  0.5930194E+02  0.7816164E-02  0.1266605E+00
        -11   -1    0    0    0    0  0.00000000000E+00  0.00000000000E+00  0.45593999997E+02  0.45594000000E+02  0.51100000000E-03 0.  1.
         11   -1    0    0    0    0 -0.00000000000E+00 -0.00000000000E+00 -0.45593999997E+02  0.45594000000E+02  0.51100000000E-03 0. -1.
    9900012    2    1    2    0    0  0.23244975283E+02  0.18858963188E+02 -0.10987780557E+02  0.59301942075E+02  0.49999996438E+02 0.  0.
        -12    1    1    2    0    0 -0.23244975283E+02 -0.18858963188E+02  0.10987780557E+02  0.31886057925E+02  0.00000000000E+00 0.  1.
         11    1    3    3    0    0  0.11331661990E+02  0.18136831346E+02  0.32741307017E+01  0.21634951972E+02  0.51100000000E-03 0.  1.
        -11    1    3    3    0    0  0.11901972903E+02  0.58361636271E+01  0.75557230150E+01  0.15258004962E+02  0.51100000000E-03 0. -1.
        -12    1    3    3    0    0  0.11340390042E-01 -0.51140317852E+01 -0.21817634274E+02  0.22408985140E+02  0.00000000000E+00 0.  1.
</event>
<event>
 7    1  0.1138240E-011  0.5930197E+02  0.7816164E-02  0.1266605E+00
        -11   -1    0    0    0    0  0.00000000000E+00  0.00000000000E+00  0.45593999997E+02  0.45594000000E+02  0.51100000000E-03 0.  1.
         11   -1    0    0    0    0 -0.00000000000E+00 -0.00000000000E+00 -0.45593999997E+02  0.45594000000E+02  0.51100000000E-03 0. -1.
    9900012    2    1    2    0    0  0.13924835398E+02  0.28068373193E+02  0.59147334337E+01  0.59301973497E+02  0.50000053745E+02 0.  0.
        -12    1    1    2    0    0 -0.13924835398E+02 -0.28068373193E+02 -0.59147334337E+01  0.31886026503E+02  0.00000000000E+00 0.  1.
         11    1    3    3    0    0 -0.55941856696E+01 -0.57965300466E+01  0.63915286914E+01  0.10283302639E+02  0.51100000000E-03 0. -1.
        -11    1    3    3    0    0 -0.43645934705E+01  0.12502147505E+02 -0.88152021706E+01  0.15907896089E+02  0.51100000000E-03 0.  1.
        -12    1    3    3    0    0  0.23883614538E+02  0.21362755735E+02  0.83384069130E+01  0.33110774770E+02  0.00000000000E+00 0.  1.
</event>
<event>
 7    1  0.1138240E-011  0.5930196E+02  0.7816164E-02  0.1266605E+00
        -11   -1    0    0    0    0  0.00000000000E+00  0.00000000000E+00  0.45593999997E+02  0.45594000000E+02  0.51100000000E-03 0. -1.
         11   -1    0    0    0    0 -0.00000000000E+00 -0.00000000000E+00 -0.45593999997E+02  0.45594000000E+02  0.51100000000E-03 0.  1.
    9900012    2    1    2    0    0 -0.83583686354E+01  0.30737907727E+02 -0.14276560521E+01  0.59301960743E+02  0.50000030485E+02 0.  0.
        -12    1    1    2    0    0  0.83583686354E+01 -0.30737907727E+02  0.14276560521E+01  0.31886039257E+02  0.00000000000E+00 0.  1.
         11    1    3    3    0    0 -0.42908178631E+01  0.18138935594E+02 -0.98302350576E+01  0.21072864636E+02  0.51100000000E-03 0. -1.
        -11    1    3    3    0    0  0.15277575340E+02  0.32786768641E+01  0.54765605581E+01  0.16557377390E+02  0.51100000000E-03 0.  1.
         12    1    3    3    0    0 -0.19345126112E+02  0.93202952689E+01  0.29260184473E+01  0.21671718717E+02  0.00000000000E+00 0. -1.
</event>
<event>
 7    1  0.1138240E-011  0.5930193E+02  0.7816164E-02  0.1266605E+00
        -11   -1    0    0    0    0  0.00000000000E+00  0.00000000000E+00  0.45593999997E+02  0.45594000000E+02  0.51100000000E-03 0.  1.
         11   -1    0    0    0    0 -0.00000000000E+00 -0.00000000000E+00 -0.45593999997E+02  0.45594000000E+02  0.51100000000E-03 0. -1.
    9900012    2    1    2    0    0  0.42941713214E+01  0.13767345230E+02 -0.28438382442E+02  0.59301932542E+02  0.49999979052E+02 0.  0.
        -12    1    1    2    0    0 -0.42941713214E+01 -0.13767345230E+02  0.28438382442E+02  0.31886067458E+02  0.00000000000E+00 0.  1.
         11    1    3    3    0    0  0.11803083589E+02  0.13444107071E+02 -0.21225869546E+02  0.27759580966E+02  0.51100000000E-03 0. -1.
        -11    1    3    3    0    0 -0.64961282552E+00 -0.12486322450E+02 -0.10859965656E+02  0.16561071809E+02  0.51100000000E-03 0.  1.
        -12    1    3    3    0    0 -0.68592994418E+01  0.12809560609E+02  0.36474527603E+01  0.14981279767E+02  0.00000000000E+00 0.  1.
</event>
<event>
 7    1  0.1138240E-011  0.5930196E+02  0.7816164E-02  0.1266605E+00
        -11   -1    0    0    0    0  0.00000000000E+00  0.00000000000E+00  0.45593999997E+02  0.45594000000E+02  0.51100000000E-03 0.  1.
         11   -1    0    0    0    0 -0.00000000000E+00 -0.00000000000E+00 -0.45593999997E+02  0.45594000000E+02  0.51100000000E-03 0. -1.
    9900012    2    1    2    0    0 -0.30606097795E+02  0.74522628141E+01  0.49447335513E+01  0.59301955511E+02  0.50000020942E+02 0.  0.
        -12    1    1    2    0    0  0.30606097795E+02 -0.74522628141E+01 -0.49447335513E+01  0.31886044489E+02  0.00000000000E+00 0.  1.
         11    1    3    3    0    0 -0.10199969225E+01 -0.81486243344E+01 -0.61251734158E+01  0.10244912001E+02  0.51100000000E-03 0. -1.
        -11    1    3    3    0    0 -0.14753998246E+02  0.19475133109E+01  0.21664188949E+02  0.26283271399E+02  0.51100000000E-03 0.  1.
         12    1    3    3    0    0 -0.14832102626E+02  0.13653373838E+02 -0.10594281982E+02  0.22773772111E+02  0.00000000000E+00 0. -1.
</event>
<event>
 7    1  0.1138240E-011  0.5930196E+02  0.7816164E-02  0.1266605E+00
        -11   -1    0    0    0    0  0.00000000000E+00  0.00000000000E+00  0.45593999997E+02  0.45594000000E+02  0.51100000000E-03 0. -1.
         11   -1    0    0    0    0 -0.00000000000E+00 -0.00000000000E+00 -0.45593999997E+02  0.45594000000E+02  0.51100000000E-03 0.  1.
    9900012    2    1    2    0    0 -0.11704429396E+02  0.11865152747E+02  0.27183530221E+02  0.59301955522E+02  0.50000020962E+02 0.  0.
        -12    1    1    2    0    0  0.11704429396E+02 -0.11865152747E+02 -0.27183530221E+02  0.31886044478E+02  0.00000000000E+00 0.  1.
         11    1    3    3    0    0  0.16805962157E+01  0.53415777519E+01 -0.80428805468E+00  0.56571844637E+01  0.51100000000E-03 0. -1.
        -11    1    3    3    0    0  0.54517523456E+01  0.20779257882E+01 -0.96761659231E+01  0.11299007321E+02  0.51100000000E-03 0.  1.
         12    1    3    3    0    0 -0.18836777958E+02  0.44456492067E+01  0.37663984199E+02  0.42345763736E+02  0.00000000000E+00 0. -1.
</event>
<event>
 7    1  0.1138240E-011  0.5930195E+02  0.7816164E-02  0.1266605E+00
        -11   -1    0    0    0    0  0.00000000000E+00  0.00000000000E+00  0.45593999997E+02  0.45594000000E+02  0.51100000000E-03 0.  1.
         11   -1    0    0    0    0 -0.00000000000E+00 -0.00000000000E+00 -0.45593999997E+02  0.45594000000E+02  0.51100000000E-03 0. -1.
    9900012    2    1    2    0    0 -0.25220229815E+02 -0.15001981096E+02  0.12474008053E+02  0.59301948102E+02  0.50000007431E+02 0.  0.
        -12    1    1    2    0    0  0.25220229815E+02  0.15001981096E+02 -0.12474008053E+02  0.31886051898E+02  0.00000000000E+00 0.  1.
         11    1    3    3    0    0 -0.17807046785E+01 -0.12460842001E+02  0.15223078937E+02  0.19753116845E+02  0.51100000000E-03 0. -1.
        -11    1    3    3    0    0 -0.14761454828E+02 -0.15411448235E+02  0.54057552504E+01  0.22014437885E+02  0.51100000000E-03 0.  1.
         12    1    3    3    0    0 -0.86780703085E+01  0.12870309140E+02 -0.81548261344E+01  0.17534393372E+02  0.00000000000E+00 0. -1.
</event>
<event>
 7    1  0.1138240E-011  0.5930198E+02  0.7816164E-02  0.1266605E+00
        -11   -1    0    0    0    0  0.00000000000E+00  0.00000000000E+00  0.45593999997E+02  0.45594000000E+02  0.51100000000E-03 0. -1.
         11   -1    0    0    0    0 -0.00000000000E+00 -0.00000000000E+00 -0.45593999997E+02  0.45594000000E+02  0.51100000000E-03 0.  1.
    9900012    2    1    2    0    0 -0.18412030543E+02  0.14409157284E+02  0.21681594801E+02  0.59301980564E+02  0.50000066633E+02 0.  0.
        -12    1    1    2    0    0  0.18412030543E+02 -0.14409157284E+02 -0.21681594801E+02  0.31886019436E+02  0.00000000000E+00 0.  1.
         11    1    3    3    0    0 -0.11925971789E+02 -0.51522144878E+01  0.29547753781E+01  0.13323093299E+02  0.51100000000E-03 0. -1.
        -11    1    3    3    0    0 -0.20402164031E+02  0.10484539598E+02  0.18324805884E+02  0.29359366114E+02  0.51100000000E-03 0.  1.
        -12    1    3    3    0    0  0.13916105277E+02  0.90768321746E+01  0.40201353946E+00  0.16619521151E+02  0.00000000000E+00 0.  1.
</event>
<event>
 7    1  0.1138240E-011  0.5930206E+02  0.7816164E-02  0.1266604E+00
        -11   -1    0    0    0    0  0.00000000000E+00  0.00000000000E+00  0.45593999997E+02  0.45594000000E+02  0.51100000000E-03 0.  1.
         11   -1    0    0    0    0 -0.00000000000E+00 -0.00000000000E+00 -0.45593999997E+02  0.45594000000E+02  0.51100000000E-03 0. -1.
    9900012    2    1    2    0    0  0.24998599806E+02  0.18391673862E+02 -0.73163652936E+01  0.59302064843E+02  0.50000220338E+02 0.  0.
        -12    1    1    2    0    0 -0.24998599806E+02 -0.18391673862E+02  0.73163652936E+01  0.31885935157E+02  0.00000000000E+00 0.  1.
         11    1    3    3    0    0  0.28585076189E+02  0.96978263281E+01 -0.21164717166E+02  0.36865968985E+02  0.51100000000E-03 0. -1.
        -11    1    3    3    0    0 -0.53089001239E+01  0.23510820221E+01 -0.12765541804E+01  0.59448799850E+01  0.51100000000E-03 0.  1.
        -12    1    3    3    0    0  0.17224237411E+01  0.63427655118E+01  0.15124906053E+02  0.16491215874E+02  0.00000000000E+00 0.  1.
</event>
<event>
 7    1  0.1138240E-011  0.5930192E+02  0.7816164E-02  0.1266605E+00
        -11   -1    0    0    0    0  0.00000000000E+00  0.00000000000E+00  0.45593999997E+02  0.45594000000E+02  0.51100000000E-03 0. -1.
         11   -1    0    0    0    0 -0.00000000000E+00 -0.00000000000E+00 -0.45593999997E+02  0.45594000000E+02  0.51100000000E-03 0.  1.
    9900012    2    1    2    0    0 -0.12987598373E+02  0.75190757699E+01  0.28133751616E+02  0.59301918524E+02  0.49999953487E+02 0.  0.
        -12    1    1    2    0    0  0.12987598373E+02 -0.75190757699E+01 -0.28133751616E+02  0.31886081476E+02  0.00000000000E+00 0.  1.
         11    1    3    3    0    0  0.73119271431E+01  0.12031668555E+02  0.92396418341E+01  0.16840317938E+02  0.51100000000E-03 0. -1.
        -11    1    3    3    0    0  0.59771170780E+01  0.35871592110E+01  0.12373999202E+02  0.14202446841E+02  0.51100000000E-03 0.  1.
         12    1    3    3    0    0 -0.26276642594E+02 -0.80997519961E+01  0.65201105803E+01  0.28259153745E+02  0.00000000000E+00 0. -1.
</event>
<event>
 7    1  0.1138240E-011  0.5930195E+02  0.7816164E-02  0.1266605E+00
        -11   -1    0    0    0    0  0.00000000000E+00  0.00000000000E+00  0.45593999997E+02  0.45594000000E+02  0.51100000000E-03 0.  1.
         11   -1    0    0    0    0 -0.00000000000E+00 -0.00000000000E+00 -0.45593999997E+02  0.45594000000E+02  0.51100000000E-03 0. -1.
    9900012    2    1    2    0    0  0.59409944495E+01  0.29658554378E+02 -0.10089356269E+02  0.59301947049E+02  0.50000005511E+02 0.  0.
        -12    1    1    2    0    0 -0.59409944495E+01 -0.29658554378E+02  0.10089356269E+02  0.31886052951E+02  0.00000000000E+00 0.  1.
         11    1    3    3    0    0 -0.80907938623E+00  0.36803733239E+02  0.62252256669E+01  0.37335275875E+02  0.51100000000E-03 0. -1.
        -11    1    3    3    0    0 -0.20794713467E+00  0.22372132639E+01 -0.49299704597E+00  0.23003068377E+01  0.51100000000E-03 0.  1.
        -12    1    3    3    0    0  0.69580209704E+01 -0.93823921248E+01 -0.15821584890E+02  0.19666364337E+02  0.00000000000E+00 0.  1.
</event>
<event>
 7    1  0.1138240E-011  0.5930169E+02  0.7816164E-02  0.1266606E+00
        -11   -1    0    0    0    0  0.00000000000E+00  0.00000000000E+00  0.45593999997E+02  0.45594000000E+02  0.51100000000E-03 0.  1.
         11   -1    0    0    0    0 -0.00000000000E+00 -0.00000000000E+00 -0.45593999997E+02  0.45594000000E+02  0.51100000000E-03 0. -1.
    9900012    2    1    2    0    0 -0.13313910832E+00  0.34152086091E+01 -0.31702611354E+02  0.59301687223E+02  0.49999531648E+02 0.  0.
        -12    1    1    2    0    0  0.13313910832E+00 -0.34152086091E+01  0.31702611354E+02  0.31886312777E+02  0.00000000000E+00 0.  1.
         11    1    3    3    0    0 -0.14779826221E+02 -0.27584656921E+01 -0.16139262385E+02  0.22057383949E+02  0.51100000000E-03 0. -1.
        -11    1    3    3    0    0 -0.19160693450E+01  0.12999938008E+02 -0.14094627908E+02  0.19269879244E+02  0.51100000000E-03 0.  1.
        -12    1    3    3    0    0  0.16562756457E+02 -0.68262637067E+01 -0.14687210608E+01  0.17974424030E+02  0.00000000000E+00 0.  1.
</event>
<event>
 7    1  0.1138240E-011  0.5930197E+02  0.7816164E-02  0.1266605E+00
        -11   -1    0    0    0    0  0.00000000000E+00  0.00000000000E+00  0.45593999997E+02  0.45594000000E+02  0.51100000000E-03 0.  1.
         11   -1    0    0    0    0 -0.00000000000E+00 -0.00000000000E+00 -0.45593999997E+02  0.45594000000E+02  0.51100000000E-03 0. -1.
    9900012    2    1    2    0    0  0.22255841457E+02 -0.21114609810E+02 -0.86930641269E+01  0.59301975000E+02  0.50000056485E+02 0.  0.
        -12    1    1    2    0    0 -0.22255841457E+02  0.21114609810E+02  0.86930641269E+01  0.31886025000E+02  0.00000000000E+00 0.  1.
         11    1    3    3    0    0 -0.83248073224E+01  0.55580342307E+01 -0.71092726086E+01  0.12277455712E+02  0.51100000000E-03 0. -1.
        -11    1    3    3    0    0 -0.34952948177E+01 -0.55862402600E+00 -0.20501453615E+01  0.40905064392E+01  0.51100000000E-03 0.  1.
         12    1    3    3    0    0  0.34075943597E+02 -0.26114020015E+02  0.46635384318E+00  0.42934012849E+02  0.00000000000E+00 0. -1.
</event>
<event>
 7    1  0.1138240E-011  0.5930196E+02  0.7816164E-02  0.1266605E+00
        -11   -1    0    0    0    0  0.00000000000E+00  0.00000000000E+00  0.45593999997E+02  0.45594000000E+02  0.51100000000E-03 0.  1.
         11   -1    0    0    0    0 -0.00000000000E+00 -0.00000000000E+00 -0.45593999997E+02  0.45594000000E+02  0.51100000000E-03 0. -1.
    9900012    2    1    2    0    0 -0.86735643971E+01  0.29650374488E+02  0.78958460462E+01  0.59301955852E+02  0.50000021565E+02 0.  0.
        -12    1    1    2    0    0  0.86735643971E+01 -0.29650374488E+02 -0.78958460462E+01  0.31886044148E+02  0.00000000000E+00 0.  1.
         11    1    3    3    0    0  0.11349011912E+00 -0.68584608332E+01  0.80324118761E+01  0.10562717729E+02  0.51100000000E-03 0. -1.
        -11    1    3    3    0    0 -0.14539230963E+02  0.13797225132E+02  0.10927979099E+02  0.22829222189E+02  0.51100000000E-03 0.  1.
         12    1    3    3    0    0  0.57521764463E+01  0.22711610189E+02 -0.11064544929E+02  0.25910015934E+02  0.00000000000E+00 0. -1.
</event>
<event>
 7    1  0.1138240E-011  0.5930191E+02  0.7816164E-02  0.1266605E+00
        -11   -1    0    0    0    0  0.00000000000E+00  0.00000000000E+00  0.45593999997E+02  0.45594000000E+02  0.51100000000E-03 0. -1.
         11   -1    0    0    0    0 -0.00000000000E+00 -0.00000000000E+00 -0.45593999997E+02  0.45594000000E+02  0.51100000000E-03 0.  1.
    9900012    2    1    2    0    0 -0.20654604602E+02 -0.19631042204E+02  0.14308470674E+02  0.59301908325E+02  0.49999934887E+02 0.  0.
        -12    1    1    2    0    0  0.20654604602E+02  0.19631042204E+02 -0.14308470674E+02  0.31886091675E+02  0.00000000000E+00 0.  1.
         11    1    3    3    0    0 -0.29769710122E+01 -0.22379674167E+01 -0.66089692198E+01  0.75861274030E+01  0.51100000000E-03 0. -1.
        -11    1    3    3    0    0 -0.77211284218E-01  0.12541179676E+02  0.47403056851E+01  0.13407372878E+02  0.51100000000E-03 0.  1.
         12    1    3    3    0    0 -0.17600422305E+02 -0.29934254464E+02  0.16177134209E+02  0.38308408043E+02  0.00000000000E+00 0. -1.
</event>
<event>
 7    1  0.1138240E-011  0.5930194E+02  0.7816164E-02  0.1266605E+00
        -11   -1    0    0    0    0  0.00000000000E+00  0.00000000000E+00  0.45593999997E+02  0.45594000000E+02  0.51100000000E-03 0.  1.
         11   -1    0    0    0    0 -0.00000000000E+00 -0.00000000000E+00 -0.45593999997E+02  0.45594000000E+02  0.51100000000E-03 0. -1.
    9900012    2    1    2    0    0  0.27224373907E+02  0.82035391274E+01 -0.14431076078E+02  0.59301944339E+02  0.50000000568E+02 0.  0.
        -12    1    1    2    0    0 -0.27224373907E+02 -0.82035391274E+01  0.14431076078E+02  0.31886055661E+02  0.00000000000E+00 0.  1.
         11    1    3    3    0    0  0.11327758991E+02 -0.60336029051E+01  0.79499295815E+01  0.15097147690E+02  0.51100000000E-03 0. -1.
        -11    1    3    3    0    0  0.12744869160E+01  0.57639376922E+01  0.76995132554E+01  0.97020512908E+01  0.51100000000E-03 0.  1.
         12    1    3    3    0    0  0.14622128000E+02  0.84732043403E+01 -0.30080518915E+02  0.34502745358E+02  0.00000000000E+00 0. -1.
</event>
<event>
 7    1  0.1138240E-011  0.5930194E+02  0.7816164E-02  0.1266605E+00
        -11   -1    0    0    0    0  0.00000000000E+00  0.00000000000E+00  0.45593999997E+02  0.45594000000E+02  0.51100000000E-03 0. -1.
         11   -1    0    0    0    0 -0.00000000000E+00 -0.00000000000E+00 -0.45593999997E+02  0.45594000000E+02  0.51100000000E-03 0.  1.
    9900012    2    1    2    0    0 -0.12814777611E+02 -0.20214257828E+02  0.21068608787E+02  0.59301936885E+02  0.49999986973E+02 0.  0.
        -12    1    1    2    0    0  0.12814777611E+02  0.20214257828E+02 -0.21068608787E+02  0.31886063115E+02  0.00000000000E+00 0.  1.
         11    1    3    3    0    0 -0.78161207021E+01 -0.14170856313E+02  0.16709905165E+02  0.23262111735E+02  0.51100000000E-03 0. -1.
        -11    1    3    3    0    0 -0.18051999449E+02  0.12596353242E+01 -0.45118212937E+01  0.18649876592E+02  0.51100000000E-03 0.  1.
        -12    1    3    3    0    0  0.13053342540E+02 -0.73030368394E+01  0.88705249156E+01  0.17389948557E+02  0.00000000000E+00 0.  1.
</event>
<event>
 7    1  0.1138240E-011  0.5930193E+02  0.7816164E-02  0.1266605E+00
        -11   -1    0    0    0    0  0.00000000000E+00  0.00000000000E+00  0.45593999997E+02  0.45594000000E+02  0.51100000000E-03 0. -1.
         11   -1    0    0    0    0 -0.00000000000E+00 -0.00000000000E+00 -0.45593999997E+02  0.45594000000E+02  0.51100000000E-03 0.  1.
    9900012    2    1    2    0    0 -0.21053788605E+02  0.16040911315E+02  0.17780572391E+02  0.59301927728E+02  0.49999970272E+02 0.  0.
        -12    1    1    2    0    0  0.21053788605E+02 -0.16040911315E+02 -0.17780572391E+02  0.31886072272E+02  0.00000000000E+00 0.  1.
         11    1    3    3    0    0 -0.11098940634E+02 -0.31762286161E+01  0.57224350692E+01  0.12884920442E+02  0.51100000000E-03 0.  1.
        -11    1    3    3    0    0  0.51788584193E+01 -0.71125778642E+01  0.13386357953E+02  0.16018861317E+02  0.51100000000E-03 0. -1.
        -12    1    3    3    0    0 -0.15133706391E+02  0.26329717795E+02 -0.13282206313E+01  0.30398145969E+02  0.00000000000E+00 0.  1.
</event>
<event>
 7    1  0.1138240E-011  0.5930196E+02  0.7816164E-02  0.1266605E+00
        -11   -1    0    0    0    0  0.00000000000E+00  0.00000000000E+00  0.45593999997E+02  0.45594000000E+02  0.51100000000E-03 0. -1.
         11   -1    0    0    0    0 -0.00000000000E+00 -0.00000000000E+00 -0.45593999997E+02  0.45594000000E+02  0.51100000000E-03 0.  1.
    9900012    2    1    2    0    0  0.18345494743E+02 -0.41030078503E+01  0.25755153168E+02  0.59301956572E+02  0.50000022878E+02 0.  0.
        -12    1    1    2    0    0 -0.18345494743E+02  0.41030078503E+01 -0.25755153168E+02  0.31886043428E+02  0.00000000000E+00 0.  1.
         11    1    3    3    0    0  0.21477240855E+02  0.86573025853E+01  0.16827775079E+02  0.28625072527E+02  0.51100000000E-03 0. -1.
        -11    1    3    3    0    0 -0.42861900620E+01  0.51879343760E+01 -0.46177658942E+01  0.81614857993E+01  0.51100000000E-03 0.  1.
        -12    1    3    3    0    0  0.11544439501E+01 -0.17948244812E+02  0.13545143983E+02  0.22515398246E+02  0.00000000000E+00 0.  1.
</event>
<event>
 7    1  0.1138240E-011  0.5930189E+02  0.7816164E-02  0.1266605E+00
        -11   -1    0    0    0    0  0.00000000000E+00  0.00000000000E+00  0.45593999997E+02  0.45594000000E+02  0.51100000000E-03 0.  1.
         11   -1    0    0    0    0 -0.00000000000E+00 -0.00000000000E+00 -0.45593999997E+02  0.45594000000E+02  0.51100000000E-03 0. -1.
    9900012    2    1    2    0    0  0.17631606144E+02 -0.24215883380E+02 -0.10928930719E+02  0.59301889078E+02  0.49999899784E+02 0.  0.
        -12    1    1    2    0    0 -0.17631606144E+02  0.24215883380E+02  0.10928930719E+02  0.31886110922E+02  0.00000000000E+00 0.  1.
         11    1    3    3    0    0  0.12188889076E+02 -0.78675549256E+01  0.14433560918E+02  0.20464484319E+02  0.51100000000E-03 0. -1.
        -11    1    3    3    0    0 -0.37270232586E+01  0.32805451113E+01 -0.12948332132E+02  0.13867659639E+02  0.51100000000E-03 0.  1.
        -12    1    3    3    0    0  0.91697403269E+01 -0.19628873565E+02 -0.12414159505E+02  0.24969745120E+02  0.00000000000E+00 0.  1.
</event>
<event>
 7    1  0.1138240E-011  0.5930196E+02  0.7816164E-02  0.1266605E+00
        -11   -1    0    0    0    0  0.00000000000E+00  0.00000000000E+00  0.45593999997E+02  0.45594000000E+02  0.51100000000E-03 0.  1.
         11   -1    0    0    0    0 -0.00000000000E+00 -0.00000000000E+00 -0.45593999997E+02  0.45594000000E+02  0.51100000000E-03 0. -1.
    9900012    2    1    2    0    0 -0.64679945877E+01 -0.26213697884E+02  0.16962505817E+02  0.59301960511E+02  0.50000030061E+02 0.  0.
        -12    1    1    2    0    0  0.64679945877E+01  0.26213697884E+02 -0.16962505817E+02  0.31886039489E+02  0.00000000000E+00 0.  1.
         11    1    3    3    0    0  0.15088790548E+01  0.10936470014E+02  0.23375588645E+00  0.11042542028E+02  0.51100000000E-03 0. -1.
        -11    1    3    3    0    0  0.33645319128E+01 -0.23487019426E+02  0.18948125489E+02  0.30364314850E+02  0.51100000000E-03 0.  1.
         12    1    3    3    0    0 -0.11341405555E+02 -0.13663148472E+02 -0.22193755585E+01  0.17895103632E+02  0.00000000000E+00 0. -1.
</event>
<event>
 7    1  0.1138240E-011  0.5930193E+02  0.7816164E-02  0.1266605E+00
        -11   -1    0    0    0    0  0.00000000000E+00  0.00000000000E+00  0.45593999997E+02  0.45594000000E+02  0.51100000000E-03 0. -1.
         11   -1    0    0    0    0 -0.00000000000E+00 -0.00000000000E+00 -0.45593999997E+02  0.45594000000E+02  0.51100000000E-03 0.  1.
    9900012    2    1    2    0    0 -0.30813467878E+02 -0.73237138081E+01 -0.36898547845E+01  0.59301927571E+02  0.49999969987E+02 0.  0.
        -12    1    1    2    0    0  0.30813467878E+02  0.73237138081E+01  0.36898547845E+01  0.31886072429E+02  0.00000000000E+00 0.  1.
         11    1    3    3    0    0  0.12877785541E+01 -0.25194014420E+01 -0.14098545475E+02  0.14379664182E+02  0.51100000000E-03 0. -1.
        -11    1    3    3    0    0 -0.33168217260E+01  0.10063657657E+02 -0.83526493024E+00  0.10629025334E+02  0.51100000000E-03 0.  1.
         12    1    3    3    0    0 -0.28784424706E+02 -0.14867970023E+02  0.11243955621E+02  0.34293238054E+02  0.00000000000E+00 0. -1.
</event>
<event>
 7    1  0.1138240E-011  0.5930194E+02  0.7816164E-02  0.1266605E+00
        -11   -1    0    0    0    0  0.00000000000E+00  0.00000000000E+00  0.45593999997E+02  0.45594000000E+02  0.51100000000E-03 0.  1.
         11   -1    0    0    0    0 -0.00000000000E+00 -0.00000000000E+00 -0.45593999997E+02  0.45594000000E+02  0.51100000000E-03 0. -1.
    9900012    2    1    2    0    0  0.98851839589E+01 -0.25211532067E+02 -0.16833972680E+02  0.59301939608E+02  0.49999991940E+02 0.  0.
        -12    1    1    2    0    0 -0.98851839589E+01  0.25211532067E+02  0.16833972680E+02  0.31886060392E+02  0.00000000000E+00 0.  1.
         11    1    3    3    0    0  0.61128205332E+01  0.10393366325E+02  0.32279443000E+01  0.12482318018E+02  0.51100000000E-03 0.  1.
        -11    1    3    3    0    0  0.11320732235E+02 -0.96433379380E+01 -0.41136073850E+01  0.15429669825E+02  0.51100000000E-03 0. -1.
        -12    1    3    3    0    0 -0.75483688095E+01 -0.25961560454E+02 -0.15948309595E+02  0.31389951766E+02  0.00000000000E+00 0.  1.
</event>
<event>
 7    1  0.1768495E-011  0.5930189E+02  0.7816164E-02  0.1266605E+00
        -11   -1    0    0    0    0  0.00000000000E+00  0.00000000000E+00  0.45593999997E+02  0.45594000000E+02  0.51100000000E-03 0. -1.
         11   -1    0    0    0    0 -0.00000000000E+00 -0.00000000000E+00 -0.45593999997E+02  0.45594000000E+02  0.51100000000E-03 0.  1.
    9900012    2    1    2    0    0 -0.12987687050E+02  0.70715488707E+01  0.28249556122E+02  0.59301886417E+02  0.49999894931E+02 0.  0.
        -12    1    1    2    0    0  0.12987687050E+02 -0.70715488707E+01 -0.28249556122E+02  0.31886113583E+02  0.00000000000E+00 0.  1.
         11    1    3    3    0    0 -0.20430172235E+02  0.10888205479E+01  0.60259280675E+01  0.21328133464E+02  0.51100000000E-03 0. -1.
        -11    1    3    3    0    0 -0.18500463373E+01  0.14788156680E+02  0.35283207817E+01  0.15315394126E+02  0.51100000000E-03 0.  1.
        -12    1    3    3    0    0  0.92925315226E+01 -0.88054283573E+01  0.18695307273E+02  0.22658358826E+02  0.00000000000E+00 0.  1.
</event>
<event>
 7    1  0.1138240E-011  0.5930194E+02  0.7816164E-02  0.1266605E+00
        -11   -1    0    0    0    0  0.00000000000E+00  0.00000000000E+00  0.45593999997E+02  0.45594000000E+02  0.51100000000E-03 0. -1.
         11   -1    0    0    0    0 -0.00000000000E+00 -0.00000000000E+00 -0.45593999997E+02  0.45594000000E+02  0.51100000000E-03 0.  1.
    9900012    2    1    2    0    0 -0.24153475674E+02  0.13048137288E+02  0.16219632827E+02  0.59301940932E+02  0.49999994355E+02 0.  0.
        -12    1    1    2    0    0  0.24153475674E+02 -0.13048137288E+02 -0.16219632827E+02  0.31886059068E+02  0.00000000000E+00 0.  1.
         11    1    3    3    0    0 -0.32163819228E+02  0.39485330113E+01  0.21463108899E+02  0.38868589171E+02  0.51100000000E-03 0. -1.
        -11    1    3    3    0    0  0.24036035621E+01 -0.29124743061E+01  0.30002092368E+01  0.48229733975E+01  0.51100000000E-03 0.  1.
        -12    1    3    3    0    0  0.56067399918E+01  0.12012078582E+02 -0.82436853085E+01  0.15610378364E+02  0.00000000000E+00 0.  1.
</event>
<event>
 7    1  0.1138240E-011  0.5930196E+02  0.7816164E-02  0.1266605E+00
        -11   -1    0    0    0    0  0.00000000000E+00  0.00000000000E+00  0.45593999997E+02  0.45594000000E+02  0.51100000000E-03 0. -1.
         11   -1    0    0    0    0 -0.00000000000E+00 -0.00000000000E+00 -0.45593999997E+02  0.45594000000E+02  0.51100000000E-03 0.  1.
    9900012    2    1    2    0    0 -0.13377644347E+02 -0.57432803649E+01  0.28368517559E+02  0.59301961894E+02  0.50000032583E+02 0.  0.
        -12    1    1    2    0    0  0.13377644347E+02  0.57432803649E+01 -0.28368517559E+02  0.31886038106E+02  0.00000000000E+00 0.  1.
         11    1    3    3    0    0  0.57988890114E+01  0.13762435612E+01  0.11095986864E+02  0.12595319958E+02  0.51100000000E-03 0. -1.
        -11    1    3    3    0    0 -0.22344472942E+01 -0.19327234090E+02 -0.23347847301E+00  0.19457369934E+02  0.51100000000E-03 0.  1.
        -12    1    3    3    0    0 -0.16942086064E+02  0.12207710164E+02  0.17506009168E+02  0.27249272002E+02  0.00000000000E+00 0.  1.
</event>
<event>
 7    1  0.1138240E-011  0.5930196E+02  0.7816164E-02  0.1266605E+00
        -11   -1    0    0    0    0  0.00000000000E+00  0.00000000000E+00  0.45593999997E+02  0.45594000000E+02  0.51100000000E-03 0.  1.
         11   -1    0    0    0    0 -0.00000000000E+00 -0.00000000000E+00 -0.45593999997E+02  0.45594000000E+02  0.51100000000E-03 0. -1.
    9900012    2    1    2    0    0  0.10843572101E+02 -0.29629438905E+02  0.46079043674E+01  0.59301960917E+02  0.50000030802E+02 0.  0.
        -12    1    1    2    0    0 -0.10843572101E+02  0.29629438905E+02 -0.46079043674E+01  0.31886039083E+02  0.00000000000E+00 0.  1.
         11    1    3    3    0    0 -0.77029498551E+01  0.11257201264E+01 -0.33565381955E+00  0.77920052631E+01  0.51100000000E-03 0. -1.
        -11    1    3    3    0    0 -0.71383810282E+00 -0.13239386013E+02  0.18023515201E+02  0.22374941504E+02  0.51100000000E-03 0.  1.
         12    1    3    3    0    0  0.19260360059E+02 -0.17515773018E+02 -0.13079957014E+02  0.29135014150E+02  0.00000000000E+00 0. -1.
</event>
<event>
 7    1  0.1138240E-011  0.5930197E+02  0.7816164E-02  0.1266605E+00
        -11   -1    0    0    0    0  0.00000000000E+00  0.00000000000E+00  0.45593999997E+02  0.45594000000E+02  0.51100000000E-03 0.  1.
         11   -1    0    0    0    0 -0.00000000000E+00 -0.00000000000E+00 -0.45593999997E+02  0.45594000000E+02  0.51100000000E-03 0. -1.
    9900012    2    1    2    0    0  0.28730420344E+02  0.72369229651E+01  0.11785963779E+02  0.59301967801E+02  0.50000043358E+02 0.  0.
        -12    1    1    2    0    0 -0.28730420344E+02 -0.72369229651E+01 -0.11785963779E+02  0.31886032199E+02  0.00000000000E+00 0.  1.
         11    1    3    3    0    0  0.22431188566E+01 -0.38215812876E+01 -0.12265905090E+02  0.13041797947E+02  0.51100000000E-03 0. -1.
        -11    1    3    3    0    0  0.23137143815E+02 -0.40840144747E+01  0.10788516702E+02  0.25853407726E+02  0.51100000000E-03 0.  1.
        -12    1    3    3    0    0  0.33501576723E+01  0.15142518727E+02  0.13263352168E+02  0.20406762128E+02  0.00000000000E+00 0.  1.
</event>
<event>
 7    1  0.1138240E-011  0.5930187E+02  0.7816164E-02  0.1266605E+00
        -11   -1    0    0    0    0  0.00000000000E+00  0.00000000000E+00  0.45593999997E+02  0.45594000000E+02  0.51100000000E-03 0.  1.
         11   -1    0    0    0    0 -0.00000000000E+00 -0.00000000000E+00 -0.45593999997E+02  0.45594000000E+02  0.51100000000E-03 0. -1.
    9900012    2    1    2    0    0 -0.20760692082E+01 -0.28288528985E+02 -0.14566209313E+02  0.59301868387E+02  0.49999862049E+02 0.  0.
        -12    1    1    2    0    0  0.20760692082E+01  0.28288528985E+02  0.14566209313E+02  0.31886131613E+02  0.00000000000E+00 0.  1.
         11    1    3    3    0    0 -0.22673067961E+01 -0.13399339577E+02 -0.15205886416E+02  0.20393674587E+02  0.51100000000E-03 0. -1.
        -11    1    3    3    0    0 -0.23602159306E+01  0.69898151007E+01 -0.11571014272E+02  0.13722846131E+02  0.51100000000E-03 0.  1.
         12    1    3    3    0    0  0.25514535185E+01 -0.21879004509E+02  0.12210691375E+02  0.25185347669E+02  0.00000000000E+00 0. -1.
</event>
<event>
 7    1  0.1200982E-011  0.5930189E+02  0.7816164E-02  0.1266605E+00
        -11   -1    0    0    0    0  0.00000000000E+00  0.00000000000E+00  0.45593999997E+02  0.45594000000E+02  0.51100000000E-03 0. -1.
         11   -1    0    0    0    0 -0.00000000000E+00 -0.00000000000E+00 -0.45593999997E+02  0.45594000000E+02  0.51100000000E-03 0.  1.
    9900012    2    1    2    0    0 -0.54839650332E+01 -0.22545513424E+02  0.21871216941E+02  0.59301887372E+02  0.49999896673E+02 0.  0.
        -12    1    1    2    0    0  0.54839650332E+01  0.22545513424E+02 -0.21871216941E+02  0.31886112628E+02  0.00000000000E+00 0.  1.
         11    1    3    3    0    0 -0.16616465931E+02 -0.55473210521E+01 -0.23799022563E+01  0.17678903979E+02  0.51100000000E-03 0. -1.
        -11    1    3    3    0    0 -0.73817726406E+00 -0.11526740323E+01 -0.56210435928E+01  0.57852998567E+01  0.51100000000E-03 0.  1.
         12    1    3    3    0    0  0.11870678162E+02 -0.15845518340E+02  0.29872162790E+02  0.35837683536E+02  0.00000000000E+00 0. -1.
</event>
<event>
 7    1  0.1138240E-011  0.5930194E+02  0.7816164E-02  0.1266605E+00
        -11   -1    0    0    0    0  0.00000000000E+00  0.00000000000E+00  0.45593999997E+02  0.45594000000E+02  0.51100000000E-03 0.  1.
         11   -1    0    0    0    0 -0.00000000000E+00 -0.00000000000E+00 -0.45593999997E+02  0.45594000000E+02  0.51100000000E-03 0. -1.
    9900012    2    1    2    0    0 -0.39357379457E+01 -0.22218678026E+02 -0.22529116080E+02  0.59301941013E+02  0.49999994502E+02 0.  0.
        -12    1    1    2    0    0  0.39357379457E+01  0.22218678026E+02  0.22529116080E+02  0.31886058987E+02  0.00000000000E+00 0.  1.
         11    1    3    3    0    0  0.11656128269E+02  0.48274506394E+01  0.19872157195E+01  0.12771790496E+02  0.51100000000E-03 0. -1.
        -11    1    3    3    0    0  0.82494827100E-01 -0.13064648538E+02  0.14355194937E+01  0.13143536940E+02  0.51100000000E-03 0.  1.
         12    1    3    3    0    0 -0.15674361041E+02 -0.13981480127E+02 -0.25951851293E+02  0.33386613577E+02  0.00000000000E+00 0. -1.
</event>
<event>
 7    1  0.1138240E-011  0.5930192E+02  0.7816164E-02  0.1266605E+00
        -11   -1    0    0    0    0  0.00000000000E+00  0.00000000000E+00  0.45593999997E+02  0.45594000000E+02  0.51100000000E-03 0.  1.
         11   -1    0    0    0    0 -0.00000000000E+00 -0.00000000000E+00 -0.45593999997E+02  0.45594000000E+02  0.51100000000E-03 0. -1.
    9900012    2    1    2    0    0  0.10278657252E+02 -0.13323664455E+02  0.27084146458E+02  0.59301924375E+02  0.49999964158E+02 0.  0.
        -12    1    1    2    0    0 -0.10278657252E+02  0.13323664455E+02 -0.27084146458E+02  0.31886075625E+02  0.00000000000E+00 0.  1.
         11    1    3    3    0    0  0.38595805837E+01  0.19463179517E+01  0.89531430525E+01  0.99419961090E+01  0.51100000000E-03 0. -1.
        -11    1    3    3    0    0  0.22405364854E+02  0.18310566726E+01  0.81583484205E+01  0.23914677334E+02  0.51100000000E-03 0.  1.
         12    1    3    3    0    0 -0.15986288186E+02 -0.17101039079E+02  0.99726549848E+01  0.25445250932E+02  0.00000000000E+00 0. -1.
</event>
<event>
 7    1  0.1138240E-011  0.5930194E+02  0.7816164E-02  0.1266605E+00
        -11   -1    0    0    0    0  0.00000000000E+00  0.00000000000E+00  0.45593999997E+02  0.45594000000E+02  0.51100000000E-03 0.  1.
         11   -1    0    0    0    0 -0.00000000000E+00 -0.00000000000E+00 -0.45593999997E+02  0.45594000000E+02  0.51100000000E-03 0. -1.
    9900012    2    1    2    0    0 -0.28984370998E+02  0.56014191700E+00 -0.13278302247E+02  0.59301939853E+02  0.49999992387E+02 0.  0.
        -12    1    1    2    0    0  0.28984370998E+02 -0.56014191700E+00  0.13278302247E+02  0.31886060147E+02  0.00000000000E+00 0.  1.
         11    1    3    3    0    0 -0.35367520380E+02  0.49694666699E+01 -0.11555640702E+02  0.37537846624E+02  0.51100000000E-03 0. -1.
        -11    1    3    3    0    0 -0.73393311803E+01 -0.37542215183E+00 -0.12402958747E+01  0.74528556999E+01  0.51100000000E-03 0.  1.
        -12    1    3    3    0    0  0.13722480563E+02 -0.40339026011E+01 -0.48236566966E+00  0.14311237530E+02  0.00000000000E+00 0.  1.
</event>
<event>
 7    1  0.1138240E-011  0.5930188E+02  0.7816164E-02  0.1266605E+00
        -11   -1    0    0    0    0  0.00000000000E+00  0.00000000000E+00  0.45593999997E+02  0.45594000000E+02  0.51100000000E-03 0. -1.
         11   -1    0    0    0    0 -0.00000000000E+00 -0.00000000000E+00 -0.45593999997E+02  0.45594000000E+02  0.51100000000E-03 0.  1.
    9900012    2    1    2    0    0  0.17486356042E+02  0.22933224571E+02  0.13602182128E+02  0.59301877698E+02  0.49999879030E+02 0.  0.
        -12    1    1    2    0    0 -0.17486356042E+02 -0.22933224571E+02 -0.13602182128E+02  0.31886122302E+02  0.00000000000E+00 0.  1.
         11    1    3    3    0    0  0.17186761498E+02  0.23076473834E+02 -0.68890582732E+00  0.28781643576E+02  0.51100000000E-03 0. -1.
        -11    1    3    3    0    0 -0.10395068557E+02  0.24543270220E+01 -0.19936146028E+01  0.10865342649E+02  0.51100000000E-03 0.  1.
        -12    1    3    3    0    0  0.10694663101E+02 -0.25975762858E+01  0.16284702558E+02  0.19654891473E+02  0.00000000000E+00 0.  1.
</event>
<event>
 7    1  0.1138240E-011  0.5930195E+02  0.7816164E-02  0.1266605E+00
        -11   -1    0    0    0    0  0.00000000000E+00  0.00000000000E+00  0.45593999997E+02  0.45594000000E+02  0.51100000000E-03 0.  1.
         11   -1    0    0    0    0 -0.00000000000E+00 -0.00000000000E+00 -0.45593999997E+02  0.45594000000E+02  0.51100000000E-03 0. -1.
    9900012    2    1    2    0    0  0.13316657561E+02  0.15459512094E+02 -0.24502867781E+02  0.59301946430E+02  0.50000004381E+02 0.  0.
        -12    1    1    2    0    0 -0.13316657561E+02 -0.15459512094E+02  0.24502867781E+02  0.31886053570E+02  0.00000000000E+00 0.  1.
         11    1    3    3    0    0  0.34334216606E+01  0.88706309027E+01 -0.20796406338E+02  0.22868471610E+02  0.51100000000E-03 0. -1.
        -11    1    3    3    0    0 -0.44727173265E+01  0.17377809897E+02  0.64461733950E+00  0.17955751415E+02  0.51100000000E-03 0.  1.
        -12    1    3    3    0    0  0.14355953227E+02 -0.10788928706E+02 -0.43510787817E+01  0.18477723405E+02  0.00000000000E+00 0.  1.
</event>
<event>
 7    1  0.1138240E-011  0.5930192E+02  0.7816164E-02  0.1266605E+00
        -11   -1    0    0    0    0  0.00000000000E+00  0.00000000000E+00  0.45593999997E+02  0.45594000000E+02  0.51100000000E-03 0.  1.
         11   -1    0    0    0    0 -0.00000000000E+00 -0.00000000000E+00 -0.45593999997E+02  0.45594000000E+02  0.51100000000E-03 0. -1.
    9900012    2    1    2    0    0 -0.21905085605E+02  0.10629342758E+02 -0.20588989860E+02  0.59301918299E+02  0.49999953076E+02 0.  0.
        -12    1    1    2    0    0  0.21905085605E+02 -0.10629342758E+02  0.20588989860E+02  0.31886081701E+02  0.00000000000E+00 0.  1.
         11    1    3    3    0    0 -0.77050533494E+01 -0.80546615733E+01 -0.29451109158E+02  0.31489891252E+02  0.51100000000E-03 0. -1.
        -11    1    3    3    0    0 -0.44530029272E+00 -0.12043310187E+01 -0.10689951672E+01  0.16707652384E+01  0.51100000000E-03 0.  1.
        -12    1    3    3    0    0 -0.13754731963E+02  0.19888335350E+02  0.99311144658E+01  0.26141261808E+02  0.00000000000E+00 0.  1.
</event>
<event>
 7    1  0.1138240E-011  0.5930195E+02  0.7816164E-02  0.1266605E+00
        -11   -1    0    0    0    0  0.00000000000E+00  0.00000000000E+00  0.45593999997E+02  0.45594000000E+02  0.51100000000E-03 0.  1.
         11   -1    0    0    0    0 -0.00000000000E+00 -0.00000000000E+00 -0.45593999997E+02  0.45594000000E+02  0.51100000000E-03 0. -1.
    9900012    2    1    2    0    0  0.10189545931E+02  0.29666061032E+02  0.57286865569E+01  0.59301954884E+02  0.50000019799E+02 0.  0.
        -12    1    1    2    0    0 -0.10189545931E+02 -0.29666061032E+02 -0.57286865569E+01  0.31886045116E+02  0.00000000000E+00 0.  1.
         11    1    3    3    0    0 -0.20590951688E+01  0.25005610675E+02 -0.28748835223E+01  0.25254413350E+02  0.51100000000E-03 0. -1.
        -11    1    3    3    0    0  0.19874015495E+01  0.15939485320E+02  0.96921664120E+01  0.18760465005E+02  0.51100000000E-03 0.  1.
         12    1    3    3    0    0  0.10261239551E+02 -0.11279034963E+02 -0.10885963328E+01  0.15287076528E+02  0.00000000000E+00 0. -1.
</event>
<event>
 7    1  0.1138240E-011  0.5930200E+02  0.7816164E-02  0.1266605E+00
        -11   -1    0    0    0    0  0.00000000000E+00  0.00000000000E+00  0.45593999997E+02  0.45594000000E+02  0.51100000000E-03 0.  1.
         11   -1    0    0    0    0 -0.00000000000E+00 -0.00000000000E+00 -0.45593999997E+02  0.45594000000E+02  0.51100000000E-03 0. -1.
    9900012    2    1    2    0    0 -0.29638336831E+02  0.81159617614E+01 -0.85098398854E+01  0.59301996483E+02  0.50000095666E+02 0.  0.
        -12    1    1    2    0    0  0.29638336831E+02 -0.81159617614E+01  0.85098398854E+01  0.31886003517E+02  0.00000000000E+00 0.  1.
         11    1    3    3    0    0 -0.14950194226E+02  0.13284397071E+02 -0.68475019504E+01  0.21139342378E+02  0.51100000000E-03 0. -1.
        -11    1    3    3    0    0  0.32332917436E+01  0.76292528214E+01  0.10206124372E+02  0.13146278906E+02  0.51100000000E-03 0.  1.
         12    1    3    3    0    0 -0.17921434348E+02 -0.12797688131E+02 -0.11868462307E+02  0.25016375200E+02  0.00000000000E+00 0. -1.
</event>
<event>
 7    1  0.1138240E-011  0.5930193E+02  0.7816164E-02  0.1266605E+00
        -11   -1    0    0    0    0  0.00000000000E+00  0.00000000000E+00  0.45593999997E+02  0.45594000000E+02  0.51100000000E-03 0.  1.
         11   -1    0    0    0    0 -0.00000000000E+00 -0.00000000000E+00 -0.45593999997E+02  0.45594000000E+02  0.51100000000E-03 0. -1.
    9900012    2    1    2    0    0  0.22477818154E+02 -0.75262030003E+01 -0.21326633239E+02  0.59301932104E+02  0.49999978254E+02 0.  0.
        -12    1    1    2    0    0 -0.22477818154E+02  0.75262030003E+01  0.21326633239E+02  0.31886067896E+02  0.00000000000E+00 0.  1.
         11    1    3    3    0    0 -0.85345115881E+01  0.12550153116E+02  0.47943449157E+00  0.15184666245E+02  0.51100000000E-03 0. -1.
        -11    1    3    3    0    0  0.78418300424E+01 -0.10785888083E+02 -0.87004694017E+01  0.15922557842E+02  0.51100000000E-03 0.  1.
        -12    1    3    3    0    0  0.23170499700E+02 -0.92904680337E+01 -0.13105598329E+02  0.28194708017E+02  0.00000000000E+00 0.  1.
</event>
<event>
 7    1  0.1138240E-011  0.5930200E+02  0.7816164E-02  0.1266605E+00
        -11   -1    0    0    0    0  0.00000000000E+00  0.00000000000E+00  0.45593999997E+02  0.45594000000E+02  0.51100000000E-03 0.  1.
         11   -1    0    0    0    0 -0.00000000000E+00 -0.00000000000E+00 -0.45593999997E+02  0.45594000000E+02  0.51100000000E-03 0. -1.
    9900012    2    1    2    0    0  0.44594885847E+01  0.26187622576E+02 -0.17636281352E+02  0.59301999396E+02  0.50000100978E+02 0.  0.
        -12    1    1    2    0    0 -0.44594885847E+01 -0.26187622576E+02  0.17636281352E+02  0.31886000604E+02  0.00000000000E+00 0.  1.
         11    1    3    3    0    0  0.32691140445E+01  0.25391629091E+02 -0.50461666754E+01  0.26093787247E+02  0.51100000000E-03 0. -1.
        -11    1    3    3    0    0  0.10201422646E+02  0.52966125622E+01  0.53154585647E+01  0.12664013134E+02  0.51100000000E-03 0.  1.
         12    1    3    3    0    0 -0.90110481060E+01 -0.45006190772E+01 -0.17905573241E+02  0.20544199014E+02  0.00000000000E+00 0. -1.
</event>
<event>
 7    1  0.1138240E-011  0.5930193E+02  0.7816164E-02  0.1266605E+00
        -11   -1    0    0    0    0  0.00000000000E+00  0.00000000000E+00  0.45593999997E+02  0.45594000000E+02  0.51100000000E-03 0.  1.
         11   -1    0    0    0    0 -0.00000000000E+00 -0.00000000000E+00 -0.45593999997E+02  0.45594000000E+02  0.51100000000E-03 0. -1.
    9900012    2    1    2    0    0  0.17928810669E+02  0.15216689979E+02 -0.21534421381E+02  0.59301933918E+02  0.49999981563E+02 0.  0.
        -12    1    1    2    0    0 -0.17928810669E+02 -0.15216689979E+02  0.21534421381E+02  0.31886066082E+02  0.00000000000E+00 0.  1.
         11    1    3    3    0    0  0.15600075845E+01  0.12292284025E+02  0.38262410294E+01  0.12968191504E+02  0.51100000000E-03 0. -1.
        -11    1    3    3    0    0  0.16703562242E+01 -0.84973730753E+01  0.55249889695E+01  0.10272338705E+02  0.51100000000E-03 0.  1.
         12    1    3    3    0    0  0.14698446861E+02  0.11421779029E+02 -0.30885651380E+02  0.36061403709E+02  0.00000000000E+00 0. -1.
</event>
<event>
 7    1  0.1138240E-011  0.5930197E+02  0.7816164E-02  0.1266605E+00
        -11   -1    0    0    0    0  0.00000000000E+00  0.00000000000E+00  0.45593999997E+02  0.45594000000E+02  0.51100000000E-03 0. -1.
         11   -1    0    0    0    0 -0.00000000000E+00 -0.00000000000E+00 -0.45593999997E+02  0.45594000000E+02  0.51100000000E-03 0.  1.
    9900012    2    1    2    0    0 -0.19703310914E+02  0.15635082600E+02  0.19597010361E+02  0.59301967258E+02  0.50000042367E+02 0.  0.
        -12    1    1    2    0    0  0.19703310914E+02 -0.15635082600E+02 -0.19597010361E+02  0.31886032742E+02  0.00000000000E+00 0.  1.
         11    1    3    3    0    0 -0.13711451314E+02 -0.85723180412E+01  0.52521976550E+01  0.17002179690E+02  0.51100000000E-03 0. -1.
        -11    1    3    3    0    0 -0.31228004850E+01  0.12905493278E+02  0.23822808357E+02  0.27273243993E+02  0.51100000000E-03 0.  1.
        -12    1    3    3    0    0 -0.28690591148E+01  0.11301907364E+02 -0.94779956508E+01  0.15026543575E+02  0.00000000000E+00 0.  1.
</event>
<event>
 7    1  0.1138240E-011  0.5930196E+02  0.7816164E-02  0.1266605E+00
        -11   -1    0    0    0    0  0.00000000000E+00  0.00000000000E+00  0.45593999997E+02  0.45594000000E+02  0.51100000000E-03 0.  1.
         11   -1    0    0    0    0 -0.00000000000E+00 -0.00000000000E+00 -0.45593999997E+02  0.45594000000E+02  0.51100000000E-03 0. -1.
    9900012    2    1    2    0    0  0.30619468315E+02  0.88403383999E+01  0.10079049703E+01  0.59301963944E+02  0.50000036323E+02 0.  0.
        -12    1    1    2    0    0 -0.30619468315E+02 -0.88403383999E+01 -0.10079049703E+01  0.31886036056E+02  0.00000000000E+00 0.  1.
         11    1    3    3    0    0  0.13305731304E+02  0.17242900217E+02  0.27076428378E+01  0.21947469636E+02  0.51100000000E-03 0. -1.
        -11    1    3    3    0    0 -0.18331452018E+01  0.86807690619E+01 -0.68174177927E+01  0.11188983799E+02  0.51100000000E-03 0.  1.
        -12    1    3    3    0    0  0.19146882213E+02 -0.17083330879E+02  0.51176799253E+01  0.26165510509E+02  0.00000000000E+00 0.  1.
</event>
<event>
 7    1  0.1138240E-011  0.5930195E+02  0.7816164E-02  0.1266605E+00
        -11   -1    0    0    0    0  0.00000000000E+00  0.00000000000E+00  0.45593999997E+02  0.45594000000E+02  0.51100000000E-03 0.  1.
         11   -1    0    0    0    0 -0.00000000000E+00 -0.00000000000E+00 -0.45593999997E+02  0.45594000000E+02  0.51100000000E-03 0. -1.
    9900012    2    1    2    0    0 -0.75628242308E+01 -0.20371735910E+02 -0.23334867803E+02  0.59301953056E+02  0.50000016466E+02 0.  0.
        -12    1    1    2    0    0  0.75628242308E+01  0.20371735910E+02  0.23334867803E+02  0.31886046944E+02  0.00000000000E+00 0.  1.
         11    1    3    3    0    0  0.52705012596E+01 -0.15979687361E+02 -0.22992141856E+02  0.28491528198E+02  0.51100000000E-03 0. -1.
        -11    1    3    3    0    0 -0.15912885523E+01 -0.15031176771E+02  0.16479591602E+01  0.15204744129E+02  0.51100000000E-03 0.  1.
        -12    1    3    3    0    0 -0.11242036938E+02  0.10639128221E+02 -0.19906851070E+01  0.15605680729E+02  0.00000000000E+00 0.  1.
</event>
<event>
 7    1  0.1138240E-011  0.5930185E+02  0.7816164E-02  0.1266605E+00
        -11   -1    0    0    0    0  0.00000000000E+00  0.00000000000E+00  0.45593999997E+02  0.45594000000E+02  0.51100000000E-03 0.  1.
         11   -1    0    0    0    0 -0.00000000000E+00 -0.00000000000E+00 -0.45593999997E+02  0.45594000000E+02  0.51100000000E-03 0. -1.
    9900012    2    1    2    0    0 -0.20322834167E+02 -0.50047320341E+01 -0.24055391687E+02  0.59301846257E+02  0.49999821690E+02 0.  0.
        -12    1    1    2    0    0  0.20322834167E+02  0.50047320341E+01  0.24055391687E+02  0.31886153743E+02  0.00000000000E+00 0.  1.
         11    1    3    3    0    0  0.11317202508E+02  0.92955636200E+01 -0.37968944955E+01  0.15129540102E+02  0.51100000000E-03 0. -1.
        -11    1    3    3    0    0 -0.74664392189E+01 -0.61630253097E+00 -0.13724611753E+02  0.15636256311E+02  0.51100000000E-03 0.  1.
        -12    1    3    3    0    0 -0.24173597456E+02 -0.13683993123E+02 -0.65338854385E+01  0.28536049844E+02  0.00000000000E+00 0.  1.
</event>
<event>
 7    1  0.1138240E-011  0.5930196E+02  0.7816164E-02  0.1266605E+00
        -11   -1    0    0    0    0  0.00000000000E+00  0.00000000000E+00  0.45593999997E+02  0.45594000000E+02  0.51100000000E-03 0.  1.
         11   -1    0    0    0    0 -0.00000000000E+00 -0.00000000000E+00 -0.45593999997E+02  0.45594000000E+02  0.51100000000E-03 0. -1.
    9900012    2    1    2    0    0 -0.30667590899E+02  0.53320891847E+01 -0.69128278699E+01  0.59301960801E+02  0.50000030591E+02 0.  0.
        -12    1    1    2    0    0  0.30667590899E+02 -0.53320891847E+01  0.69128278699E+01  0.31886039199E+02  0.00000000000E+00 0.  1.
         11    1    3    3    0    0  0.56955357136E+01 -0.71617648591E+01 -0.86267253851E+01  0.12575786023E+02  0.51100000000E-03 0. -1.
        -11    1    3    3    0    0 -0.39720687207E+01  0.10428346836E+02 -0.69326670709E+01  0.13137336893E+02  0.51100000000E-03 0.  1.
        -12    1    3    3    0    0 -0.32391057892E+02  0.20655072077E+01  0.86465645861E+01  0.33588837886E+02  0.00000000000E+00 0.  1.
</event>
<event>
 7    1  0.1138240E-011  0.5930195E+02  0.7816164E-02  0.1266605E+00
        -11   -1    0    0    0    0  0.00000000000E+00  0.00000000000E+00  0.45593999997E+02  0.45594000000E+02  0.51100000000E-03 0. -1.
         11   -1    0    0    0    0 -0.00000000000E+00 -0.00000000000E+00 -0.45593999997E+02  0.45594000000E+02  0.51100000000E-03 0.  1.
    9900012    2    1    2    0    0 -0.30728333431E+02 -0.88946069246E+00  0.84674884084E+01  0.59301953276E+02  0.50000016866E+02 0.  0.
        -12    1    1    2    0    0  0.30728333431E+02  0.88946069246E+00 -0.84674884084E+01  0.31886046724E+02  0.00000000000E+00 0.  1.
         11    1    3    3    0    0  0.99394095476E+00  0.23034070559E+01  0.18643339286E+02  0.18811371633E+02  0.51100000000E-03 0. -1.
        -11    1    3    3    0    0  0.18601558969E+01 -0.41997222389E+01 -0.44751368105E+01  0.64128540120E+01  0.51100000000E-03 0.  1.
         12    1    3    3    0    0 -0.33582430282E+02  0.10068544906E+01 -0.57007140676E+01  0.34077727631E+02  0.00000000000E+00 0. -1.
</event>
<event>
 7    1  0.1138240E-011  0.5930193E+02  0.7816164E-02  0.1266605E+00
        -11   -1    0    0    0    0  0.00000000000E+00  0.00000000000E+00  0.45593999997E+02  0.45594000000E+02  0.51100000000E-03 0.  1.
         11   -1    0    0    0    0 -0.00000000000E+00 -0.00000000000E+00 -0.45593999997E+02  0.45594000000E+02  0.51100000000E-03 0. -1.
    9900012    2    1    2    0    0  0.21841082543E+02  0.19015043873E+02  0.13346026490E+02  0.59301934027E+02  0.49999981761E+02 0.  0.
        -12    1    1    2    0    0 -0.21841082543E+02 -0.19015043873E+02 -0.13346026490E+02  0.31886065973E+02  0.00000000000E+00 0.  1.
         11    1    3    3    0    0  0.13880378032E+02  0.15730877056E+02  0.10792781464E+02  0.23592573393E+02  0.51100000000E-03 0. -1.
        -11    1    3    3    0    0  0.99835646225E+01 -0.12598384569E+02  0.90310193888E+01  0.18437737599E+02  0.51100000000E-03 0.  1.
        -12    1    3    3    0    0 -0.20228601114E+01  0.15882551386E+02 -0.64777743628E+01  0.17271623035E+02  0.00000000000E+00 0.  1.
</event>
<event>
 7    1  0.1138240E-011  0.5930202E+02  0.7816164E-02  0.1266605E+00
        -11   -1    0    0    0    0  0.00000000000E+00  0.00000000000E+00  0.45593999997E+02  0.45594000000E+02  0.51100000000E-03 0. -1.
         11   -1    0    0    0    0 -0.00000000000E+00 -0.00000000000E+00 -0.45593999997E+02  0.45594000000E+02  0.51100000000E-03 0.  1.
    9900012    2    1    2    0    0 -0.26104474660E+01  0.26719391420E+02  0.17203943054E+02  0.59302016082E+02  0.50000131409E+02 0.  0.
        -12    1    1    2    0    0  0.26104474660E+01 -0.26719391420E+02 -0.17203943054E+02  0.31885983918E+02  0.00000000000E+00 0.  1.
         11    1    3    3    0    0  0.28461179766E+01  0.14131181755E+02  0.36025645952E+01  0.14858302637E+02  0.51100000000E-03 0. -1.
        -11    1    3    3    0    0  0.16013259196E+02  0.10448231570E+02  0.35095176357E+00  0.19123628851E+02  0.51100000000E-03 0.  1.
         12    1    3    3    0    0 -0.21469824638E+02  0.21399780948E+01  0.13250426695E+02  0.25320084594E+02  0.00000000000E+00 0. -1.
</event>
<event>
 7    1  0.1138240E-011  0.5930195E+02  0.7816164E-02  0.1266605E+00
        -11   -1    0    0    0    0  0.00000000000E+00  0.00000000000E+00  0.45593999997E+02  0.45594000000E+02  0.51100000000E-03 0.  1.
         11   -1    0    0    0    0 -0.00000000000E+00 -0.00000000000E+00 -0.45593999997E+02  0.45594000000E+02  0.51100000000E-03 0. -1.
    9900012    2    1    2    0    0 -0.15192938419E+02 -0.27232039852E+02 -0.66566320813E+01  0.59301950966E+02  0.50000012655E+02 0.  0.
        -12    1    1    2    0    0  0.15192938419E+02  0.27232039852E+02  0.66566320813E+01  0.31886049034E+02  0.00000000000E+00 0.  1.
         11    1    3    3    0    0 -0.30544173365E+00 -0.20379938588E+02  0.59274365474E+01  0.21226627047E+02  0.51100000000E-03 0. -1.
        -11    1    3    3    0    0 -0.16263517110E+02 -0.14157246576E+02  0.20520417452E+01  0.21659651313E+02  0.51100000000E-03 0.  1.
        -12    1    3    3    0    0  0.13760204252E+01  0.73051453122E+01 -0.14636110374E+02  0.16415672606E+02  0.00000000000E+00 0.  1.
</event>
<event>
 7    1  0.1138240E-011  0.5930195E+02  0.7816164E-02  0.1266605E+00
        -11   -1    0    0    0    0  0.00000000000E+00  0.00000000000E+00  0.45593999997E+02  0.45594000000E+02  0.51100000000E-03 0.  1.
         11   -1    0    0    0    0 -0.00000000000E+00 -0.00000000000E+00 -0.45593999997E+02  0.45594000000E+02  0.51100000000E-03 0. -1.
    9900012    2    1    2    0    0 -0.45668734959E+01  0.27954770945E+02  0.14642227617E+02  0.59301946909E+02  0.50000005255E+02 0.  0.
        -12    1    1    2    0    0  0.45668734959E+01 -0.27954770945E+02 -0.14642227617E+02  0.31886053091E+02  0.00000000000E+00 0.  1.
         11    1    3    3    0    0 -0.16624886131E+02  0.67629290534E+01 -0.65489591306E+00  0.17959758829E+02  0.51100000000E-03 0. -1.
        -11    1    3    3    0    0  0.67591694283E+01 -0.49753062714E+01 -0.30694207395E+01  0.89365198926E+01  0.51100000000E-03 0.  1.
        -12    1    3    3    0    0  0.52988432073E+01  0.26167148163E+02  0.18366544269E+02  0.32405668188E+02  0.00000000000E+00 0.  1.
</event>
<event>
 7    1  0.1138240E-011  0.5930197E+02  0.7816164E-02  0.1266605E+00
        -11   -1    0    0    0    0  0.00000000000E+00  0.00000000000E+00  0.45593999997E+02  0.45594000000E+02  0.51100000000E-03 0.  1.
         11   -1    0    0    0    0 -0.00000000000E+00 -0.00000000000E+00 -0.45593999997E+02  0.45594000000E+02  0.51100000000E-03 0. -1.
    9900012    2    1    2    0    0  0.14402359437E+02  0.71360474369E+01 -0.27538479840E+02  0.59301968540E+02  0.50000044704E+02 0.  0.
        -12    1    1    2    0    0 -0.14402359437E+02 -0.71360474369E+01  0.27538479840E+02  0.31886031460E+02  0.00000000000E+00 0.  1.
         11    1    3    3    0    0  0.19835239284E+01  0.24093085441E+01 -0.30829994358E+02  0.30987540838E+02  0.51100000000E-03 0. -1.
        -11    1    3    3    0    0 -0.63848419060E+01  0.26839421525E+01  0.60546154581E+01  0.91993543387E+01  0.51100000000E-03 0.  1.
        -12    1    3    3    0    0  0.18803677415E+02  0.20427967403E+01 -0.27631009404E+01  0.19115073362E+02  0.00000000000E+00 0.  1.
</event>
<event>
 7    1  0.1696210E-011  0.5930197E+02  0.7816164E-02  0.1266605E+00
        -11   -1    0    0    0    0  0.00000000000E+00  0.00000000000E+00  0.45593999997E+02  0.45594000000E+02  0.51100000000E-03 0. -1.
         11   -1    0    0    0    0 -0.00000000000E+00 -0.00000000000E+00 -0.45593999997E+02  0.45594000000E+02  0.51100000000E-03 0.  1.
    9900012    2    1    2    0    0  0.17580191527E+02  0.23151600701E+02  0.13101887465E+02  0.59301965372E+02  0.50000038927E+02 0.  0.
        -12    1    1    2    0    0 -0.17580191527E+02 -0.23151600701E+02 -0.13101887465E+02  0.31886034628E+02  0.00000000000E+00 0.  1.
         11    1    3    3    0    0  0.17253887185E+02  0.33085403469E+01  0.10185756008E+02  0.20307454000E+02  0.51100000000E-03 0. -1.
        -11    1    3    3    0    0  0.10284465629E+02  0.57470473460E+00 -0.94915735146E+01  0.14006801450E+02  0.51100000000E-03 0.  1.
        -12    1    3    3    0    0 -0.99581612871E+01  0.19268355620E+02  0.12407704971E+02  0.24987709922E+02  0.00000000000E+00 0.  1.
</event>
<event>
 7    1  0.1138240E-011  0.5930196E+02  0.7816164E-02  0.1266605E+00
        -11   -1    0    0    0    0  0.00000000000E+00  0.00000000000E+00  0.45593999997E+02  0.45594000000E+02  0.51100000000E-03 0.  1.
         11   -1    0    0    0    0 -0.00000000000E+00 -0.00000000000E+00 -0.45593999997E+02  0.45594000000E+02  0.51100000000E-03 0. -1.
    9900012    2    1    2    0    0 -0.21768212371E+02  0.85165010112E+01 -0.21687174719E+02  0.59301962200E+02  0.50000033141E+02 0.  0.
        -12    1    1    2    0    0  0.21768212371E+02 -0.85165010112E+01  0.21687174719E+02  0.31886037800E+02  0.00000000000E+00 0.  1.
         11    1    3    3    0    0 -0.12220622253E+02  0.22199526142E+02 -0.12889617102E+02  0.28430701688E+02  0.51100000000E-03 0. -1.
        -11    1    3    3    0    0 -0.11053707059E+02  0.34836393593E+01 -0.70134672252E+01  0.13546545896E+02  0.51100000000E-03 0.  1.
        -12    1    3    3    0    0  0.15061169411E+01 -0.17166664491E+02 -0.17840903921E+01  0.17324714615E+02  0.00000000000E+00 0.  1.
</event>
<event>
 7    1  0.1138240E-011  0.5930197E+02  0.7816164E-02  0.1266605E+00
        -11   -1    0    0    0    0  0.00000000000E+00  0.00000000000E+00  0.45593999997E+02  0.45594000000E+02  0.51100000000E-03 0. -1.
         11   -1    0    0    0    0 -0.00000000000E+00 -0.00000000000E+00 -0.45593999997E+02  0.45594000000E+02  0.51100000000E-03 0.  1.
    9900012    2    1    2    0    0  0.27377086715E+02  0.12985401356E+02  0.99294210217E+01  0.59301969717E+02  0.50000046851E+02 0.  0.
        -12    1    1    2    0    0 -0.27377086715E+02 -0.12985401356E+02 -0.99294210217E+01  0.31886030283E+02  0.00000000000E+00 0.  1.
         11    1    3    3    0    0  0.18263295861E+02  0.70136591811E+01  0.12821812858E+02  0.23390987068E+02  0.51100000000E-03 0. -1.
        -11    1    3    3    0    0 -0.13420351537E+01 -0.28880086123E+01  0.13886212002E+02  0.14246702640E+02  0.51100000000E-03 0.  1.
        -12    1    3    3    0    0  0.10455826008E+02  0.88597507877E+01 -0.16778603838E+02  0.21664280009E+02  0.00000000000E+00 0.  1.
</event>
<event>
 7    1  0.1138240E-011  0.5930195E+02  0.7816164E-02  0.1266605E+00
        -11   -1    0    0    0    0  0.00000000000E+00  0.00000000000E+00  0.45593999997E+02  0.45594000000E+02  0.51100000000E-03 0.  1.
         11   -1    0    0    0    0 -0.00000000000E+00 -0.00000000000E+00 -0.45593999997E+02  0.45594000000E+02  0.51100000000E-03 0. -1.
    9900012    2    1    2    0    0 -0.41148855590E+01 -0.10096360249E+02 -0.29964169661E+02  0.59301949180E+02  0.50000009396E+02 0.  0.
        -12    1    1    2    0    0  0.41148855590E+01  0.10096360249E+02  0.29964169661E+02  0.31886050820E+02  0.00000000000E+00 0.  1.
         11    1    3    3    0    0  0.11369022712E+02 -0.82948626154E+01  0.80122819497E+01  0.16194322633E+02  0.51100000000E-03 0. -1.
        -11    1    3    3    0    0  0.18725376078E+01  0.12571548837E+01 -0.18709455125E+01  0.29304048980E+01  0.51100000000E-03 0.  1.
         12    1    3    3    0    0 -0.17356445879E+02 -0.30586525175E+01 -0.36105506098E+02  0.40177221648E+02  0.00000000000E+00 0. -1.
</event>
<event>
 7    1  0.1138240E-011  0.5930197E+02  0.7816164E-02  0.1266605E+00
        -11   -1    0    0    0    0  0.00000000000E+00  0.00000000000E+00  0.45593999997E+02  0.45594000000E+02  0.51100000000E-03 0. -1.
         11   -1    0    0    0    0 -0.00000000000E+00 -0.00000000000E+00 -0.45593999997E+02  0.45594000000E+02  0.51100000000E-03 0.  1.
    9900012    2    1    2    0    0 -0.13802284482E+02 -0.28508101947E+02  0.36747970703E+01  0.59301967524E+02  0.50000042852E+02 0.  0.
        -12    1    1    2    0    0  0.13802284482E+02  0.28508101947E+02 -0.36747970703E+01  0.31886032476E+02  0.00000000000E+00 0.  1.
         11    1    3    3    0    0  0.25225106516E+01 -0.75646584099E+01 -0.70029626816E+01  0.10612662410E+02  0.51100000000E-03 0. -1.
        -11    1    3    3    0    0  0.12987018057E+02 -0.83080075467E+01  0.15739138128E+01  0.15497187886E+02  0.51100000000E-03 0.  1.
         12    1    3    3    0    0 -0.29311813191E+02 -0.12635435991E+02  0.91038459392E+01  0.33192117228E+02  0.00000000000E+00 0. -1.
</event>
<event>
 7    1  0.1138240E-011  0.5930194E+02  0.7816164E-02  0.1266605E+00
        -11   -1    0    0    0    0  0.00000000000E+00  0.00000000000E+00  0.45593999997E+02  0.45594000000E+02  0.51100000000E-03 0.  1.
         11   -1    0    0    0    0 -0.00000000000E+00 -0.00000000000E+00 -0.45593999997E+02  0.45594000000E+02  0.51100000000E-03 0. -1.
    9900012    2    1    2    0    0  0.55207034024E+01  0.14943084245E+02 -0.27621495319E+02  0.59301938210E+02  0.49999989390E+02 0.  0.
        -12    1    1    2    0    0 -0.55207034024E+01 -0.14943084245E+02  0.27621495319E+02  0.31886061790E+02  0.00000000000E+00 0.  1.
         11    1    3    3    0    0  0.10924152189E+02  0.17208806072E+00 -0.20263199295E+02  0.23020946142E+02  0.51100000000E-03 0. -1.
        -11    1    3    3    0    0 -0.23857898698E+01  0.56350401266E+00 -0.18068935466E+02  0.18234471728E+02  0.51100000000E-03 0.  1.
         12    1    3    3    0    0 -0.30176589165E+01  0.14207492171E+02  0.10710639441E+02  0.18046520340E+02  0.00000000000E+00 0. -1.
</event>
<event>
 7    1  0.1138240E-011  0.5930196E+02  0.7816164E-02  0.1266605E+00
        -11   -1    0    0    0    0  0.00000000000E+00  0.00000000000E+00  0.45593999997E+02  0.45594000000E+02  0.51100000000E-03 0. -1.
         11   -1    0    0    0    0 -0.00000000000E+00 -0.00000000000E+00 -0.45593999997E+02  0.45594000000E+02  0.51100000000E-03 0.  1.
    9900012    2    1    2    0    0  0.34724742261E+01 -0.31674409897E+02  0.11804693155E+01  0.59301955602E+02  0.50000021108E+02 0.  0.
        -12    1    1    2    0    0 -0.34724742261E+01  0.31674409897E+02 -0.11804693155E+01  0.31886044398E+02  0.00000000000E+00 0.  1.
         11    1    3    3    0    0 -0.84968372181E+01 -0.35005649429E+02  0.70903682059E+01  0.36713281742E+02  0.51100000000E-03 0. -1.
        -11    1    3    3    0    0 -0.52080373886E+00 -0.27920939964E+01  0.44258095649E+01  0.52587846491E+01  0.51100000000E-03 0.  1.
        -12    1    3    3    0    0  0.12490115183E+02  0.61233335288E+01 -0.10335708455E+02  0.17329889211E+02  0.00000000000E+00 0.  1.
</event>
<event>
 7    1  0.1138240E-011  0.5930196E+02  0.7816164E-02  0.1266605E+00
        -11   -1    0    0    0    0  0.00000000000E+00  0.00000000000E+00  0.45593999997E+02  0.45594000000E+02  0.51100000000E-03 0.  1.
         11   -1    0    0    0    0 -0.00000000000E+00 -0.00000000000E+00 -0.45593999997E+02  0.45594000000E+02  0.51100000000E-03 0. -1.
    9900012    2    1    2    0    0 -0.72710241632E+01  0.27455551260E+02 -0.14492906617E+02  0.59301961839E+02  0.50000032483E+02 0.  0.
        -12    1    1    2    0    0  0.72710241632E+01 -0.27455551260E+02  0.14492906617E+02  0.31886038161E+02  0.00000000000E+00 0.  1.
         11    1    3    3    0    0 -0.51106111453E+01  0.18697585849E+02 -0.15241072999E+02  0.24657825721E+02  0.51100000000E-03 0. -1.
        -11    1    3    3    0    0 -0.13825773490E+02  0.14546994074E+02 -0.45607854999E+01  0.20580763198E+02  0.51100000000E-03 0.  1.
         12    1    3    3    0    0  0.11665360472E+02 -0.57890286623E+01  0.53089518811E+01  0.14063372920E+02  0.00000000000E+00 0. -1.
</event>
<event>
 7    1  0.1138240E-011  0.5930198E+02  0.7816164E-02  0.1266605E+00
        -11   -1    0    0    0    0  0.00000000000E+00  0.00000000000E+00  0.45593999997E+02  0.45594000000E+02  0.51100000000E-03 0. -1.
         11   -1    0    0    0    0 -0.00000000000E+00 -0.00000000000E+00 -0.45593999997E+02  0.45594000000E+02  0.51100000000E-03 0.  1.
    9900012    2    1    2    0    0 -0.31198680924E+02  0.55849546708E+01 -0.34883811424E+01  0.59301980915E+02  0.50000067274E+02 0.  0.
        -12    1    1    2    0    0  0.31198680924E+02 -0.55849546708E+01  0.34883811424E+01  0.31886019085E+02  0.00000000000E+00 0.  1.
         11    1    3    3    0    0 -0.19702259864E+02  0.11293651856E+02  0.67739873600E+01  0.23698365365E+02  0.51100000000E-03 0. -1.
        -11    1    3    3    0    0  0.95074377968E+01  0.47497553689E+01 -0.30695808571E+01  0.11062272661E+02  0.51100000000E-03 0.  1.
         12    1    3    3    0    0 -0.21003858857E+02 -0.10458452554E+02 -0.71927876453E+01  0.24541342889E+02  0.00000000000E+00 0. -1.
</event>
<event>
 7    1  0.1138240E-011  0.5930193E+02  0.7816164E-02  0.1266605E+00
        -11   -1    0    0    0    0  0.00000000000E+00  0.00000000000E+00  0.45593999997E+02  0.45594000000E+02  0.51100000000E-03 0. -1.
         11   -1    0    0    0    0 -0.00000000000E+00 -0.00000000000E+00 -0.45593999997E+02  0.45594000000E+02  0.51100000000E-03 0.  1.
    9900012    2    1    2    0    0 -0.13110551131E+02 -0.11854524330E+02  0.26538746752E+02  0.59301931299E+02  0.49999976785E+02 0.  0.
        -12    1    1    2    0    0  0.13110551131E+02  0.11854524330E+02 -0.26538746752E+02  0.31886068701E+02  0.00000000000E+00 0.  1.
         11    1    3    3    0    0 -0.44821167288E+01 -0.11493048965E+01  0.10361760302E+02  0.11347966731E+02  0.51100000000E-03 0. -1.
        -11    1    3    3    0    0  0.96647382314E+00  0.10055513320E+02 -0.92904569126E+01  0.13724431124E+02  0.51100000000E-03 0.  1.
         12    1    3    3    0    0 -0.95949082255E+01 -0.20760732753E+02  0.25467443363E+02  0.34229533444E+02  0.00000000000E+00 0. -1.
</event>
<event>
 7    1  0.1138240E-011  0.5930191E+02  0.7816164E-02  0.1266605E+00
        -11   -1    0    0    0    0  0.00000000000E+00  0.00000000000E+00  0.45593999997E+02  0.45594000000E+02  0.51100000000E-03 0. -1.
         11   -1    0    0    0    0 -0.00000000000E+00 -0.00000000000E+00 -0.45593999997E+02  0.45594000000E+02  0.51100000000E-03 0.  1.
    9900012    2    1    2    0    0  0.57377602692E+01 -0.11426050795E+02  0.29210373359E+02  0.59301914610E+02  0.49999946350E+02 0.  0.
        -12    1    1    2    0    0 -0.57377602692E+01  0.11426050795E+02 -0.29210373359E+02  0.31886085390E+02  0.00000000000E+00 0.  1.
         11    1    3    3    0    0  0.77561251838E+01  0.17890665798E+00  0.89825419450E+01  0.11869100451E+02  0.51100000000E-03 0. -1.
        -11    1    3    3    0    0  0.30361890370E+01  0.14552374293E+02  0.13199598597E+02  0.19880126881E+02  0.51100000000E-03 0.  1.
        -12    1    3    3    0    0 -0.50545539517E+01 -0.26157331746E+02  0.70282328179E+01  0.27552687278E+02  0.00000000000E+00 0.  1.
</event>
<event>
 7    1  0.1185393E-011  0.5930191E+02  0.7816164E-02  0.1266605E+00
        -11   -1    0    0    0    0  0.00000000000E+00  0.00000000000E+00  0.45593999997E+02  0.45594000000E+02  0.51100000000E-03 0.  1.
         11   -1    0    0    0    0 -0.00000000000E+00 -0.00000000000E+00 -0.45593999997E+02  0.45594000000E+02  0.51100000000E-03 0. -1.
    9900012    2    1    2    0    0  0.18706700717E+02 -0.24706511179E+02 -0.75080220963E+01  0.59301909896E+02  0.49999937751E+02 0.  0.
        -12    1    1    2    0    0 -0.18706700717E+02  0.24706511179E+02  0.75080220963E+01  0.31886090104E+02  0.00000000000E+00 0.  1.
         11    1    3    3    0    0  0.22898994951E+02 -0.14238630490E+02 -0.12178482986E+02  0.29587463834E+02  0.51100000000E-03 0. -1.
        -11    1    3    3    0    0  0.10549471199E+02 -0.33020152693E+01  0.71091991292E+01  0.13142882482E+02  0.51100000000E-03 0.  1.
        -12    1    3    3    0    0 -0.14741765433E+02 -0.71658654191E+01 -0.24387382397E+01  0.16571563580E+02  0.00000000000E+00 0.  1.
</event>
<event>
 7    1  0.1138240E-011  0.5930195E+02  0.7816164E-02  0.1266605E+00
        -11   -1    0    0    0    0  0.00000000000E+00  0.00000000000E+00  0.45593999997E+02  0.45594000000E+02  0.51100000000E-03 0.  1.
         11   -1    0    0    0    0 -0.00000000000E+00 -0.00000000000E+00 -0.45593999997E+02  0.45594000000E+02  0.51100000000E-03 0. -1.
    9900012    2    1    2    0    0 -0.38676835247E+01  0.47936922334E+01 -0.31285486778E+02  0.59301950636E+02  0.50000012052E+02 0.  0.
        -12    1    1    2    0    0  0.38676835247E+01 -0.47936922334E+01  0.31285486778E+02  0.31886049364E+02  0.00000000000E+00 0.  1.
         11    1    3    3    0    0  0.90128221603E+01  0.13513206631E+02 -0.10341941105E+02  0.19255998100E+02  0.51100000000E-03 0.  1.
        -11    1    3    3    0    0  0.90563722183E+01 -0.25033170671E+01 -0.12706354722E+02  0.15803035299E+02  0.51100000000E-03 0. -1.
        -12    1    3    3    0    0 -0.21936877903E+02 -0.62161973302E+01 -0.82371909514E+01  0.24242917237E+02  0.00000000000E+00 0.  1.
</event>
<event>
 7    1  0.1138240E-011  0.5930196E+02  0.7816164E-02  0.1266605E+00
        -11   -1    0    0    0    0  0.00000000000E+00  0.00000000000E+00  0.45593999997E+02  0.45594000000E+02  0.51100000000E-03 0. -1.
         11   -1    0    0    0    0 -0.00000000000E+00 -0.00000000000E+00 -0.45593999997E+02  0.45594000000E+02  0.51100000000E-03 0.  1.
    9900012    2    1    2    0    0 -0.44247985050E+01  0.20331945162E+02  0.24160978932E+02  0.59301956990E+02  0.50000023641E+02 0.  0.
        -12    1    1    2    0    0  0.44247985050E+01 -0.20331945162E+02 -0.24160978932E+02  0.31886043010E+02  0.00000000000E+00 0.  1.
         11    1    3    3    0    0  0.91022759821E+01  0.72091042339E+01  0.11341155283E+02  0.16230970868E+02  0.51100000000E-03 0. -1.
        -11    1    3    3    0    0  0.12188583239E+02  0.56664513779E+01  0.13189889892E+00  0.13442009901E+02  0.51100000000E-03 0.  1.
        -12    1    3    3    0    0 -0.25715657727E+02  0.74563895500E+01  0.12687924750E+02  0.29628976221E+02  0.00000000000E+00 0.  1.
</event>
<event>
 7    1  0.1138240E-011  0.5930195E+02  0.7816164E-02  0.1266605E+00
        -11   -1    0    0    0    0  0.00000000000E+00  0.00000000000E+00  0.45593999997E+02  0.45594000000E+02  0.51100000000E-03 0.  1.
         11   -1    0    0    0    0 -0.00000000000E+00 -0.00000000000E+00 -0.45593999997E+02  0.45594000000E+02  0.51100000000E-03 0. -1.
    9900012    2    1    2    0    0  0.24274164267E+02  0.20282587033E+02  0.40127419709E+01  0.59301945278E+02  0.50000002280E+02 0.  0.
        -12    1    1    2    0    0 -0.24274164267E+02 -0.20282587033E+02 -0.40127419709E+01  0.31886054722E+02  0.00000000000E+00 0.  1.
         11    1    3    3    0    0  0.30046159678E+01 -0.80140557173E+00  0.15181547144E+02  0.15496752626E+02  0.51100000000E-03 0. -1.
        -11    1    3    3    0    0 -0.60397852442E+01  0.66170536246E+01  0.34716874452E+01  0.96081745636E+01  0.51100000000E-03 0.  1.
         12    1    3    3    0    0  0.27309333544E+02  0.14466938980E+02 -0.14640492618E+02  0.34197018089E+02  0.00000000000E+00 0. -1.
</event>
<event>
 7    1  0.1138240E-011  0.5930193E+02  0.7816164E-02  0.1266605E+00
        -11   -1    0    0    0    0  0.00000000000E+00  0.00000000000E+00  0.45593999997E+02  0.45594000000E+02  0.51100000000E-03 0.  1.
         11   -1    0    0    0    0 -0.00000000000E+00 -0.00000000000E+00 -0.45593999997E+02  0.45594000000E+02  0.51100000000E-03 0. -1.
    9900012    2    1    2    0    0  0.24827723588E+02  0.68004260132E+01 -0.18816471754E+02  0.59301933109E+02  0.49999980086E+02 0.  0.
        -12    1    1    2    0    0 -0.24827723588E+02 -0.68004260132E+01  0.18816471754E+02  0.31886066891E+02  0.00000000000E+00 0.  1.
         11    1    3    3    0    0  0.69879296170E+00 -0.27125876531E+01 -0.16506102476E+02  0.16742098512E+02  0.51100000000E-03 0. -1.
        -11    1    3    3    0    0 -0.37272871402E+01 -0.32480155248E+00  0.99076957220E+01  0.10590590175E+02  0.51100000000E-03 0.  1.
        -12    1    3    3    0    0  0.27856217766E+02  0.98378152188E+01 -0.12218065000E+02  0.31969244421E+02  0.00000000000E+00 0.  1.
</event>
<event>
 7    1  0.1138240E-011  0.5930195E+02  0.7816164E-02  0.1266605E+00
        -11   -1    0    0    0    0  0.00000000000E+00  0.00000000000E+00  0.45593999997E+02  0.45594000000E+02  0.51100000000E-03 0.  1.
         11   -1    0    0    0    0 -0.00000000000E+00 -0.00000000000E+00 -0.45593999997E+02  0.45594000000E+02  0.51100000000E-03 0. -1.
    9900012    2    1    2    0    0 -0.14037456464E+01  0.45901450652E+01 -0.31522690279E+02  0.59301953898E+02  0.50000018002E+02 0.  0.
        -12    1    1    2    0    0  0.14037456464E+01 -0.45901450652E+01  0.31522690279E+02  0.31886046102E+02  0.00000000000E+00 0.  1.
         11    1    3    3    0    0 -0.42931507740E+01 -0.47991005964E+01  0.25546053212E+01  0.69273745901E+01  0.51100000000E-03 0. -1.
        -11    1    3    3    0    0  0.10170943675E+02  0.18361446624E+02 -0.57234442309E+01  0.21756576741E+02  0.51100000000E-03 0.  1.
         12    1    3    3    0    0 -0.72815385477E+01 -0.89722009621E+01 -0.28353851369E+02  0.30618002567E+02  0.00000000000E+00 0. -1.
</event>
<event>
 7    1  0.1138240E-011  0.5930195E+02  0.7816164E-02  0.1266605E+00
        -11   -1    0    0    0    0  0.00000000000E+00  0.00000000000E+00  0.45593999997E+02  0.45594000000E+02  0.51100000000E-03 0.  1.
         11   -1    0    0    0    0 -0.00000000000E+00 -0.00000000000E+00 -0.45593999997E+02  0.45594000000E+02  0.51100000000E-03 0. -1.
    9900012    2    1    2    0    0 -0.14208479092E+02 -0.27908236526E+02 -0.59974658105E+01  0.59301950696E+02  0.50000012160E+02 0.  0.
        -12    1    1    2    0    0  0.14208479092E+02  0.27908236526E+02  0.59974658105E+01  0.31886049304E+02  0.00000000000E+00 0.  1.
         11    1    3    3    0    0 -0.17867364576E+02 -0.43883368491E+01 -0.11919533075E+02  0.21922031981E+02  0.51100000000E-03 0. -1.
        -11    1    3    3    0    0 -0.50473938777E+01  0.12566536188E+01  0.95442540949E+01  0.10869597498E+02  0.51100000000E-03 0.  1.
        -12    1    3    3    0    0  0.87062793625E+01 -0.24776553296E+02 -0.36221868306E+01  0.26510321216E+02  0.00000000000E+00 0.  1.
</event>
<event>
 7    1  0.1138240E-011  0.5930194E+02  0.7816164E-02  0.1266605E+00
        -11   -1    0    0    0    0  0.00000000000E+00  0.00000000000E+00  0.45593999997E+02  0.45594000000E+02  0.51100000000E-03 0.  1.
         11   -1    0    0    0    0 -0.00000000000E+00 -0.00000000000E+00 -0.45593999997E+02  0.45594000000E+02  0.51100000000E-03 0. -1.
    9900012    2    1    2    0    0 -0.31451352928E+02 -0.44530178960E+01 -0.27756074563E+01  0.59301937745E+02  0.49999988543E+02 0.  0.
        -12    1    1    2    0    0  0.31451352928E+02  0.44530178960E+01  0.27756074563E+01  0.31886062255E+02  0.00000000000E+00 0.  1.
         11    1    3    3    0    0 -0.27459586780E+02  0.16938719097E+02  0.41347306778E+01  0.32527605335E+02  0.51100000000E-03 0. -1.
        -11    1    3    3    0    0 -0.18138070797E+01 -0.71881227569E+00  0.31307359292E+01  0.36889151426E+01  0.51100000000E-03 0.  1.
        -12    1    3    3    0    0 -0.21779590673E+01 -0.20672924717E+02 -0.10041074063E+02  0.23085417268E+02  0.00000000000E+00 0.  1.
</event>
<event>
 7    1  0.1138240E-011  0.5930194E+02  0.7816164E-02  0.1266605E+00
        -11   -1    0    0    0    0  0.00000000000E+00  0.00000000000E+00  0.45593999997E+02  0.45594000000E+02  0.51100000000E-03 0.  1.
         11   -1    0    0    0    0 -0.00000000000E+00 -0.00000000000E+00 -0.45593999997E+02  0.45594000000E+02  0.51100000000E-03 0. -1.
    9900012    2    1    2    0    0 -0.26768119621E+02 -0.61968737067E+01  0.16179853771E+02  0.59301935021E+02  0.49999983574E+02 0.  0.
        -12    1    1    2    0    0  0.26768119621E+02  0.61968737067E+01 -0.16179853771E+02  0.31886064979E+02  0.00000000000E+00 0.  1.
         11    1    3    3    0    0 -0.12806637301E+02 -0.46227592847E+01  0.20971679614E+02  0.25003823877E+02  0.51100000000E-03 0. -1.
        -11    1    3    3    0    0  0.93229390070E+01  0.33222149955E+01  0.54900679944E+00  0.99124019759E+01  0.51100000000E-03 0.  1.
        -12    1    3    3    0    0 -0.23284421328E+02 -0.48963294175E+01 -0.53408326424E+01  0.24385709168E+02  0.00000000000E+00 0.  1.
</event>
<event>
 7    1  0.1138240E-011  0.5930193E+02  0.7816164E-02  0.1266605E+00
        -11   -1    0    0    0    0  0.00000000000E+00  0.00000000000E+00  0.45593999997E+02  0.45594000000E+02  0.51100000000E-03 0. -1.
         11   -1    0    0    0    0 -0.00000000000E+00 -0.00000000000E+00 -0.45593999997E+02  0.45594000000E+02  0.51100000000E-03 0.  1.
    9900012    2    1    2    0    0  0.62550859807E+00 -0.66709128275E+01  0.31174177932E+02  0.59301926101E+02  0.49999967306E+02 0.  0.
        -12    1    1    2    0    0 -0.62550859807E+00  0.66709128275E+01 -0.31174177932E+02  0.31886073899E+02  0.00000000000E+00 0.  1.
         11    1    3    3    0    0 -0.83358267216E+01  0.71618236196E+01  0.68545938764E+01  0.12952342729E+02  0.51100000000E-03 0.  1.
        -11    1    3    3    0    0  0.12695127646E+02  0.94629889705E+01  0.10653626348E+02  0.19084396266E+02  0.51100000000E-03 0. -1.
         12    1    3    3    0    0 -0.37337923262E+01 -0.23295725418E+02  0.13665957708E+02  0.27265187106E+02  0.00000000000E+00 0. -1.
</event>
<event>
 7    1  0.1138240E-011  0.5930198E+02  0.7816164E-02  0.1266605E+00
        -11   -1    0    0    0    0  0.00000000000E+00  0.00000000000E+00  0.45593999997E+02  0.45594000000E+02  0.51100000000E-03 0. -1.
         11   -1    0    0    0    0 -0.00000000000E+00 -0.00000000000E+00 -0.45593999997E+02  0.45594000000E+02  0.51100000000E-03 0.  1.
    9900012    2    1    2    0    0 -0.15612132812E+02 -0.27571024661E+02 -0.35802313042E+01  0.59301981935E+02  0.50000069135E+02 0.  0.
        -12    1    1    2    0    0  0.15612132812E+02  0.27571024661E+02  0.35802313042E+01  0.31886018065E+02  0.00000000000E+00 0.  1.
         11    1    3    3    0    0  0.49591139880E+01  0.31480993108E+01  0.20725955347E+01  0.62288837947E+01  0.51100000000E-03 0. -1.
        -11    1    3    3    0    0 -0.11112216033E+02  0.50670965297E+01 -0.10024999475E+02  0.15800551482E+02  0.51100000000E-03 0.  1.
        -12    1    3    3    0    0 -0.94590307664E+01 -0.35786220502E+02  0.43721726357E+01  0.37272546659E+02  0.00000000000E+00 0.  1.
</event>
<event>
 7    1  0.1138240E-011  0.5930182E+02  0.7816164E-02  0.1266605E+00
        -11   -1    0    0    0    0  0.00000000000E+00  0.00000000000E+00  0.45593999997E+02  0.45594000000E+02  0.51100000000E-03 0.  1.
         11   -1    0    0    0    0 -0.00000000000E+00 -0.00000000000E+00 -0.45593999997E+02  0.45594000000E+02  0.51100000000E-03 0. -1.
    9900012    2    1    2    0    0  0.24463159084E+02  0.18208881754E+02 -0.93123091582E+01  0.59301817586E+02  0.49999769400E+02 0.  0.
        -12    1    1    2    0    0 -0.24463159084E+02 -0.18208881754E+02  0.93123091582E+01  0.31886182414E+02  0.00000000000E+00 0.  1.
         11    1    3    3    0    0 -0.24349794858E+01  0.97157125534E+00 -0.10706117256E+02  0.11022432706E+02  0.51100000000E-03 0. -1.
        -11    1    3    3    0    0  0.53073484081E+01 -0.87011366533E+01 -0.83243221123E+01  0.13159485745E+02  0.51100000000E-03 0.  1.
         12    1    3    3    0    0  0.21590790162E+02  0.25938447152E+02  0.97181302099E+01  0.35119899135E+02  0.00000000000E+00 0. -1.
</event>
<event>
 7    1  0.1138240E-011  0.5930190E+02  0.7816164E-02  0.1266605E+00
        -11   -1    0    0    0    0  0.00000000000E+00  0.00000000000E+00  0.45593999997E+02  0.45594000000E+02  0.51100000000E-03 0. -1.
         11   -1    0    0    0    0 -0.00000000000E+00 -0.00000000000E+00 -0.45593999997E+02  0.45594000000E+02  0.51100000000E-03 0.  1.
    9900012    2    1    2    0    0  0.63784499062E+01  0.26162741272E+01  0.31131878490E+02  0.59301900021E+02  0.49999919743E+02 0.  0.
        -12    1    1    2    0    0 -0.63784499062E+01 -0.26162741272E+01 -0.31131878490E+02  0.31886099979E+02  0.00000000000E+00 0.  1.
         11    1    3    3    0    0 -0.10949738021E+02  0.86180918048E+01  0.23164813225E+02  0.27032884439E+02  0.51100000000E-03 0. -1.
        -11    1    3    3    0    0  0.85892206277E+01 -0.12831461313E+02  0.12909471004E+02  0.20126488822E+02  0.51100000000E-03 0.  1.
         12    1    3    3    0    0  0.87389672992E+01  0.68296436357E+01 -0.49424057388E+01  0.12142526761E+02  0.00000000000E+00 0. -1.
</event>
<event>
 7    1  0.1203868E-011  0.5930196E+02  0.7816164E-02  0.1266605E+00
        -11   -1    0    0    0    0  0.00000000000E+00  0.00000000000E+00  0.45593999997E+02  0.45594000000E+02  0.51100000000E-03 0. -1.
         11   -1    0    0    0    0 -0.00000000000E+00 -0.00000000000E+00 -0.45593999997E+02  0.45594000000E+02  0.51100000000E-03 0.  1.
    9900012    2    1    2    0    0 -0.20375319760E+02  0.92964751823E+01  0.22696723902E+02  0.59301962585E+02  0.50000033844E+02 0.  0.
        -12    1    1    2    0    0  0.20375319760E+02 -0.92964751823E+01 -0.22696723902E+02  0.31886037415E+02  0.00000000000E+00 0.  1.
         11    1    3    3    0    0 -0.20273736128E+02 -0.28265097025E+01  0.10354792173E+02  0.22939818110E+02  0.51100000000E-03 0. -1.
        -11    1    3    3    0    0 -0.13366191960E+02  0.10286375068E+02  0.15159675200E+02  0.22677750152E+02  0.51100000000E-03 0.  1.
        -12    1    3    3    0    0  0.13264608329E+02  0.18366098166E+01 -0.28177434702E+01  0.13684394323E+02  0.00000000000E+00 0.  1.
</event>
<event>
 7    1  0.1138240E-011  0.5930194E+02  0.7816164E-02  0.1266605E+00
        -11   -1    0    0    0    0  0.00000000000E+00  0.00000000000E+00  0.45593999997E+02  0.45594000000E+02  0.51100000000E-03 0. -1.
         11   -1    0    0    0    0 -0.00000000000E+00 -0.00000000000E+00 -0.45593999997E+02  0.45594000000E+02  0.51100000000E-03 0.  1.
    9900012    2    1    2    0    0  0.23713290224E+02  0.20252484398E+02  0.66511285184E+01  0.59301940850E+02  0.49999994205E+02 0.  0.
        -12    1    1    2    0    0 -0.23713290224E+02 -0.20252484398E+02 -0.66511285184E+01  0.31886059150E+02  0.00000000000E+00 0.  1.
         11    1    3    3    0    0  0.25972280261E+02  0.22838900151E+02  0.18617267545E+02  0.39278204556E+02  0.51100000000E-03 0. -1.
        -11    1    3    3    0    0  0.47811229138E+01  0.39088934988E+01 -0.66230135396E+01  0.90555448930E+01  0.51100000000E-03 0.  1.
        -12    1    3    3    0    0 -0.70401129508E+01 -0.64953092518E+01 -0.53431254875E+01  0.10968191401E+02  0.00000000000E+00 0.  1.
</event>
<event>
 7    1  0.1138240E-011  0.5930201E+02  0.7816164E-02  0.1266605E+00
        -11   -1    0    0    0    0  0.00000000000E+00  0.00000000000E+00  0.45593999997E+02  0.45594000000E+02  0.51100000000E-03 0.  1.
         11   -1    0    0    0    0 -0.00000000000E+00 -0.00000000000E+00 -0.45593999997E+02  0.45594000000E+02  0.51100000000E-03 0. -1.
    9900012    2    1    2    0    0  0.66918083894E+01  0.11586709003E+02 -0.28942779202E+02  0.59302006320E+02  0.50000113606E+02 0.  0.
        -12    1    1    2    0    0 -0.66918083894E+01 -0.11586709003E+02  0.28942779202E+02  0.31885993680E+02  0.00000000000E+00 0.  1.
         11    1    3    3    0    0 -0.15606397434E+02  0.36490689871E+00 -0.10189875148E+02  0.18642058730E+02  0.51100000000E-03 0. -1.
        -11    1    3    3    0    0  0.76470203546E+01  0.45046380252E+01  0.62904096536E+01  0.10878324224E+02  0.51100000000E-03 0.  1.
        -12    1    3    3    0    0  0.14651185469E+02  0.67171640791E+01 -0.25043313707E+02  0.29781623366E+02  0.00000000000E+00 0.  1.
</event>
<event>
 7    1  0.1138240E-011  0.5930193E+02  0.7816164E-02  0.1266605E+00
        -11   -1    0    0    0    0  0.00000000000E+00  0.00000000000E+00  0.45593999997E+02  0.45594000000E+02  0.51100000000E-03 0.  1.
         11   -1    0    0    0    0 -0.00000000000E+00 -0.00000000000E+00 -0.45593999997E+02  0.45594000000E+02  0.51100000000E-03 0. -1.
    9900012    2    1    2    0    0  0.21018128456E+02  0.54509545002E+01 -0.23350516821E+02  0.59301933065E+02  0.49999980007E+02 0.  0.
        -12    1    1    2    0    0 -0.21018128456E+02 -0.54509545002E+01  0.23350516821E+02  0.31886066935E+02  0.00000000000E+00 0.  1.
         11    1    3    3    0    0  0.11331254841E+02 -0.12545691903E+02 -0.25654503353E+02  0.30723692229E+02  0.51100000000E-03 0. -1.
        -11    1    3    3    0    0  0.98109315040E+01  0.38584181618E+00  0.45551443816E+01  0.10823705072E+02  0.51100000000E-03 0.  1.
        -12    1    3    3    0    0 -0.12405788959E+00  0.17610804587E+02 -0.22511578499E+01  0.17754535765E+02  0.00000000000E+00 0.  1.
</event>
<event>
 7    1  0.1138240E-011  0.5930199E+02  0.7816164E-02  0.1266605E+00
        -11   -1    0    0    0    0  0.00000000000E+00  0.00000000000E+00  0.45593999997E+02  0.45594000000E+02  0.51100000000E-03 0.  1.
         11   -1    0    0    0    0 -0.00000000000E+00 -0.00000000000E+00 -0.45593999997E+02  0.45594000000E+02  0.51100000000E-03 0. -1.
    9900012    2    1    2    0    0 -0.28657875329E+02  0.13743903920E+02 -0.25591346408E+01  0.59301986084E+02  0.50000076701E+02 0.  0.
        -12    1    1    2    0    0  0.28657875329E+02 -0.13743903920E+02  0.25591346408E+01  0.31886013916E+02  0.00000000000E+00 0.  1.
         11    1    3    3    0    0 -0.89906388911E+01  0.11687716801E+02  0.80034667223E+01  0.16777657510E+02  0.51100000000E-03 0. -1.
        -11    1    3    3    0    0 -0.14051788134E+02 -0.43719264492E+01  0.11623534815E+02  0.18752947835E+02  0.51100000000E-03 0.  1.
         12    1    3    3    0    0 -0.56154483035E+01  0.64281135681E+01 -0.22186136178E+02  0.23771380738E+02  0.00000000000E+00 0. -1.
</event>
<event>
 7    1  0.1138240E-011  0.5930196E+02  0.7816164E-02  0.1266605E+00
        -11   -1    0    0    0    0  0.00000000000E+00  0.00000000000E+00  0.45593999997E+02  0.45594000000E+02  0.51100000000E-03 0.  1.
         11   -1    0    0    0    0 -0.00000000000E+00 -0.00000000000E+00 -0.45593999997E+02  0.45594000000E+02  0.51100000000E-03 0. -1.
    9900012    2    1    2    0    0 -0.75380826770E+01 -0.28084967896E+02 -0.13081723035E+02  0.59301959328E+02  0.50000027903E+02 0.  0.
        -12    1    1    2    0    0  0.75380826770E+01  0.28084967896E+02  0.13081723035E+02  0.31886040672E+02  0.00000000000E+00 0.  1.
         11    1    3    3    0    0 -0.12826922772E+01  0.24564195859E+01 -0.38985601973E+01  0.47831023963E+01  0.51100000000E-03 0. -1.
        -11    1    3    3    0    0  0.17355884419E+02 -0.15644396038E+02 -0.12337531961E+02  0.26423257681E+02  0.51100000000E-03 0.  1.
         12    1    3    3    0    0 -0.23611274819E+02 -0.14896991444E+02  0.31543691232E+01  0.28095599250E+02  0.00000000000E+00 0. -1.
</event>
<event>
 7    1  0.1138240E-011  0.5930196E+02  0.7816164E-02  0.1266605E+00
        -11   -1    0    0    0    0  0.00000000000E+00  0.00000000000E+00  0.45593999997E+02  0.45594000000E+02  0.51100000000E-03 0.  1.
         11   -1    0    0    0    0 -0.00000000000E+00 -0.00000000000E+00 -0.45593999997E+02  0.45594000000E+02  0.51100000000E-03 0. -1.
    9900012    2    1    2    0    0  0.10827536782E+02 -0.25786841305E+02 -0.15314143683E+02  0.59301957066E+02  0.50000023779E+02 0.  0.
        -12    1    1    2    0    0 -0.10827536782E+02  0.25786841305E+02  0.15314143683E+02  0.31886042934E+02  0.00000000000E+00 0.  1.
         11    1    3    3    0    0 -0.48088212603E+00 -0.18193887341E+02 -0.29958564906E+02  0.35053735830E+02  0.51100000000E-03 0. -1.
        -11    1    3    3    0    0  0.17150835664E+01  0.39534559461E+01  0.35078689509E+01  0.55566600036E+01  0.51100000000E-03 0.  1.
        -12    1    3    3    0    0  0.95933353416E+01 -0.11546409911E+02  0.11136552272E+02  0.18691561232E+02  0.00000000000E+00 0.  1.
</event>
<event>
 7    1  0.1138240E-011  0.5930198E+02  0.7816164E-02  0.1266605E+00
        -11   -1    0    0    0    0  0.00000000000E+00  0.00000000000E+00  0.45593999997E+02  0.45594000000E+02  0.51100000000E-03 0. -1.
         11   -1    0    0    0    0 -0.00000000000E+00 -0.00000000000E+00 -0.45593999997E+02  0.45594000000E+02  0.51100000000E-03 0.  1.
    9900012    2    1    2    0    0 -0.69917012169E+01  0.12653404755E+02  0.28420517742E+02  0.59301978509E+02  0.50000062885E+02 0.  0.
        -12    1    1    2    0    0  0.69917012169E+01 -0.12653404755E+02 -0.28420517742E+02  0.31886021491E+02  0.00000000000E+00 0.  1.
         11    1    3    3    0    0 -0.96820472460E+01  0.13553392078E+02  0.16305414016E+02  0.23308861023E+02  0.51100000000E-03 0. -1.
        -11    1    3    3    0    0 -0.87996800833E+01 -0.56457594591E+01 -0.74322368230E+01  0.12827591898E+02  0.51100000000E-03 0.  1.
         12    1    3    3    0    0  0.11490026112E+02  0.47457721357E+01  0.19547340550E+02  0.23165525589E+02  0.00000000000E+00 0. -1.
</event>
<event>
 7    1  0.1138240E-011  0.5930194E+02  0.7816164E-02  0.1266605E+00
        -11   -1    0    0    0    0  0.00000000000E+00  0.00000000000E+00  0.45593999997E+02  0.45594000000E+02  0.51100000000E-03 0. -1.
         11   -1    0    0    0    0 -0.00000000000E+00 -0.00000000000E+00 -0.45593999997E+02  0.45594000000E+02  0.51100000000E-03 0.  1.
    9900012    2    1    2    0    0 -0.28674526244E+02  0.10452670315E+02  0.92322388239E+01  0.59301937124E+02  0.49999987409E+02 0.  0.
        -12    1    1    2    0    0  0.28674526244E+02 -0.10452670315E+02 -0.92322388239E+01  0.31886062876E+02  0.00000000000E+00 0.  1.
         11    1    3    3    0    0 -0.51753176242E+01  0.19620114318E+02 -0.26472251706E+01  0.20463152243E+02  0.51100000000E-03 0. -1.
        -11    1    3    3    0    0 -0.90288637147E+01  0.96595461912E+01  0.46771719829E+01  0.14025090040E+02  0.51100000000E-03 0.  1.
        -12    1    3    3    0    0 -0.14470344905E+02 -0.18826990194E+02  0.72022920116E+01  0.24813694841E+02  0.00000000000E+00 0.  1.
</event>
<event>
 7    1  0.1138240E-011  0.5930195E+02  0.7816164E-02  0.1266605E+00
        -11   -1    0    0    0    0  0.00000000000E+00  0.00000000000E+00  0.45593999997E+02  0.45594000000E+02  0.51100000000E-03 0.  1.
         11   -1    0    0    0    0 -0.00000000000E+00 -0.00000000000E+00 -0.45593999997E+02  0.45594000000E+02  0.51100000000E-03 0. -1.
    9900012    2    1    2    0    0 -0.25057725154E+02  0.36800319894E+01 -0.19372346432E+02  0.59301952399E+02  0.50000015267E+02 0.  0.
        -12    1    1    2    0    0  0.25057725154E+02 -0.36800319894E+01  0.19372346432E+02  0.31886047601E+02  0.00000000000E+00 0.  1.
         11    1    3    3    0    0 -0.63436284918E+01 -0.84083208988E+01 -0.16423609662E+02  0.19510931228E+02  0.51100000000E-03 0. -1.
        -11    1    3    3    0    0 -0.13597059456E+02 -0.91005211245E+01 -0.66861324601E+01  0.17674950584E+02  0.51100000000E-03 0.  1.
        -12    1    3    3    0    0 -0.51170372062E+01  0.21188874013E+02  0.37373956901E+01  0.22116070588E+02  0.00000000000E+00 0.  1.
</event>
<event>
 7    1  0.1138240E-011  0.5930188E+02  0.7816164E-02  0.1266605E+00
        -11   -1    0    0    0    0  0.00000000000E+00  0.00000000000E+00  0.45593999997E+02  0.45594000000E+02  0.51100000000E-03 0. -1.
         11   -1    0    0    0    0 -0.00000000000E+00 -0.00000000000E+00 -0.45593999997E+02  0.45594000000E+02  0.51100000000E-03 0.  1.
    9900012    2    1    2    0    0  0.15176455016E+02  0.23971285376E+02  0.14552581974E+02  0.59301875250E+02  0.49999874566E+02 0.  0.
        -12    1    1    2    0    0 -0.15176455016E+02 -0.23971285376E+02 -0.14552581974E+02  0.31886124750E+02  0.00000000000E+00 0.  1.
         11    1    3    3    0    0  0.22510462677E+02  0.14131403221E+02  0.10750588849E+02  0.28670414155E+02  0.51100000000E-03 0. -1.
        -11    1    3    3    0    0  0.57382578076E+01 -0.65652149153E+00  0.10970776082E+02  0.12398247910E+02  0.51100000000E-03 0.  1.
        -12    1    3    3    0    0 -0.13072265469E+02  0.10496403646E+02 -0.71687829565E+01  0.18233213186E+02  0.00000000000E+00 0.  1.
</event>
<event>
 7    1  0.1138240E-011  0.5930195E+02  0.7816164E-02  0.1266605E+00
        -11   -1    0    0    0    0  0.00000000000E+00  0.00000000000E+00  0.45593999997E+02  0.45594000000E+02  0.51100000000E-03 0. -1.
         11   -1    0    0    0    0 -0.00000000000E+00 -0.00000000000E+00 -0.45593999997E+02  0.45594000000E+02  0.51100000000E-03 0.  1.
    9900012    2    1    2    0    0  0.64618199176E+01 -0.20599674879E+02  0.23465261736E+02  0.59301949287E+02  0.50000009592E+02 0.  0.
        -12    1    1    2    0    0 -0.64618199176E+01  0.20599674879E+02 -0.23465261736E+02  0.31886050713E+02  0.00000000000E+00 0.  1.
         11    1    3    3    0    0  0.16534385338E+02 -0.57772878079E+01  0.83026200361E+01  0.19382890720E+02  0.51100000000E-03 0. -1.
        -11    1    3    3    0    0  0.74047840609E+01  0.44938864863E+01  0.10233868164E+02  0.13407382317E+02  0.51100000000E-03 0.  1.
        -12    1    3    3    0    0 -0.17477349481E+02 -0.19316273557E+02  0.49287735357E+01  0.26511676250E+02  0.00000000000E+00 0.  1.
</event>
<event>
 7    1  0.1138240E-011  0.5930193E+02  0.7816164E-02  0.1266605E+00
        -11   -1    0    0    0    0  0.00000000000E+00  0.00000000000E+00  0.45593999997E+02  0.45594000000E+02  0.51100000000E-03 0. -1.
         11   -1    0    0    0    0 -0.00000000000E+00 -0.00000000000E+00 -0.45593999997E+02  0.45594000000E+02  0.51100000000E-03 0.  1.
    9900012    2    1    2    0    0  0.31322212568E+02  0.29528076218E+01  0.51885781191E+01  0.59301930692E+02  0.49999975679E+02 0.  0.
        -12    1    1    2    0    0 -0.31322212568E+02 -0.29528076218E+01 -0.51885781191E+01  0.31886069308E+02  0.00000000000E+00 0.  1.
         11    1    3    3    0    0  0.25796817478E+02  0.59901931171E+01  0.93040121720E+01  0.28069963455E+02  0.51100000000E-03 0. -1.
        -11    1    3    3    0    0 -0.28397782621E+01  0.64207439982E+01  0.10047755428E+02  0.12257556179E+02  0.51100000000E-03 0.  1.
         12    1    3    3    0    0  0.83651733521E+01 -0.94581294934E+01 -0.14163189481E+02  0.18974411058E+02  0.00000000000E+00 0. -1.
</event>
<event>
 7    1  0.1138240E-011  0.5930191E+02  0.7816164E-02  0.1266605E+00
        -11   -1    0    0    0    0  0.00000000000E+00  0.00000000000E+00  0.45593999997E+02  0.45594000000E+02  0.51100000000E-03 0.  1.
         11   -1    0    0    0    0 -0.00000000000E+00 -0.00000000000E+00 -0.45593999997E+02  0.45594000000E+02  0.51100000000E-03 0. -1.
    9900012    2    1    2    0    0 -0.50994970529E+01 -0.28826681502E+02 -0.12638832822E+02  0.59301913196E+02  0.49999943770E+02 0.  0.
        -12    1    1    2    0    0  0.50994970529E+01  0.28826681502E+02  0.12638832822E+02  0.31886086804E+02  0.00000000000E+00 0.  1.
         11    1    3    3    0    0  0.10815484300E+02 -0.30443265914E+01  0.34958472380E+01  0.11767054568E+02  0.51100000000E-03 0.  1.
        -11    1    3    3    0    0  0.18656847679E+01 -0.25296289839E+02 -0.15521093113E+02  0.29736970104E+02  0.51100000000E-03 0. -1.
         12    1    3    3    0    0 -0.17780666121E+02 -0.48606507168E+00 -0.61358694646E+00  0.17797888524E+02  0.00000000000E+00 0. -1.
</event>
<event>
 7    1  0.1138240E-011  0.5930193E+02  0.7816164E-02  0.1266605E+00
        -11   -1    0    0    0    0  0.00000000000E+00  0.00000000000E+00  0.45593999997E+02  0.45594000000E+02  0.51100000000E-03 0. -1.
         11   -1    0    0    0    0 -0.00000000000E+00 -0.00000000000E+00 -0.45593999997E+02  0.45594000000E+02  0.51100000000E-03 0.  1.
    9900012    2    1    2    0    0  0.24256008719E+02 -0.20749997521E+01  0.20592758008E+02  0.59301933053E+02  0.49999979985E+02 0.  0.
        -12    1    1    2    0    0 -0.24256008719E+02  0.20749997521E+01 -0.20592758008E+02  0.31886066947E+02  0.00000000000E+00 0.  1.
         11    1    3    3    0    0  0.35625185842E+02  0.62901079011E+01  0.17206190913E+02  0.40059609705E+02  0.51100000000E-03 0. -1.
        -11    1    3    3    0    0 -0.74494221336E+00 -0.99052099779E-01  0.55567861723E+01  0.56073722050E+01  0.51100000000E-03 0.  1.
         12    1    3    3    0    0 -0.10624234910E+02 -0.82660555534E+01 -0.21702190772E+01  0.13634951143E+02  0.00000000000E+00 0. -1.
</event>
<event>
 7    1  0.1138240E-011  0.5930195E+02  0.7816164E-02  0.1266605E+00
        -11   -1    0    0    0    0  0.00000000000E+00  0.00000000000E+00  0.45593999997E+02  0.45594000000E+02  0.51100000000E-03 0.  1.
         11   -1    0    0    0    0 -0.00000000000E+00 -0.00000000000E+00 -0.45593999997E+02  0.45594000000E+02  0.51100000000E-03 0. -1.
    9900012    2    1    2    0    0  0.26325762836E+00 -0.19293527625E+02 -0.25385249658E+02  0.59301946419E+02  0.50000004361E+02 0.  0.
        -12    1    1    2    0    0 -0.26325762836E+00  0.19293527625E+02  0.25385249658E+02  0.31886053581E+02  0.00000000000E+00 0.  1.
         11    1    3    3    0    0  0.13536614883E+02  0.68994004575E+01 -0.21381245291E+02  0.26229741127E+02  0.51100000000E-03 0. -1.
        -11    1    3    3    0    0 -0.51617952063E+01  0.39025236689E-01  0.71806056223E+00  0.52116469521E+01  0.51100000000E-03 0.  1.
        -12    1    3    3    0    0 -0.81115620481E+01 -0.26231953319E+02 -0.47220649296E+01  0.27860558339E+02  0.00000000000E+00 0.  1.
</event>
<event>
 7    1  0.1138240E-011  0.5930194E+02  0.7816164E-02  0.1266605E+00
        -11   -1    0    0    0    0  0.00000000000E+00  0.00000000000E+00  0.45593999997E+02  0.45594000000E+02  0.51100000000E-03 0.  1.
         11   -1    0    0    0    0 -0.00000000000E+00 -0.00000000000E+00 -0.45593999997E+02  0.45594000000E+02  0.51100000000E-03 0. -1.
    9900012    2    1    2    0    0 -0.30977653540E+02 -0.34492871762E+01  0.67236857817E+01  0.59301944249E+02  0.50000000403E+02 0.  0.
        -12    1    1    2    0    0  0.30977653540E+02  0.34492871762E+01 -0.67236857817E+01  0.31886055751E+02  0.00000000000E+00 0.  1.
         11    1    3    3    0    0 -0.13668766547E+02  0.10088634934E+02  0.39205731095E+01  0.17435212287E+02  0.51100000000E-03 0. -1.
        -11    1    3    3    0    0 -0.27039442469E+02 -0.16349145088E+02  0.29672280773E+01  0.31736893938E+02  0.51100000000E-03 0.  1.
        -12    1    3    3    0    0  0.97305554758E+01  0.28112229779E+01 -0.16411540515E+00  0.10129838023E+02  0.00000000000E+00 0.  1.
</event>
<event>
 7    1  0.1138240E-011  0.5930196E+02  0.7816164E-02  0.1266605E+00
        -11   -1    0    0    0    0  0.00000000000E+00  0.00000000000E+00  0.45593999997E+02  0.45594000000E+02  0.51100000000E-03 0.  1.
         11   -1    0    0    0    0 -0.00000000000E+00 -0.00000000000E+00 -0.45593999997E+02  0.45594000000E+02  0.51100000000E-03 0. -1.
    9900012    2    1    2    0    0  0.23854609626E+02 -0.19153571533E+02 -0.89898717250E+01  0.59301960790E+02  0.50000030570E+02 0.  0.
        -12    1    1    2    0    0 -0.23854609626E+02  0.19153571533E+02  0.89898717250E+01  0.31886039210E+02  0.00000000000E+00 0.  1.
         11    1    3    3    0    0  0.11986052225E+01  0.38628579534E+01  0.39622557017E+00  0.40639046509E+01  0.51100000000E-03 0. -1.
        -11    1    3    3    0    0  0.21714958906E+02  0.30943945291E+01 -0.17302552955E+02  0.27937305826E+02  0.51100000000E-03 0.  1.
        -12    1    3    3    0    0  0.94104549717E+00 -0.26110824016E+02  0.79164556598E+01  0.27300750313E+02  0.00000000000E+00 0.  1.
</event>
<event>
 7    1  0.1138240E-011  0.5930201E+02  0.7816164E-02  0.1266605E+00
        -11   -1    0    0    0    0  0.00000000000E+00  0.00000000000E+00  0.45593999997E+02  0.45594000000E+02  0.51100000000E-03 0. -1.
         11   -1    0    0    0    0 -0.00000000000E+00 -0.00000000000E+00 -0.45593999997E+02  0.45594000000E+02  0.51100000000E-03 0.  1.
    9900012    2    1    2    0    0  0.14320346181E+02  0.12713261683E+02  0.25495429322E+02  0.59302011640E+02  0.50000123309E+02 0.  0.
        -12    1    1    2    0    0 -0.14320346181E+02 -0.12713261683E+02 -0.25495429322E+02  0.31885988360E+02  0.00000000000E+00 0.  1.
         11    1    3    3    0    0  0.86268742377E+01  0.11748026658E+02  0.28829204347E+02  0.32304212001E+02  0.51100000000E-03 0. -1.
        -11    1    3    3    0    0 -0.58570697960E+01  0.31065920610E+01  0.81931661653E+01  0.10539646716E+02  0.51100000000E-03 0.  1.
         12    1    3    3    0    0  0.11550541739E+02 -0.21413570357E+01 -0.11526941190E+02  0.16458152923E+02  0.00000000000E+00 0. -1.
</event>
<event>
 7    1  0.1138240E-011  0.5930191E+02  0.7816164E-02  0.1266605E+00
        -11   -1    0    0    0    0  0.00000000000E+00  0.00000000000E+00  0.45593999997E+02  0.45594000000E+02  0.51100000000E-03 0.  1.
         11   -1    0    0    0    0 -0.00000000000E+00 -0.00000000000E+00 -0.45593999997E+02  0.45594000000E+02  0.51100000000E-03 0. -1.
    9900012    2    1    2    0    0  0.26449511674E+02  0.16938034161E+02 -0.54999384454E+01  0.59301905979E+02  0.49999930608E+02 0.  0.
        -12    1    1    2    0    0 -0.26449511674E+02 -0.16938034161E+02  0.54999384454E+01  0.31886094021E+02  0.00000000000E+00 0.  1.
         11    1    3    3    0    0  0.27352061032E+02  0.24630763933E+02 -0.28521451393E+00  0.36808845706E+02  0.51100000000E-03 0. -1.
        -11    1    3    3    0    0  0.66623103914E+01  0.21136219788E+00  0.43511084495E+01  0.79601004221E+01  0.51100000000E-03 0.  1.
        -12    1    3    3    0    0 -0.75648597488E+01 -0.79040919700E+01 -0.95658323810E+01  0.14532959851E+02  0.00000000000E+00 0.  1.
</event>
<event>
 7    1  0.1138240E-011  0.5930224E+02  0.7816164E-02  0.1266604E+00
        -11   -1    0    0    0    0  0.00000000000E+00  0.00000000000E+00  0.45593999997E+02  0.45594000000E+02  0.51100000000E-03 0.  1.
         11   -1    0    0    0    0 -0.00000000000E+00 -0.00000000000E+00 -0.45593999997E+02  0.45594000000E+02  0.51100000000E-03 0. -1.
    9900012    2    1    2    0    0 -0.15259982337E+02 -0.14655308025E+01 -0.27958667165E+02  0.59302236545E+02  0.50000533479E+02 0.  0.
        -12    1    1    2    0    0  0.15259982337E+02  0.14655308025E+01  0.27958667165E+02  0.31885763455E+02  0.00000000000E+00 0.  1.
         11    1    3    3    0    0 -0.19550031232E+02  0.11149697272E+01 -0.89629907334E+01  0.21535600336E+02  0.51100000000E-03 0. -1.
        -11    1    3    3    0    0  0.33020593280E+01 -0.12949333919E+02  0.27603557408E+01  0.13645820197E+02  0.51100000000E-03 0.  1.
         12    1    3    3    0    0  0.98798956708E+00  0.10368833390E+02 -0.21756032172E+02  0.24120816013E+02  0.00000000000E+00 0. -1.
</event>
<event>
 7    1  0.1138240E-011  0.5930193E+02  0.7816164E-02  0.1266605E+00
        -11   -1    0    0    0    0  0.00000000000E+00  0.00000000000E+00  0.45593999997E+02  0.45594000000E+02  0.51100000000E-03 0. -1.
         11   -1    0    0    0    0 -0.00000000000E+00 -0.00000000000E+00 -0.45593999997E+02  0.45594000000E+02  0.51100000000E-03 0.  1.
    9900012    2    1    2    0    0 -0.17208042739E+02 -0.25543056926E+02 -0.82557207644E+01  0.59301930669E+02  0.49999975638E+02 0.  0.
        -12    1    1    2    0    0  0.17208042739E+02  0.25543056926E+02  0.82557207644E+01  0.31886069331E+02  0.00000000000E+00 0.  1.
         11    1    3    3    0    0  0.64170437766E+01 -0.25981379963E+02 -0.12925290878E+01  0.26793304898E+02  0.51100000000E-03 0. -1.
        -11    1    3    3    0    0 -0.10660760762E+01 -0.41807207624E+01  0.49631985426E+01  0.65763427775E+01  0.51100000000E-03 0.  1.
        -12    1    3    3    0    0 -0.22559010440E+02  0.46190438001E+01 -0.11926390219E+02  0.25932282994E+02  0.00000000000E+00 0.  1.
</event>
<event>
 7    1  0.1138240E-011  0.5930195E+02  0.7816164E-02  0.1266605E+00
        -11   -1    0    0    0    0  0.00000000000E+00  0.00000000000E+00  0.45593999997E+02  0.45594000000E+02  0.51100000000E-03 0. -1.
         11   -1    0    0    0    0 -0.00000000000E+00 -0.00000000000E+00 -0.45593999997E+02  0.45594000000E+02  0.51100000000E-03 0.  1.
    9900012    2    1    2    0    0  0.27240403804E+02  0.63869150518E+01  0.15293386521E+02  0.59301953607E+02  0.50000017470E+02 0.  0.
        -12    1    1    2    0    0 -0.27240403804E+02 -0.63869150518E+01 -0.15293386521E+02  0.31886046393E+02  0.00000000000E+00 0.  1.
         11    1    3    3    0    0 -0.21015911399E+01 -0.28530721770E+01  0.67270575774E+01  0.76032894248E+01  0.51100000000E-03 0. -1.
        -11    1    3    3    0    0  0.21968783088E+02  0.19747538661E+02 -0.81302135726E+01  0.30638098612E+02  0.51100000000E-03 0.  1.
         12    1    3    3    0    0  0.73732118559E+01 -0.10507551432E+02  0.16696542516E+02  0.21060565571E+02  0.00000000000E+00 0. -1.
</event>
<event>
 7    1  0.1138240E-011  0.5930197E+02  0.7816164E-02  0.1266605E+00
        -11   -1    0    0    0    0  0.00000000000E+00  0.00000000000E+00  0.45593999997E+02  0.45594000000E+02  0.51100000000E-03 0. -1.
         11   -1    0    0    0    0 -0.00000000000E+00 -0.00000000000E+00 -0.45593999997E+02  0.45594000000E+02  0.51100000000E-03 0.  1.
    9900012    2    1    2    0    0  0.59828273736E-01 -0.11962695071E+02  0.29556882682E+02  0.59301969099E+02  0.50000045724E+02 0.  0.
        -12    1    1    2    0    0 -0.59828273736E-01  0.11962695071E+02 -0.29556882682E+02  0.31886030901E+02  0.00000000000E+00 0.  1.
         11    1    3    3    0    0  0.39766876727E+01 -0.77980749342E+01  0.92497611944E+01  0.12735073613E+02  0.51100000000E-03 0. -1.
        -11    1    3    3    0    0 -0.99899484409E+01 -0.21407159702E+02  0.11649584739E+02  0.26339673142E+02  0.51100000000E-03 0.  1.
        -12    1    3    3    0    0  0.60730890420E+01  0.17242539566E+02  0.86575367480E+01  0.20227222343E+02  0.00000000000E+00 0.  1.
</event>
<event>
 7    1  0.1138240E-011  0.5930195E+02  0.7816164E-02  0.1266605E+00
        -11   -1    0    0    0    0  0.00000000000E+00  0.00000000000E+00  0.45593999997E+02  0.45594000000E+02  0.51100000000E-03 0. -1.
         11   -1    0    0    0    0 -0.00000000000E+00 -0.00000000000E+00 -0.45593999997E+02  0.45594000000E+02  0.51100000000E-03 0.  1.
    9900012    2    1    2    0    0 -0.10365181068E+02  0.92666019706E+01  0.28695177828E+02  0.59301950994E+02  0.50000012704E+02 0.  0.
        -12    1    1    2    0    0  0.10365181068E+02 -0.92666019706E+01 -0.28695177828E+02  0.31886049006E+02  0.00000000000E+00 0.  1.
         11    1    3    3    0    0 -0.15551339460E+02 -0.14099207974E+01  0.19310992593E+02  0.24834380823E+02  0.51100000000E-03 0.  1.
        -11    1    3    3    0    0 -0.39178009307E+01  0.18981627362E+01  0.18418086101E+02  0.18925593300E+02  0.51100000000E-03 0. -1.
        -12    1    3    3    0    0  0.91039593228E+01  0.87783600319E+01 -0.90339008655E+01  0.15541976871E+02  0.00000000000E+00 0.  1.
</event>
<event>
 7    1  0.1138240E-011  0.5930195E+02  0.7816164E-02  0.1266605E+00
        -11   -1    0    0    0    0  0.00000000000E+00  0.00000000000E+00  0.45593999997E+02  0.45594000000E+02  0.51100000000E-03 0. -1.
         11   -1    0    0    0    0 -0.00000000000E+00 -0.00000000000E+00 -0.45593999997E+02  0.45594000000E+02  0.51100000000E-03 0.  1.
    9900012    2    1    2    0    0 -0.28227982158E+02  0.70016689609E+01  0.13072033022E+02  0.59301946744E+02  0.50000004954E+02 0.  0.
        -12    1    1    2    0    0  0.28227982158E+02 -0.70016689609E+01 -0.13072033022E+02  0.31886053256E+02  0.00000000000E+00 0.  1.
         11    1    3    3    0    0 -0.82839006278E+01 -0.62213732747E+01  0.41340784247E+01  0.11154330985E+02  0.51100000000E-03 0. -1.
        -11    1    3    3    0    0  0.23392661141E+01 -0.99089944968E+00 -0.13340411353E+02  0.13580155485E+02  0.51100000000E-03 0.  1.
         12    1    3    3    0    0 -0.22283347644E+02  0.14213941685E+02  0.22278365950E+02  0.34567460275E+02  0.00000000000E+00 0. -1.
</event>
<event>
 7    1  0.1138240E-011  0.5930194E+02  0.7816164E-02  0.1266605E+00
        -11   -1    0    0    0    0  0.00000000000E+00  0.00000000000E+00  0.45593999997E+02  0.45594000000E+02  0.51100000000E-03 0.  1.
         11   -1    0    0    0    0 -0.00000000000E+00 -0.00000000000E+00 -0.45593999997E+02  0.45594000000E+02  0.51100000000E-03 0. -1.
    9900012    2    1    2    0    0 -0.21566687795E+01  0.31260089435E+02  0.59056507616E+01  0.59301935291E+02  0.49999984067E+02 0.  0.
        -12    1    1    2    0    0  0.21566687795E+01 -0.31260089435E+02 -0.59056507616E+01  0.31886064709E+02  0.00000000000E+00 0.  1.
         11    1    3    3    0    0  0.54154479291E+01  0.11452514305E+02  0.73246021618E+01  0.14633419192E+02  0.51100000000E-03 0. -1.
        -11    1    3    3    0    0 -0.12183788930E+02 -0.79435582065E+00  0.13962313114E+02  0.18547827409E+02  0.51100000000E-03 0.  1.
         12    1    3    3    0    0  0.46116722210E+01  0.20601930951E+02 -0.15381264514E+02  0.26120688690E+02  0.00000000000E+00 0. -1.
</event>
<event>
 7    1  0.1138240E-011  0.5930195E+02  0.7816164E-02  0.1266605E+00
        -11   -1    0    0    0    0  0.00000000000E+00  0.00000000000E+00  0.45593999997E+02  0.45594000000E+02  0.51100000000E-03 0.  1.
         11   -1    0    0    0    0 -0.00000000000E+00 -0.00000000000E+00 -0.45593999997E+02  0.45594000000E+02  0.51100000000E-03 0. -1.
    9900012    2    1    2    0    0  0.23199782333E+02 -0.21862644457E+02  0.71777502209E+00  0.59301947815E+02  0.50000006907E+02 0.  0.
        -12    1    1    2    0    0 -0.23199782333E+02  0.21862644457E+02 -0.71777502209E+00  0.31886052185E+02  0.00000000000E+00 0.  1.
         11    1    3    3    0    0  0.11751738436E+02  0.93901619700E+01 -0.14939705425E+01  0.15116561988E+02  0.51100000000E-03 0. -1.
        -11    1    3    3    0    0 -0.78480013243E+01 -0.68145967054E+00 -0.74673214615E+00  0.79128453307E+01  0.51100000000E-03 0.  1.
         12    1    3    3    0    0  0.19296045222E+02 -0.30571346756E+02  0.29584777108E+01  0.36272540496E+02  0.00000000000E+00 0. -1.
</event>
<event>
 7    1  0.1138240E-011  0.5930195E+02  0.7816164E-02  0.1266605E+00
        -11   -1    0    0    0    0  0.00000000000E+00  0.00000000000E+00  0.45593999997E+02  0.45594000000E+02  0.51100000000E-03 0. -1.
         11   -1    0    0    0    0 -0.00000000000E+00 -0.00000000000E+00 -0.45593999997E+02  0.45594000000E+02  0.51100000000E-03 0.  1.
    9900012    2    1    2    0    0  0.27886927371E+02  0.77864717764E+01 -0.13357040701E+02  0.59301946666E+02  0.50000004811E+02 0.  0.
        -12    1    1    2    0    0 -0.27886927371E+02 -0.77864717764E+01  0.13357040701E+02  0.31886053334E+02  0.00000000000E+00 0.  1.
         11    1    3    3    0    0  0.17218402577E+02  0.10160738064E+02  0.73623049154E+01  0.21305340158E+02  0.51100000000E-03 0. -1.
        -11    1    3    3    0    0 -0.33897339139E+01 -0.13317733970E+02 -0.64991194933E+01  0.15201673873E+02  0.51100000000E-03 0.  1.
         12    1    3    3    0    0  0.14058258708E+02  0.10943467682E+02 -0.14220226123E+02  0.22794932634E+02  0.00000000000E+00 0. -1.
</event>
<event>
 7    1  0.1138240E-011  0.5930194E+02  0.7816164E-02  0.1266605E+00
        -11   -1    0    0    0    0  0.00000000000E+00  0.00000000000E+00  0.45593999997E+02  0.45594000000E+02  0.51100000000E-03 0. -1.
         11   -1    0    0    0    0 -0.00000000000E+00 -0.00000000000E+00 -0.45593999997E+02  0.45594000000E+02  0.51100000000E-03 0.  1.
    9900012    2    1    2    0    0  0.62590812523E+01  0.12874896329E+00  0.31265449171E+02  0.59301937429E+02  0.49999987966E+02 0.  0.
        -12    1    1    2    0    0 -0.62590812523E+01 -0.12874896329E+00 -0.31265449171E+02  0.31886062571E+02  0.00000000000E+00 0.  1.
         11    1    3    3    0    0  0.11193230755E+02 -0.65453430517E+01  0.31662276334E+02  0.34214465848E+02  0.51100000000E-03 0. -1.
        -11    1    3    3    0    0  0.63850802295E+01  0.33623700181E+01  0.78755787938E+01  0.10681737840E+02  0.51100000000E-03 0.  1.
         12    1    3    3    0    0 -0.11319229732E+02  0.33117219969E+01 -0.82724059572E+01  0.14405733741E+02  0.00000000000E+00 0. -1.
</event>
<event>
 7    1  0.1138240E-011  0.5930194E+02  0.7816164E-02  0.1266605E+00
        -11   -1    0    0    0    0  0.00000000000E+00  0.00000000000E+00  0.45593999997E+02  0.45594000000E+02  0.51100000000E-03 0.  1.
         11   -1    0    0    0    0 -0.00000000000E+00 -0.00000000000E+00 -0.45593999997E+02  0.45594000000E+02  0.51100000000E-03 0. -1.
    9900012    2    1    2    0    0 -0.18582424481E+02  0.21521708666E+02 -0.14430198847E+02  0.59301935924E+02  0.49999985221E+02 0.  0.
        -12    1    1    2    0    0  0.18582424481E+02 -0.21521708666E+02  0.14430198847E+02  0.31886064076E+02  0.00000000000E+00 0.  1.
         11    1    3    3    0    0  0.75363910965E+01  0.57390913289E+00 -0.93852103245E+01  0.12050258734E+02  0.51100000000E-03 0. -1.
        -11    1    3    3    0    0 -0.58833612293E+00  0.97149015317E+01 -0.14790773944E+02  0.17705717870E+02  0.51100000000E-03 0.  1.
        -12    1    3    3    0    0 -0.25530479454E+02  0.11232898001E+02  0.97457854217E+01  0.29545959320E+02  0.00000000000E+00 0.  1.
</event>
<event>
 7    1  0.1138240E-011  0.5930196E+02  0.7816164E-02  0.1266605E+00
        -11   -1    0    0    0    0  0.00000000000E+00  0.00000000000E+00  0.45593999997E+02  0.45594000000E+02  0.51100000000E-03 0. -1.
         11   -1    0    0    0    0 -0.00000000000E+00 -0.00000000000E+00 -0.45593999997E+02  0.45594000000E+02  0.51100000000E-03 0.  1.
    9900012    2    1    2    0    0  0.11102986695E+02 -0.23373453804E+02  0.18631285211E+02  0.59301961600E+02  0.50000032047E+02 0.  0.
        -12    1    1    2    0    0 -0.11102986695E+02  0.23373453804E+02 -0.18631285211E+02  0.31886038400E+02  0.00000000000E+00 0.  1.
         11    1    3    3    0    0 -0.40765569236E+01 -0.17352210220E+02  0.81304749178E+01  0.19591379189E+02  0.51100000000E-03 0. -1.
        -11    1    3    3    0    0  0.82220197705E+01 -0.20513076609E+02  0.45092502834E+01  0.22554850020E+02  0.51100000000E-03 0.  1.
         12    1    3    3    0    0  0.69575238476E+01  0.14491833025E+02  0.59915600101E+01  0.17155732391E+02  0.00000000000E+00 0. -1.
</event>
<event>
 7    1  0.1138240E-011  0.5930193E+02  0.7816164E-02  0.1266605E+00
        -11   -1    0    0    0    0  0.00000000000E+00  0.00000000000E+00  0.45593999997E+02  0.45594000000E+02  0.51100000000E-03 0.  1.
         11   -1    0    0    0    0 -0.00000000000E+00 -0.00000000000E+00 -0.45593999997E+02  0.45594000000E+02  0.51100000000E-03 0. -1.
    9900012    2    1    2    0    0 -0.17595501410E+02 -0.70733191420E+01 -0.25633728562E+02  0.59301928534E+02  0.49999971743E+02 0.  0.
        -12    1    1    2    0    0  0.17595501410E+02  0.70733191420E+01  0.25633728562E+02  0.31886071466E+02  0.00000000000E+00 0.  1.
         11    1    3    3    0    0 -0.17435620353E+02 -0.41456865965E+01 -0.34714222699E+02  0.39067439541E+02  0.51100000000E-03 0. -1.
        -11    1    3    3    0    0 -0.64462277490E+01  0.48603559080E+01  0.39596496352E+01  0.89919818304E+01  0.51100000000E-03 0.  1.
        -12    1    3    3    0    0  0.62863466917E+01 -0.77879884536E+01  0.51208445019E+01  0.11242507162E+02  0.00000000000E+00 0.  1.
</event>
<event>
 7    1  0.1138240E-011  0.5930194E+02  0.7816164E-02  0.1266605E+00
        -11   -1    0    0    0    0  0.00000000000E+00  0.00000000000E+00  0.45593999997E+02  0.45594000000E+02  0.51100000000E-03 0.  1.
         11   -1    0    0    0    0 -0.00000000000E+00 -0.00000000000E+00 -0.45593999997E+02  0.45594000000E+02  0.51100000000E-03 0. -1.
    9900012    2    1    2    0    0  0.11489458354E+02 -0.15543403972E+02 -0.25359725281E+02  0.59301941500E+02  0.49999995391E+02 0.  0.
        -12    1    1    2    0    0 -0.11489458354E+02  0.15543403972E+02  0.25359725281E+02  0.31886058500E+02  0.00000000000E+00 0.  1.
         11    1    3    3    0    0  0.48814283885E+01  0.50949708013E+01 -0.23297467031E+02  0.24342535630E+02  0.51100000000E-03 0. -1.
        -11    1    3    3    0    0  0.49111796537E+01  0.56057871010E+01 -0.42329375402E+01  0.85710148228E+01  0.51100000000E-03 0.  1.
        -12    1    3    3    0    0  0.16968503114E+01 -0.26244161875E+02  0.21706792903E+01  0.26388391047E+02  0.00000000000E+00 0.  1.
</event>
<event>
 7    1  0.1138240E-011  0.5930193E+02  0.7816164E-02  0.1266605E+00
        -11   -1    0    0    0    0  0.00000000000E+00  0.00000000000E+00  0.45593999997E+02  0.45594000000E+02  0.51100000000E-03 0.  1.
         11   -1    0    0    0    0 -0.00000000000E+00 -0.00000000000E+00 -0.45593999997E+02  0.45594000000E+02  0.51100000000E-03 0. -1.
    9900012    2    1    2    0    0 -0.10544960265E+02 -0.26348219420E+02 -0.14536037850E+02  0.59301933293E+02  0.49999980423E+02 0.  0.
        -12    1    1    2    0    0  0.10544960265E+02  0.26348219420E+02  0.14536037850E+02  0.31886066707E+02  0.00000000000E+00 0.  1.
         11    1    3    3    0    0 -0.12884905579E+02 -0.41205367779E+01 -0.13849462088E+01  0.13598444447E+02  0.51100000000E-03 0. -1.
        -11    1    3    3    0    0 -0.87626782110E+01  0.14819424847E+01  0.80686254647E+01  0.12003474502E+02  0.51100000000E-03 0.  1.
         12    1    3    3    0    0  0.11102623524E+02 -0.23709625127E+02 -0.21219717106E+02  0.33700014345E+02  0.00000000000E+00 0. -1.
</event>
<event>
 7    1  0.1138240E-011  0.5930208E+02  0.7816164E-02  0.1266604E+00
        -11   -1    0    0    0    0  0.00000000000E+00  0.00000000000E+00  0.45593999997E+02  0.45594000000E+02  0.51100000000E-03 0.  1.
         11   -1    0    0    0    0 -0.00000000000E+00 -0.00000000000E+00 -0.45593999997E+02  0.45594000000E+02  0.51100000000E-03 0. -1.
    9900012    2    1    2    0    0  0.20975574838E+02  0.26306854321E+01 -0.23870830632E+02  0.59302081467E+02  0.50000250656E+02 0.  0.
        -12    1    1    2    0    0 -0.20975574838E+02 -0.26306854321E+01  0.23870830632E+02  0.31885918533E+02  0.00000000000E+00 0.  1.
         11    1    3    3    0    0 -0.22794476720E+00  0.16003433415E+02 -0.25247059254E+01  0.16202962080E+02  0.51100000000E-03 0. -1.
        -11    1    3    3    0    0  0.80833568653E+01 -0.10248992885E+02  0.46140749852E+01  0.13844573002E+02  0.51100000000E-03 0.  1.
        -12    1    3    3    0    0  0.13120162739E+02 -0.31237550977E+01 -0.25960199692E+02  0.29254546386E+02  0.00000000000E+00 0.  1.
</event>
<event>
 7    1  0.1138240E-011  0.5930195E+02  0.7816164E-02  0.1266605E+00
        -11   -1    0    0    0    0  0.00000000000E+00  0.00000000000E+00  0.45593999997E+02  0.45594000000E+02  0.51100000000E-03 0.  1.
         11   -1    0    0    0    0 -0.00000000000E+00 -0.00000000000E+00 -0.45593999997E+02  0.45594000000E+02  0.51100000000E-03 0. -1.
    9900012    2    1    2    0    0  0.20122505565E+02  0.19123339480E+02 -0.15687675299E+02  0.59301945064E+02  0.50000001890E+02 0.  0.
        -12    1    1    2    0    0 -0.20122505565E+02 -0.19123339480E+02  0.15687675299E+02  0.31886054936E+02  0.00000000000E+00 0.  1.
         11    1    3    3    0    0  0.13579467206E+02 -0.33570164752E+01 -0.90368582145E-01  0.13988554463E+02  0.51100000000E-03 0. -1.
        -11    1    3    3    0    0  0.91624587011E+01  0.75308953149E+00  0.86692198286E+01  0.12636184788E+02  0.51100000000E-03 0.  1.
        -12    1    3    3    0    0 -0.26194203427E+01  0.21727266424E+02 -0.24266526545E+02  0.32677205813E+02  0.00000000000E+00 0.  1.
</event>
<event>
 7    1  0.1138240E-011  0.5930199E+02  0.7816164E-02  0.1266605E+00
        -11   -1    0    0    0    0  0.00000000000E+00  0.00000000000E+00  0.45593999997E+02  0.45594000000E+02  0.51100000000E-03 0.  1.
         11   -1    0    0    0    0 -0.00000000000E+00 -0.00000000000E+00 -0.45593999997E+02  0.45594000000E+02  0.51100000000E-03 0. -1.
    9900012    2    1    2    0    0  0.16238535894E+02  0.12040794499E+02 -0.24658604276E+02  0.59301991391E+02  0.50000086379E+02 0.  0.
        -12    1    1    2    0    0 -0.16238535894E+02 -0.12040794499E+02  0.24658604276E+02  0.31886008609E+02  0.00000000000E+00 0.  1.
         11    1    3    3    0    0  0.82301916081E+01  0.83655436299E+01  0.17833254192E+01  0.11870072617E+02  0.51100000000E-03 0. -1.
        -11    1    3    3    0    0 -0.15575144960E+01 -0.18920359282E+01  0.95069858335E+01  0.98177610104E+01  0.51100000000E-03 0.  1.
        -12    1    3    3    0    0  0.95658587820E+01  0.55672867975E+01 -0.35948915529E+02  0.37614157763E+02  0.00000000000E+00 0.  1.
</event>
<event>
 7    1  0.1138240E-011  0.5930202E+02  0.7816164E-02  0.1266605E+00
        -11   -1    0    0    0    0  0.00000000000E+00  0.00000000000E+00  0.45593999997E+02  0.45594000000E+02  0.51100000000E-03 0.  1.
         11   -1    0    0    0    0 -0.00000000000E+00 -0.00000000000E+00 -0.45593999997E+02  0.45594000000E+02  0.51100000000E-03 0. -1.
    9900012    2    1    2    0    0 -0.10328018671E+02  0.29293373147E+02  0.72073700054E+01  0.59302017776E+02  0.50000134499E+02 0.  0.
        -12    1    1    2    0    0  0.10328018671E+02 -0.29293373147E+02 -0.72073700054E+01  0.31885982224E+02  0.00000000000E+00 0.  1.
         11    1    3    3    0    0  0.52180873458E+01 -0.48395478323E+00  0.25085548507E+01  0.58099479757E+01  0.51100000000E-03 0. -1.
        -11    1    3    3    0    0 -0.67200096370E+01 -0.69717579979E+01  0.11560530531E+02  0.15080112915E+02  0.51100000000E-03 0.  1.
         12    1    3    3    0    0 -0.88260963796E+01  0.36749085928E+02 -0.68617153762E+01  0.38411956885E+02  0.00000000000E+00 0. -1.
</event>
<event>
 7    1  0.1138240E-011  0.5930192E+02  0.7816164E-02  0.1266605E+00
        -11   -1    0    0    0    0  0.00000000000E+00  0.00000000000E+00  0.45593999997E+02  0.45594000000E+02  0.51100000000E-03 0. -1.
         11   -1    0    0    0    0 -0.00000000000E+00 -0.00000000000E+00 -0.45593999997E+02  0.45594000000E+02  0.51100000000E-03 0.  1.
    9900012    2    1    2    0    0 -0.18795348487E+02  0.24824973853E+02  0.68686095871E+01  0.59301917625E+02  0.49999951848E+02 0.  0.
        -12    1    1    2    0    0  0.18795348487E+02 -0.24824973853E+02 -0.68686095871E+01  0.31886082375E+02  0.00000000000E+00 0.  1.
         11    1    3    3    0    0  0.80596620763E+01  0.10572622519E+02  0.36689443015E+01  0.13791288999E+02  0.51100000000E-03 0. -1.
        -11    1    3    3    0    0 -0.26127210332E+01  0.27990144896E+01 -0.13426841296E+02  0.13962122359E+02  0.51100000000E-03 0.  1.
        -12    1    3    3    0    0 -0.24242289530E+02  0.11453336845E+02  0.16626506582E+02  0.31548506267E+02  0.00000000000E+00 0.  1.
</event>
<event>
 7    1  0.1138240E-011  0.5930194E+02  0.7816164E-02  0.1266605E+00
        -11   -1    0    0    0    0  0.00000000000E+00  0.00000000000E+00  0.45593999997E+02  0.45594000000E+02  0.51100000000E-03 0.  1.
         11   -1    0    0    0    0 -0.00000000000E+00 -0.00000000000E+00 -0.45593999997E+02  0.45594000000E+02  0.51100000000E-03 0. -1.
    9900012    2    1    2    0    0  0.96474587769E+01 -0.13360530455E+02 -0.27297320455E+02  0.59301938172E+02  0.49999989321E+02 0.  0.
        -12    1    1    2    0    0 -0.96474587769E+01  0.13360530455E+02  0.27297320455E+02  0.31886061828E+02  0.00000000000E+00 0.  1.
         11    1    3    3    0    0  0.72693126109E+00  0.14375381748E+01 -0.82156149443E+01  0.83720531673E+01  0.51100000000E-03 0. -1.
        -11    1    3    3    0    0  0.12449893414E+02 -0.40527121486E+01 -0.31512264190E+02  0.34123996197E+02  0.51100000000E-03 0.  1.
        -12    1    3    3    0    0 -0.35293658983E+01 -0.10745356481E+02  0.12430558680E+02  0.16805888808E+02  0.00000000000E+00 0.  1.
</event>
<event>
 7    1  0.1138240E-011  0.5930207E+02  0.7816164E-02  0.1266604E+00
        -11   -1    0    0    0    0  0.00000000000E+00  0.00000000000E+00  0.45593999997E+02  0.45594000000E+02  0.51100000000E-03 0.  1.
         11   -1    0    0    0    0 -0.00000000000E+00 -0.00000000000E+00 -0.45593999997E+02  0.45594000000E+02  0.51100000000E-03 0. -1.
    9900012    2    1    2    0    0  0.13457642556E+02  0.23763125200E+02 -0.16459600545E+02  0.59302067168E+02  0.50000224578E+02 0.  0.
        -12    1    1    2    0    0 -0.13457642556E+02 -0.23763125200E+02  0.16459600545E+02  0.31885932832E+02  0.00000000000E+00 0.  1.
         11    1    3    3    0    0  0.80100785886E+01 -0.64042104166E+01 -0.38773482515E+01  0.10963991052E+02  0.51100000000E-03 0. -1.
        -11    1    3    3    0    0  0.16300707639E+02  0.11122282857E+02  0.48618416918E+01  0.20323773035E+02  0.51100000000E-03 0.  1.
         12    1    3    3    0    0 -0.10853143671E+02  0.19045052760E+02 -0.17444093986E+02  0.28014303081E+02  0.00000000000E+00 0. -1.
</event>
<event>
 7    1  0.1138240E-011  0.5930197E+02  0.7816164E-02  0.1266605E+00
        -11   -1    0    0    0    0  0.00000000000E+00  0.00000000000E+00  0.45593999997E+02  0.45594000000E+02  0.51100000000E-03 0.  1.
         11   -1    0    0    0    0 -0.00000000000E+00 -0.00000000000E+00 -0.45593999997E+02  0.45594000000E+02  0.51100000000E-03 0. -1.
    9900012    2    1    2    0    0 -0.15713872962E+02  0.26729987471E+02  0.74364430650E+01  0.59301972980E+02  0.50000052801E+02 0.  0.
        -12    1    1    2    0    0  0.15713872962E+02 -0.26729987471E+02 -0.74364430650E+01  0.31886027020E+02  0.00000000000E+00 0.  1.
         11    1    3    3    0    0 -0.24709012964E+01  0.10170943365E+02 -0.13506140226E+02  0.17087108187E+02  0.51100000000E-03 0. -1.
        -11    1    3    3    0    0  0.53817977767E+01  0.12650154708E+02  0.18469694099E+02  0.23024329780E+02  0.51100000000E-03 0.  1.
        -12    1    3    3    0    0 -0.18624769442E+02  0.39088893987E+01  0.24728891916E+01  0.19190535012E+02  0.00000000000E+00 0.  1.
</event>
<event>
 7    1  0.1138240E-011  0.5930193E+02  0.7816164E-02  0.1266605E+00
        -11   -1    0    0    0    0  0.00000000000E+00  0.00000000000E+00  0.45593999997E+02  0.45594000000E+02  0.51100000000E-03 0.  1.
         11   -1    0    0    0    0 -0.00000000000E+00 -0.00000000000E+00 -0.45593999997E+02  0.45594000000E+02  0.51100000000E-03 0. -1.
    9900012    2    1    2    0    0  0.24428625910E+02 -0.17826639606E+02 -0.10108146005E+02  0.59301930014E+02  0.49999974442E+02 0.  0.
        -12    1    1    2    0    0 -0.24428625910E+02  0.17826639606E+02  0.10108146005E+02  0.31886069986E+02  0.00000000000E+00 0.  1.
         11    1    3    3    0    0  0.12518146951E+02 -0.14193890712E+02  0.40263870868E+01  0.19348961984E+02  0.51100000000E-03 0. -1.
        -11    1    3    3    0    0  0.92701109468E+01  0.51871061219E+01  0.97105840763E+01  0.14392236458E+02  0.51100000000E-03 0.  1.
         12    1    3    3    0    0  0.26403680123E+01 -0.88198550159E+01 -0.23845117168E+02  0.25560731572E+02  0.00000000000E+00 0. -1.
</event>
<event>
 7    1  0.1138240E-011  0.5930190E+02  0.7816164E-02  0.1266605E+00
        -11   -1    0    0    0    0  0.00000000000E+00  0.00000000000E+00  0.45593999997E+02  0.45594000000E+02  0.51100000000E-03 0.  1.
         11   -1    0    0    0    0 -0.00000000000E+00 -0.00000000000E+00 -0.45593999997E+02  0.45594000000E+02  0.51100000000E-03 0. -1.
    9900012    2    1    2    0    0 -0.24993224381E+02 -0.10476581092E+02 -0.16801884544E+02  0.59301900513E+02  0.49999920639E+02 0.  0.
        -12    1    1    2    0    0  0.24993224381E+02  0.10476581092E+02  0.16801884544E+02  0.31886099487E+02  0.00000000000E+00 0.  1.
         11    1    3    3    0    0 -0.94779702859E+01 -0.13997563908E+02 -0.16167255792E+02  0.23391106776E+02  0.51100000000E-03 0. -1.
        -11    1    3    3    0    0 -0.20816637836E+02 -0.49256274548E+01 -0.86921281586E+01  0.23089982867E+02  0.51100000000E-03 0.  1.
        -12    1    3    3    0    0  0.53013837410E+01  0.84466102717E+01  0.80574994071E+01  0.12820810869E+02  0.00000000000E+00 0.  1.
</event>
<event>
 7    1  0.1138240E-011  0.5930195E+02  0.7816164E-02  0.1266605E+00
        -11   -1    0    0    0    0  0.00000000000E+00  0.00000000000E+00  0.45593999997E+02  0.45594000000E+02  0.51100000000E-03 0. -1.
         11   -1    0    0    0    0 -0.00000000000E+00 -0.00000000000E+00 -0.45593999997E+02  0.45594000000E+02  0.51100000000E-03 0.  1.
    9900012    2    1    2    0    0 -0.17213043581E+01 -0.75312395400E+01  0.30936026610E+02  0.59301949757E+02  0.50000010448E+02 0.  0.
        -12    1    1    2    0    0  0.17213043581E+01  0.75312395400E+01 -0.30936026610E+02  0.31886050243E+02  0.00000000000E+00 0.  1.
         11    1    3    3    0    0 -0.31547454803E+00  0.57134165882E+01 -0.18975292449E+01  0.60285380315E+01  0.51100000000E-03 0. -1.
        -11    1    3    3    0    0  0.81122662639E+01 -0.54198300092E+01 -0.67190109437E+01  0.11846034340E+02  0.51100000000E-03 0.  1.
         12    1    3    3    0    0 -0.95180960740E+01 -0.78248261191E+01  0.39552566798E+02  0.41427377385E+02  0.00000000000E+00 0. -1.
</event>
<event>
 7    1  0.1138240E-011  0.5930194E+02  0.7816164E-02  0.1266605E+00
        -11   -1    0    0    0    0  0.00000000000E+00  0.00000000000E+00  0.45593999997E+02  0.45594000000E+02  0.51100000000E-03 0.  1.
         11   -1    0    0    0    0 -0.00000000000E+00 -0.00000000000E+00 -0.45593999997E+02  0.45594000000E+02  0.51100000000E-03 0. -1.
    9900012    2    1    2    0    0  0.22884538482E+02 -0.17917725192E+02 -0.13113874734E+02  0.59301942104E+02  0.49999996492E+02 0.  0.
        -12    1    1    2    0    0 -0.22884538482E+02  0.17917725192E+02  0.13113874734E+02  0.31886057896E+02  0.00000000000E+00 0.  1.
         11    1    3    3    0    0 -0.14754815498E+01 -0.15551101359E+02 -0.74529305364E+01  0.17307800933E+02  0.51100000000E-03 0. -1.
        -11    1    3    3    0    0  0.83295460400E+01  0.15084642964E+01 -0.18988556638E+02  0.20789951544E+02  0.51100000000E-03 0.  1.
        -12    1    3    3    0    0  0.16030473992E+02 -0.38750881292E+01  0.13327612440E+02  0.21204189628E+02  0.00000000000E+00 0.  1.
</event>
<event>
 7    1  0.1138240E-011  0.5930200E+02  0.7816164E-02  0.1266605E+00
        -11   -1    0    0    0    0  0.00000000000E+00  0.00000000000E+00  0.45593999997E+02  0.45594000000E+02  0.51100000000E-03 0.  1.
         11   -1    0    0    0    0 -0.00000000000E+00 -0.00000000000E+00 -0.45593999997E+02  0.45594000000E+02  0.51100000000E-03 0. -1.
    9900012    2    1    2    0    0  0.12464522019E+02 -0.23074084995E+01 -0.29257962233E+02  0.59302003118E+02  0.50000107766E+02 0.  0.
        -12    1    1    2    0    0 -0.12464522019E+02  0.23074084995E+01  0.29257962233E+02  0.31885996882E+02  0.00000000000E+00 0.  1.
         11    1    3    3    0    0  0.84881544829E+01 -0.84148785962E+01 -0.18726800182E+02  0.22216030105E+02  0.51100000000E-03 0. -1.
        -11    1    3    3    0    0  0.16493989464E+02  0.96727669880E+01 -0.13902545925E+02  0.23640957956E+02  0.51100000000E-03 0.  1.
         12    1    3    3    0    0 -0.12517621928E+02 -0.35652968912E+01  0.33713838732E+01  0.13445015056E+02  0.00000000000E+00 0. -1.
</event>
<event>
 7    1  0.1138240E-011  0.5930195E+02  0.7816164E-02  0.1266605E+00
        -11   -1    0    0    0    0  0.00000000000E+00  0.00000000000E+00  0.45593999997E+02  0.45594000000E+02  0.51100000000E-03 0. -1.
         11   -1    0    0    0    0 -0.00000000000E+00 -0.00000000000E+00 -0.45593999997E+02  0.45594000000E+02  0.51100000000E-03 0.  1.
    9900012    2    1    2    0    0  0.10584581248E+02  0.12714853211E+02 -0.27258378936E+02  0.59301951725E+02  0.50000014038E+02 0.  0.
        -12    1    1    2    0    0 -0.10584581248E+02 -0.12714853211E+02  0.27258378936E+02  0.31886048275E+02  0.00000000000E+00 0.  1.
         11    1    3    3    0    0 -0.19664470592E+01  0.17842849465E+02 -0.19459552243E+01  0.18056049764E+02  0.51100000000E-03 0. -1.
        -11    1    3    3    0    0  0.56445578593E+01  0.12159121620E+02 -0.14371548286E+02  0.19653159349E+02  0.51100000000E-03 0.  1.
        -12    1    3    3    0    0  0.69064704477E+01 -0.17287117874E+02 -0.10940875426E+02  0.21592742613E+02  0.00000000000E+00 0.  1.
</event>
<event>
 7    1  0.1138240E-011  0.5930194E+02  0.7816164E-02  0.1266605E+00
        -11   -1    0    0    0    0  0.00000000000E+00  0.00000000000E+00  0.45593999997E+02  0.45594000000E+02  0.51100000000E-03 0. -1.
         11   -1    0    0    0    0 -0.00000000000E+00 -0.00000000000E+00 -0.45593999997E+02  0.45594000000E+02  0.51100000000E-03 0.  1.
    9900012    2    1    2    0    0  0.10562633460E+02  0.28922212913E+02 -0.82859483839E+01  0.59301944019E+02  0.49999999984E+02 0.  0.
        -12    1    1    2    0    0 -0.10562633460E+02 -0.28922212913E+02  0.82859483839E+01  0.31886055981E+02  0.00000000000E+00 0.  1.
         11    1    3    3    0    0  0.12450757854E+02  0.44131195411E+01  0.48828114944E+01  0.14083282415E+02  0.51100000000E-03 0. -1.
        -11    1    3    3    0    0  0.16594084328E+02  0.13943403407E+02 -0.92788891648E+01  0.23577105795E+02  0.51100000000E-03 0.  1.
        -12    1    3    3    0    0 -0.18482208722E+02  0.10565689965E+02 -0.38898707135E+01  0.21641555810E+02  0.00000000000E+00 0.  1.
</event>
<event>
 7    1  0.1138240E-011  0.5930218E+02  0.7816164E-02  0.1266604E+00
        -11   -1    0    0    0    0  0.00000000000E+00  0.00000000000E+00  0.45593999997E+02  0.45594000000E+02  0.51100000000E-03 0.  1.
         11   -1    0    0    0    0 -0.00000000000E+00 -0.00000000000E+00 -0.45593999997E+02  0.45594000000E+02  0.51100000000E-03 0. -1.
    9900012    2    1    2    0    0  0.47898276385E+01  0.31354824781E+02 -0.32615938410E+01  0.59302180577E+02  0.50000431408E+02 0.  0.
        -12    1    1    2    0    0 -0.47898276385E+01 -0.31354824781E+02  0.32615938410E+01  0.31885819423E+02  0.00000000000E+00 0.  1.
         11    1    3    3    0    0  0.38470589728E+01  0.22424486945E+02  0.17808244715E+02  0.28892750952E+02  0.51100000000E-03 0.  1.
        -11    1    3    3    0    0 -0.28401222109E+01 -0.49611339782E+01 -0.11496213903E+01  0.58310182751E+01  0.51100000000E-03 0. -1.
        -12    1    3    3    0    0  0.37828908765E+01  0.13891471815E+02 -0.19920217166E+02  0.24578411350E+02  0.00000000000E+00 0.  1.
</event>
<event>
 7    1  0.1138240E-011  0.5930198E+02  0.7816164E-02  0.1266605E+00
        -11   -1    0    0    0    0  0.00000000000E+00  0.00000000000E+00  0.45593999997E+02  0.45594000000E+02  0.51100000000E-03 0.  1.
         11   -1    0    0    0    0 -0.00000000000E+00 -0.00000000000E+00 -0.45593999997E+02  0.45594000000E+02  0.51100000000E-03 0. -1.
    9900012    2    1    2    0    0  0.19859418807E+02  0.23236281664E+02 -0.90772666287E+01  0.59301983153E+02  0.50000071355E+02 0.  0.
        -12    1    1    2    0    0 -0.19859418807E+02 -0.23236281664E+02  0.90772666287E+01  0.31886016847E+02  0.00000000000E+00 0.  1.
         11    1    3    3    0    0  0.22495567250E+02  0.66225438108E+01 -0.14565670305E+02  0.27605567991E+02  0.51100000000E-03 0. -1.
        -11    1    3    3    0    0 -0.85214069885E+00  0.19047847436E+02 -0.58651641667E+01  0.19948603627E+02  0.51100000000E-03 0.  1.
         12    1    3    3    0    0 -0.17840077441E+01 -0.24341095827E+01  0.11353567843E+02  0.11747811535E+02  0.00000000000E+00 0. -1.
</event>
<event>
 7    1  0.1138240E-011  0.5930195E+02  0.7816164E-02  0.1266605E+00
        -11   -1    0    0    0    0  0.00000000000E+00  0.00000000000E+00  0.45593999997E+02  0.45594000000E+02  0.51100000000E-03 0.  1.
         11   -1    0    0    0    0 -0.00000000000E+00 -0.00000000000E+00 -0.45593999997E+02  0.45594000000E+02  0.51100000000E-03 0. -1.
    9900012    2    1    2    0    0  0.26988468925E+02 -0.38937085271E+01 -0.16528214740E+02  0.59301948135E+02  0.50000007492E+02 0.  0.
        -12    1    1    2    0    0 -0.26988468925E+02  0.38937085271E+01  0.16528214740E+02  0.31886051865E+02  0.00000000000E+00 0.  1.
         11    1    3    3    0    0 -0.46148502019E+01  0.20126962681E+01  0.57792124585E+01  0.76646647386E+01  0.51100000000E-03 0.  1.
        -11    1    3    3    0    0  0.14168784249E+02 -0.14512241423E+02  0.21473178809E+01  0.20395356642E+02  0.51100000000E-03 0. -1.
        -12    1    3    3    0    0  0.17434534877E+02  0.86058366274E+01 -0.24454745080E+02  0.31241926755E+02  0.00000000000E+00 0.  1.
</event>
<event>
 7    1  0.1138240E-011  0.5930191E+02  0.7816164E-02  0.1266605E+00
        -11   -1    0    0    0    0  0.00000000000E+00  0.00000000000E+00  0.45593999997E+02  0.45594000000E+02  0.51100000000E-03 0.  1.
         11   -1    0    0    0    0 -0.00000000000E+00 -0.00000000000E+00 -0.45593999997E+02  0.45594000000E+02  0.51100000000E-03 0. -1.
    9900012    2    1    2    0    0  0.29398209698E+02 -0.60398875480E+01 -0.10769752179E+02  0.59301913112E+02  0.49999943617E+02 0.  0.
        -12    1    1    2    0    0 -0.29398209698E+02  0.60398875480E+01  0.10769752179E+02  0.31886086888E+02  0.00000000000E+00 0.  1.
         11    1    3    3    0    0  0.16620904974E+02  0.20363356262E+01  0.71079077707E+01  0.18191302814E+02  0.51100000000E-03 0. -1.
        -11    1    3    3    0    0  0.11893084084E+02 -0.92675402309E+01  0.66921931671E+01  0.16496005595E+02  0.51100000000E-03 0.  1.
         12    1    3    3    0    0  0.88422064011E+00  0.11913170567E+01 -0.24569853116E+02  0.24614604702E+02  0.00000000000E+00 0. -1.
</event>
<event>
 7    1  0.1138240E-011  0.5930197E+02  0.7816164E-02  0.1266605E+00
        -11   -1    0    0    0    0  0.00000000000E+00  0.00000000000E+00  0.45593999997E+02  0.45594000000E+02  0.51100000000E-03 0.  1.
         11   -1    0    0    0    0 -0.00000000000E+00 -0.00000000000E+00 -0.45593999997E+02  0.45594000000E+02  0.51100000000E-03 0. -1.
    9900012    2    1    2    0    0 -0.21971127803E+02 -0.21716548527E+02 -0.78980954177E+01  0.59301970958E+02  0.50000049115E+02 0.  0.
        -12    1    1    2    0    0  0.21971127803E+02  0.21716548527E+02  0.78980954177E+01  0.31886029042E+02  0.00000000000E+00 0.  1.
         11    1    3    3    0    0 -0.11492106498E+00  0.49596105436E+01 -0.11090251571E+02  0.12149264330E+02  0.51100000000E-03 0.  1.
        -11    1    3    3    0    0  0.10531739547E+01 -0.22096666804E+02 -0.44638582511E+01  0.22567629250E+02  0.51100000000E-03 0. -1.
         12    1    3    3    0    0 -0.22909380692E+02 -0.45794922665E+01  0.76560144044E+01  0.24585077378E+02  0.00000000000E+00 0. -1.
</event>
<event>
 7    1  0.1138240E-011  0.5930195E+02  0.7816164E-02  0.1266605E+00
        -11   -1    0    0    0    0  0.00000000000E+00  0.00000000000E+00  0.45593999997E+02  0.45594000000E+02  0.51100000000E-03 0. -1.
         11   -1    0    0    0    0 -0.00000000000E+00 -0.00000000000E+00 -0.45593999997E+02  0.45594000000E+02  0.51100000000E-03 0.  1.
    9900012    2    1    2    0    0  0.20258227287E+02  0.11531681383E+02  0.21756483867E+02  0.59301952290E+02  0.50000015068E+02 0.  0.
        -12    1    1    2    0    0 -0.20258227287E+02 -0.11531681383E+02 -0.21756483867E+02  0.31886047710E+02  0.00000000000E+00 0.  1.
         11    1    3    3    0    0  0.21007548378E+02 -0.56721688051E+01  0.20001044186E+02  0.29555580803E+02  0.51100000000E-03 0. -1.
        -11    1    3    3    0    0 -0.74313404294E+01 -0.30755913471E+01  0.23732911953E+01  0.83854990352E+01  0.51100000000E-03 0.  1.
        -12    1    3    3    0    0  0.66820193386E+01  0.20279441535E+02 -0.61785151382E+00  0.21360872452E+02  0.00000000000E+00 0.  1.
</event>
<event>
 7    1  0.1138240E-011  0.5930196E+02  0.7816164E-02  0.1266605E+00
        -11   -1    0    0    0    0  0.00000000000E+00  0.00000000000E+00  0.45593999997E+02  0.45594000000E+02  0.51100000000E-03 0. -1.
         11   -1    0    0    0    0 -0.00000000000E+00 -0.00000000000E+00 -0.45593999997E+02  0.45594000000E+02  0.51100000000E-03 0.  1.
    9900012    2    1    2    0    0  0.13986819194E+02 -0.18829269708E+02  0.21599703430E+02  0.59301957643E+02  0.50000024831E+02 0.  0.
        -12    1    1    2    0    0 -0.13986819194E+02  0.18829269708E+02 -0.21599703430E+02  0.31886042357E+02  0.00000000000E+00 0.  1.
         11    1    3    3    0    0  0.47140189129E+01 -0.13534981068E+02  0.22608504411E+01  0.14509622042E+02  0.51100000000E-03 0. -1.
        -11    1    3    3    0    0 -0.21025093180E+01  0.33173545151E+01 -0.10775628491E+02  0.11469069538E+02  0.51100000000E-03 0.  1.
         12    1    3    3    0    0  0.11375309599E+02 -0.86116431560E+01  0.30114481481E+02  0.33323266064E+02  0.00000000000E+00 0. -1.
</event>
<event>
 7    1  0.1138240E-011  0.5930195E+02  0.7816164E-02  0.1266605E+00
        -11   -1    0    0    0    0  0.00000000000E+00  0.00000000000E+00  0.45593999997E+02  0.45594000000E+02  0.51100000000E-03 0. -1.
         11   -1    0    0    0    0 -0.00000000000E+00 -0.00000000000E+00 -0.45593999997E+02  0.45594000000E+02  0.51100000000E-03 0.  1.
    9900012    2    1    2    0    0 -0.20897645493E+02  0.20710800568E+02  0.12291112100E+02  0.59301948442E+02  0.50000008050E+02 0.  0.
        -12    1    1    2    0    0  0.20897645493E+02 -0.20710800568E+02 -0.12291112100E+02  0.31886051558E+02  0.00000000000E+00 0.  1.
         11    1    3    3    0    0 -0.17671987183E+02  0.54860716083E+01  0.19264352625E+02  0.26711634076E+02  0.51100000000E-03 0. -1.
        -11    1    3    3    0    0  0.29231624594E+00  0.20636571219E+02  0.28517119317E+01  0.20834725381E+02  0.51100000000E-03 0.  1.
         12    1    3    3    0    0 -0.35179745554E+01 -0.54118422594E+01 -0.98249524565E+01  0.11755588985E+02  0.00000000000E+00 0. -1.
</event>
<event>
 7    1  0.1138240E-011  0.5930195E+02  0.7816164E-02  0.1266605E+00
        -11   -1    0    0    0    0  0.00000000000E+00  0.00000000000E+00  0.45593999997E+02  0.45594000000E+02  0.51100000000E-03 0.  1.
         11   -1    0    0    0    0 -0.00000000000E+00 -0.00000000000E+00 -0.45593999997E+02  0.45594000000E+02  0.51100000000E-03 0. -1.
    9900012    2    1    2    0    0  0.10638965568E+02  0.21828906551E+02 -0.20664737996E+02  0.59301950605E+02  0.50000011995E+02 0.  0.
        -12    1    1    2    0    0 -0.10638965568E+02 -0.21828906551E+02  0.20664737996E+02  0.31886049395E+02  0.00000000000E+00 0.  1.
         11    1    3    3    0    0  0.12236409609E+02  0.18385709937E+02 -0.67597027597E+01  0.23096701748E+02  0.51100000000E-03 0. -1.
        -11    1    3    3    0    0  0.75730359824E+01  0.40399384306E+01 -0.22214911252E+02  0.23815420607E+02  0.51100000000E-03 0.  1.
        -12    1    3    3    0    0 -0.91704800232E+01 -0.59674181608E+00  0.83098760155E+01  0.12389828249E+02  0.00000000000E+00 0.  1.
</event>
<event>
 7    1  0.1138240E-011  0.5930194E+02  0.7816164E-02  0.1266605E+00
        -11   -1    0    0    0    0  0.00000000000E+00  0.00000000000E+00  0.45593999997E+02  0.45594000000E+02  0.51100000000E-03 0.  1.
         11   -1    0    0    0    0 -0.00000000000E+00 -0.00000000000E+00 -0.45593999997E+02  0.45594000000E+02  0.51100000000E-03 0. -1.
    9900012    2    1    2    0    0 -0.27668029465E+02  0.46190546873E+01 -0.15161301011E+02  0.59301943972E+02  0.49999999898E+02 0.  0.
        -12    1    1    2    0    0  0.27668029465E+02 -0.46190546873E+01  0.15161301011E+02  0.31886056028E+02  0.00000000000E+00 0.  1.
         11    1    3    3    0    0  0.39860936395E+01 -0.76453469117E+01 -0.18305900589E+01  0.88142686666E+01  0.51100000000E-03 0. -1.
        -11    1    3    3    0    0 -0.26536977246E+02 -0.77136312742E+01 -0.42748412470E+01  0.27964004305E+02  0.51100000000E-03 0.  1.
         12    1    3    3    0    0 -0.51171458587E+01  0.19978032873E+02 -0.90558697049E+01  0.22523671000E+02  0.00000000000E+00 0. -1.
</event>
<event>
 7    1  0.1138240E-011  0.5930216E+02  0.7816164E-02  0.1266604E+00
        -11   -1    0    0    0    0  0.00000000000E+00  0.00000000000E+00  0.45593999997E+02  0.45594000000E+02  0.51100000000E-03 0. -1.
         11   -1    0    0    0    0 -0.00000000000E+00 -0.00000000000E+00 -0.45593999997E+02  0.45594000000E+02  0.51100000000E-03 0.  1.
    9900012    2    1    2    0    0  0.19012156762E+02  0.17778591700E+02 -0.18416472017E+02  0.59302158798E+02  0.50000391689E+02 0.  0.
        -12    1    1    2    0    0 -0.19012156762E+02 -0.17778591700E+02  0.18416472017E+02  0.31885841202E+02  0.00000000000E+00 0.  1.
         11    1    3    3    0    0  0.23946421591E+02  0.10110609042E+02  0.62725156634E+01  0.26739483451E+02  0.51100000000E-03 0. -1.
        -11    1    3    3    0    0  0.52912878706E+01 -0.32678039536E+01 -0.63456272711E+01  0.88850017295E+01  0.51100000000E-03 0.  1.
        -12    1    3    3    0    0 -0.10225552700E+02  0.10935786611E+02 -0.18343360410E+02  0.23677673618E+02  0.00000000000E+00 0.  1.
</event>
<event>
 7    1  0.1138240E-011  0.5930194E+02  0.7816164E-02  0.1266605E+00
        -11   -1    0    0    0    0  0.00000000000E+00  0.00000000000E+00  0.45593999997E+02  0.45594000000E+02  0.51100000000E-03 0. -1.
         11   -1    0    0    0    0 -0.00000000000E+00 -0.00000000000E+00 -0.45593999997E+02  0.45594000000E+02  0.51100000000E-03 0.  1.
    9900012    2    1    2    0    0 -0.99293452225E+01  0.28825878887E+02  0.93379829231E+01  0.59301935407E+02  0.49999984277E+02 0.  0.
        -12    1    1    2    0    0  0.99293452225E+01 -0.28825878887E+02 -0.93379829231E+01  0.31886064593E+02  0.00000000000E+00 0.  1.
         11    1    3    3    0    0  0.13644088626E+02  0.11142578436E+02  0.15978850436E+02  0.23783226655E+02  0.51100000000E-03 0. -1.
        -11    1    3    3    0    0 -0.92520621055E+01  0.21851349711E+01  0.56887557640E+01  0.11078691730E+02  0.51100000000E-03 0.  1.
         12    1    3    3    0    0 -0.14321371743E+02  0.15498165480E+02 -0.12329623277E+02  0.24440017021E+02  0.00000000000E+00 0. -1.
</event>
<event>
 7    1  0.1138240E-011  0.5930195E+02  0.7816164E-02  0.1266605E+00
        -11   -1    0    0    0    0  0.00000000000E+00  0.00000000000E+00  0.45593999997E+02  0.45594000000E+02  0.51100000000E-03 0.  1.
         11   -1    0    0    0    0 -0.00000000000E+00 -0.00000000000E+00 -0.45593999997E+02  0.45594000000E+02  0.51100000000E-03 0. -1.
    9900012    2    1    2    0    0 -0.21442854532E+02 -0.11537119661E+02 -0.20586867038E+02  0.59301949210E+02  0.50000009451E+02 0.  0.
        -12    1    1    2    0    0  0.21442854532E+02  0.11537119661E+02  0.20586867038E+02  0.31886050790E+02  0.00000000000E+00 0.  1.
         11    1    3    3    0    0  0.88946797314E+01 -0.15954572122E+02  0.35172511116E+01  0.18602009428E+02  0.51100000000E-03 0. -1.
        -11    1    3    3    0    0 -0.12232102284E+00  0.25162555460E+01 -0.18082424703E+01  0.31010071748E+01  0.51100000000E-03 0.  1.
         12    1    3    3    0    0 -0.30215213240E+02  0.19011969143E+01 -0.22295875679E+02  0.37598932607E+02  0.00000000000E+00 0. -1.
</event>
<event>
 7    1  0.1138240E-011  0.5930199E+02  0.7816164E-02  0.1266605E+00
        -11   -1    0    0    0    0  0.00000000000E+00  0.00000000000E+00  0.45593999997E+02  0.45594000000E+02  0.51100000000E-03 0. -1.
         11   -1    0    0    0    0 -0.00000000000E+00 -0.00000000000E+00 -0.45593999997E+02  0.45594000000E+02  0.51100000000E-03 0.  1.
    9900012    2    1    2    0    0  0.19102261511E+00  0.94355450219E+01  0.30457372804E+02  0.59301991193E+02  0.50000086018E+02 0.  0.
        -12    1    1    2    0    0 -0.19102261511E+00 -0.94355450219E+01 -0.30457372804E+02  0.31886008807E+02  0.00000000000E+00 0.  1.
         11    1    3    3    0    0  0.71652877541E+01  0.80403322277E+01  0.10081136713E+02  0.14751867970E+02  0.51100000000E-03 0. -1.
        -11    1    3    3    0    0  0.10293000668E+02 -0.12509011267E+02  0.14185427333E+02  0.21532477203E+02  0.51100000000E-03 0.  1.
        -12    1    3    3    0    0 -0.17267265807E+02  0.13904224061E+02  0.61908087585E+01  0.23017646020E+02  0.00000000000E+00 0.  1.
</event>
<event>
 7    1  0.1138240E-011  0.5930194E+02  0.7816164E-02  0.1266605E+00
        -11   -1    0    0    0    0  0.00000000000E+00  0.00000000000E+00  0.45593999997E+02  0.45594000000E+02  0.51100000000E-03 0.  1.
         11   -1    0    0    0    0 -0.00000000000E+00 -0.00000000000E+00 -0.45593999997E+02  0.45594000000E+02  0.51100000000E-03 0. -1.
    9900012    2    1    2    0    0 -0.76828491205E+01  0.11545188696E+02 -0.28712425188E+02  0.59301938581E+02  0.49999990066E+02 0.  0.
        -12    1    1    2    0    0  0.76828491205E+01 -0.11545188696E+02  0.28712425188E+02  0.31886061419E+02  0.00000000000E+00 0.  1.
         11    1    3    3    0    0 -0.37982188727E+01  0.27987743860E+02 -0.10654645749E+02  0.30187112305E+02  0.51100000000E-03 0. -1.
        -11    1    3    3    0    0 -0.79736662714E+01 -0.25750697731E+01 -0.67812308017E+01  0.10779398387E+02  0.51100000000E-03 0.  1.
        -12    1    3    3    0    0  0.40890360236E+01 -0.13867485391E+02 -0.11276548638E+02  0.18335427889E+02  0.00000000000E+00 0.  1.
</event>
<event>
 7    1  0.1138240E-011  0.5930195E+02  0.7816164E-02  0.1266605E+00
        -11   -1    0    0    0    0  0.00000000000E+00  0.00000000000E+00  0.45593999997E+02  0.45594000000E+02  0.51100000000E-03 0. -1.
         11   -1    0    0    0    0 -0.00000000000E+00 -0.00000000000E+00 -0.45593999997E+02  0.45594000000E+02  0.51100000000E-03 0.  1.
    9900012    2    1    2    0    0  0.19838028461E+01 -0.20369010583E+02  0.24451749090E+02  0.59301951336E+02  0.50000013328E+02 0.  0.
        -12    1    1    2    0    0 -0.19838028461E+01  0.20369010583E+02 -0.24451749090E+02  0.31886048664E+02  0.00000000000E+00 0.  1.
         11    1    3    3    0    0 -0.14255399689E+02 -0.14678650735E+02  0.67352942696E+01  0.21541666529E+02  0.51100000000E-03 0. -1.
        -11    1    3    3    0    0 -0.67503055221E+01  0.45557871280E+01  0.50607853361E+01  0.95881890614E+01  0.51100000000E-03 0.  1.
        -12    1    3    3    0    0  0.22989508057E+02 -0.10246146977E+02  0.12655669484E+02  0.28172095745E+02  0.00000000000E+00 0.  1.
</event>
<event>
 7    1  0.1138240E-011  0.5930194E+02  0.7816164E-02  0.1266605E+00
        -11   -1    0    0    0    0  0.00000000000E+00  0.00000000000E+00  0.45593999997E+02  0.45594000000E+02  0.51100000000E-03 0.  1.
         11   -1    0    0    0    0 -0.00000000000E+00 -0.00000000000E+00 -0.45593999997E+02  0.45594000000E+02  0.51100000000E-03 0. -1.
    9900012    2    1    2    0    0  0.10398452938E+02  0.48615507528E+01 -0.29748250456E+02  0.59301938713E+02  0.49999990307E+02 0.  0.
        -12    1    1    2    0    0 -0.10398452938E+02 -0.48615507528E+01  0.29748250456E+02  0.31886061287E+02  0.00000000000E+00 0.  1.
         11    1    3    3    0    0  0.65298793290E+01  0.78171066486E+01 -0.13166231661E+02  0.16646204878E+02  0.51100000000E-03 0. -1.
        -11    1    3    3    0    0  0.17384408115E+02 -0.97819328150E+01  0.33708559831E+00  0.19950375487E+02  0.51100000000E-03 0.  1.
        -12    1    3    3    0    0 -0.13515834506E+02  0.68263769192E+01 -0.16919104393E+02  0.22705358348E+02  0.00000000000E+00 0.  1.
</event>
<event>
 7    1  0.1138240E-011  0.5930194E+02  0.7816164E-02  0.1266605E+00
        -11   -1    0    0    0    0  0.00000000000E+00  0.00000000000E+00  0.45593999997E+02  0.45594000000E+02  0.51100000000E-03 0. -1.
         11   -1    0    0    0    0 -0.00000000000E+00 -0.00000000000E+00 -0.45593999997E+02  0.45594000000E+02  0.51100000000E-03 0.  1.
    9900012    2    1    2    0    0 -0.13856090040E+02 -0.15576633099E+02  0.24126712433E+02  0.59301937485E+02  0.49999988067E+02 0.  0.
        -12    1    1    2    0    0  0.13856090040E+02  0.15576633099E+02 -0.24126712433E+02  0.31886062515E+02  0.00000000000E+00 0.  1.
         11    1    3    3    0    0 -0.25868840036E+02  0.44606742939E+01  0.17458410940E+02  0.31526030717E+02  0.51100000000E-03 0. -1.
        -11    1    3    3    0    0  0.12582863463E+01  0.20435795979E+01  0.47490712749E+00  0.24464339646E+01  0.51100000000E-03 0.  1.
        -12    1    3    3    0    0  0.10754463650E+02 -0.22080886991E+02  0.61933943655E+01  0.25329472803E+02  0.00000000000E+00 0.  1.
</event>
<event>
 7    1  0.1138240E-011  0.5930194E+02  0.7816164E-02  0.1266605E+00
        -11   -1    0    0    0    0  0.00000000000E+00  0.00000000000E+00  0.45593999997E+02  0.45594000000E+02  0.51100000000E-03 0.  1.
         11   -1    0    0    0    0 -0.00000000000E+00 -0.00000000000E+00 -0.45593999997E+02  0.45594000000E+02  0.51100000000E-03 0. -1.
    9900012    2    1    2    0    0 -0.13408048579E+02  0.78525442167E+01 -0.27843891436E+02  0.59301944934E+02  0.50000001653E+02 0.  0.
        -12    1    1    2    0    0  0.13408048579E+02 -0.78525442167E+01  0.27843891436E+02  0.31886055066E+02  0.00000000000E+00 0.  1.
         11    1    3    3    0    0  0.75843212784E+01  0.79246977594E+01 -0.55191554192E+01  0.12279407178E+02  0.51100000000E-03 0. -1.
        -11    1    3    3    0    0  0.33487168076E+01 -0.10193452450E+02  0.22727683814E+01  0.10967490756E+02  0.51100000000E-03 0.  1.
        -12    1    3    3    0    0 -0.24341086665E+02  0.10121298907E+02 -0.24597504398E+02  0.36055047000E+02  0.00000000000E+00 0.  1.
</event>
<event>
 7    1  0.1138240E-011  0.5930193E+02  0.7816164E-02  0.1266605E+00
        -11   -1    0    0    0    0  0.00000000000E+00  0.00000000000E+00  0.45593999997E+02  0.45594000000E+02  0.51100000000E-03 0. -1.
         11   -1    0    0    0    0 -0.00000000000E+00 -0.00000000000E+00 -0.45593999997E+02  0.45594000000E+02  0.51100000000E-03 0.  1.
    9900012    2    1    2    0    0  0.85276341267E+01 -0.14863229444E+02  0.26890249399E+02  0.59301927083E+02  0.49999969097E+02 0.  0.
        -12    1    1    2    0    0 -0.85276341267E+01  0.14863229444E+02 -0.26890249399E+02  0.31886072917E+02  0.00000000000E+00 0.  1.
         11    1    3    3    0    0 -0.51714454643E+01 -0.20696487365E+02  0.17483999883E+02  0.27582216909E+02  0.51100000000E-03 0. -1.
        -11    1    3    3    0    0 -0.65956980550E+01 -0.13227965452E+01  0.75623903067E+01  0.10121401629E+02  0.51100000000E-03 0.  1.
         12    1    3    3    0    0  0.20294777646E+02  0.71560544660E+01  0.18438592096E+01  0.21598308545E+02  0.00000000000E+00 0. -1.
</event>
<event>
 7    1  0.1138240E-011  0.5930194E+02  0.7816164E-02  0.1266605E+00
        -11   -1    0    0    0    0  0.00000000000E+00  0.00000000000E+00  0.45593999997E+02  0.45594000000E+02  0.51100000000E-03 0. -1.
         11   -1    0    0    0    0 -0.00000000000E+00 -0.00000000000E+00 -0.45593999997E+02  0.45594000000E+02  0.51100000000E-03 0.  1.
    9900012    2    1    2    0    0 -0.31315560058E+02 -0.37082699682E+01  0.47228125185E+01  0.59301944647E+02  0.50000001129E+02 0.  0.
        -12    1    1    2    0    0  0.31315560058E+02  0.37082699682E+01 -0.47228125185E+01  0.31886055353E+02  0.00000000000E+00 0.  1.
         11    1    3    3    0    0 -0.40623168944E+02 -0.55924764282E+01  0.19323457500E+01  0.41051816135E+02  0.51100000000E-03 0. -1.
        -11    1    3    3    0    0 -0.23376481477E+01  0.49542040295E+01 -0.11134864340E+01  0.55900437143E+01  0.51100000000E-03 0.  1.
         12    1    3    3    0    0  0.11645257034E+02 -0.30699975695E+01  0.39039532025E+01  0.12660084797E+02  0.00000000000E+00 0. -1.
</event>
<event>
 7    1  0.1138240E-011  0.5930194E+02  0.7816164E-02  0.1266605E+00
        -11   -1    0    0    0    0  0.00000000000E+00  0.00000000000E+00  0.45593999997E+02  0.45594000000E+02  0.51100000000E-03 0.  1.
         11   -1    0    0    0    0 -0.00000000000E+00 -0.00000000000E+00 -0.45593999997E+02  0.45594000000E+02  0.51100000000E-03 0. -1.
    9900012    2    1    2    0    0  0.25579109164E+02 -0.19707268747E+01 -0.18935320137E+02  0.59301938175E+02  0.49999989325E+02 0.  0.
        -12    1    1    2    0    0 -0.25579109164E+02  0.19707268747E+01  0.18935320137E+02  0.31886061825E+02  0.00000000000E+00 0.  1.
         11    1    3    3    0    0  0.89474804595E+01  0.35606103104E+01 -0.92115070285E+01  0.13326185289E+02  0.51100000000E-03 0. -1.
        -11    1    3    3    0    0  0.21747330062E+02 -0.33718373652E+01 -0.22849362327E+02  0.31723950118E+02  0.51100000000E-03 0.  1.
        -12    1    3    3    0    0 -0.51157013575E+01 -0.21594998199E+01  0.13125549219E+02  0.14251802768E+02  0.00000000000E+00 0.  1.
</event>
<event>
 7    1  0.1138240E-011  0.5930198E+02  0.7816164E-02  0.1266605E+00
        -11   -1    0    0    0    0  0.00000000000E+00  0.00000000000E+00  0.45593999997E+02  0.45594000000E+02  0.51100000000E-03 0.  1.
         11   -1    0    0    0    0 -0.00000000000E+00 -0.00000000000E+00 -0.45593999997E+02  0.45594000000E+02  0.51100000000E-03 0. -1.
    9900012    2    1    2    0    0  0.10901894009E+02  0.83659043025E+01 -0.28772875721E+02  0.59301983864E+02  0.50000072652E+02 0.  0.
        -12    1    1    2    0    0 -0.10901894009E+02 -0.83659043025E+01  0.28772875721E+02  0.31886016136E+02  0.00000000000E+00 0.  1.
         11    1    3    3    0    0  0.43193301980E+01 -0.69426532680E+00 -0.13115457883E+02  0.13825840062E+02  0.51100000000E-03 0. -1.
        -11    1    3    3    0    0  0.21700830965E+02  0.29684744823E+01 -0.18813941200E+02  0.28873903253E+02  0.51100000000E-03 0.  1.
        -12    1    3    3    0    0 -0.15118267154E+02  0.60916951470E+01  0.31565233617E+01  0.16602240549E+02  0.00000000000E+00 0.  1.
</event>
<event>
 7    1  0.1138240E-011  0.5930195E+02  0.7816164E-02  0.1266605E+00
        -11   -1    0    0    0    0  0.00000000000E+00  0.00000000000E+00  0.45593999997E+02  0.45594000000E+02  0.51100000000E-03 0.  1.
         11   -1    0    0    0    0 -0.00000000000E+00 -0.00000000000E+00 -0.45593999997E+02  0.45594000000E+02  0.51100000000E-03 0. -1.
    9900012    2    1    2    0    0 -0.96360723243E+01 -0.51341440303E+01 -0.29958418903E+02  0.59301949948E+02  0.50000010797E+02 0.  0.
        -12    1    1    2    0    0  0.96360723243E+01  0.51341440303E+01  0.29958418903E+02  0.31886050052E+02  0.00000000000E+00 0.  1.
         11    1    3    3    0    0 -0.52827907851E+01  0.45844353801E+01 -0.24499221259E+02  0.25478162587E+02  0.51100000000E-03 0. -1.
        -11    1    3    3    0    0 -0.30851215812E+01 -0.18102556155E+02 -0.12981527354E+02  0.22488676422E+02  0.51100000000E-03 0.  1.
         12    1    3    3    0    0 -0.12681599581E+01  0.83839767443E+01  0.75223297104E+01  0.11335110939E+02  0.00000000000E+00 0. -1.
</event>
<event>
 7    1  0.1138240E-011  0.5930195E+02  0.7816164E-02  0.1266605E+00
        -11   -1    0    0    0    0  0.00000000000E+00  0.00000000000E+00  0.45593999997E+02  0.45594000000E+02  0.51100000000E-03 0.  1.
         11   -1    0    0    0    0 -0.00000000000E+00 -0.00000000000E+00 -0.45593999997E+02  0.45594000000E+02  0.51100000000E-03 0. -1.
    9900012    2    1    2    0    0  0.11713700501E+02 -0.35413648719E+01 -0.29444326909E+02  0.59301946126E+02  0.50000003826E+02 0.  0.
        -12    1    1    2    0    0 -0.11713700501E+02  0.35413648719E+01  0.29444326909E+02  0.31886053874E+02  0.00000000000E+00 0.  1.
         11    1    3    3    0    0  0.14385779119E+02 -0.30945299703E+01 -0.38284784844E+02  0.41015259446E+02  0.51100000000E-03 0. -1.
        -11    1    3    3    0    0 -0.10202176722E+01 -0.50475146163E+01 -0.26559751894E+01  0.57941740022E+01  0.51100000000E-03 0.  1.
        -12    1    3    3    0    0 -0.16518609464E+01  0.46006797146E+01  0.11496433124E+02  0.12492512678E+02  0.00000000000E+00 0.  1.
</event>
<event>
 7    1  0.1138240E-011  0.5930194E+02  0.7816164E-02  0.1266605E+00
        -11   -1    0    0    0    0  0.00000000000E+00  0.00000000000E+00  0.45593999997E+02  0.45594000000E+02  0.51100000000E-03 0. -1.
         11   -1    0    0    0    0 -0.00000000000E+00 -0.00000000000E+00 -0.45593999997E+02  0.45594000000E+02  0.51100000000E-03 0.  1.
    9900012    2    1    2    0    0  0.66737619758E+01  0.75716274196E+01  0.30246525219E+02  0.59301938334E+02  0.49999989617E+02 0.  0.
        -12    1    1    2    0    0 -0.66737619758E+01 -0.75716274196E+01 -0.30246525219E+02  0.31886061666E+02  0.00000000000E+00 0.  1.
         11    1    3    3    0    0 -0.94600411567E+01  0.63655063083E+01  0.20667465367E+02  0.23604155867E+02  0.51100000000E-03 0. -1.
        -11    1    3    3    0    0  0.17125453595E+02  0.24704172696E+01  0.19256323169E+02  0.25888030141E+02  0.51100000000E-03 0.  1.
         12    1    3    3    0    0 -0.99165046284E+00 -0.12642961584E+01 -0.96772633162E+01  0.98097523265E+01  0.00000000000E+00 0. -1.
</event>
<event>
 7    1  0.1138240E-011  0.5930196E+02  0.7816164E-02  0.1266605E+00
        -11   -1    0    0    0    0  0.00000000000E+00  0.00000000000E+00  0.45593999997E+02  0.45594000000E+02  0.51100000000E-03 0. -1.
         11   -1    0    0    0    0 -0.00000000000E+00 -0.00000000000E+00 -0.45593999997E+02  0.45594000000E+02  0.51100000000E-03 0.  1.
    9900012    2    1    2    0    0 -0.42134625026E+01 -0.29329459867E+02  0.11779191091E+02  0.59301955637E+02  0.50000021172E+02 0.  0.
        -12    1    1    2    0    0  0.42134625026E+01  0.29329459867E+02 -0.11779191091E+02  0.31886044363E+02  0.00000000000E+00 0.  1.
         11    1    3    3    0    0  0.72897248726E+01 -0.14094164267E+02  0.97002399896E+01  0.18597855017E+02  0.51100000000E-03 0. -1.
        -11    1    3    3    0    0 -0.61161917131E+01 -0.26855165507E+02  0.37147372540E+01  0.27792210934E+02  0.51100000000E-03 0.  1.
        -12    1    3    3    0    0 -0.53869956621E+01  0.11619869907E+02 -0.16357861525E+01  0.12911889686E+02  0.00000000000E+00 0.  1.
</event>
<event>
 7    1  0.1138240E-011  0.5930208E+02  0.7816164E-02  0.1266604E+00
        -11   -1    0    0    0    0  0.00000000000E+00  0.00000000000E+00  0.45593999997E+02  0.45594000000E+02  0.51100000000E-03 0. -1.
         11   -1    0    0    0    0 -0.00000000000E+00 -0.00000000000E+00 -0.45593999997E+02  0.45594000000E+02  0.51100000000E-03 0.  1.
    9900012    2    1    2    0    0 -0.17311725270E+00  0.25337221148E+02  0.19357359074E+02  0.59302076846E+02  0.50000242227E+02 0.  0.
        -12    1    1    2    0    0  0.17311725270E+00 -0.25337221148E+02 -0.19357359074E+02  0.31885923154E+02  0.00000000000E+00 0.  1.
         11    1    3    3    0    0 -0.51932075864E+01  0.16983321872E+02  0.11515046773E+02  0.21165985195E+02  0.51100000000E-03 0. -1.
        -11    1    3    3    0    0 -0.97530257333E+01  0.78065729966E+01  0.16735537130E+02  0.20884020116E+02  0.51100000000E-03 0.  1.
        -12    1    3    3    0    0  0.14773116067E+02  0.54732627938E+00 -0.88932248286E+01  0.17252071535E+02  0.00000000000E+00 0.  1.
</event>
<event>
 7    1  0.1138240E-011  0.5930194E+02  0.7816164E-02  0.1266605E+00
        -11   -1    0    0    0    0  0.00000000000E+00  0.00000000000E+00  0.45593999997E+02  0.45594000000E+02  0.51100000000E-03 0.  1.
         11   -1    0    0    0    0 -0.00000000000E+00 -0.00000000000E+00 -0.45593999997E+02  0.45594000000E+02  0.51100000000E-03 0. -1.
    9900012    2    1    2    0    0 -0.29024565276E+02 -0.12613036766E+02  0.38996128599E+01  0.59301936173E+02  0.49999985675E+02 0.  0.
        -12    1    1    2    0    0  0.29024565276E+02  0.12613036766E+02 -0.38996128599E+01  0.31886063827E+02  0.00000000000E+00 0.  1.
         11    1    3    3    0    0 -0.59882424799E+01 -0.20913073563E+01 -0.37464163049E+01  0.73666987076E+01  0.51100000000E-03 0. -1.
        -11    1    3    3    0    0 -0.28570888790E+02 -0.22799039323E+02  0.10778418067E+02  0.38108610268E+02  0.51100000000E-03 0.  1.
         12    1    3    3    0    0  0.55345659937E+01  0.12277309913E+02 -0.31323889019E+01  0.13826627198E+02  0.00000000000E+00 0. -1.
</event>
<event>
 7    1  0.1586034E-011  0.5930191E+02  0.7816164E-02  0.1266605E+00
        -11   -1    0    0    0    0  0.00000000000E+00  0.00000000000E+00  0.45593999997E+02  0.45594000000E+02  0.51100000000E-03 0. -1.
         11   -1    0    0    0    0 -0.00000000000E+00 -0.00000000000E+00 -0.45593999997E+02  0.45594000000E+02  0.51100000000E-03 0.  1.
    9900012    2    1    2    0    0  0.14970122252E+02 -0.23919189240E+02  0.14848925309E+02  0.59301909663E+02  0.49999937327E+02 0.  0.
        -12    1    1    2    0    0 -0.14970122252E+02  0.23919189240E+02 -0.14848925309E+02  0.31886090337E+02  0.00000000000E+00 0.  1.
         11    1    3    3    0    0 -0.11336131826E+02 -0.14599189844E+02  0.14189208871E+02  0.23301885707E+02  0.51100000000E-03 0. -1.
        -11    1    3    3    0    0  0.60426461846E+01 -0.10964012454E+02 -0.69183676900E+01  0.14303389590E+02  0.51100000000E-03 0.  1.
        -12    1    3    3    0    0  0.20263607893E+02  0.16440130576E+01  0.75780841278E+01  0.21696634366E+02  0.00000000000E+00 0.  1.
</event>
<event>
 7    1  0.1138240E-011  0.5930201E+02  0.7816164E-02  0.1266605E+00
        -11   -1    0    0    0    0  0.00000000000E+00  0.00000000000E+00  0.45593999997E+02  0.45594000000E+02  0.51100000000E-03 0.  1.
         11   -1    0    0    0    0 -0.00000000000E+00 -0.00000000000E+00 -0.45593999997E+02  0.45594000000E+02  0.51100000000E-03 0. -1.
    9900012    2    1    2    0    0  0.85575149921E+01 -0.31489729924E+01 -0.30554366074E+02  0.59302009661E+02  0.50000119698E+02 0.  0.
        -12    1    1    2    0    0 -0.85575149921E+01  0.31489729924E+01  0.30554366074E+02  0.31885990339E+02  0.00000000000E+00 0.  1.
         11    1    3    3    0    0 -0.65975799443E+01  0.57084494484E+00 -0.25207468516E+02  0.26062816316E+02  0.51100000000E-03 0. -1.
        -11    1    3    3    0    0 -0.39795852690E+01 -0.72429177226E+01 -0.10257797567E+02  0.13172675022E+02  0.51100000000E-03 0.  1.
        -12    1    3    3    0    0  0.19134680205E+02  0.35230997853E+01  0.49109000097E+01  0.20066518322E+02  0.00000000000E+00 0.  1.
</event>
<event>
 7    1  0.1138240E-011  0.5930194E+02  0.7816164E-02  0.1266605E+00
        -11   -1    0    0    0    0  0.00000000000E+00  0.00000000000E+00  0.45593999997E+02  0.45594000000E+02  0.51100000000E-03 0. -1.
         11   -1    0    0    0    0 -0.00000000000E+00 -0.00000000000E+00 -0.45593999997E+02  0.45594000000E+02  0.51100000000E-03 0.  1.
    9900012    2    1    2    0    0  0.98641414134E+01  0.21799186785E+02  0.21076414452E+02  0.59301936014E+02  0.49999985385E+02 0.  0.
        -12    1    1    2    0    0 -0.98641414134E+01 -0.21799186785E+02 -0.21076414452E+02  0.31886063986E+02  0.00000000000E+00 0.  1.
         11    1    3    3    0    0  0.13666148764E+02  0.12787077928E+02 -0.32062199918E+01  0.18988228745E+02  0.51100000000E-03 0. -1.
        -11    1    3    3    0    0 -0.65620651271E+01  0.11739190005E+02 -0.21310525534E+01  0.13616558520E+02  0.51100000000E-03 0.  1.
         12    1    3    3    0    0  0.27600577768E+01 -0.27270811472E+01  0.26413686998E+02  0.26697148749E+02  0.00000000000E+00 0. -1.
</event>
<event>
 7    1  0.1138240E-011  0.5930204E+02  0.7816164E-02  0.1266604E+00
        -11   -1    0    0    0    0  0.00000000000E+00  0.00000000000E+00  0.45593999997E+02  0.45594000000E+02  0.51100000000E-03 0.  1.
         11   -1    0    0    0    0 -0.00000000000E+00 -0.00000000000E+00 -0.45593999997E+02  0.45594000000E+02  0.51100000000E-03 0. -1.
    9900012    2    1    2    0    0 -0.39268987538E+01 -0.16615009627E+02 -0.26930199047E+02  0.59302036012E+02  0.50000167756E+02 0.  0.
        -12    1    1    2    0    0  0.39268987538E+01  0.16615009627E+02  0.26930199047E+02  0.31885963988E+02  0.00000000000E+00 0.  1.
         11    1    3    3    0    0  0.15092146327E+02 -0.17191807715E+02 -0.22153700578E+02  0.31845212871E+02  0.51100000000E-03 0. -1.
        -11    1    3    3    0    0  0.22808521108E+01 -0.36723796789E+01  0.19172947075E+01  0.47291307990E+01  0.51100000000E-03 0.  1.
        -12    1    3    3    0    0 -0.21299897192E+02  0.42491777670E+01 -0.66937931771E+01  0.22727692341E+02  0.00000000000E+00 0.  1.
</event>
<event>
 7    1  0.1138240E-011  0.5930194E+02  0.7816164E-02  0.1266605E+00
        -11   -1    0    0    0    0  0.00000000000E+00  0.00000000000E+00  0.45593999997E+02  0.45594000000E+02  0.51100000000E-03 0.  1.
         11   -1    0    0    0    0 -0.00000000000E+00 -0.00000000000E+00 -0.45593999997E+02  0.45594000000E+02  0.51100000000E-03 0. -1.
    9900012    2    1    2    0    0  0.12239809677E+02  0.89152282852E+01 -0.28061127291E+02  0.59301935627E+02  0.49999984680E+02 0.  0.
        -12    1    1    2    0    0 -0.12239809677E+02 -0.89152282852E+01  0.28061127291E+02  0.31886064373E+02  0.00000000000E+00 0.  1.
         11    1    3    3    0    0 -0.41384336927E+01 -0.63423908829E+01 -0.12022509737E+01  0.76679829945E+01  0.51100000000E-03 0. -1.
        -11    1    3    3    0    0 -0.62004557922E+01  0.17197874768E+02 -0.21732978925E+02  0.28399558478E+02  0.51100000000E-03 0.  1.
        -12    1    3    3    0    0  0.22578699162E+02 -0.19402555997E+01 -0.51258973929E+01  0.23234394155E+02  0.00000000000E+00 0.  1.
</event>
<event>
 7    1  0.1138240E-011  0.5930196E+02  0.7816164E-02  0.1266605E+00
        -11   -1    0    0    0    0  0.00000000000E+00  0.00000000000E+00  0.45593999997E+02  0.45594000000E+02  0.51100000000E-03 0. -1.
         11   -1    0    0    0    0 -0.00000000000E+00 -0.00000000000E+00 -0.45593999997E+02  0.45594000000E+02  0.51100000000E-03 0.  1.
    9900012    2    1    2    0    0  0.31653464512E+02  0.50971318450E+00  0.38102395410E+01  0.59301959974E+02  0.50000029083E+02 0.  0.
        -12    1    1    2    0    0 -0.31653464512E+02 -0.50971318450E+00 -0.38102395410E+01  0.31886040026E+02  0.00000000000E+00 0.  1.
         11    1    3    3    0    0  0.14528479943E+02 -0.17212119639E+02  0.95192444182E+01  0.24453012217E+02  0.51100000000E-03 0. -1.
        -11    1    3    3    0    0  0.15187491464E+02  0.43003499762E+01  0.60457655000E+01  0.16902786386E+02  0.51100000000E-03 0.  1.
        -12    1    3    3    0    0  0.19374931060E+01  0.13421482847E+02 -0.11754770377E+02  0.17946161372E+02  0.00000000000E+00 0.  1.
</event>
<event>
 7    1  0.1138240E-011  0.5930171E+02  0.7816164E-02  0.1266606E+00
        -11   -1    0    0    0    0  0.00000000000E+00  0.00000000000E+00  0.45593999997E+02  0.45594000000E+02  0.51100000000E-03 0. -1.
         11   -1    0    0    0    0 -0.00000000000E+00 -0.00000000000E+00 -0.45593999997E+02  0.45594000000E+02  0.51100000000E-03 0.  1.
    9900012    2    1    2    0    0 -0.20569322015E+02 -0.17140058385E+02 -0.17316367233E+02  0.59301714802E+02  0.49999581945E+02 0.  0.
        -12    1    1    2    0    0  0.20569322015E+02  0.17140058385E+02  0.17316367233E+02  0.31886285198E+02  0.00000000000E+00 0.  1.
         11    1    3    3    0    0 -0.89952921903E+00  0.15716398335E+01 -0.14381134958E+02  0.14494697221E+02  0.51100000000E-03 0. -1.
        -11    1    3    3    0    0 -0.80805320002E+01  0.10375342381E+02  0.12835861090E+01  0.13213263053E+02  0.51100000000E-03 0.  1.
         12    1    3    3    0    0 -0.11589260796E+02 -0.29087040600E+02 -0.42188183837E+01  0.31593754528E+02  0.00000000000E+00 0. -1.
</event>
<event>
 7    1  0.1138240E-011  0.5930195E+02  0.7816164E-02  0.1266605E+00
        -11   -1    0    0    0    0  0.00000000000E+00  0.00000000000E+00  0.45593999997E+02  0.45594000000E+02  0.51100000000E-03 0. -1.
         11   -1    0    0    0    0 -0.00000000000E+00 -0.00000000000E+00 -0.45593999997E+02  0.45594000000E+02  0.51100000000E-03 0.  1.
    9900012    2    1    2    0    0  0.18514562203E+02 -0.16018867463E+02  0.20428590709E+02  0.59301945890E+02  0.50000003396E+02 0.  0.
        -12    1    1    2    0    0 -0.18514562203E+02  0.16018867463E+02 -0.20428590709E+02  0.31886054110E+02  0.00000000000E+00 0.  1.
         11    1    3    3    0    0  0.25532149941E+02 -0.11590213418E+02  0.89170767319E+01  0.29423425793E+02  0.51100000000E-03 0. -1.
        -11    1    3    3    0    0  0.34922831776E-01 -0.73631805117E+00 -0.84012292717E+01  0.84335068277E+01  0.51100000000E-03 0.  1.
         12    1    3    3    0    0 -0.70525105698E+01 -0.36923359939E+01  0.19912743249E+02  0.21445013269E+02  0.00000000000E+00 0. -1.
</event>
<event>
 7    1  0.1138240E-011  0.5930193E+02  0.7816164E-02  0.1266605E+00
        -11   -1    0    0    0    0  0.00000000000E+00  0.00000000000E+00  0.45593999997E+02  0.45594000000E+02  0.51100000000E-03 0. -1.
         11   -1    0    0    0    0 -0.00000000000E+00 -0.00000000000E+00 -0.45593999997E+02  0.45594000000E+02  0.51100000000E-03 0.  1.
    9900012    2    1    2    0    0  0.11130214723E+02 -0.16092373526E+02  0.25176878454E+02  0.59301931346E+02  0.49999976872E+02 0.  0.
        -12    1    1    2    0    0 -0.11130214723E+02  0.16092373526E+02 -0.25176878454E+02  0.31886068654E+02  0.00000000000E+00 0.  1.
         11    1    3    3    0    0  0.65972463200E+00  0.17839959441E+01  0.95129885441E+01  0.97012797825E+01  0.51100000000E-03 0. -1.
        -11    1    3    3    0    0 -0.10891401373E+02 -0.21746630389E+02  0.31020155180E+01  0.24518585964E+02  0.51100000000E-03 0.  1.
         12    1    3    3    0    0  0.21361891464E+02  0.38702609190E+01  0.12561874392E+02  0.25082065600E+02  0.00000000000E+00 0. -1.
</event>
<event>
 7    1  0.1138240E-011  0.5930195E+02  0.7816164E-02  0.1266605E+00
        -11   -1    0    0    0    0  0.00000000000E+00  0.00000000000E+00  0.45593999997E+02  0.45594000000E+02  0.51100000000E-03 0.  1.
         11   -1    0    0    0    0 -0.00000000000E+00 -0.00000000000E+00 -0.45593999997E+02  0.45594000000E+02  0.51100000000E-03 0. -1.
    9900012    2    1    2    0    0  0.22195802938E+02 -0.26290228167E+01 -0.22741030158E+02  0.59301954750E+02  0.50000019555E+02 0.  0.
        -12    1    1    2    0    0 -0.22195802938E+02  0.26290228167E+01  0.22741030158E+02  0.31886045250E+02  0.00000000000E+00 0.  1.
         11    1    3    3    0    0  0.29983223051E+02 -0.80609618297E+00 -0.79477967355E+01  0.31029194782E+02  0.51100000000E-03 0. -1.
        -11    1    3    3    0    0 -0.58452622694E-01  0.22417925220E+01 -0.18608443669E+02  0.18743084764E+02  0.51100000000E-03 0.  1.
         12    1    3    3    0    0 -0.77289674903E+01 -0.40647191556E+01  0.38152102466E+01  0.95296752047E+01  0.00000000000E+00 0. -1.
</event>
<event>
 7    1  0.1138240E-011  0.5930196E+02  0.7816164E-02  0.1266605E+00
        -11   -1    0    0    0    0  0.00000000000E+00  0.00000000000E+00  0.45593999997E+02  0.45594000000E+02  0.51100000000E-03 0.  1.
         11   -1    0    0    0    0 -0.00000000000E+00 -0.00000000000E+00 -0.45593999997E+02  0.45594000000E+02  0.51100000000E-03 0. -1.
    9900012    2    1    2    0    0 -0.23979891257E+02  0.36603161823E+01 -0.20695081640E+02  0.59301960683E+02  0.50000030376E+02 0.  0.
        -12    1    1    2    0    0  0.23979891257E+02 -0.36603161823E+01  0.20695081640E+02  0.31886039317E+02  0.00000000000E+00 0.  1.
         11    1    3    3    0    0 -0.21622017534E+02 -0.99011334988E+01 -0.82999512748E+01  0.25187958993E+02  0.51100000000E-03 0. -1.
        -11    1    3    3    0    0 -0.10737526568E+02 -0.90667215635E+00 -0.13599397219E+02  0.17351084583E+02  0.51100000000E-03 0.  1.
        -12    1    3    3    0    0  0.83796528454E+01  0.14468121837E+02  0.12042668542E+01  0.16762917108E+02  0.00000000000E+00 0.  1.
</event>
<event>
 7    1  0.1138240E-011  0.5930195E+02  0.7816164E-02  0.1266605E+00
        -11   -1    0    0    0    0  0.00000000000E+00  0.00000000000E+00  0.45593999997E+02  0.45594000000E+02  0.51100000000E-03 0. -1.
         11   -1    0    0    0    0 -0.00000000000E+00 -0.00000000000E+00 -0.45593999997E+02  0.45594000000E+02  0.51100000000E-03 0.  1.
    9900012    2    1    2    0    0 -0.15212526596E+02 -0.12233211579E+02  0.25212053486E+02  0.59301951767E+02  0.50000014114E+02 0.  0.
        -12    1    1    2    0    0  0.15212526596E+02  0.12233211579E+02 -0.25212053486E+02  0.31886048233E+02  0.00000000000E+00 0.  1.
         11    1    3    3    0    0 -0.93572828600E+01  0.72452407651E+01  0.85690008361E+01  0.14610955884E+02  0.51100000000E-03 0. -1.
        -11    1    3    3    0    0 -0.69979788541E+01  0.70015201154E+01  0.15210022681E+02  0.18147666026E+02  0.51100000000E-03 0.  1.
         12    1    3    3    0    0  0.11427351181E+01 -0.26479972459E+02  0.14330299683E+01  0.26543329856E+02  0.00000000000E+00 0. -1.
</event>
<event>
 7    1  0.1138240E-011  0.5930194E+02  0.7816164E-02  0.1266605E+00
        -11   -1    0    0    0    0  0.00000000000E+00  0.00000000000E+00  0.45593999997E+02  0.45594000000E+02  0.51100000000E-03 0. -1.
         11   -1    0    0    0    0 -0.00000000000E+00 -0.00000000000E+00 -0.45593999997E+02  0.45594000000E+02  0.51100000000E-03 0.  1.
    9900012    2    1    2    0    0  0.76348656853E+01  0.30088986961E+02 -0.72857658260E+01  0.59301942012E+02  0.49999996324E+02 0.  0.
        -12    1    1    2    0    0 -0.76348656853E+01 -0.30088986961E+02  0.72857658260E+01  0.31886057988E+02  0.00000000000E+00 0.  1.
         11    1    3    3    0    0 -0.10235299395E+02  0.24270949048E+02 -0.17548393494E+02  0.31651010030E+02  0.51100000000E-03 0. -1.
        -11    1    3    3    0    0 -0.31906643029E+01 -0.11464985407E+01  0.22338540283E+01  0.40601603021E+01  0.51100000000E-03 0.  1.
         12    1    3    3    0    0  0.21060829383E+02  0.69645364533E+01  0.80287736401E+01  0.23590771680E+02  0.00000000000E+00 0. -1.
</event>
<event>
 7    1  0.1138240E-011  0.5930191E+02  0.7816164E-02  0.1266605E+00
        -11   -1    0    0    0    0  0.00000000000E+00  0.00000000000E+00  0.45593999997E+02  0.45594000000E+02  0.51100000000E-03 0. -1.
         11   -1    0    0    0    0 -0.00000000000E+00 -0.00000000000E+00 -0.45593999997E+02  0.45594000000E+02  0.51100000000E-03 0.  1.
    9900012    2    1    2    0    0 -0.64432063149E+01  0.17352078563E+02 -0.25963692149E+02  0.59301908235E+02  0.49999934722E+02 0.  0.
        -12    1    1    2    0    0  0.64432063149E+01 -0.17352078563E+02  0.25963692149E+02  0.31886091765E+02  0.00000000000E+00 0.  1.
         11    1    3    3    0    0 -0.25736453655E+01  0.24566706986E+02 -0.19445516834E+02  0.31436839342E+02  0.51100000000E-03 0. -1.
        -11    1    3    3    0    0 -0.93460750497E-01  0.95222084365E+01 -0.46764627128E+01  0.10608981675E+02  0.51100000000E-03 0.  1.
        -12    1    3    3    0    0 -0.37761001989E+01 -0.16736836859E+02 -0.18417126018E+01  0.17256087218E+02  0.00000000000E+00 0.  1.
</event>
<event>
 7    1  0.1138240E-011  0.5930199E+02  0.7816164E-02  0.1266605E+00
        -11   -1    0    0    0    0  0.00000000000E+00  0.00000000000E+00  0.45593999997E+02  0.45594000000E+02  0.51100000000E-03 0.  1.
         11   -1    0    0    0    0 -0.00000000000E+00 -0.00000000000E+00 -0.45593999997E+02  0.45594000000E+02  0.51100000000E-03 0. -1.
    9900012    2    1    2    0    0 -0.26860733462E+02  0.11183927682E+02  0.13043702164E+02  0.59301993561E+02  0.50000090336E+02 0.  0.
        -12    1    1    2    0    0  0.26860733462E+02 -0.11183927682E+02 -0.13043702164E+02  0.31886006439E+02  0.00000000000E+00 0.  1.
         11    1    3    3    0    0 -0.74332634507E+01 -0.33199832808E+01 -0.28712857772E+00  0.81460504291E+01  0.51100000000E-03 0. -1.
        -11    1    3    3    0    0 -0.31743136382E+02  0.43833095552E+01  0.14500511818E+02  0.35172502800E+02  0.51100000000E-03 0.  1.
         12    1    3    3    0    0  0.12315666370E+02  0.10120601408E+02 -0.11696810767E+01  0.15983440331E+02  0.00000000000E+00 0. -1.
</event>
<event>
 7    1  0.1138240E-011  0.5930195E+02  0.7816164E-02  0.1266605E+00
        -11   -1    0    0    0    0  0.00000000000E+00  0.00000000000E+00  0.45593999997E+02  0.45594000000E+02  0.51100000000E-03 0.  1.
         11   -1    0    0    0    0 -0.00000000000E+00 -0.00000000000E+00 -0.45593999997E+02  0.45594000000E+02  0.51100000000E-03 0. -1.
    9900012    2    1    2    0    0  0.60293674431E+01 -0.29853330551E+02  0.94417046711E+01  0.59301946562E+02  0.50000004622E+02 0.  0.
        -12    1    1    2    0    0 -0.60293674431E+01  0.29853330551E+02 -0.94417046711E+01  0.31886053438E+02  0.00000000000E+00 0.  1.
         11    1    3    3    0    0 -0.49331690337E+01 -0.11566352528E+02 -0.12415721862E+02  0.17671072891E+02  0.51100000000E-03 0. -1.
        -11    1    3    3    0    0 -0.89447080733E+01 -0.91079512828E+01  0.40642901512E+01  0.13397053175E+02  0.51100000000E-03 0.  1.
         12    1    3    3    0    0  0.19907244550E+02 -0.91790267398E+01  0.17793136382E+02  0.28233820495E+02  0.00000000000E+00 0. -1.
</event>
<event>
 7    1  0.1138240E-011  0.5930196E+02  0.7816164E-02  0.1266605E+00
        -11   -1    0    0    0    0  0.00000000000E+00  0.00000000000E+00  0.45593999997E+02  0.45594000000E+02  0.51100000000E-03 0.  1.
         11   -1    0    0    0    0 -0.00000000000E+00 -0.00000000000E+00 -0.45593999997E+02  0.45594000000E+02  0.51100000000E-03 0. -1.
    9900012    2    1    2    0    0 -0.15159202984E+02 -0.51810883269E+01 -0.27569451409E+02  0.59301956621E+02  0.50000022968E+02 0.  0.
        -12    1    1    2    0    0  0.15159202984E+02  0.51810883269E+01  0.27569451409E+02  0.31886043379E+02  0.00000000000E+00 0.  1.
         11    1    3    3    0    0  0.60220590894E+01  0.38591062950E+01 -0.29202553472E+02  0.30065711809E+02  0.51100000000E-03 0. -1.
        -11    1    3    3    0    0 -0.95717056489E+01  0.44481254845E+01 -0.27515344691E+01  0.10907534623E+02  0.51100000000E-03 0.  1.
        -12    1    3    3    0    0 -0.11609556425E+02 -0.13488320106E+02  0.43846365320E+01  0.18328710189E+02  0.00000000000E+00 0.  1.
</event>
<event>
 7    1  0.1138240E-011  0.5930193E+02  0.7816164E-02  0.1266605E+00
        -11   -1    0    0    0    0  0.00000000000E+00  0.00000000000E+00  0.45593999997E+02  0.45594000000E+02  0.51100000000E-03 0.  1.
         11   -1    0    0    0    0 -0.00000000000E+00 -0.00000000000E+00 -0.45593999997E+02  0.45594000000E+02  0.51100000000E-03 0. -1.
    9900012    2    1    2    0    0  0.26281917638E+02  0.12801938899E+01 -0.18009534028E+02  0.59301930831E+02  0.49999975933E+02 0.  0.
        -12    1    1    2    0    0 -0.26281917638E+02 -0.12801938899E+01  0.18009534028E+02  0.31886069169E+02  0.00000000000E+00 0.  1.
         11    1    3    3    0    0  0.48701392482E+01  0.19204841094E+02 -0.33891229429E+01  0.20100505773E+02  0.51100000000E-03 0. -1.
        -11    1    3    3    0    0 -0.76136580740E+00  0.33685355073E+01 -0.65712730631E+01  0.74234991269E+01  0.51100000000E-03 0.  1.
         12    1    3    3    0    0  0.22173144197E+02 -0.21293182712E+02 -0.80491380222E+01  0.31777925931E+02  0.00000000000E+00 0. -1.
</event>
<event>
 7    1  0.1138240E-011  0.5930195E+02  0.7816164E-02  0.1266605E+00
        -11   -1    0    0    0    0  0.00000000000E+00  0.00000000000E+00  0.45593999997E+02  0.45594000000E+02  0.51100000000E-03 0. -1.
         11   -1    0    0    0    0 -0.00000000000E+00 -0.00000000000E+00 -0.45593999997E+02  0.45594000000E+02  0.51100000000E-03 0.  1.
    9900012    2    1    2    0    0 -0.15783914385E+02 -0.27475371024E+02 -0.35626352952E+01  0.59301947618E+02  0.50000006549E+02 0.  0.
        -12    1    1    2    0    0  0.15783914385E+02  0.27475371024E+02  0.35626352952E+01  0.31886052382E+02  0.00000000000E+00 0.  1.
         11    1    3    3    0    0 -0.11266085198E+02 -0.74924181840E+01  0.31744422875E+01  0.13897413070E+02  0.51100000000E-03 0.  1.
        -11    1    3    3    0    0 -0.12382265348E+02 -0.28856677243E+02 -0.10260529096E+02  0.33034932636E+02  0.51100000000E-03 0. -1.
        -12    1    3    3    0    0  0.78644361610E+01  0.88737244031E+01  0.35234515133E+01  0.12369601913E+02  0.00000000000E+00 0.  1.
</event>
<event>
 7    1  0.1138240E-011  0.5930194E+02  0.7816164E-02  0.1266605E+00
        -11   -1    0    0    0    0  0.00000000000E+00  0.00000000000E+00  0.45593999997E+02  0.45594000000E+02  0.51100000000E-03 0. -1.
         11   -1    0    0    0    0 -0.00000000000E+00 -0.00000000000E+00 -0.45593999997E+02  0.45594000000E+02  0.51100000000E-03 0.  1.
    9900012    2    1    2    0    0 -0.57091927943E+01 -0.11551123119E+02  0.29166719803E+02  0.59301939225E+02  0.49999991241E+02 0.  0.
        -12    1    1    2    0    0  0.57091927943E+01  0.11551123119E+02 -0.29166719803E+02  0.31886060775E+02  0.00000000000E+00 0.  1.
         11    1    3    3    0    0  0.12841177772E+02 -0.43764334430E+01  0.30707254147E+02  0.33570589416E+02  0.51100000000E-03 0. -1.
        -11    1    3    3    0    0  0.20615294307E+01 -0.42001316436E+01 -0.14751474684E+01  0.49058199857E+01  0.51100000000E-03 0.  1.
        -12    1    3    3    0    0 -0.20611899997E+02 -0.29745580323E+01 -0.65386875649E-01  0.20825529823E+02  0.00000000000E+00 0.  1.
</event>
<event>
 7    1  0.1138240E-011  0.5930193E+02  0.7816164E-02  0.1266605E+00
        -11   -1    0    0    0    0  0.00000000000E+00  0.00000000000E+00  0.45593999997E+02  0.45594000000E+02  0.51100000000E-03 0.  1.
         11   -1    0    0    0    0 -0.00000000000E+00 -0.00000000000E+00 -0.45593999997E+02  0.45594000000E+02  0.51100000000E-03 0. -1.
    9900012    2    1    2    0    0  0.20760789602E+02  0.14080373564E+02 -0.19683855302E+02  0.59301929936E+02  0.49999974300E+02 0.  0.
        -12    1    1    2    0    0 -0.20760789602E+02 -0.14080373564E+02  0.19683855302E+02  0.31886070064E+02  0.00000000000E+00 0.  1.
         11    1    3    3    0    0  0.16188804560E+02  0.14110506563E+02 -0.62272249285E+00  0.21484216813E+02  0.51100000000E-03 0. -1.
        -11    1    3    3    0    0 -0.13143777082E+01 -0.17553131126E+01  0.89130896131E+01  0.91788822628E+01  0.51100000000E-03 0.  1.
        -12    1    3    3    0    0  0.58863627500E+01  0.17251801141E+01 -0.27974222422E+02  0.28638830859E+02  0.00000000000E+00 0.  1.
</event>
<event>
 7    1  0.1138240E-011  0.5930195E+02  0.7816164E-02  0.1266605E+00
        -11   -1    0    0    0    0  0.00000000000E+00  0.00000000000E+00  0.45593999997E+02  0.45594000000E+02  0.51100000000E-03 0. -1.
         11   -1    0    0    0    0 -0.00000000000E+00 -0.00000000000E+00 -0.45593999997E+02  0.45594000000E+02  0.51100000000E-03 0.  1.
    9900012    2    1    2    0    0  0.26562661492E+02 -0.96859302400E+01  0.14742045911E+02  0.59301950577E+02  0.50000011945E+02 0.  0.
        -12    1    1    2    0    0 -0.26562661492E+02  0.96859302400E+01 -0.14742045911E+02  0.31886049423E+02  0.00000000000E+00 0.  1.
         11    1    3    3    0    0  0.18941972322E+02  0.49003522112E+00  0.27631762271E+01  0.19148723015E+02  0.51100000000E-03 0. -1.
        -11    1    3    3    0    0  0.10489075932E+02  0.49739583596E+01 -0.85939126963E+01  0.14443556050E+02  0.51100000000E-03 0.  1.
        -12    1    3    3    0    0 -0.28683867632E+01 -0.15149923821E+02  0.20572782381E+02  0.25709671512E+02  0.00000000000E+00 0.  1.
</event>
<event>
 7    1  0.1138240E-011  0.5930192E+02  0.7816164E-02  0.1266605E+00
        -11   -1    0    0    0    0  0.00000000000E+00  0.00000000000E+00  0.45593999997E+02  0.45594000000E+02  0.51100000000E-03 0.  1.
         11   -1    0    0    0    0 -0.00000000000E+00 -0.00000000000E+00 -0.45593999997E+02  0.45594000000E+02  0.51100000000E-03 0. -1.
    9900012    2    1    2    0    0 -0.14705822957E+02  0.25834430039E+02 -0.11534428958E+02  0.59301920660E+02  0.49999957384E+02 0.  0.
        -12    1    1    2    0    0  0.14705822957E+02 -0.25834430039E+02  0.11534428958E+02  0.31886079340E+02  0.00000000000E+00 0.  1.
         11    1    3    3    0    0 -0.14300971407E+01 -0.25250951463E+01 -0.33766593750E+01  0.44523153668E+01  0.51100000000E-03 0. -1.
        -11    1    3    3    0    0 -0.18578717378E+02  0.76158799602E+00  0.10271759354E+02  0.21242829289E+02  0.51100000000E-03 0.  1.
        -12    1    3    3    0    0  0.53029915622E+01  0.27597937189E+02 -0.18429528937E+02  0.33606776005E+02  0.00000000000E+00 0.  1.
</event>
<event>
 7    1  0.1138240E-011  0.5930197E+02  0.7816164E-02  0.1266605E+00
        -11   -1    0    0    0    0  0.00000000000E+00  0.00000000000E+00  0.45593999997E+02  0.45594000000E+02  0.51100000000E-03 0. -1.
         11   -1    0    0    0    0 -0.00000000000E+00 -0.00000000000E+00 -0.45593999997E+02  0.45594000000E+02  0.51100000000E-03 0.  1.
    9900012    2    1    2    0    0 -0.29047273568E+02  0.11382379667E+02  0.65891076876E+01  0.59301968439E+02  0.50000044520E+02 0.  0.
        -12    1    1    2    0    0  0.29047273568E+02 -0.11382379667E+02 -0.65891076876E+01  0.31886031561E+02  0.00000000000E+00 0.  1.
         11    1    3    3    0    0 -0.91012138932E+01  0.18822997652E+02  0.13403396684E+02  0.24835224538E+02  0.51100000000E-03 0.  1.
        -11    1    3    3    0    0 -0.37633430026E+01  0.95400894833E+01 -0.31281936918E+01  0.10722017251E+02  0.51100000000E-03 0. -1.
         12    1    3    3    0    0 -0.16182716672E+02 -0.16980707469E+02 -0.36860953045E+01  0.23744726649E+02  0.00000000000E+00 0. -1.
</event>
<event>
 7    1  0.1138240E-011  0.5930193E+02  0.7816164E-02  0.1266605E+00
        -11   -1    0    0    0    0  0.00000000000E+00  0.00000000000E+00  0.45593999997E+02  0.45594000000E+02  0.51100000000E-03 0.  1.
         11   -1    0    0    0    0 -0.00000000000E+00 -0.00000000000E+00 -0.45593999997E+02  0.45594000000E+02  0.51100000000E-03 0. -1.
    9900012    2    1    2    0    0  0.28355703049E+02  0.62242328657E+01 -0.13188422585E+02  0.59301929994E+02  0.49999974406E+02 0.  0.
        -12    1    1    2    0    0 -0.28355703049E+02 -0.62242328657E+01  0.13188422585E+02  0.31886070006E+02  0.00000000000E+00 0.  1.
         11    1    3    3    0    0 -0.57627632049E+00  0.35481894344E+00 -0.54008766693E+01  0.54431112370E+01  0.51100000000E-03 0. -1.
        -11    1    3    3    0    0  0.81583213053E+01 -0.17563765161E+02 -0.11177750948E+02  0.22360370518E+02  0.51100000000E-03 0.  1.
         12    1    3    3    0    0  0.20773658064E+02  0.23433179084E+02  0.33902050328E+01  0.31498448239E+02  0.00000000000E+00 0. -1.
</event>
<event>
 7    1  0.1138240E-011  0.5930197E+02  0.7816164E-02  0.1266605E+00
        -11   -1    0    0    0    0  0.00000000000E+00  0.00000000000E+00  0.45593999997E+02  0.45594000000E+02  0.51100000000E-03 0.  1.
         11   -1    0    0    0    0 -0.00000000000E+00 -0.00000000000E+00 -0.45593999997E+02  0.45594000000E+02  0.51100000000E-03 0. -1.
    9900012    2    1    2    0    0  0.79020147379E+01 -0.79996706208E+01 -0.29837601164E+02  0.59301968416E+02  0.50000044478E+02 0.  0.
        -12    1    1    2    0    0 -0.79020147379E+01  0.79996706208E+01  0.29837601164E+02  0.31886031584E+02  0.00000000000E+00 0.  1.
         11    1    3    3    0    0  0.46223238380E+01  0.39016684674E+01 -0.30029600134E+01  0.67532705851E+01  0.51100000000E-03 0. -1.
        -11    1    3    3    0    0  0.16079786858E+02 -0.19345634000E+02 -0.42046850157E+01  0.25504754000E+02  0.51100000000E-03 0.  1.
        -12    1    3    3    0    0 -0.12800095958E+02  0.74442949114E+01 -0.22629956135E+02  0.27043943831E+02  0.00000000000E+00 0.  1.
</event>
<event>
 7    1  0.1138240E-011  0.5930161E+02  0.7816164E-02  0.1266606E+00
        -11   -1    0    0    0    0  0.00000000000E+00  0.00000000000E+00  0.45593999997E+02  0.45594000000E+02  0.51100000000E-03 0.  1.
         11   -1    0    0    0    0 -0.00000000000E+00 -0.00000000000E+00 -0.45593999997E+02  0.45594000000E+02  0.51100000000E-03 0. -1.
    9900012    2    1    2    0    0 -0.89929343525E+01  0.82007669200E+01 -0.29472294955E+02  0.59301613935E+02  0.49999397987E+02 0.  0.
        -12    1    1    2    0    0  0.89929343525E+01 -0.82007669200E+01  0.29472294955E+02  0.31886386065E+02  0.00000000000E+00 0.  1.
         11    1    3    3    0    0  0.32015059831E+00 -0.44177402963E+01 -0.20578403891E+02  0.21049694361E+02  0.51100000000E-03 0. -1.
        -11    1    3    3    0    0  0.92687419541E+01  0.78038828234E+01 -0.13874925882E+02  0.18420741924E+02  0.51100000000E-03 0.  1.
        -12    1    3    3    0    0 -0.18581826905E+02  0.48146243929E+01  0.49810348170E+01  0.19831177651E+02  0.00000000000E+00 0.  1.
</event>
<event>
 7    1  0.1138240E-011  0.5930198E+02  0.7816164E-02  0.1266605E+00
        -11   -1    0    0    0    0  0.00000000000E+00  0.00000000000E+00  0.45593999997E+02  0.45594000000E+02  0.51100000000E-03 0. -1.
         11   -1    0    0    0    0 -0.00000000000E+00 -0.00000000000E+00 -0.45593999997E+02  0.45594000000E+02  0.51100000000E-03 0.  1.
    9900012    2    1    2    0    0 -0.15829599303E+02 -0.25459266681E+02  0.10861306753E+02  0.59301977068E+02  0.50000060257E+02 0.  0.
        -12    1    1    2    0    0  0.15829599303E+02  0.25459266681E+02 -0.10861306753E+02  0.31886022932E+02  0.00000000000E+00 0.  1.
         11    1    3    3    0    0 -0.17431249421E+02 -0.62082948706E+00 -0.47004764563E+01  0.18064561019E+02  0.51100000000E-03 0. -1.
        -11    1    3    3    0    0 -0.43311038794E+01  0.56372032209E+01  0.35626007210E+01  0.79516441775E+01  0.51100000000E-03 0.  1.
         12    1    3    3    0    0  0.59327539969E+01 -0.30475640415E+02  0.11999182489E+02  0.33285771872E+02  0.00000000000E+00 0. -1.
</event>
<event>
 7    1  0.1138240E-011  0.5930193E+02  0.7816164E-02  0.1266605E+00
        -11   -1    0    0    0    0  0.00000000000E+00  0.00000000000E+00  0.45593999997E+02  0.45594000000E+02  0.51100000000E-03 0.  1.
         11   -1    0    0    0    0 -0.00000000000E+00 -0.00000000000E+00 -0.45593999997E+02  0.45594000000E+02  0.51100000000E-03 0. -1.
    9900012    2    1    2    0    0  0.21174490964E+02  0.59654485547E+01 -0.23081930672E+02  0.59301934586E+02  0.49999982780E+02 0.  0.
        -12    1    1    2    0    0 -0.21174490964E+02 -0.59654485547E+01  0.23081930672E+02  0.31886065414E+02  0.00000000000E+00 0.  1.
         11    1    3    3    0    0  0.14944540542E+02  0.10105639736E+01 -0.20665000512E+02  0.25522593480E+02  0.51100000000E-03 0. -1.
        -11    1    3    3    0    0 -0.10333268420E+02 -0.36761132916E+01 -0.87788604811E+01  0.14048438944E+02  0.51100000000E-03 0.  1.
         12    1    3    3    0    0  0.16563218842E+02  0.86309978727E+01  0.63619303212E+01  0.19730902161E+02  0.00000000000E+00 0. -1.
</event>
<event>
 7    1  0.1138240E-011  0.5930190E+02  0.7816164E-02  0.1266605E+00
        -11   -1    0    0    0    0  0.00000000000E+00  0.00000000000E+00  0.45593999997E+02  0.45594000000E+02  0.51100000000E-03 0.  1.
         11   -1    0    0    0    0 -0.00000000000E+00 -0.00000000000E+00 -0.45593999997E+02  0.45594000000E+02  0.51100000000E-03 0. -1.
    9900012    2    1    2    0    0 -0.17722566032E+02 -0.21514188321E+02 -0.15484619784E+02  0.59301904351E+02  0.49999927640E+02 0.  0.
        -12    1    1    2    0    0  0.17722566032E+02  0.21514188321E+02  0.15484619784E+02  0.31886095649E+02  0.00000000000E+00 0.  1.
         11    1    3    3    0    0 -0.22590195682E+02 -0.29351554606E+02 -0.84878059071E+01  0.37998336123E+02  0.51100000000E-03 0. -1.
        -11    1    3    3    0    0 -0.41043576030E+01  0.43589973374E+01  0.36027740928E+01  0.69876026322E+01  0.51100000000E-03 0.  1.
         12    1    3    3    0    0  0.89719872538E+01  0.34783689479E+01 -0.10599587970E+02  0.14315965596E+02  0.00000000000E+00 0. -1.
</event>
<event>
 7    1  0.1138240E-011  0.5930191E+02  0.7816164E-02  0.1266605E+00
        -11   -1    0    0    0    0  0.00000000000E+00  0.00000000000E+00  0.45593999997E+02  0.45594000000E+02  0.51100000000E-03 0.  1.
         11   -1    0    0    0    0 -0.00000000000E+00 -0.00000000000E+00 -0.45593999997E+02  0.45594000000E+02  0.51100000000E-03 0. -1.
    9900012    2    1    2    0    0 -0.13859463934E+02 -0.28064011245E+02  0.60868123416E+01  0.59301909738E+02  0.49999937465E+02 0.  0.
        -12    1    1    2    0    0  0.13859463934E+02  0.28064011245E+02 -0.60868123416E+01  0.31886090262E+02  0.00000000000E+00 0.  1.
         11    1    3    3    0    0 -0.11897619594E+02 -0.97534165986E+01 -0.56330563590E+01  0.16383339451E+02  0.51100000000E-03 0. -1.
        -11    1    3    3    0    0 -0.17536720154E+02 -0.45603348719E+01  0.12686997379E+02  0.22119970856E+02  0.51100000000E-03 0.  1.
         12    1    3    3    0    0  0.15574875813E+02 -0.13750259774E+02 -0.96712867854E+00  0.20798599432E+02  0.00000000000E+00 0. -1.
</event>
<event>
 7    1  0.1138240E-011  0.5930195E+02  0.7816164E-02  0.1266605E+00
        -11   -1    0    0    0    0  0.00000000000E+00  0.00000000000E+00  0.45593999997E+02  0.45594000000E+02  0.51100000000E-03 0.  1.
         11   -1    0    0    0    0 -0.00000000000E+00 -0.00000000000E+00 -0.45593999997E+02  0.45594000000E+02  0.51100000000E-03 0. -1.
    9900012    2    1    2    0    0 -0.11364018736E+02 -0.27374185488E+02  0.11757257645E+02  0.59301951950E+02  0.50000014448E+02 0.  0.
        -12    1    1    2    0    0  0.11364018736E+02  0.27374185488E+02 -0.11757257645E+02  0.31886048050E+02  0.00000000000E+00 0.  1.
         11    1    3    3    0    0 -0.16506489812E+02 -0.18357652248E+02 -0.10158152966E+02  0.26695611510E+02  0.51100000000E-03 0. -1.
        -11    1    3    3    0    0  0.85399427179E+01 -0.11551873686E+02  0.50676451666E+01  0.15233431494E+02  0.51100000000E-03 0.  1.
         12    1    3    3    0    0 -0.33974716416E+01  0.25353404468E+01  0.16847765445E+02  0.17372908945E+02  0.00000000000E+00 0. -1.
</event>
<event>
 7    1  0.1138240E-011  0.5930193E+02  0.7816164E-02  0.1266605E+00
        -11   -1    0    0    0    0  0.00000000000E+00  0.00000000000E+00  0.45593999997E+02  0.45594000000E+02  0.51100000000E-03 0.  1.
         11   -1    0    0    0    0 -0.00000000000E+00 -0.00000000000E+00 -0.45593999997E+02  0.45594000000E+02  0.51100000000E-03 0. -1.
    9900012    2    1    2    0    0  0.23173012686E+01  0.15686235340E+02 -0.27663941801E+02  0.59301928742E+02  0.49999972122E+02 0.  0.
        -12    1    1    2    0    0 -0.23173012686E+01 -0.15686235340E+02  0.27663941801E+02  0.31886071258E+02  0.00000000000E+00 0.  1.
         11    1    3    3    0    0 -0.13528919814E+02 -0.51874710082E+00 -0.96383490538E+00  0.13573125943E+02  0.51100000000E-03 0.  1.
        -11    1    3    3    0    0  0.43852652305E+01  0.12796500708E+02 -0.30349196242E+02  0.33227318494E+02  0.51100000000E-03 0. -1.
         12    1    3    3    0    0  0.11460955852E+02  0.34084817323E+01  0.36490893464E+01  0.12501484305E+02  0.00000000000E+00 0. -1.
</event>
<event>
 7    1  0.1138240E-011  0.5930197E+02  0.7816164E-02  0.1266605E+00
        -11   -1    0    0    0    0  0.00000000000E+00  0.00000000000E+00  0.45593999997E+02  0.45594000000E+02  0.51100000000E-03 0. -1.
         11   -1    0    0    0    0 -0.00000000000E+00 -0.00000000000E+00 -0.45593999997E+02  0.45594000000E+02  0.51100000000E-03 0.  1.
    9900012    2    1    2    0    0  0.24277960925E+02 -0.85300278448E+01  0.18829185161E+02  0.59301968959E+02  0.50000045469E+02 0.  0.
        -12    1    1    2    0    0 -0.24277960925E+02  0.85300278448E+01 -0.18829185161E+02  0.31886031041E+02  0.00000000000E+00 0.  1.
         11    1    3    3    0    0  0.88787768452E+01  0.24249503666E+01  0.59970203867E+01  0.10985322768E+02  0.51100000000E-03 0. -1.
        -11    1    3    3    0    0  0.30272167403E+02 -0.80555951069E+01  0.71339892732E+01  0.32127722219E+02  0.51100000000E-03 0.  1.
         12    1    3    3    0    0 -0.14872983323E+02 -0.28993831045E+01  0.56981755009E+01  0.16188923972E+02  0.00000000000E+00 0. -1.
</event>
<event>
 7    1  0.1138240E-011  0.5930195E+02  0.7816164E-02  0.1266605E+00
        -11   -1    0    0    0    0  0.00000000000E+00  0.00000000000E+00  0.45593999997E+02  0.45594000000E+02  0.51100000000E-03 0.  1.
         11   -1    0    0    0    0 -0.00000000000E+00 -0.00000000000E+00 -0.45593999997E+02  0.45594000000E+02  0.51100000000E-03 0. -1.
    9900012    2    1    2    0    0 -0.15690859148E+02 -0.27730719042E+02 -0.12346367397E+01  0.59301950271E+02  0.50000011387E+02 0.  0.
        -12    1    1    2    0    0  0.15690859148E+02  0.27730719042E+02  0.12346367397E+01  0.31886049729E+02  0.00000000000E+00 0.  1.
         11    1    3    3    0    0  0.78826425015E+00 -0.10369754115E+02  0.15259368788E+02  0.18466225846E+02  0.51100000000E-03 0. -1.
        -11    1    3    3    0    0  0.39655552409E+01  0.51958383758E+01 -0.52454809234E+01  0.83807777190E+01  0.51100000000E-03 0.  1.
         12    1    3    3    0    0 -0.20444678639E+02 -0.22556803303E+02 -0.11248524604E+02  0.32454946706E+02  0.00000000000E+00 0. -1.
</event>
<event>
 7    1  0.1138240E-011  0.5930197E+02  0.7816164E-02  0.1266605E+00
        -11   -1    0    0    0    0  0.00000000000E+00  0.00000000000E+00  0.45593999997E+02  0.45594000000E+02  0.51100000000E-03 0. -1.
         11   -1    0    0    0    0 -0.00000000000E+00 -0.00000000000E+00 -0.45593999997E+02  0.45594000000E+02  0.51100000000E-03 0.  1.
    9900012    2    1    2    0    0  0.38655925898E+01  0.24411387722E+02  0.20145981400E+02  0.59301965076E+02  0.50000038388E+02 0.  0.
        -12    1    1    2    0    0 -0.38655925898E+01 -0.24411387722E+02 -0.20145981400E+02  0.31886034924E+02  0.00000000000E+00 0.  1.
         11    1    3    3    0    0  0.22676874250E+00 -0.13939408860E+02  0.11499210846E+02  0.18071812133E+02  0.51100000000E-03 0. -1.
        -11    1    3    3    0    0 -0.35985245861E+01  0.17274139308E+02  0.10120734134E+01  0.17673979770E+02  0.51100000000E-03 0.  1.
        -12    1    3    3    0    0  0.72373484334E+01  0.21076657274E+02  0.76346971407E+01  0.23556173174E+02  0.00000000000E+00 0.  1.
</event>
<event>
 7    1  0.1138240E-011  0.5930184E+02  0.7816164E-02  0.1266605E+00
        -11   -1    0    0    0    0  0.00000000000E+00  0.00000000000E+00  0.45593999997E+02  0.45594000000E+02  0.51100000000E-03 0. -1.
         11   -1    0    0    0    0 -0.00000000000E+00 -0.00000000000E+00 -0.45593999997E+02  0.45594000000E+02  0.51100000000E-03 0.  1.
    9900012    2    1    2    0    0  0.30646804242E+02  0.85365250152E+01 -0.21513054131E+01  0.59301843371E+02  0.49999816426E+02 0.  0.
        -12    1    1    2    0    0 -0.30646804242E+02 -0.85365250152E+01  0.21513054131E+01  0.31886156629E+02  0.00000000000E+00 0.  1.
         11    1    3    3    0    0 -0.59504535837E+01 -0.51320937398E+01 -0.44134996069E+01  0.90125059249E+01  0.51100000000E-03 0. -1.
        -11    1    3    3    0    0 -0.54223999966E+01  0.41676649878E+01  0.22797057091E+01  0.72089466328E+01  0.51100000000E-03 0.  1.
        -12    1    3    3    0    0  0.42019657822E+02  0.95009537672E+01 -0.17511515289E-01  0.43080390813E+02  0.00000000000E+00 0.  1.
</event>
<event>
 7    1  0.1138240E-011  0.5930194E+02  0.7816164E-02  0.1266605E+00
        -11   -1    0    0    0    0  0.00000000000E+00  0.00000000000E+00  0.45593999997E+02  0.45594000000E+02  0.51100000000E-03 0. -1.
         11   -1    0    0    0    0 -0.00000000000E+00 -0.00000000000E+00 -0.45593999997E+02  0.45594000000E+02  0.51100000000E-03 0.  1.
    9900012    2    1    2    0    0  0.15924071492E+02 -0.27607837768E+02 -0.97583204891E+00  0.59301937100E+02  0.49999987365E+02 0.  0.
        -12    1    1    2    0    0 -0.15924071492E+02  0.27607837768E+02  0.97583204891E+00  0.31886062900E+02  0.00000000000E+00 0.  1.
         11    1    3    3    0    0 -0.80943568074E+01 -0.24004062524E+01 -0.19230674548E+01  0.86590271393E+01  0.51100000000E-03 0. -1.
        -11    1    3    3    0    0  0.17440616499E+02 -0.22041355602E+02 -0.15892581486E+02  0.32288861968E+02  0.51100000000E-03 0.  1.
         12    1    3    3    0    0  0.65778117998E+01 -0.31660759129E+01  0.16839816892E+02  0.18354047992E+02  0.00000000000E+00 0. -1.
</event>
<event>
 7    1  0.1138240E-011  0.5930195E+02  0.7816164E-02  0.1266605E+00
        -11   -1    0    0    0    0  0.00000000000E+00  0.00000000000E+00  0.45593999997E+02  0.45594000000E+02  0.51100000000E-03 0.  1.
         11   -1    0    0    0    0 -0.00000000000E+00 -0.00000000000E+00 -0.45593999997E+02  0.45594000000E+02  0.51100000000E-03 0. -1.
    9900012    2    1    2    0    0 -0.94373501002E+01  0.29464041083E+02  0.77153644597E+01  0.59301950658E+02  0.50000012093E+02 0.  0.
        -12    1    1    2    0    0  0.94373501002E+01 -0.29464041083E+02 -0.77153644597E+01  0.31886049342E+02  0.00000000000E+00 0.  1.
         11    1    3    3    0    0  0.32296693536E+01  0.15398046840E+00 -0.10804555017E+02  0.11277982244E+02  0.51100000000E-03 0. -1.
        -11    1    3    3    0    0  0.94168003984E+01  0.13376214143E+02  0.28485040487E+01  0.16604614121E+02  0.51100000000E-03 0.  1.
         12    1    3    3    0    0 -0.22083819852E+02  0.15933846472E+02  0.15671415428E+02  0.31419354293E+02  0.00000000000E+00 0. -1.
</event>
<event>
 7    1  0.1138240E-011  0.5930195E+02  0.7816164E-02  0.1266605E+00
        -11   -1    0    0    0    0  0.00000000000E+00  0.00000000000E+00  0.45593999997E+02  0.45594000000E+02  0.51100000000E-03 0.  1.
         11   -1    0    0    0    0 -0.00000000000E+00 -0.00000000000E+00 -0.45593999997E+02  0.45594000000E+02  0.51100000000E-03 0. -1.
    9900012    2    1    2    0    0 -0.15632753839E+02  0.61815368183E+01 -0.27094757367E+02  0.59301948711E+02  0.50000008541E+02 0.  0.
        -12    1    1    2    0    0  0.15632753839E+02 -0.61815368183E+01  0.27094757367E+02  0.31886051289E+02  0.00000000000E+00 0.  1.
         11    1    3    3    0    0  0.32453599753E+00 -0.40968815216E+01 -0.15432332535E+02  0.15970180009E+02  0.51100000000E-03 0. -1.
        -11    1    3    3    0    0 -0.64058576508E+01 -0.13895223595E+02 -0.73858722887E+01  0.16990095960E+02  0.51100000000E-03 0.  1.
         12    1    3    3    0    0 -0.95514321857E+01  0.24173641935E+02 -0.42765525437E+01  0.26341672742E+02  0.00000000000E+00 0. -1.
</event>
<event>
 7    1  0.1138240E-011  0.5930191E+02  0.7816164E-02  0.1266605E+00
        -11   -1    0    0    0    0  0.00000000000E+00  0.00000000000E+00  0.45593999997E+02  0.45594000000E+02  0.51100000000E-03 0.  1.
         11   -1    0    0    0    0 -0.00000000000E+00 -0.00000000000E+00 -0.45593999997E+02  0.45594000000E+02  0.51100000000E-03 0. -1.
    9900012    2    1    2    0    0 -0.30102159912E+02  0.55598713187E+01 -0.89258422354E+01  0.59301908047E+02  0.49999934379E+02 0.  0.
        -12    1    1    2    0    0  0.30102159912E+02 -0.55598713187E+01  0.89258422354E+01  0.31886091953E+02  0.00000000000E+00 0.  1.
         11    1    3    3    0    0 -0.13222546160E+02 -0.14077405721E+02 -0.56902597296E+00  0.19321823661E+02  0.51100000000E-03 0. -1.
        -11    1    3    3    0    0 -0.22912746263E+02  0.61621660811E+01 -0.17089451873E+01  0.23788373757E+02  0.51100000000E-03 0.  1.
         12    1    3    3    0    0  0.60331325107E+01  0.13475110958E+02 -0.66478710752E+01  0.16191710628E+02  0.00000000000E+00 0. -1.
</event>
<event>
 7    1  0.1138240E-011  0.5930200E+02  0.7816164E-02  0.1266605E+00
        -11   -1    0    0    0    0  0.00000000000E+00  0.00000000000E+00  0.45593999997E+02  0.45594000000E+02  0.51100000000E-03 0.  1.
         11   -1    0    0    0    0 -0.00000000000E+00 -0.00000000000E+00 -0.45593999997E+02  0.45594000000E+02  0.51100000000E-03 0. -1.
    9900012    2    1    2    0    0 -0.61095577099E+01  0.36321839259E+01 -0.31083715621E+02  0.59302002567E+02  0.50000106761E+02 0.  0.
        -12    1    1    2    0    0  0.61095577099E+01 -0.36321839259E+01  0.31083715621E+02  0.31885997433E+02  0.00000000000E+00 0.  1.
         11    1    3    3    0    0  0.40512426268E+01  0.91509491833E+01 -0.79377673208E+00  0.10039049733E+02  0.51100000000E-03 0.  1.
        -11    1    3    3    0    0 -0.80308154494E+00  0.10609367460E+02  0.30454438134E+01  0.11066993547E+02  0.51100000000E-03 0. -1.
         12    1    3    3    0    0 -0.93577187917E+01 -0.16128132718E+02 -0.33335382703E+02  0.38195959287E+02  0.00000000000E+00 0. -1.
</event>
<event>
 7    1  0.1138240E-011  0.5930194E+02  0.7816164E-02  0.1266605E+00
        -11   -1    0    0    0    0  0.00000000000E+00  0.00000000000E+00  0.45593999997E+02  0.45594000000E+02  0.51100000000E-03 0. -1.
         11   -1    0    0    0    0 -0.00000000000E+00 -0.00000000000E+00 -0.45593999997E+02  0.45594000000E+02  0.51100000000E-03 0.  1.
    9900012    2    1    2    0    0  0.79103751855E+01  0.30842826635E+02 -0.16931256876E+01  0.59301942467E+02  0.49999997154E+02 0.  0.
        -12    1    1    2    0    0 -0.79103751855E+01 -0.30842826635E+02  0.16931256876E+01  0.31886057533E+02  0.00000000000E+00 0.  1.
         11    1    3    3    0    0 -0.15003587354E+01  0.16379034312E+02  0.11182748318E+02  0.19889135263E+02  0.51100000000E-03 0. -1.
        -11    1    3    3    0    0 -0.74296694485E+01 -0.48408992632E+01 -0.10412626095E+02  0.13676881086E+02  0.51100000000E-03 0.  1.
         12    1    3    3    0    0  0.16840403369E+02  0.19304691586E+02 -0.24632479111E+01  0.25735926118E+02  0.00000000000E+00 0. -1.
</event>
<event>
 7    1  0.1138240E-011  0.5930194E+02  0.7816164E-02  0.1266605E+00
        -11   -1    0    0    0    0  0.00000000000E+00  0.00000000000E+00  0.45593999997E+02  0.45594000000E+02  0.51100000000E-03 0.  1.
         11   -1    0    0    0    0 -0.00000000000E+00 -0.00000000000E+00 -0.45593999997E+02  0.45594000000E+02  0.51100000000E-03 0. -1.
    9900012    2    1    2    0    0  0.10441062556E+02  0.26308988066E+02 -0.14681345299E+02  0.59301944425E+02  0.50000000725E+02 0.  0.
        -12    1    1    2    0    0 -0.10441062556E+02 -0.26308988066E+02  0.14681345299E+02  0.31886055575E+02  0.00000000000E+00 0.  1.
         11    1    3    3    0    0  0.72667995753E+01  0.34365070266E+01 -0.12733651722E+02  0.15058613583E+02  0.51100000000E-03 0. -1.
        -11    1    3    3    0    0 -0.58996490771E+01  0.42650764759E+01  0.15529051616E+02  0.17150748699E+02  0.51100000000E-03 0.  1.
         12    1    3    3    0    0  0.90739120578E+01  0.18607404563E+02 -0.17476745194E+02  0.27092582143E+02  0.00000000000E+00 0. -1.
</event>
<event>
 7    1  0.1603157E-011  0.5930194E+02  0.7816164E-02  0.1266605E+00
        -11   -1    0    0    0    0  0.00000000000E+00  0.00000000000E+00  0.45593999997E+02  0.45594000000E+02  0.51100000000E-03 0. -1.
         11   -1    0    0    0    0 -0.00000000000E+00 -0.00000000000E+00 -0.45593999997E+02  0.45594000000E+02  0.51100000000E-03 0.  1.
    9900012    2    1    2    0    0  0.24689209016E+02  0.15628411394E+02  0.12763869407E+02  0.59301942753E+02  0.49999997675E+02 0.  0.
        -12    1    1    2    0    0 -0.24689209016E+02 -0.15628411394E+02 -0.12763869407E+02  0.31886057247E+02  0.00000000000E+00 0.  1.
         11    1    3    3    0    0  0.19286381497E+02  0.14857331711E+02  0.12992762809E+02  0.27595592084E+02  0.51100000000E-03 0. -1.
        -11    1    3    3    0    0  0.16340176040E+02 -0.66008000762E+01 -0.38287029232E+01  0.18034158727E+02  0.51100000000E-03 0.  1.
        -12    1    3    3    0    0 -0.10937348522E+02  0.73718797597E+01  0.35998095217E+01  0.13672191941E+02  0.00000000000E+00 0.  1.
</event>
<event>
 7    1  0.1138240E-011  0.5930195E+02  0.7816164E-02  0.1266605E+00
        -11   -1    0    0    0    0  0.00000000000E+00  0.00000000000E+00  0.45593999997E+02  0.45594000000E+02  0.51100000000E-03 0.  1.
         11   -1    0    0    0    0 -0.00000000000E+00 -0.00000000000E+00 -0.45593999997E+02  0.45594000000E+02  0.51100000000E-03 0. -1.
    9900012    2    1    2    0    0 -0.30305497368E+02 -0.63120566300E+01  0.76455766807E+01  0.59301951759E+02  0.50000014101E+02 0.  0.
        -12    1    1    2    0    0  0.30305497368E+02  0.63120566300E+01 -0.76455766807E+01  0.31886048241E+02  0.00000000000E+00 0.  1.
         11    1    3    3    0    0 -0.10400934675E+02  0.24417411487E+01 -0.48837231240E+01  0.11747012121E+02  0.51100000000E-03 0. -1.
        -11    1    3    3    0    0 -0.31586574007E+02 -0.25284964895E+01  0.13139175990E+02  0.34303686361E+02  0.51100000000E-03 0.  1.
        -12    1    3    3    0    0  0.11682011314E+02 -0.62253012892E+01 -0.60987618514E+00  0.13251253278E+02  0.00000000000E+00 0.  1.
</event>
<event>
 7    1  0.1138240E-011  0.5930194E+02  0.7816164E-02  0.1266605E+00
        -11   -1    0    0    0    0  0.00000000000E+00  0.00000000000E+00  0.45593999997E+02  0.45594000000E+02  0.51100000000E-03 0.  1.
         11   -1    0    0    0    0 -0.00000000000E+00 -0.00000000000E+00 -0.45593999997E+02  0.45594000000E+02  0.51100000000E-03 0. -1.
    9900012    2    1    2    0    0 -0.71071166673E+01  0.10863936642E+02 -0.29123604556E+02  0.59301943972E+02  0.49999999898E+02 0.  0.
        -12    1    1    2    0    0  0.71071166673E+01 -0.10863936642E+02  0.29123604556E+02  0.31886056028E+02  0.00000000000E+00 0.  1.
         11    1    3    3    0    0 -0.93879035986E+01  0.12084957317E+02 -0.88707575318E+01  0.17688110888E+02  0.51100000000E-03 0. -1.
        -11    1    3    3    0    0  0.91257981697E+01  0.12614090155E+02  0.70508787264E+00  0.15585012410E+02  0.51100000000E-03 0.  1.
         12    1    3    3    0    0 -0.68450112384E+01 -0.13835110830E+02 -0.20957934897E+02  0.26028820674E+02  0.00000000000E+00 0. -1.
</event>
<event>
 7    1  0.1138240E-011  0.5930202E+02  0.7816164E-02  0.1266604E+00
        -11   -1    0    0    0    0  0.00000000000E+00  0.00000000000E+00  0.45593999997E+02  0.45594000000E+02  0.51100000000E-03 0.  1.
         11   -1    0    0    0    0 -0.00000000000E+00 -0.00000000000E+00 -0.45593999997E+02  0.45594000000E+02  0.51100000000E-03 0. -1.
    9900012    2    1    2    0    0 -0.13789415154E+02 -0.28151497398E+02 -0.58361777804E+01  0.59302019583E+02  0.50000137795E+02 0.  0.
        -12    1    1    2    0    0  0.13789415154E+02  0.28151497398E+02  0.58361777804E+01  0.31885980417E+02  0.00000000000E+00 0.  1.
         11    1    3    3    0    0 -0.21593620064E+01 -0.16867366638E+02  0.23985753985E+01  0.17173353365E+02  0.51100000000E-03 0. -1.
        -11    1    3    3    0    0 -0.45187793833E+01 -0.19970507907E+01  0.15175178478E+02  0.15959123443E+02  0.51100000000E-03 0.  1.
         12    1    3    3    0    0 -0.71112737646E+01 -0.92870799692E+01 -0.23409931657E+02  0.26169542776E+02  0.00000000000E+00 0. -1.
</event>
<event>
 7    1  0.1138240E-011  0.5930195E+02  0.7816164E-02  0.1266605E+00
        -11   -1    0    0    0    0  0.00000000000E+00  0.00000000000E+00  0.45593999997E+02  0.45594000000E+02  0.51100000000E-03 0.  1.
         11   -1    0    0    0    0 -0.00000000000E+00 -0.00000000000E+00 -0.45593999997E+02  0.45594000000E+02  0.51100000000E-03 0. -1.
    9900012    2    1    2    0    0 -0.14010878229E+02  0.28636626925E+02  0.59916663515E+00  0.59301951154E+02  0.50000012996E+02 0.  0.
        -12    1    1    2    0    0  0.14010878229E+02 -0.28636626925E+02 -0.59916663515E+00  0.31886048846E+02  0.00000000000E+00 0.  1.
         11    1    3    3    0    0  0.11078088673E+02  0.12162183485E+02  0.36466143877E+01  0.16850535674E+02  0.51100000000E-03 0. -1.
        -11    1    3    3    0    0  0.11353000056E+01  0.96663928951E+01  0.85737940104E+01  0.12970659262E+02  0.51100000000E-03 0.  1.
         12    1    3    3    0    0 -0.26224266907E+02  0.68080505445E+01 -0.11621241763E+02  0.29480756217E+02  0.00000000000E+00 0. -1.
</event>
<event>
 7    1  0.1138240E-011  0.5930196E+02  0.7816164E-02  0.1266605E+00
        -11   -1    0    0    0    0  0.00000000000E+00  0.00000000000E+00  0.45593999997E+02  0.45594000000E+02  0.51100000000E-03 0.  1.
         11   -1    0    0    0    0 -0.00000000000E+00 -0.00000000000E+00 -0.45593999997E+02  0.45594000000E+02  0.51100000000E-03 0. -1.
    9900012    2    1    2    0    0 -0.62574980819E+01  0.31159899780E+02  0.25737145412E+01  0.59301958492E+02  0.50000026379E+02 0.  0.
        -12    1    1    2    0    0  0.62574980819E+01 -0.31159899780E+02 -0.25737145412E+01  0.31886041508E+02  0.00000000000E+00 0.  1.
         11    1    3    3    0    0  0.10984651763E+02  0.26788285288E+01  0.78202646378E+01  0.13747553815E+02  0.51100000000E-03 0. -1.
        -11    1    3    3    0    0 -0.42214872883E+01  0.15207981024E+02  0.12283916531E+02  0.19999956184E+02  0.51100000000E-03 0.  1.
         12    1    3    3    0    0 -0.13020662557E+02  0.13273090227E+02 -0.17530466628E+02  0.25554448493E+02  0.00000000000E+00 0. -1.
</event>
<event>
 7    1  0.1138240E-011  0.5930195E+02  0.7816164E-02  0.1266605E+00
        -11   -1    0    0    0    0  0.00000000000E+00  0.00000000000E+00  0.45593999997E+02  0.45594000000E+02  0.51100000000E-03 0.  1.
         11   -1    0    0    0    0 -0.00000000000E+00 -0.00000000000E+00 -0.45593999997E+02  0.45594000000E+02  0.51100000000E-03 0. -1.
    9900012    2    1    2    0    0 -0.18615485707E+01  0.18150769833E+02 -0.26149650513E+02  0.59301952416E+02  0.50000015298E+02 0.  0.
        -12    1    1    2    0    0  0.18615485707E+01 -0.18150769833E+02  0.26149650513E+02  0.31886047584E+02  0.00000000000E+00 0.  1.
         11    1    3    3    0    0  0.68362688183E+01  0.21815641638E+01 -0.51791330630E+00  0.71945832410E+01  0.51100000000E-03 0. -1.
        -11    1    3    3    0    0 -0.76010507993E+01  0.15703084037E+02  0.74760424868E+01  0.18980359139E+02  0.51100000000E-03 0.  1.
         12    1    3    3    0    0 -0.10967665898E+01  0.26612163190E+00 -0.33107779693E+02  0.33127010036E+02  0.00000000000E+00 0. -1.
</event>
<event>
 7    1  0.1138240E-011  0.5930198E+02  0.7816164E-02  0.1266605E+00
        -11   -1    0    0    0    0  0.00000000000E+00  0.00000000000E+00  0.45593999997E+02  0.45594000000E+02  0.51100000000E-03 0. -1.
         11   -1    0    0    0    0 -0.00000000000E+00 -0.00000000000E+00 -0.45593999997E+02  0.45594000000E+02  0.51100000000E-03 0.  1.
    9900012    2    1    2    0    0  0.62818915416E+01  0.29940719646E+02  0.89894141799E+01  0.59301977646E+02  0.50000061311E+02 0.  0.
        -12    1    1    2    0    0 -0.62818915416E+01 -0.29940719646E+02 -0.89894141799E+01  0.31886022354E+02  0.00000000000E+00 0.  1.
         11    1    3    3    0    0 -0.23076769174E+01  0.10775332373E+02  0.20959657935E+02  0.23679958224E+02  0.51100000000E-03 0. -1.
        -11    1    3    3    0    0  0.57117900200E+01  0.11014852292E+02  0.73746397319E+01  0.14433877777E+02  0.51100000000E-03 0.  1.
        -12    1    3    3    0    0  0.28777784390E+01  0.81505349813E+01 -0.19344883487E+02  0.21188141644E+02  0.00000000000E+00 0.  1.
</event>
<event>
 7    1  0.1138240E-011  0.5930197E+02  0.7816164E-02  0.1266605E+00
        -11   -1    0    0    0    0  0.00000000000E+00  0.00000000000E+00  0.45593999997E+02  0.45594000000E+02  0.51100000000E-03 0. -1.
         11   -1    0    0    0    0 -0.00000000000E+00 -0.00000000000E+00 -0.45593999997E+02  0.45594000000E+02  0.51100000000E-03 0.  1.
    9900012    2    1    2    0    0 -0.60554545463E+01  0.12589965694E+02  0.28662572603E+02  0.59301971176E+02  0.50000049512E+02 0.  0.
        -12    1    1    2    0    0  0.60554545463E+01 -0.12589965694E+02 -0.28662572603E+02  0.31886028824E+02  0.00000000000E+00 0.  1.
         11    1    3    3    0    0 -0.12168780808E+02  0.82989942185E+00  0.39528956452E+01  0.12821596766E+02  0.51100000000E-03 0. -1.
        -11    1    3    3    0    0 -0.38604142100E+01  0.63961921117E+01 -0.85449699664E+01  0.11350356091E+02  0.51100000000E-03 0.  1.
        -12    1    3    3    0    0  0.99737404714E+01  0.53638741604E+01  0.33254646924E+02  0.35130018319E+02  0.00000000000E+00 0.  1.
</event>
<event>
 7    1  0.1138240E-011  0.5930199E+02  0.7816164E-02  0.1266605E+00
        -11   -1    0    0    0    0  0.00000000000E+00  0.00000000000E+00  0.45593999997E+02  0.45594000000E+02  0.51100000000E-03 0.  1.
         11   -1    0    0    0    0 -0.00000000000E+00 -0.00000000000E+00 -0.45593999997E+02  0.45594000000E+02  0.51100000000E-03 0. -1.
    9900012    2    1    2    0    0 -0.25284144881E+02 -0.16650058448E+02 -0.10010257144E+02  0.59301989325E+02  0.50000082611E+02 0.  0.
        -12    1    1    2    0    0  0.25284144881E+02  0.16650058448E+02  0.10010257144E+02  0.31886010675E+02  0.00000000000E+00 0.  1.
         11    1    3    3    0    0  0.87260734076E+01 -0.66938851630E+01  0.13522310162E+01  0.11080658134E+02  0.51100000000E-03 0. -1.
        -11    1    3    3    0    0 -0.86185787987E+01 -0.17549758517E+02 -0.92642121831E+01  0.21635608430E+02  0.51100000000E-03 0.  1.
         12    1    3    3    0    0 -0.25391639490E+02  0.75935852318E+01 -0.20982759769E+01  0.26585722761E+02  0.00000000000E+00 0. -1.
</event>
<event>
 7    1  0.1138240E-011  0.5930194E+02  0.7816164E-02  0.1266605E+00
        -11   -1    0    0    0    0  0.00000000000E+00  0.00000000000E+00  0.45593999997E+02  0.45594000000E+02  0.51100000000E-03 0. -1.
         11   -1    0    0    0    0 -0.00000000000E+00 -0.00000000000E+00 -0.45593999997E+02  0.45594000000E+02  0.51100000000E-03 0.  1.
    9900012    2    1    2    0    0 -0.46373822808E-01 -0.27832185792E+02  0.15559185636E+02  0.59301937619E+02  0.49999988312E+02 0.  0.
        -12    1    1    2    0    0  0.46373822808E-01  0.27832185792E+02 -0.15559185636E+02  0.31886062381E+02  0.00000000000E+00 0.  1.
         11    1    3    3    0    0 -0.79248961728E+01 -0.26118249759E+02  0.23136853295E+02  0.35781013548E+02  0.51100000000E-03 0. -1.
        -11    1    3    3    0    0 -0.63810931506E+01 -0.31829515496E+01  0.35054314281E+00  0.71394965593E+01  0.51100000000E-03 0.  1.
        -12    1    3    3    0    0  0.14259615501E+02  0.14690155164E+01 -0.79282108021E+01  0.16381427512E+02  0.00000000000E+00 0.  1.
</event>
<event>
 7    1  0.1138240E-011  0.5930186E+02  0.7816164E-02  0.1266605E+00
        -11   -1    0    0    0    0  0.00000000000E+00  0.00000000000E+00  0.45593999997E+02  0.45594000000E+02  0.51100000000E-03 0. -1.
         11   -1    0    0    0    0 -0.00000000000E+00 -0.00000000000E+00 -0.45593999997E+02  0.45594000000E+02  0.51100000000E-03 0.  1.
    9900012    2    1    2    0    0 -0.65494210143E+01  0.30810483298E+02  0.49542753750E+01  0.59301864436E+02  0.49999854844E+02 0.  0.
        -12    1    1    2    0    0  0.65494210143E+01 -0.30810483298E+02 -0.49542753750E+01  0.31886135564E+02  0.00000000000E+00 0.  1.
         11    1    3    3    0    0  0.57676488720E+01  0.31632614601E+02  0.17516658154E+02  0.36615862589E+02  0.51100000000E-03 0. -1.
        -11    1    3    3    0    0  0.65736089019E+00  0.45913405023E+01 -0.45848628166E+01  0.65217710981E+01  0.51100000000E-03 0.  1.
        -12    1    3    3    0    0 -0.12974430777E+02 -0.54134718048E+01 -0.79775199624E+01  0.16164230749E+02  0.00000000000E+00 0.  1.
</event>
<event>
 7    1  0.1138240E-011  0.5930194E+02  0.7816164E-02  0.1266605E+00
        -11   -1    0    0    0    0  0.00000000000E+00  0.00000000000E+00  0.45593999997E+02  0.45594000000E+02  0.51100000000E-03 0. -1.
         11   -1    0    0    0    0 -0.00000000000E+00 -0.00000000000E+00 -0.45593999997E+02  0.45594000000E+02  0.51100000000E-03 0.  1.
    9900012    2    1    2    0    0 -0.69811494315E+01  0.19884856742E+02  0.23928582516E+02  0.59301936645E+02  0.49999986536E+02 0.  0.
        -12    1    1    2    0    0  0.69811494315E+01 -0.19884856742E+02 -0.23928582516E+02  0.31886063355E+02  0.00000000000E+00 0.  1.
         11    1    3    3    0    0 -0.47547069899E+01  0.17874058785E+02  0.36383735645E+02  0.40815014832E+02  0.51100000000E-03 0. -1.
        -11    1    3    3    0    0 -0.56315590472E+00 -0.47021590398E+01 -0.61585501463E+00  0.47756383729E+01  0.51100000000E-03 0.  1.
        -12    1    3    3    0    0 -0.16632865369E+01  0.67129569961E+01 -0.11839298114E+02  0.13711283440E+02  0.00000000000E+00 0.  1.
</event>
<event>
 7    1  0.1138240E-011  0.5930192E+02  0.7816164E-02  0.1266605E+00
        -11   -1    0    0    0    0  0.00000000000E+00  0.00000000000E+00  0.45593999997E+02  0.45594000000E+02  0.51100000000E-03 0.  1.
         11   -1    0    0    0    0 -0.00000000000E+00 -0.00000000000E+00 -0.45593999997E+02  0.45594000000E+02  0.51100000000E-03 0. -1.
    9900012    2    1    2    0    0  0.27802626377E+02 -0.14449527065E+02  0.59115985773E+01  0.59301923672E+02  0.49999962875E+02 0.  0.
        -12    1    1    2    0    0 -0.27802626377E+02  0.14449527065E+02 -0.59115985773E+01  0.31886076328E+02  0.00000000000E+00 0.  1.
         11    1    3    3    0    0  0.16491795972E+02  0.87952016530E+01 -0.40748068015E+01  0.19129531025E+02  0.51100000000E-03 0. -1.
        -11    1    3    3    0    0  0.35478494756E+01  0.58471623171E+01  0.72052442662E+01  0.99343891740E+01  0.51100000000E-03 0.  1.
         12    1    3    3    0    0  0.77629809297E+01 -0.29091891035E+02  0.27811611126E+01  0.30238003473E+02  0.00000000000E+00 0. -1.
</event>
<event>
 7    1  0.1138240E-011  0.5930201E+02  0.7816164E-02  0.1266605E+00
        -11   -1    0    0    0    0  0.00000000000E+00  0.00000000000E+00  0.45593999997E+02  0.45594000000E+02  0.51100000000E-03 0. -1.
         11   -1    0    0    0    0 -0.00000000000E+00 -0.00000000000E+00 -0.45593999997E+02  0.45594000000E+02  0.51100000000E-03 0.  1.
    9900012    2    1    2    0    0  0.16467608128E+02  0.25468373281E+02  0.98435789508E+01  0.59302012457E+02  0.50000124799E+02 0.  0.
        -12    1    1    2    0    0 -0.16467608128E+02 -0.25468373281E+02 -0.98435789508E+01  0.31885987543E+02  0.00000000000E+00 0.  1.
         11    1    3    3    0    0 -0.11396978570E+02  0.13206645051E+02  0.75278195869E+01  0.18999333200E+02  0.51100000000E-03 0. -1.
        -11    1    3    3    0    0 -0.28908147096E+00  0.11793885820E+02 -0.14820688789E+01  0.11890157243E+02  0.51100000000E-03 0.  1.
        -12    1    3    3    0    0  0.28153668169E+02  0.46784240999E+00  0.37978282428E+01  0.28412522015E+02  0.00000000000E+00 0.  1.
</event>
<event>
 7    1  0.1138240E-011  0.5930195E+02  0.7816164E-02  0.1266605E+00
        -11   -1    0    0    0    0  0.00000000000E+00  0.00000000000E+00  0.45593999997E+02  0.45594000000E+02  0.51100000000E-03 0.  1.
         11   -1    0    0    0    0 -0.00000000000E+00 -0.00000000000E+00 -0.45593999997E+02  0.45594000000E+02  0.51100000000E-03 0. -1.
    9900012    2    1    2    0    0 -0.21232503715E+01 -0.30852410701E+02 -0.77679266620E+01  0.59301950968E+02  0.50000012658E+02 0.  0.
        -12    1    1    2    0    0  0.21232503715E+01  0.30852410701E+02  0.77679266620E+01  0.31886049032E+02  0.00000000000E+00 0.  1.
         11    1    3    3    0    0 -0.83697122755E+01 -0.26129197241E+02 -0.19094641308E+02  0.33427419269E+02  0.51100000000E-03 0. -1.
        -11    1    3    3    0    0 -0.19743544760E+01 -0.11581770094E+02  0.92863173909E+01  0.14975685796E+02  0.51100000000E-03 0.  1.
        -12    1    3    3    0    0  0.82208163800E+01  0.68585566341E+01  0.20403972554E+01  0.10898845903E+02  0.00000000000E+00 0.  1.
</event>
<event>
 7    1  0.1138240E-011  0.5930195E+02  0.7816164E-02  0.1266605E+00
        -11   -1    0    0    0    0  0.00000000000E+00  0.00000000000E+00  0.45593999997E+02  0.45594000000E+02  0.51100000000E-03 0.  1.
         11   -1    0    0    0    0 -0.00000000000E+00 -0.00000000000E+00 -0.45593999997E+02  0.45594000000E+02  0.51100000000E-03 0. -1.
    9900012    2    1    2    0    0 -0.14671516347E+02  0.27146556568E+02 -0.80331505329E+01  0.59301946107E+02  0.50000003791E+02 0.  0.
        -12    1    1    2    0    0  0.14671516347E+02 -0.27146556568E+02  0.80331505329E+01  0.31886053893E+02  0.00000000000E+00 0.  1.
         11    1    3    3    0    0 -0.28157506465E+01 -0.22927529450E+01  0.19719129325E+00  0.36364890261E+01  0.51100000000E-03 0. -1.
        -11    1    3    3    0    0 -0.23065525377E+02  0.35481070061E+02 -0.62906874826E+01  0.42784314215E+02  0.51100000000E-03 0.  1.
         12    1    3    3    0    0  0.11209759677E+02 -0.60417605482E+01 -0.19396543435E+01  0.12881142865E+02  0.00000000000E+00 0. -1.
</event>
<event>
 7    1  0.1138240E-011  0.5930195E+02  0.7816164E-02  0.1266605E+00
        -11   -1    0    0    0    0  0.00000000000E+00  0.00000000000E+00  0.45593999997E+02  0.45594000000E+02  0.51100000000E-03 0. -1.
         11   -1    0    0    0    0 -0.00000000000E+00 -0.00000000000E+00 -0.45593999997E+02  0.45594000000E+02  0.51100000000E-03 0.  1.
    9900012    2    1    2    0    0 -0.17751587881E+02 -0.17687855599E+02  0.19716520322E+02  0.59301948479E+02  0.50000008118E+02 0.  0.
        -12    1    1    2    0    0  0.17751587881E+02  0.17687855599E+02 -0.19716520322E+02  0.31886051521E+02  0.00000000000E+00 0.  1.
         11    1    3    3    0    0 -0.26743645449E+01  0.55742470347E+01 -0.20048860299E+01  0.64995402897E+01  0.51100000000E-03 0. -1.
        -11    1    3    3    0    0 -0.20207571221E+02 -0.19412697752E+02 -0.21313709164E+01  0.28102339954E+02  0.51100000000E-03 0.  1.
         12    1    3    3    0    0  0.51303478857E+01 -0.38494048826E+01  0.23852777269E+02  0.24700068235E+02  0.00000000000E+00 0. -1.
</event>
<event>
 7    1  0.1138240E-011  0.5930193E+02  0.7816164E-02  0.1266605E+00
        -11   -1    0    0    0    0  0.00000000000E+00  0.00000000000E+00  0.45593999997E+02  0.45594000000E+02  0.51100000000E-03 0.  1.
         11   -1    0    0    0    0 -0.00000000000E+00 -0.00000000000E+00 -0.45593999997E+02  0.45594000000E+02  0.51100000000E-03 0. -1.
    9900012    2    1    2    0    0 -0.11426415032E+02 -0.22609046467E+02  0.19364643597E+02  0.59301931502E+02  0.49999977156E+02 0.  0.
        -12    1    1    2    0    0  0.11426415032E+02  0.22609046467E+02 -0.19364643597E+02  0.31886068498E+02  0.00000000000E+00 0.  1.
         11    1    3    3    0    0  0.68596784713E+00 -0.18801323387E+01  0.59442231081E+01  0.62720999767E+01  0.51100000000E-03 0. -1.
        -11    1    3    3    0    0  0.15812671881E+02  0.10267754981E+01  0.53226507231E+01  0.16716024376E+02  0.51100000000E-03 0.  1.
         12    1    3    3    0    0 -0.27925054760E+02 -0.21755689627E+02  0.80977697660E+01  0.36313807149E+02  0.00000000000E+00 0. -1.
</event>
<event>
 7    1  0.1138240E-011  0.5930196E+02  0.7816164E-02  0.1266605E+00
        -11   -1    0    0    0    0  0.00000000000E+00  0.00000000000E+00  0.45593999997E+02  0.45594000000E+02  0.51100000000E-03 0. -1.
         11   -1    0    0    0    0 -0.00000000000E+00 -0.00000000000E+00 -0.45593999997E+02  0.45594000000E+02  0.51100000000E-03 0.  1.
    9900012    2    1    2    0    0  0.14233349742E+02 -0.24467234367E+02  0.14679443170E+02  0.59301955180E+02  0.50000020339E+02 0.  0.
        -12    1    1    2    0    0 -0.14233349742E+02  0.24467234367E+02 -0.14679443170E+02  0.31886044820E+02  0.00000000000E+00 0.  1.
         11    1    3    3    0    0  0.10140534870E+02  0.17758027806E+01 -0.84597702334E+01  0.13324850304E+02  0.51100000000E-03 0. -1.
        -11    1    3    3    0    0  0.59339061648E+01  0.53226352371E+01  0.62531613423E+01  0.10131323471E+02  0.51100000000E-03 0.  1.
         12    1    3    3    0    0 -0.18410912926E+01 -0.31565672385E+02  0.16886052062E+02  0.35845781404E+02  0.00000000000E+00 0. -1.
</event>
<event>
 7    1  0.1138240E-011  0.5930208E+02  0.7816164E-02  0.1266604E+00
        -11   -1    0    0    0    0  0.00000000000E+00  0.00000000000E+00  0.45593999997E+02  0.45594000000E+02  0.51100000000E-03 0. -1.
         11   -1    0    0    0    0 -0.00000000000E+00 -0.00000000000E+00 -0.45593999997E+02  0.45594000000E+02  0.51100000000E-03 0.  1.
    9900012    2    1    2    0    0  0.16146611508E+02 -0.22947356302E+02  0.15146535631E+02  0.59302082010E+02  0.50000251646E+02 0.  0.
        -12    1    1    2    0    0 -0.16146611508E+02  0.22947356302E+02 -0.15146535631E+02  0.31885917990E+02  0.00000000000E+00 0.  1.
         11    1    3    3    0    0  0.43049430348E+01 -0.11006651460E+02 -0.46780679533E+01  0.12710752572E+02  0.51100000000E-03 0. -1.
        -11    1    3    3    0    0  0.21512361343E+02 -0.17651308973E+02  0.54605402086E+01  0.28357854268E+02  0.51100000000E-03 0.  1.
        -12    1    3    3    0    0 -0.96706928700E+01  0.57106041319E+01  0.14364063376E+02  0.18233475171E+02  0.00000000000E+00 0.  1.
</event>
<event>
 7    1  0.1138240E-011  0.5930196E+02  0.7816164E-02  0.1266605E+00
        -11   -1    0    0    0    0  0.00000000000E+00  0.00000000000E+00  0.45593999997E+02  0.45594000000E+02  0.51100000000E-03 0.  1.
         11   -1    0    0    0    0 -0.00000000000E+00 -0.00000000000E+00 -0.45593999997E+02  0.45594000000E+02  0.51100000000E-03 0. -1.
    9900012    2    1    2    0    0  0.23680620332E+02  0.98068513859E+01 -0.18967689027E+02  0.59301963237E+02  0.50000035033E+02 0.  0.
        -12    1    1    2    0    0 -0.23680620332E+02 -0.98068513859E+01  0.18967689027E+02  0.31886036763E+02  0.00000000000E+00 0.  1.
         11    1    3    3    0    0 -0.38286893294E+01  0.31853034355E+01 -0.15214708538E+02  0.16009134147E+02  0.51100000000E-03 0. -1.
        -11    1    3    3    0    0  0.29155708827E+02  0.16118615974E+02 -0.45375412806E+01  0.33622231027E+02  0.51100000000E-03 0.  1.
         12    1    3    3    0    0 -0.16463991647E+01 -0.94970680240E+01  0.78456079144E+00  0.96705980631E+01  0.00000000000E+00 0. -1.
</event>
<event>
 7    1  0.1138240E-011  0.5930195E+02  0.7816164E-02  0.1266605E+00
        -11   -1    0    0    0    0  0.00000000000E+00  0.00000000000E+00  0.45593999997E+02  0.45594000000E+02  0.51100000000E-03 0.  1.
         11   -1    0    0    0    0 -0.00000000000E+00 -0.00000000000E+00 -0.45593999997E+02  0.45594000000E+02  0.51100000000E-03 0. -1.
    9900012    2    1    2    0    0 -0.30830143089E+02 -0.70630998582E+00 -0.81070108322E+01  0.59301949424E+02  0.50000009841E+02 0.  0.
        -12    1    1    2    0    0  0.30830143089E+02  0.70630998582E+00  0.81070108322E+01  0.31886050576E+02  0.00000000000E+00 0.  1.
         11    1    3    3    0    0 -0.58134060725E+01 -0.77205567253E+01 -0.14864035192E+02  0.17729699060E+02  0.51100000000E-03 0. -1.
        -11    1    3    3    0    0  0.66059774972E+01  0.32988504205E+00 -0.37282266841E+01  0.75925909480E+01  0.51100000000E-03 0.  1.
         12    1    3    3    0    0 -0.31622714514E+02  0.66843616975E+01  0.10485251044E+02  0.33979659416E+02  0.00000000000E+00 0. -1.
</event>
<event>
 7    1  0.1138240E-011  0.5930203E+02  0.7816164E-02  0.1266604E+00
        -11   -1    0    0    0    0  0.00000000000E+00  0.00000000000E+00  0.45593999997E+02  0.45594000000E+02  0.51100000000E-03 0.  1.
         11   -1    0    0    0    0 -0.00000000000E+00 -0.00000000000E+00 -0.45593999997E+02  0.45594000000E+02  0.51100000000E-03 0. -1.
    9900012    2    1    2    0    0  0.87675120612E+01 -0.20457634197E+02 -0.22832677639E+02  0.59302027648E+02  0.50000152503E+02 0.  0.
        -12    1    1    2    0    0 -0.87675120612E+01  0.20457634197E+02  0.22832677639E+02  0.31885972352E+02  0.00000000000E+00 0.  1.
         11    1    3    3    0    0 -0.65118856373E+01 -0.81116174268E+01 -0.72581525970E+01  0.12683996658E+02  0.51100000000E-03 0. -1.
        -11    1    3    3    0    0 -0.12752037956E+02 -0.41979335011E+01  0.22067113337E+00  0.13427055289E+02  0.51100000000E-03 0.  1.
        -12    1    3    3    0    0  0.28031435655E+02 -0.81480832690E+01 -0.15795196175E+02  0.33190975702E+02  0.00000000000E+00 0.  1.
</event>
<event>
 7    1  0.1138240E-011  0.5930195E+02  0.7816164E-02  0.1266605E+00
        -11   -1    0    0    0    0  0.00000000000E+00  0.00000000000E+00  0.45593999997E+02  0.45594000000E+02  0.51100000000E-03 0.  1.
         11   -1    0    0    0    0 -0.00000000000E+00 -0.00000000000E+00 -0.45593999997E+02  0.45594000000E+02  0.51100000000E-03 0. -1.
    9900012    2    1    2    0    0 -0.21328937757E+02  0.22413522237E+02  0.77091196532E+01  0.59301951472E+02  0.50000013576E+02 0.  0.
        -12    1    1    2    0    0  0.21328937757E+02 -0.22413522237E+02 -0.77091196532E+01  0.31886048528E+02  0.00000000000E+00 0.  1.
         11    1    3    3    0    0  0.37892322653E+01 -0.64864327707E+01 -0.57447659701E+01  0.94569777181E+01  0.51100000000E-03 0. -1.
        -11    1    3    3    0    0 -0.21290011462E+02  0.26664074613E+01  0.51843157165E+01  0.22073772820E+02  0.51100000000E-03 0.  1.
        -12    1    3    3    0    0 -0.38281585603E+01  0.26233547546E+02  0.82695699068E+01  0.27771200933E+02  0.00000000000E+00 0.  1.
</event>
<event>
 7    1  0.1138240E-011  0.5930194E+02  0.7816164E-02  0.1266605E+00
        -11   -1    0    0    0    0  0.00000000000E+00  0.00000000000E+00  0.45593999997E+02  0.45594000000E+02  0.51100000000E-03 0.  1.
         11   -1    0    0    0    0 -0.00000000000E+00 -0.00000000000E+00 -0.45593999997E+02  0.45594000000E+02  0.51100000000E-03 0. -1.
    9900012    2    1    2    0    0  0.85319099073E+01  0.24621202622E+02 -0.18377257672E+02  0.59301941844E+02  0.49999996017E+02 0.  0.
        -12    1    1    2    0    0 -0.85319099073E+01 -0.24621202622E+02  0.18377257672E+02  0.31886058156E+02  0.00000000000E+00 0.  1.
         11    1    3    3    0    0 -0.61804136631E+01 -0.30748941969E+01 -0.20523667877E+02  0.21653485418E+02  0.51100000000E-03 0. -1.
        -11    1    3    3    0    0 -0.45973398393E+01  0.83807319493E+01 -0.26478699284E+01  0.99188415161E+01  0.51100000000E-03 0.  1.
        -12    1    3    3    0    0  0.19309663410E+02  0.19315364870E+02  0.47942801334E+01  0.27729614910E+02  0.00000000000E+00 0.  1.
</event>
<event>
 7    1  0.1138240E-011  0.5930195E+02  0.7816164E-02  0.1266605E+00
        -11   -1    0    0    0    0  0.00000000000E+00  0.00000000000E+00  0.45593999997E+02  0.45594000000E+02  0.51100000000E-03 0. -1.
         11   -1    0    0    0    0 -0.00000000000E+00 -0.00000000000E+00 -0.45593999997E+02  0.45594000000E+02  0.51100000000E-03 0.  1.
    9900012    2    1    2    0    0  0.12345929118E+02  0.27726654885E+02  0.97739934603E+01  0.59301948111E+02  0.50000007446E+02 0.  0.
        -12    1    1    2    0    0 -0.12345929118E+02 -0.27726654885E+02 -0.97739934603E+01  0.31886051889E+02  0.00000000000E+00 0.  1.
         11    1    3    3    0    0 -0.19064240520E+01 -0.14664559259E+01  0.13893676944E+02  0.14100326412E+02  0.51100000000E-03 0. -1.
        -11    1    3    3    0    0 -0.46427852556E+01 -0.38563296262E+01 -0.37973729760E+01  0.71306924555E+01  0.51100000000E-03 0.  1.
        -12    1    3    3    0    0  0.18895138426E+02  0.33049440437E+02 -0.32231050758E+00  0.38070929243E+02  0.00000000000E+00 0.  1.
</event>
<event>
 7    1  0.1138240E-011  0.5930195E+02  0.7816164E-02  0.1266605E+00
        -11   -1    0    0    0    0  0.00000000000E+00  0.00000000000E+00  0.45593999997E+02  0.45594000000E+02  0.51100000000E-03 0. -1.
         11   -1    0    0    0    0 -0.00000000000E+00 -0.00000000000E+00 -0.45593999997E+02  0.45594000000E+02  0.51100000000E-03 0.  1.
    9900012    2    1    2    0    0 -0.13600309228E+02  0.28830244360E+02  0.75421716385E+00  0.59301949061E+02  0.50000009180E+02 0.  0.
        -12    1    1    2    0    0  0.13600309228E+02 -0.28830244360E+02 -0.75421716385E+00  0.31886050939E+02  0.00000000000E+00 0.  1.
         11    1    3    3    0    0  0.28361300053E+01 -0.37224344448E+01  0.41993610307E+01  0.62876692765E+01  0.51100000000E-03 0. -1.
        -11    1    3    3    0    0 -0.24661898682E+02  0.20943220057E+02  0.95605788710E+01  0.33737699708E+02  0.51100000000E-03 0.  1.
        -12    1    3    3    0    0  0.82254594482E+01  0.11609458747E+02 -0.13005722738E+02  0.19276580077E+02  0.00000000000E+00 0.  1.
</event>
<event>
 7    1  0.1138240E-011  0.5930193E+02  0.7816164E-02  0.1266605E+00
        -11   -1    0    0    0    0  0.00000000000E+00  0.00000000000E+00  0.45593999997E+02  0.45594000000E+02  0.51100000000E-03 0.  1.
         11   -1    0    0    0    0 -0.00000000000E+00 -0.00000000000E+00 -0.45593999997E+02  0.45594000000E+02  0.51100000000E-03 0. -1.
    9900012    2    1    2    0    0 -0.12304269992E+01  0.31065701478E+02 -0.70802323273E+01  0.59301930177E+02  0.49999974740E+02 0.  0.
        -12    1    1    2    0    0  0.12304269992E+01 -0.31065701478E+02  0.70802323273E+01  0.31886069823E+02  0.00000000000E+00 0.  1.
         11    1    3    3    0    0  0.35765063276E+00  0.25155546334E+02 -0.14673525384E+02  0.29124590517E+02  0.51100000000E-03 0. -1.
        -11    1    3    3    0    0 -0.12616091560E+02  0.12378804853E+01 -0.42141727779E+01  0.13358793613E+02  0.51100000000E-03 0.  1.
        -12    1    3    3    0    0  0.11028013928E+02  0.46722746588E+01  0.11807465835E+02  0.16818546047E+02  0.00000000000E+00 0.  1.
</event>
<event>
 7    1  0.1138240E-011  0.5930194E+02  0.7816164E-02  0.1266605E+00
        -11   -1    0    0    0    0  0.00000000000E+00  0.00000000000E+00  0.45593999997E+02  0.45594000000E+02  0.51100000000E-03 0.  1.
         11   -1    0    0    0    0 -0.00000000000E+00 -0.00000000000E+00 -0.45593999997E+02  0.45594000000E+02  0.51100000000E-03 0. -1.
    9900012    2    1    2    0    0 -0.24622364086E+02 -0.20137146928E+02  0.22260531980E+01  0.59301940155E+02  0.49999992937E+02 0.  0.
        -12    1    1    2    0    0  0.24622364086E+02  0.20137146928E+02 -0.22260531980E+01  0.31886059845E+02  0.00000000000E+00 0.  1.
         11    1    3    3    0    0 -0.57382203973E+01 -0.49871051272E+01 -0.20219442526E+02  0.21601487153E+02  0.51100000000E-03 0. -1.
        -11    1    3    3    0    0 -0.60480495909E+00 -0.71560151322E+01 -0.61453139619E+00  0.72077729368E+01  0.51100000000E-03 0.  1.
        -12    1    3    3    0    0 -0.18279338729E+02 -0.79940266689E+01  0.23060027121E+02  0.30492680065E+02  0.00000000000E+00 0.  1.
</event>
<event>
 7    1  0.1138240E-011  0.5930196E+02  0.7816164E-02  0.1266605E+00
        -11   -1    0    0    0    0  0.00000000000E+00  0.00000000000E+00  0.45593999997E+02  0.45594000000E+02  0.51100000000E-03 0.  1.
         11   -1    0    0    0    0 -0.00000000000E+00 -0.00000000000E+00 -0.45593999997E+02  0.45594000000E+02  0.51100000000E-03 0. -1.
    9900012    2    1    2    0    0  0.48411358944E+01  0.18835080441E+02 -0.25269001127E+02  0.59301964343E+02  0.50000037051E+02 0.  0.
        -12    1    1    2    0    0 -0.48411358944E+01 -0.18835080441E+02  0.25269001127E+02  0.31886035657E+02  0.00000000000E+00 0.  1.
         11    1    3    3    0    0  0.76494398135E+01  0.13962976922E+02 -0.57213613135E+01  0.16917819881E+02  0.51100000000E-03 0. -1.
        -11    1    3    3    0    0  0.31582554512E+00 -0.72890961993E+01  0.87697586451E+01  0.11407862908E+02  0.51100000000E-03 0.  1.
        -12    1    3    3    0    0 -0.31241294641E+01  0.12161199718E+02 -0.28317398458E+02  0.30976281554E+02  0.00000000000E+00 0.  1.
</event>
<event>
 7    1  0.1138240E-011  0.5930193E+02  0.7816164E-02  0.1266605E+00
        -11   -1    0    0    0    0  0.00000000000E+00  0.00000000000E+00  0.45593999997E+02  0.45594000000E+02  0.51100000000E-03 0. -1.
         11   -1    0    0    0    0 -0.00000000000E+00 -0.00000000000E+00 -0.45593999997E+02  0.45594000000E+02  0.51100000000E-03 0.  1.
    9900012    2    1    2    0    0  0.25126302058E+02 -0.41491262334E+01  0.19187890224E+02  0.59301930395E+02  0.49999975137E+02 0.  0.
        -12    1    1    2    0    0 -0.25126302058E+02  0.41491262334E+01 -0.19187890224E+02  0.31886069605E+02  0.00000000000E+00 0.  1.
         11    1    3    3    0    0  0.50630851054E+01  0.15141925871E+02  0.11067543619E+02  0.19426869843E+02  0.51100000000E-03 0. -1.
        -11    1    3    3    0    0 -0.64671331558E+00 -0.63204875978E+00 -0.77470311720E+01  0.77996292212E+01  0.51100000000E-03 0.  1.
         12    1    3    3    0    0  0.20709930269E+02 -0.18659003345E+02  0.15867377776E+02  0.32075431331E+02  0.00000000000E+00 0. -1.
</event>
<event>
 7    1  0.1138240E-011  0.5930199E+02  0.7816164E-02  0.1266605E+00
        -11   -1    0    0    0    0  0.00000000000E+00  0.00000000000E+00  0.45593999997E+02  0.45594000000E+02  0.51100000000E-03 0. -1.
         11   -1    0    0    0    0 -0.00000000000E+00 -0.00000000000E+00 -0.45593999997E+02  0.45594000000E+02  0.51100000000E-03 0.  1.
    9900012    2    1    2    0    0  0.11123035229E+02  0.29874081451E+02 -0.73134291063E+00  0.59301991819E+02  0.50000087159E+02 0.  0.
        -12    1    1    2    0    0 -0.11123035229E+02 -0.29874081451E+02  0.73134291063E+00  0.31886008181E+02  0.00000000000E+00 0.  1.
         11    1    3    3    0    0  0.17448480645E+02  0.16249375866E+02  0.16684857895E+02  0.29101137024E+02  0.51100000000E-03 0. -1.
        -11    1    3    3    0    0  0.19347425212E+00  0.16043605534E+02 -0.66145815216E+01  0.17354751504E+02  0.51100000000E-03 0.  1.
        -12    1    3    3    0    0 -0.65189196678E+01 -0.24188999482E+01 -0.10801619284E+02  0.12846103290E+02  0.00000000000E+00 0.  1.
</event>
<event>
 7    1  0.1138240E-011  0.5930194E+02  0.7816164E-02  0.1266605E+00
        -11   -1    0    0    0    0  0.00000000000E+00  0.00000000000E+00  0.45593999997E+02  0.45594000000E+02  0.51100000000E-03 0. -1.
         11   -1    0    0    0    0 -0.00000000000E+00 -0.00000000000E+00 -0.45593999997E+02  0.45594000000E+02  0.51100000000E-03 0.  1.
    9900012    2    1    2    0    0 -0.29672280863E+02  0.95647864547E+01  0.66926349874E+01  0.59301941062E+02  0.49999994591E+02 0.  0.
        -12    1    1    2    0    0  0.29672280863E+02 -0.95647864547E+01 -0.66926349874E+01  0.31886058938E+02  0.00000000000E+00 0.  1.
         11    1    3    3    0    0 -0.19012938709E+02  0.64866438496E+01  0.97793343803E+01  0.22342868392E+02  0.51100000000E-03 0. -1.
        -11    1    3    3    0    0  0.49535282550E+01  0.15811396383E+02  0.51300697642E-01  0.16569258577E+02  0.51100000000E-03 0.  1.
         12    1    3    3    0    0 -0.15612870409E+02 -0.12733253778E+02 -0.31380000906E+01  0.20389814093E+02  0.00000000000E+00 0. -1.
</event>
<event>
 7    1  0.1138240E-011  0.5930195E+02  0.7816164E-02  0.1266605E+00
        -11   -1    0    0    0    0  0.00000000000E+00  0.00000000000E+00  0.45593999997E+02  0.45594000000E+02  0.51100000000E-03 0.  1.
         11   -1    0    0    0    0 -0.00000000000E+00 -0.00000000000E+00 -0.45593999997E+02  0.45594000000E+02  0.51100000000E-03 0. -1.
    9900012    2    1    2    0    0  0.24969404351E+02 -0.18596601397E+02  0.68858899712E+01  0.59301949479E+02  0.50000009941E+02 0.  0.
        -12    1    1    2    0    0 -0.24969404351E+02  0.18596601397E+02 -0.68858899712E+01  0.31886050521E+02  0.00000000000E+00 0.  1.
         11    1    3    3    0    0  0.70701430384E+00 -0.17754032647E+02  0.31223447845E+00  0.17770847900E+02  0.51100000000E-03 0. -1.
        -11    1    3    3    0    0  0.23185099044E+02 -0.93787911334E+01  0.15265521502E+02  0.29300967353E+02  0.51100000000E-03 0.  1.
        -12    1    3    3    0    0  0.10772910029E+01  0.85362223830E+01 -0.86918660091E+01  0.12230134226E+02  0.00000000000E+00 0.  1.
</event>
<event>
 7    1  0.1138240E-011  0.5930196E+02  0.7816164E-02  0.1266605E+00
        -11   -1    0    0    0    0  0.00000000000E+00  0.00000000000E+00  0.45593999997E+02  0.45594000000E+02  0.51100000000E-03 0.  1.
         11   -1    0    0    0    0 -0.00000000000E+00 -0.00000000000E+00 -0.45593999997E+02  0.45594000000E+02  0.51100000000E-03 0. -1.
    9900012    2    1    2    0    0  0.23905601797E+02  0.16663642392E+02 -0.12944687911E+02  0.59301957283E+02  0.50000024175E+02 0.  0.
        -12    1    1    2    0    0 -0.23905601797E+02 -0.16663642392E+02  0.12944687911E+02  0.31886042717E+02  0.00000000000E+00 0.  1.
         11    1    3    3    0    0  0.15542368150E+02  0.15459232421E+02  0.20614884466E+01  0.22018238114E+02  0.51100000000E-03 0. -1.
        -11    1    3    3    0    0 -0.48453273813E+01 -0.87131980005E-01  0.87896969543E+01  0.10037109256E+02  0.51100000000E-03 0.  1.
        -12    1    3    3    0    0  0.13208561028E+02  0.12915419503E+01 -0.23795873312E+02  0.27246609913E+02  0.00000000000E+00 0.  1.
</event>
<event>
 7    1  0.1138240E-011  0.5930196E+02  0.7816164E-02  0.1266605E+00
        -11   -1    0    0    0    0  0.00000000000E+00  0.00000000000E+00  0.45593999997E+02  0.45594000000E+02  0.51100000000E-03 0.  1.
         11   -1    0    0    0    0 -0.00000000000E+00 -0.00000000000E+00 -0.45593999997E+02  0.45594000000E+02  0.51100000000E-03 0. -1.
    9900012    2    1    2    0    0  0.17848753691E+02 -0.14372874906E+02 -0.22171200544E+02  0.59301957992E+02  0.50000025467E+02 0.  0.
        -12    1    1    2    0    0 -0.17848753691E+02  0.14372874906E+02  0.22171200544E+02  0.31886042008E+02  0.00000000000E+00 0.  1.
         11    1    3    3    0    0  0.13964018578E+02 -0.27910421500E+02 -0.19997252357E+02  0.37065827190E+02  0.51100000000E-03 0. -1.
        -11    1    3    3    0    0 -0.67697985067E+01  0.49344302811E+01 -0.45157186916E-01  0.83773989671E+01  0.51100000000E-03 0.  1.
        -12    1    3    3    0    0  0.10654533620E+02  0.86031163132E+01 -0.21287909998E+01  0.13858731835E+02  0.00000000000E+00 0.  1.
</event>
<event>
 7    1  0.1138240E-011  0.5930193E+02  0.7816164E-02  0.1266605E+00
        -11   -1    0    0    0    0  0.00000000000E+00  0.00000000000E+00  0.45593999997E+02  0.45594000000E+02  0.51100000000E-03 0.  1.
         11   -1    0    0    0    0 -0.00000000000E+00 -0.00000000000E+00 -0.45593999997E+02  0.45594000000E+02  0.51100000000E-03 0. -1.
    9900012    2    1    2    0    0  0.19233517218E+02 -0.96061417962E+01 -0.23548146483E+02  0.59301931764E+02  0.49999977633E+02 0.  0.
        -12    1    1    2    0    0 -0.19233517218E+02  0.96061417962E+01  0.23548146483E+02  0.31886068236E+02  0.00000000000E+00 0.  1.
         11    1    3    3    0    0  0.64005941502E+01 -0.32285862937E+00 -0.73286313095E+01  0.97355369807E+01  0.51100000000E-03 0. -1.
        -11    1    3    3    0    0  0.96016120018E+01  0.16318654089E+02  0.28275507979E+00  0.18935928153E+02  0.51100000000E-03 0.  1.
        -12    1    3    3    0    0  0.32313110660E+01 -0.25601937256E+02 -0.16502270253E+02  0.30630466630E+02  0.00000000000E+00 0.  1.
</event>
<event>
 7    1  0.1138240E-011  0.5930189E+02  0.7816164E-02  0.1266605E+00
        -11   -1    0    0    0    0  0.00000000000E+00  0.00000000000E+00  0.45593999997E+02  0.45594000000E+02  0.51100000000E-03 0.  1.
         11   -1    0    0    0    0 -0.00000000000E+00 -0.00000000000E+00 -0.45593999997E+02  0.45594000000E+02  0.51100000000E-03 0. -1.
    9900012    2    1    2    0    0 -0.20772611304E+02 -0.17000662086E+02 -0.17210462263E+02  0.59301891691E+02  0.49999904551E+02 0.  0.
        -12    1    1    2    0    0  0.20772611304E+02  0.17000662086E+02  0.17210462263E+02  0.31886108309E+02  0.00000000000E+00 0.  1.
         11    1    3    3    0    0 -0.54471874521E+01 -0.39827664250E+01 -0.10062743306E+02  0.12115819520E+02  0.51100000000E-03 0. -1.
        -11    1    3    3    0    0 -0.80863425937E+01 -0.15920850032E+02 -0.23237221806E+02  0.29305816484E+02  0.51100000000E-03 0.  1.
        -12    1    3    3    0    0 -0.72390812583E+01  0.29029543710E+01  0.16089502848E+02  0.17880255688E+02  0.00000000000E+00 0.  1.
</event>
<event>
 7    1  0.1138240E-011  0.5930198E+02  0.7816164E-02  0.1266605E+00
        -11   -1    0    0    0    0  0.00000000000E+00  0.00000000000E+00  0.45593999997E+02  0.45594000000E+02  0.51100000000E-03 0. -1.
         11   -1    0    0    0    0 -0.00000000000E+00 -0.00000000000E+00 -0.45593999997E+02  0.45594000000E+02  0.51100000000E-03 0.  1.
    9900012    2    1    2    0    0  0.28503867821E+02  0.17265299039E+01  0.14186845805E+02  0.59301984567E+02  0.50000073935E+02 0.  0.
        -12    1    1    2    0    0 -0.28503867821E+02 -0.17265299039E+01 -0.14186845805E+02  0.31886015433E+02  0.00000000000E+00 0.  1.
         11    1    3    3    0    0  0.12377715709E+02 -0.52038078852E+01  0.20920419470E+01  0.13589117059E+02  0.51100000000E-03 0. -1.
        -11    1    3    3    0    0  0.24846918864E+02  0.72407204539E+01 -0.51481915736E+01  0.26387521416E+02  0.51100000000E-03 0.  1.
        -12    1    3    3    0    0 -0.87207667518E+01 -0.31038266483E+00  0.17242995432E+02  0.19325346093E+02  0.00000000000E+00 0.  1.
</event>
<event>
 7    1  0.1138240E-011  0.5930195E+02  0.7816164E-02  0.1266605E+00
        -11   -1    0    0    0    0  0.00000000000E+00  0.00000000000E+00  0.45593999997E+02  0.45594000000E+02  0.51100000000E-03 0.  1.
         11   -1    0    0    0    0 -0.00000000000E+00 -0.00000000000E+00 -0.45593999997E+02  0.45594000000E+02  0.51100000000E-03 0. -1.
    9900012    2    1    2    0    0  0.17736772059E+02 -0.24642381065E+02 -0.97406553544E+01  0.59301946711E+02  0.50000004894E+02 0.  0.
        -12    1    1    2    0    0 -0.17736772059E+02  0.24642381065E+02  0.97406553544E+01  0.31886053289E+02  0.00000000000E+00 0.  1.
         11    1    3    3    0    0 -0.19891174506E+01 -0.17708713689E+02  0.55114247533E+01  0.18652906793E+02  0.51100000000E-03 0. -1.
        -11    1    3    3    0    0  0.18083648886E+02  0.86209845368E+01 -0.19713575747E+01  0.20130225591E+02  0.51100000000E-03 0.  1.
         12    1    3    3    0    0  0.16422406239E+01 -0.15554651912E+02 -0.13280722533E+02  0.20518814327E+02  0.00000000000E+00 0. -1.
</event>
<event>
 7    1  0.1138240E-011  0.5930196E+02  0.7816164E-02  0.1266605E+00
        -11   -1    0    0    0    0  0.00000000000E+00  0.00000000000E+00  0.45593999997E+02  0.45594000000E+02  0.51100000000E-03 0. -1.
         11   -1    0    0    0    0 -0.00000000000E+00 -0.00000000000E+00 -0.45593999997E+02  0.45594000000E+02  0.51100000000E-03 0.  1.
    9900012    2    1    2    0    0  0.19054898025E+02  0.25345122555E+02 -0.33549179714E+01  0.59301955236E+02  0.50000020442E+02 0.  0.
        -12    1    1    2    0    0 -0.19054898025E+02 -0.25345122555E+02  0.33549179714E+01  0.31886044764E+02  0.00000000000E+00 0.  1.
         11    1    3    3    0    0  0.13241418902E+02  0.75149432383E+01  0.13434784241E+02  0.20305244994E+02  0.51100000000E-03 0. -1.
        -11    1    3    3    0    0  0.11124093165E+02 -0.38534337404E+01 -0.13422891754E+01  0.11848887747E+02  0.51100000000E-03 0.  1.
        -12    1    3    3    0    0 -0.53106140424E+01  0.21683613057E+02 -0.15447413037E+02  0.27147822496E+02  0.00000000000E+00 0.  1.
</event>
<event>
 7    1  0.1138240E-011  0.5930192E+02  0.7816164E-02  0.1266605E+00
        -11   -1    0    0    0    0  0.00000000000E+00  0.00000000000E+00  0.45593999997E+02  0.45594000000E+02  0.51100000000E-03 0.  1.
         11   -1    0    0    0    0 -0.00000000000E+00 -0.00000000000E+00 -0.45593999997E+02  0.45594000000E+02  0.51100000000E-03 0. -1.
    9900012    2    1    2    0    0  0.12705946211E+02 -0.20860060165E+02 -0.20497289051E+02  0.59301920943E+02  0.49999957899E+02 0.  0.
        -12    1    1    2    0    0 -0.12705946211E+02  0.20860060165E+02  0.20497289051E+02  0.31886079057E+02  0.00000000000E+00 0.  1.
         11    1    3    3    0    0  0.18273831702E+02 -0.69319876532E+01 -0.10542118000E+01  0.19572857244E+02  0.51100000000E-03 0.  1.
        -11    1    3    3    0    0 -0.10537401481E+01  0.65671590418E+01 -0.17418498516E+02  0.18645161222E+02  0.51100000000E-03 0. -1.
        -12    1    3    3    0    0 -0.45141453432E+01 -0.20495231554E+02 -0.20245787345E+01  0.21083902477E+02  0.00000000000E+00 0.  1.
</event>
<event>
 7    1  0.1138240E-011  0.5930194E+02  0.7816164E-02  0.1266605E+00
        -11   -1    0    0    0    0  0.00000000000E+00  0.00000000000E+00  0.45593999997E+02  0.45594000000E+02  0.51100000000E-03 0.  1.
         11   -1    0    0    0    0 -0.00000000000E+00 -0.00000000000E+00 -0.45593999997E+02  0.45594000000E+02  0.51100000000E-03 0. -1.
    9900012    2    1    2    0    0  0.19675912559E+02 -0.14209451209E+01 -0.25051150809E+02  0.59301940712E+02  0.49999993952E+02 0.  0.
        -12    1    1    2    0    0 -0.19675912559E+02  0.14209451209E+01  0.25051150809E+02  0.31886059288E+02  0.00000000000E+00 0.  1.
         11    1    3    3    0    0  0.88390544420E+01  0.80156825673E+01  0.35973863916E+01  0.12462794212E+02  0.51100000000E-03 0.  1.
        -11    1    3    3    0    0  0.61564613931E+01  0.12661765184E+02 -0.14361413100E+02  0.20111501708E+02  0.51100000000E-03 0. -1.
        -12    1    3    3    0    0  0.46803967243E+01 -0.22098392873E+02 -0.14287124101E+02  0.26727644792E+02  0.00000000000E+00 0.  1.
</event>
<event>
 7    1  0.1138240E-011  0.5930195E+02  0.7816164E-02  0.1266605E+00
        -11   -1    0    0    0    0  0.00000000000E+00  0.00000000000E+00  0.45593999997E+02  0.45594000000E+02  0.51100000000E-03 0.  1.
         11   -1    0    0    0    0 -0.00000000000E+00 -0.00000000000E+00 -0.45593999997E+02  0.45594000000E+02  0.51100000000E-03 0. -1.
    9900012    2    1    2    0    0  0.13930068762E+02  0.14869053753E+02 -0.24527226392E+02  0.59301946471E+02  0.50000004455E+02 0.  0.
        -12    1    1    2    0    0 -0.13930068762E+02 -0.14869053753E+02  0.24527226392E+02  0.31886053529E+02  0.00000000000E+00 0.  1.
         11    1    3    3    0    0  0.33005441797E+01 -0.60925010779E+01 -0.41609124301E+01  0.80824101466E+01  0.51100000000E-03 0. -1.
        -11    1    3    3    0    0 -0.13766441950E+02  0.16554184914E+02 -0.51720738282E+01  0.22142861379E+02  0.51100000000E-03 0.  1.
         12    1    3    3    0    0  0.24395966532E+02  0.44073699168E+01 -0.15194240133E+02  0.29076674945E+02  0.00000000000E+00 0. -1.
</event>
<event>
 7    1  0.1138240E-011  0.5930186E+02  0.7816164E-02  0.1266605E+00
        -11   -1    0    0    0    0  0.00000000000E+00  0.00000000000E+00  0.45593999997E+02  0.45594000000E+02  0.51100000000E-03 0. -1.
         11   -1    0    0    0    0 -0.00000000000E+00 -0.00000000000E+00 -0.45593999997E+02  0.45594000000E+02  0.51100000000E-03 0.  1.
    9900012    2    1    2    0    0  0.18596833842E+02  0.24486955486E+02  0.84423158211E+01  0.59301860153E+02  0.49999847032E+02 0.  0.
        -12    1    1    2    0    0 -0.18596833842E+02 -0.24486955486E+02 -0.84423158211E+01  0.31886139847E+02  0.00000000000E+00 0.  1.
         11    1    3    3    0    0  0.82449357015E+01 -0.36487998673E+01 -0.18591351230E+01  0.92059268333E+01  0.51100000000E-03 0. -1.
        -11    1    3    3    0    0 -0.65685668529E+01  0.28415298176E+02 -0.19103098924E+01  0.29227119685E+02  0.51100000000E-03 0.  1.
         12    1    3    3    0    0  0.16920464994E+02 -0.27954282277E+00  0.12211760836E+02  0.20868813635E+02  0.00000000000E+00 0. -1.
</event>
<event>
 7    1  0.1138240E-011  0.5930191E+02  0.7816164E-02  0.1266605E+00
        -11   -1    0    0    0    0  0.00000000000E+00  0.00000000000E+00  0.45593999997E+02  0.45594000000E+02  0.51100000000E-03 0.  1.
         11   -1    0    0    0    0 -0.00000000000E+00 -0.00000000000E+00 -0.45593999997E+02  0.45594000000E+02  0.51100000000E-03 0. -1.
    9900012    2    1    2    0    0 -0.91764786862E+01  0.28039726415E+02 -0.12094997302E+02  0.59301906194E+02  0.49999930999E+02 0.  0.
        -12    1    1    2    0    0  0.91764786862E+01 -0.28039726415E+02  0.12094997302E+02  0.31886093806E+02  0.00000000000E+00 0.  1.
         11    1    3    3    0    0 -0.12415621806E+02  0.53224570160E+01 -0.98689033348E+01  0.16729359426E+02  0.51100000000E-03 0. -1.
        -11    1    3    3    0    0 -0.41669206194E+01 -0.83788850212E+01 -0.47739967764E+01  0.10505236177E+02  0.51100000000E-03 0.  1.
         12    1    3    3    0    0  0.74060637388E+01  0.31096154420E+02  0.25479028089E+01  0.32067310591E+02  0.00000000000E+00 0. -1.
</event>
<event>
 7    1  0.1138240E-011  0.5930193E+02  0.7816164E-02  0.1266605E+00
        -11   -1    0    0    0    0  0.00000000000E+00  0.00000000000E+00  0.45593999997E+02  0.45594000000E+02  0.51100000000E-03 0.  1.
         11   -1    0    0    0    0 -0.00000000000E+00 -0.00000000000E+00 -0.45593999997E+02  0.45594000000E+02  0.51100000000E-03 0. -1.
    9900012    2    1    2    0    0 -0.12006902497E+02 -0.88233821500E+01 -0.28190494538E+02  0.59301925259E+02  0.49999965770E+02 0.  0.
        -12    1    1    2    0    0  0.12006902497E+02  0.88233821500E+01  0.28190494538E+02  0.31886074741E+02  0.00000000000E+00 0.  1.
         11    1    3    3    0    0  0.44572014773E+01  0.20200807836E+01 -0.47376333346E+01  0.68112070337E+01  0.51100000000E-03 0. -1.
        -11    1    3    3    0    0  0.32256010319E+01  0.36399744847E+01  0.99645371967E+01  0.11088098037E+02  0.51100000000E-03 0.  1.
         12    1    3    3    0    0 -0.19689705006E+02 -0.14483437418E+02 -0.33417398400E+02  0.41402620188E+02  0.00000000000E+00 0. -1.
</event>
<event>
 7    1  0.1138240E-011  0.5930190E+02  0.7816164E-02  0.1266605E+00
        -11   -1    0    0    0    0  0.00000000000E+00  0.00000000000E+00  0.45593999997E+02  0.45594000000E+02  0.51100000000E-03 0.  1.
         11   -1    0    0    0    0 -0.00000000000E+00 -0.00000000000E+00 -0.45593999997E+02  0.45594000000E+02  0.51100000000E-03 0. -1.
    9900012    2    1    2    0    0 -0.24265727274E+02  0.20678687110E+02 -0.53854359593E+00  0.59301895661E+02  0.49999911791E+02 0.  0.
        -12    1    1    2    0    0  0.24265727274E+02 -0.20678687110E+02  0.53854359593E+00  0.31886104339E+02  0.00000000000E+00 0.  1.
         11    1    3    3    0    0 -0.26001339577E+02  0.79103574965E+01 -0.38925485418E+01  0.27455333725E+02  0.51100000000E-03 0. -1.
        -11    1    3    3    0    0  0.17588515414E+01 -0.76379436300E+01 -0.55279071341E+01  0.95911156382E+01  0.51100000000E-03 0.  1.
         12    1    3    3    0    0 -0.23239238575E-01  0.20406273243E+02  0.88819120801E+01  0.22255446298E+02  0.00000000000E+00 0. -1.
</event>
<event>
 7    1  0.1138240E-011  0.5930197E+02  0.7816164E-02  0.1266605E+00
        -11   -1    0    0    0    0  0.00000000000E+00  0.00000000000E+00  0.45593999997E+02  0.45594000000E+02  0.51100000000E-03 0. -1.
         11   -1    0    0    0    0 -0.00000000000E+00 -0.00000000000E+00 -0.45593999997E+02  0.45594000000E+02  0.51100000000E-03 0.  1.
    9900012    2    1    2    0    0  0.67631602604E+01  0.25938372493E+02  0.17267870125E+02  0.59301971038E+02  0.50000049261E+02 0.  0.
        -12    1    1    2    0    0 -0.67631602604E+01 -0.25938372493E+02 -0.17267870125E+02  0.31886028962E+02  0.00000000000E+00 0.  1.
         11    1    3    3    0    0 -0.55201628064E+01  0.16587116744E+02  0.77157452013E+01  0.19108567805E+02  0.51100000000E-03 0.  1.
        -11    1    3    3    0    0  0.55148124320E+01  0.81856117943E+01  0.23035828706E+02  0.25061260962E+02  0.51100000000E-03 0. -1.
        -12    1    3    3    0    0  0.67685106348E+01  0.11656439549E+01 -0.13483703782E+02  0.15132142271E+02  0.00000000000E+00 0.  1.
</event>
<event>
 7    1  0.1138240E-011  0.5930194E+02  0.7816164E-02  0.1266605E+00
        -11   -1    0    0    0    0  0.00000000000E+00  0.00000000000E+00  0.45593999997E+02  0.45594000000E+02  0.51100000000E-03 0.  1.
         11   -1    0    0    0    0 -0.00000000000E+00 -0.00000000000E+00 -0.45593999997E+02  0.45594000000E+02  0.51100000000E-03 0. -1.
    9900012    2    1    2    0    0  0.17456834450E+02  0.16106425496E+01 -0.26634291916E+02  0.59301941223E+02  0.49999994886E+02 0.  0.
        -12    1    1    2    0    0 -0.17456834450E+02 -0.16106425496E+01  0.26634291916E+02  0.31886058777E+02  0.00000000000E+00 0.  1.
         11    1    3    3    0    0  0.20409545108E+00 -0.31312648443E+01 -0.19487648730E+02  0.19738665805E+02  0.51100000000E-03 0. -1.
        -11    1    3    3    0    0  0.98105152874E+01 -0.14908704996E+02 -0.43091934000E+01  0.18359870448E+02  0.51100000000E-03 0.  1.
        -12    1    3    3    0    0  0.74422237113E+01  0.19650612389E+02 -0.28374497862E+01  0.21203404970E+02  0.00000000000E+00 0.  1.
</event>
<event>
 7    1  0.1138240E-011  0.5930208E+02  0.7816164E-02  0.1266604E+00
        -11   -1    0    0    0    0  0.00000000000E+00  0.00000000000E+00  0.45593999997E+02  0.45594000000E+02  0.51100000000E-03 0. -1.
         11   -1    0    0    0    0 -0.00000000000E+00 -0.00000000000E+00 -0.45593999997E+02  0.45594000000E+02  0.51100000000E-03 0.  1.
    9900012    2    1    2    0    0 -0.71087368346E+01  0.40754735687E+01  0.30815064460E+02  0.59302081135E+02  0.50000250049E+02 0.  0.
        -12    1    1    2    0    0  0.71087368346E+01 -0.40754735687E+01 -0.30815064460E+02  0.31885918865E+02  0.00000000000E+00 0.  1.
         11    1    3    3    0    0  0.10461206099E+02 -0.81052239495E+01  0.21567362406E+01  0.13408318306E+02  0.51100000000E-03 0. -1.
        -11    1    3    3    0    0 -0.38071102000E+01  0.56933418481E+01 -0.53147295666E+01  0.86691741303E+01  0.51100000000E-03 0.  1.
        -12    1    3    3    0    0 -0.13762832733E+02  0.64873556701E+01  0.33973057786E+02  0.37224588699E+02  0.00000000000E+00 0.  1.
</event>
<event>
 7    1  0.1138240E-011  0.5930195E+02  0.7816164E-02  0.1266605E+00
        -11   -1    0    0    0    0  0.00000000000E+00  0.00000000000E+00  0.45593999997E+02  0.45594000000E+02  0.51100000000E-03 0.  1.
         11   -1    0    0    0    0 -0.00000000000E+00 -0.00000000000E+00 -0.45593999997E+02  0.45594000000E+02  0.51100000000E-03 0. -1.
    9900012    2    1    2    0    0  0.24682683089E+02 -0.17955193098E+02 -0.92247541580E+01  0.59301954574E+02  0.50000019233E+02 0.  0.
        -12    1    1    2    0    0 -0.24682683089E+02  0.17955193098E+02  0.92247541580E+01  0.31886045426E+02  0.00000000000E+00 0.  1.
         11    1    3    3    0    0 -0.49340539958E+01  0.39228037275E+01  0.55420648114E+01  0.83933164216E+01  0.51100000000E-03 0. -1.
        -11    1    3    3    0    0  0.75406145033E+01 -0.22680552665E+01  0.97475783793E+01  0.12530771177E+02  0.51100000000E-03 0.  1.
         12    1    3    3    0    0  0.22076122581E+02 -0.19609941559E+02 -0.24514397349E+02  0.38377866975E+02  0.00000000000E+00 0. -1.
</event>
<event>
 7    1  0.1138240E-011  0.5930195E+02  0.7816164E-02  0.1266605E+00
        -11   -1    0    0    0    0  0.00000000000E+00  0.00000000000E+00  0.45593999997E+02  0.45594000000E+02  0.51100000000E-03 0. -1.
         11   -1    0    0    0    0 -0.00000000000E+00 -0.00000000000E+00 -0.45593999997E+02  0.45594000000E+02  0.51100000000E-03 0.  1.
    9900012    2    1    2    0    0  0.13190812038E+02 -0.24884954140E+02  0.14948626944E+02  0.59301954270E+02  0.50000018680E+02 0.  0.
        -12    1    1    2    0    0 -0.13190812038E+02  0.24884954140E+02 -0.14948626944E+02  0.31886045730E+02  0.00000000000E+00 0.  1.
         11    1    3    3    0    0  0.63706212657E+01  0.46484175135E+01 -0.19786403081E+01  0.81306591628E+01  0.51100000000E-03 0. -1.
        -11    1    3    3    0    0  0.16234669964E+02 -0.53776166886E+01 -0.43338060458E+01  0.17642707989E+02  0.51100000000E-03 0.  1.
        -12    1    3    3    0    0 -0.94144791923E+01 -0.24155754965E+02  0.21261073298E+02  0.33528587118E+02  0.00000000000E+00 0.  1.
</event>
<event>
 7    1  0.1138240E-011  0.5930194E+02  0.7816164E-02  0.1266605E+00
        -11   -1    0    0    0    0  0.00000000000E+00  0.00000000000E+00  0.45593999997E+02  0.45594000000E+02  0.51100000000E-03 0.  1.
         11   -1    0    0    0    0 -0.00000000000E+00 -0.00000000000E+00 -0.45593999997E+02  0.45594000000E+02  0.51100000000E-03 0. -1.
    9900012    2    1    2    0    0 -0.59786568969E+01  0.30500440819E+02 -0.71203462732E+01  0.59301944122E+02  0.50000000172E+02 0.  0.
        -12    1    1    2    0    0  0.59786568969E+01 -0.30500440819E+02  0.71203462732E+01  0.31886055878E+02  0.00000000000E+00 0.  1.
         11    1    3    3    0    0 -0.19791314037E+02  0.14693288744E+02  0.29050754692E+01  0.24819917590E+02  0.51100000000E-03 0. -1.
        -11    1    3    3    0    0  0.34464645405E+01  0.11326636712E+02  0.72205997769E+01  0.13867511617E+02  0.51100000000E-03 0.  1.
         12    1    3    3    0    0  0.10366192600E+02  0.44805153626E+01 -0.17246021519E+02  0.20614514915E+02  0.00000000000E+00 0. -1.
</event>
<event>
 7    1  0.1138240E-011  0.5930195E+02  0.7816164E-02  0.1266605E+00
        -11   -1    0    0    0    0  0.00000000000E+00  0.00000000000E+00  0.45593999997E+02  0.45594000000E+02  0.51100000000E-03 0.  1.
         11   -1    0    0    0    0 -0.00000000000E+00 -0.00000000000E+00 -0.45593999997E+02  0.45594000000E+02  0.51100000000E-03 0. -1.
    9900012    2    1    2    0    0 -0.21751211117E+02  0.16430988171E+02 -0.16541688273E+02  0.59301952765E+02  0.50000015935E+02 0.  0.
        -12    1    1    2    0    0  0.21751211117E+02 -0.16430988171E+02  0.16541688273E+02  0.31886047235E+02  0.00000000000E+00 0.  1.
         11    1    3    3    0    0 -0.12546232433E+02 -0.69363451634E+01 -0.11026723428E+02  0.18086167707E+02  0.51100000000E-03 0. -1.
        -11    1    3    3    0    0 -0.14142569729E+00 -0.44273212856E+01 -0.10648799794E+02  0.11533347836E+02  0.51100000000E-03 0.  1.
        -12    1    3    3    0    0 -0.90635529868E+01  0.27794654620E+02  0.51338349493E+01  0.29682437223E+02  0.00000000000E+00 0.  1.
</event>
<event>
 7    1  0.1138240E-011  0.5930199E+02  0.7816164E-02  0.1266605E+00
        -11   -1    0    0    0    0  0.00000000000E+00  0.00000000000E+00  0.45593999997E+02  0.45594000000E+02  0.51100000000E-03 0.  1.
         11   -1    0    0    0    0 -0.00000000000E+00 -0.00000000000E+00 -0.45593999997E+02  0.45594000000E+02  0.51100000000E-03 0. -1.
    9900012    2    1    2    0    0 -0.17592120760E+02  0.19643192824E+02 -0.17927066195E+02  0.59301993045E+02  0.50000089396E+02 0.  0.
        -12    1    1    2    0    0  0.17592120760E+02 -0.19643192824E+02  0.17927066195E+02  0.31886006955E+02  0.00000000000E+00 0.  1.
         11    1    3    3    0    0 -0.97274540773E+01  0.27862000861E+02  0.46361658606E+01  0.29873206875E+02  0.51100000000E-03 0. -1.
        -11    1    3    3    0    0 -0.95163979591E+01 -0.96856029238E+00 -0.60492003218E+01  0.11317807383E+02  0.51100000000E-03 0.  1.
        -12    1    3    3    0    0  0.16517312766E+01 -0.72502477445E+01 -0.16514031734E+02  0.18110978788E+02  0.00000000000E+00 0.  1.
</event>
<event>
 7    1  0.1138240E-011  0.5930193E+02  0.7816164E-02  0.1266605E+00
        -11   -1    0    0    0    0  0.00000000000E+00  0.00000000000E+00  0.45593999997E+02  0.45594000000E+02  0.51100000000E-03 0.  1.
         11   -1    0    0    0    0 -0.00000000000E+00 -0.00000000000E+00 -0.45593999997E+02  0.45594000000E+02  0.51100000000E-03 0. -1.
    9900012    2    1    2    0    0  0.15745495413E+02 -0.63872296611E+01  0.26981555966E+02  0.59301926380E+02  0.49999967816E+02 0.  0.
        -12    1    1    2    0    0 -0.15745495413E+02  0.63872296611E+01 -0.26981555966E+02  0.31886073620E+02  0.00000000000E+00 0.  1.
         11    1    3    3    0    0  0.89280390885E+01 -0.75416996453E+01  0.41056711637E+02  0.42687711185E+02  0.51100000000E-03 0.  1.
        -11    1    3    3    0    0  0.17527622318E+01 -0.17117266863E+01 -0.72074616816E+01  0.76124692343E+01  0.51100000000E-03 0. -1.
        -12    1    3    3    0    0  0.50646940928E+01  0.28661966705E+01 -0.68676939900E+01  0.90017459611E+01  0.00000000000E+00 0.  1.
</event>
<event>
 7    1  0.1138240E-011  0.5930194E+02  0.7816164E-02  0.1266605E+00
        -11   -1    0    0    0    0  0.00000000000E+00  0.00000000000E+00  0.45593999997E+02  0.45594000000E+02  0.51100000000E-03 0.  1.
         11   -1    0    0    0    0 -0.00000000000E+00 -0.00000000000E+00 -0.45593999997E+02  0.45594000000E+02  0.51100000000E-03 0. -1.
    9900012    2    1    2    0    0  0.19636745213E+02 -0.18885473028E+02 -0.16566780622E+02  0.59301936050E+02  0.49999985451E+02 0.  0.
        -12    1    1    2    0    0 -0.19636745213E+02  0.18885473028E+02  0.16566780622E+02  0.31886063950E+02  0.00000000000E+00 0.  1.
         11    1    3    3    0    0  0.27278360544E+02 -0.12300993097E+02  0.34559931796E+01  0.30122537647E+02  0.51100000000E-03 0. -1.
        -11    1    3    3    0    0 -0.50424534734E+01  0.49367404189E+01 -0.15045418318E+01  0.72153578830E+01  0.51100000000E-03 0.  1.
        -12    1    3    3    0    0 -0.25991618583E+01 -0.11521220350E+02 -0.18518231970E+02  0.21964040521E+02  0.00000000000E+00 0.  1.
</event>
<event>
 7    1  0.1138240E-011  0.5930194E+02  0.7816164E-02  0.1266605E+00
        -11   -1    0    0    0    0  0.00000000000E+00  0.00000000000E+00  0.45593999997E+02  0.45594000000E+02  0.51100000000E-03 0.  1.
         11   -1    0    0    0    0 -0.00000000000E+00 -0.00000000000E+00 -0.45593999997E+02  0.45594000000E+02  0.51100000000E-03 0. -1.
    9900012    2    1    2    0    0  0.24728421877E+02  0.62391520257E+01 -0.19138932924E+02  0.59301943173E+02  0.49999998441E+02 0.  0.
        -12    1    1    2    0    0 -0.24728421877E+02 -0.62391520257E+01  0.19138932924E+02  0.31886056827E+02  0.00000000000E+00 0.  1.
         11    1    3    3    0    0  0.84361584420E+01 -0.10939007327E+02 -0.14340298088E+02  0.19911674969E+02  0.51100000000E-03 0. -1.
        -11    1    3    3    0    0 -0.84625553919E+01 -0.33766709975E+00  0.95939271251E+00  0.85234557234E+01  0.51100000000E-03 0.  1.
         12    1    3    3    0    0  0.24754818827E+02  0.17515826453E+02 -0.57580275484E+01  0.30866812480E+02  0.00000000000E+00 0. -1.
</event>
<event>
 7    1  0.1138240E-011  0.5930196E+02  0.7816164E-02  0.1266605E+00
        -11   -1    0    0    0    0  0.00000000000E+00  0.00000000000E+00  0.45593999997E+02  0.45594000000E+02  0.51100000000E-03 0.  1.
         11   -1    0    0    0    0 -0.00000000000E+00 -0.00000000000E+00 -0.45593999997E+02  0.45594000000E+02  0.51100000000E-03 0. -1.
    9900012    2    1    2    0    0  0.10724284880E+02  0.23562734433E+02 -0.18614699594E+02  0.59301956327E+02  0.50000022430E+02 0.  0.
        -12    1    1    2    0    0 -0.10724284880E+02 -0.23562734433E+02  0.18614699594E+02  0.31886043673E+02  0.00000000000E+00 0.  1.
         11    1    3    3    0    0 -0.31633706803E+01  0.56565731764E+01 -0.13958426516E+01  0.66296388386E+01  0.51100000000E-03 0. -1.
        -11    1    3    3    0    0 -0.84949011292E+01  0.59360750603E+01 -0.24218399286E+02  0.26342573841E+02  0.51100000000E-03 0.  1.
         12    1    3    3    0    0  0.22382556689E+02  0.11970086197E+02  0.69995423439E+01  0.26329743647E+02  0.00000000000E+00 0. -1.
</event>
<event>
 7    1  0.1138240E-011  0.5930190E+02  0.7816164E-02  0.1266605E+00
        -11   -1    0    0    0    0  0.00000000000E+00  0.00000000000E+00  0.45593999997E+02  0.45594000000E+02  0.51100000000E-03 0.  1.
         11   -1    0    0    0    0 -0.00000000000E+00 -0.00000000000E+00 -0.45593999997E+02  0.45594000000E+02  0.51100000000E-03 0. -1.
    9900012    2    1    2    0    0  0.65258327531E+01 -0.28867356964E+02 -0.11866438754E+02  0.59301903345E+02  0.49999925804E+02 0.  0.
        -12    1    1    2    0    0 -0.65258327531E+01  0.28867356964E+02  0.11866438754E+02  0.31886096655E+02  0.00000000000E+00 0.  1.
         11    1    3    3    0    0  0.63466452711E+01 -0.96662859818E+01  0.11057014593E+02  0.15999205069E+02  0.51100000000E-03 0. -1.
        -11    1    3    3    0    0  0.24960636413E+01  0.24293654505E+01  0.61042178378E+01  0.70280598934E+01  0.51100000000E-03 0.  1.
         12    1    3    3    0    0 -0.23168761593E+01 -0.21630436432E+02 -0.29027671185E+02  0.36274638383E+02  0.00000000000E+00 0. -1.
</event>
<event>
 7    1  0.1138240E-011  0.5930194E+02  0.7816164E-02  0.1266605E+00
        -11   -1    0    0    0    0  0.00000000000E+00  0.00000000000E+00  0.45593999997E+02  0.45594000000E+02  0.51100000000E-03 0.  1.
         11   -1    0    0    0    0 -0.00000000000E+00 -0.00000000000E+00 -0.45593999997E+02  0.45594000000E+02  0.51100000000E-03 0. -1.
    9900012    2    1    2    0    0 -0.13177548459E+02  0.28767847923E+02 -0.39349344120E+01  0.59301944014E+02  0.49999999974E+02 0.  0.
        -12    1    1    2    0    0  0.13177548459E+02 -0.28767847923E+02  0.39349344120E+01  0.31886055986E+02  0.00000000000E+00 0.  1.
         11    1    3    3    0    0 -0.46577756966E+01  0.27381899624E+00  0.13593873149E+01  0.48598133108E+01  0.51100000000E-03 0. -1.
        -11    1    3    3    0    0 -0.11744624623E+01 -0.20128438998E+01  0.16226231955E+02  0.16392727240E+02  0.51100000000E-03 0.  1.
         12    1    3    3    0    0 -0.73453103005E+01  0.30506872827E+02 -0.21520553682E+02  0.38049403463E+02  0.00000000000E+00 0. -1.
</event>
<event>
 7    1  0.1138240E-011  0.5930195E+02  0.7816164E-02  0.1266605E+00
        -11   -1    0    0    0    0  0.00000000000E+00  0.00000000000E+00  0.45593999997E+02  0.45594000000E+02  0.51100000000E-03 0.  1.
         11   -1    0    0    0    0 -0.00000000000E+00 -0.00000000000E+00 -0.45593999997E+02  0.45594000000E+02  0.51100000000E-03 0. -1.
    9900012    2    1    2    0    0 -0.22744491906E+02  0.15609509899E+02 -0.15992240112E+02  0.59301945758E+02  0.50000003155E+02 0.  0.
        -12    1    1    2    0    0  0.22744491906E+02 -0.15609509899E+02  0.15992240112E+02  0.31886054242E+02  0.00000000000E+00 0.  1.
         11    1    3    3    0    0 -0.19024607938E+02  0.13330211743E+02 -0.27250759376E+02  0.35808297071E+02  0.51100000000E-03 0. -1.
        -11    1    3    3    0    0  0.53447124568E+01 -0.55709466404E+01  0.11406234007E+01  0.78040002383E+01  0.51100000000E-03 0.  1.
        -12    1    3    3    0    0 -0.90645964248E+01  0.78502447964E+01  0.10117895864E+02  0.15689648448E+02  0.00000000000E+00 0.  1.
</event>
<event>
 7    1  0.1138240E-011  0.5930193E+02  0.7816164E-02  0.1266605E+00
        -11   -1    0    0    0    0  0.00000000000E+00  0.00000000000E+00  0.45593999997E+02  0.45594000000E+02  0.51100000000E-03 0. -1.
         11   -1    0    0    0    0 -0.00000000000E+00 -0.00000000000E+00 -0.45593999997E+02  0.45594000000E+02  0.51100000000E-03 0.  1.
    9900012    2    1    2    0    0 -0.14470796655E+02 -0.45969189460E+01 -0.28039006358E+02  0.59301929418E+02  0.49999973355E+02 0.  0.
        -12    1    1    2    0    0  0.14470796655E+02  0.45969189460E+01  0.28039006358E+02  0.31886070582E+02  0.00000000000E+00 0.  1.
         11    1    3    3    0    0 -0.84355207550E+01  0.11001385182E+02 -0.16887521129E+02  0.21848955501E+02  0.51100000000E-03 0.  1.
        -11    1    3    3    0    0 -0.18709135741E+02 -0.96789368038E+01 -0.30387488103E+01  0.21282564987E+02  0.51100000000E-03 0. -1.
        -12    1    3    3    0    0  0.12673859841E+02 -0.59193673241E+01 -0.81127364187E+01  0.16170408930E+02  0.00000000000E+00 0.  1.
</event>
<event>
 7    1  0.1138240E-011  0.5930194E+02  0.7816164E-02  0.1266605E+00
        -11   -1    0    0    0    0  0.00000000000E+00  0.00000000000E+00  0.45593999997E+02  0.45594000000E+02  0.51100000000E-03 0.  1.
         11   -1    0    0    0    0 -0.00000000000E+00 -0.00000000000E+00 -0.45593999997E+02  0.45594000000E+02  0.51100000000E-03 0. -1.
    9900012    2    1    2    0    0 -0.21646613950E+02 -0.13108005308E+02 -0.19399107025E+02  0.59301936398E+02  0.49999986086E+02 0.  0.
        -12    1    1    2    0    0  0.21646613950E+02  0.13108005308E+02  0.19399107025E+02  0.31886063602E+02  0.00000000000E+00 0.  1.
         11    1    3    3    0    0 -0.12935856943E+02  0.13025206354E+02  0.37410966401E+01  0.18734679068E+02  0.51100000000E-03 0. -1.
        -11    1    3    3    0    0 -0.13087128017E+01 -0.16254544867E+01  0.32097205327E+01  0.38284641365E+01  0.51100000000E-03 0.  1.
         12    1    3    3    0    0 -0.74020442048E+01 -0.24507757175E+02 -0.26349924197E+02  0.36738793194E+02  0.00000000000E+00 0. -1.
</event>
<event>
 7    1  0.1138240E-011  0.5930193E+02  0.7816164E-02  0.1266605E+00
        -11   -1    0    0    0    0  0.00000000000E+00  0.00000000000E+00  0.45593999997E+02  0.45594000000E+02  0.51100000000E-03 0.  1.
         11   -1    0    0    0    0 -0.00000000000E+00 -0.00000000000E+00 -0.45593999997E+02  0.45594000000E+02  0.51100000000E-03 0. -1.
    9900012    2    1    2    0    0  0.20943921100E+02  0.20179631790E+02 -0.13071184043E+02  0.59301933725E+02  0.49999981210E+02 0.  0.
        -12    1    1    2    0    0 -0.20943921100E+02 -0.20179631790E+02  0.13071184043E+02  0.31886066275E+02  0.00000000000E+00 0.  1.
         11    1    3    3    0    0  0.42751576184E+01  0.70711901448E+01  0.10645471184E+01  0.83313842520E+01  0.51100000000E-03 0. -1.
        -11    1    3    3    0    0 -0.25847179059E+01 -0.56273579944E+01  0.11991309969E+02  0.13495904552E+02  0.51100000000E-03 0.  1.
         12    1    3    3    0    0  0.19253481388E+02  0.18735799639E+02 -0.26127041131E+02  0.37474644920E+02  0.00000000000E+00 0. -1.
</event>
<event>
 7    1  0.1138240E-011  0.5930193E+02  0.7816164E-02  0.1266605E+00
        -11   -1    0    0    0    0  0.00000000000E+00  0.00000000000E+00  0.45593999997E+02  0.45594000000E+02  0.51100000000E-03 0. -1.
         11   -1    0    0    0    0 -0.00000000000E+00 -0.00000000000E+00 -0.45593999997E+02  0.45594000000E+02  0.51100000000E-03 0.  1.
    9900012    2    1    2    0    0  0.93804663527E+00  0.29257824911E+02  0.12642050774E+02  0.59301926272E+02  0.49999967618E+02 0.  0.
        -12    1    1    2    0    0 -0.93804663527E+00 -0.29257824911E+02 -0.12642050774E+02  0.31886073728E+02  0.00000000000E+00 0.  1.
         11    1    3    3    0    0  0.10505191364E+02  0.60182547494E+01  0.59553868996E+01  0.13492407836E+02  0.51100000000E-03 0. -1.
        -11    1    3    3    0    0  0.14614932356E+02  0.81971942334E+01  0.11399865777E+01  0.16795529486E+02  0.51100000000E-03 0.  1.
        -12    1    3    3    0    0 -0.24182077085E+02  0.15042375928E+02  0.55466772964E+01  0.29013988949E+02  0.00000000000E+00 0.  1.
</event>
<event>
 7    1  0.1138240E-011  0.5930195E+02  0.7816164E-02  0.1266605E+00
        -11   -1    0    0    0    0  0.00000000000E+00  0.00000000000E+00  0.45593999997E+02  0.45594000000E+02  0.51100000000E-03 0.  1.
         11   -1    0    0    0    0 -0.00000000000E+00 -0.00000000000E+00 -0.45593999997E+02  0.45594000000E+02  0.51100000000E-03 0. -1.
    9900012    2    1    2    0    0 -0.25292007530E+02 -0.16628668389E+01 -0.19346049912E+02  0.59301946337E+02  0.50000004211E+02 0.  0.
        -12    1    1    2    0    0  0.25292007530E+02  0.16628668389E+01  0.19346049912E+02  0.31886053663E+02  0.00000000000E+00 0.  1.
         11    1    3    3    0    0 -0.80542573491E+01 -0.72224805014E+01 -0.18423825658E+02  0.21365220293E+02  0.51100000000E-03 0. -1.
        -11    1    3    3    0    0 -0.24649981844E+02  0.26428878067E+01  0.79296632283E+01  0.26028561620E+02  0.51100000000E-03 0.  1.
         12    1    3    3    0    0  0.74122316626E+01  0.29167258559E+01 -0.88518874819E+01  0.11908164423E+02  0.00000000000E+00 0. -1.
</event>
<event>
 7    1  0.1138240E-011  0.5930195E+02  0.7816164E-02  0.1266605E+00
        -11   -1    0    0    0    0  0.00000000000E+00  0.00000000000E+00  0.45593999997E+02  0.45594000000E+02  0.51100000000E-03 0.  1.
         11   -1    0    0    0    0 -0.00000000000E+00 -0.00000000000E+00 -0.45593999997E+02  0.45594000000E+02  0.51100000000E-03 0. -1.
    9900012    2    1    2    0    0  0.28450193488E+01 -0.10181676477E+02 -0.30082544291E+02  0.59301950669E+02  0.50000012111E+02 0.  0.
        -12    1    1    2    0    0 -0.28450193488E+01  0.10181676477E+02  0.30082544291E+02  0.31886049331E+02  0.00000000000E+00 0.  1.
         11    1    3    3    0    0  0.58394596091E+01 -0.98142384182E+01 -0.68118851722E+01  0.13297381100E+02  0.51100000000E-03 0. -1.
        -11    1    3    3    0    0  0.78675175759E+01  0.69313399716E+01 -0.29647590325E+02  0.31447113047E+02  0.51100000000E-03 0.  1.
        -12    1    3    3    0    0 -0.10861957836E+02 -0.72987780300E+01  0.63769312071E+01  0.14557456522E+02  0.00000000000E+00 0.  1.
</event>
<event>
 7    1  0.1138240E-011  0.5930165E+02  0.7816164E-02  0.1266606E+00
        -11   -1    0    0    0    0  0.00000000000E+00  0.00000000000E+00  0.45593999997E+02  0.45594000000E+02  0.51100000000E-03 0.  1.
         11   -1    0    0    0    0 -0.00000000000E+00 -0.00000000000E+00 -0.45593999997E+02  0.45594000000E+02  0.51100000000E-03 0. -1.
    9900012    2    1    2    0    0  0.90765609288E+00  0.17486743821E+02 -0.26648250708E+02  0.59301650024E+02  0.49999463804E+02 0.  0.
        -12    1    1    2    0    0 -0.90765609288E+00 -0.17486743821E+02  0.26648250708E+02  0.31886349976E+02  0.00000000000E+00 0.  1.
         11    1    3    3    0    0  0.17621237924E+02  0.12560225793E+02 -0.17237964745E+02  0.27666129595E+02  0.51100000000E-03 0. -1.
        -11    1    3    3    0    0 -0.60563348607E+01  0.10921009932E+02  0.43533645547E+01  0.13224954937E+02  0.51100000000E-03 0.  1.
        -12    1    3    3    0    0 -0.10657246970E+02 -0.59944919040E+01 -0.13763650517E+02  0.18410565492E+02  0.00000000000E+00 0.  1.
</event>
<event>
 7    1  0.1138240E-011  0.5930194E+02  0.7816164E-02  0.1266605E+00
        -11   -1    0    0    0    0  0.00000000000E+00  0.00000000000E+00  0.45593999997E+02  0.45594000000E+02  0.51100000000E-03 0.  1.
         11   -1    0    0    0    0 -0.00000000000E+00 -0.00000000000E+00 -0.45593999997E+02  0.45594000000E+02  0.51100000000E-03 0. -1.
    9900012    2    1    2    0    0 -0.62710389598E+00 -0.43316832098E+01 -0.31584238359E+02  0.59301939543E+02  0.49999991821E+02 0.  0.
        -12    1    1    2    0    0  0.62710389598E+00  0.43316832098E+01  0.31584238359E+02  0.31886060457E+02  0.00000000000E+00 0.  1.
         11    1    3    3    0    0 -0.71860839633E+01 -0.11860678083E+02  0.10545571332E+01  0.13907824356E+02  0.51100000000E-03 0. -1.
        -11    1    3    3    0    0  0.33648090182E+01  0.10885075592E+02  0.10006232777E+01  0.11437135025E+02  0.51100000000E-03 0.  1.
         12    1    3    3    0    0  0.31941710491E+01 -0.33560807190E+01 -0.33639418770E+02  0.33956980161E+02  0.00000000000E+00 0. -1.
</event>
<event>
 7    1  0.1138240E-011  0.5930189E+02  0.7816164E-02  0.1266605E+00
        -11   -1    0    0    0    0  0.00000000000E+00  0.00000000000E+00  0.45593999997E+02  0.45594000000E+02  0.51100000000E-03 0. -1.
         11   -1    0    0    0    0 -0.00000000000E+00 -0.00000000000E+00 -0.45593999997E+02  0.45594000000E+02  0.51100000000E-03 0.  1.
    9900012    2    1    2    0    0  0.18971956069E+02  0.25627894373E+02 -0.46135207059E-02  0.59301888472E+02  0.49999898680E+02 0.  0.
        -12    1    1    2    0    0 -0.18971956069E+02 -0.25627894373E+02  0.46135207059E-02  0.31886111528E+02  0.00000000000E+00 0.  1.
         11    1    3    3    0    0 -0.88075345834E+01  0.15396077252E+01  0.25925063006E+01  0.93093580104E+01  0.51100000000E-03 0. -1.
        -11    1    3    3    0    0  0.71559586298E+01  0.46598742426E+01  0.14552521126E+02  0.16872997459E+02  0.51100000000E-03 0.  1.
        -12    1    3    3    0    0  0.20623532023E+02  0.19428412405E+02 -0.17149640947E+02  0.33119533003E+02  0.00000000000E+00 0.  1.
</event>
<event>
 7    1  0.1138240E-011  0.5930196E+02  0.7816164E-02  0.1266605E+00
        -11   -1    0    0    0    0  0.00000000000E+00  0.00000000000E+00  0.45593999997E+02  0.45594000000E+02  0.51100000000E-03 0. -1.
         11   -1    0    0    0    0 -0.00000000000E+00 -0.00000000000E+00 -0.45593999997E+02  0.45594000000E+02  0.51100000000E-03 0.  1.
    9900012    2    1    2    0    0 -0.17134891081E+01  0.98849144615E+01 -0.30266679157E+02  0.59301961582E+02  0.50000032014E+02 0.  0.
        -12    1    1    2    0    0  0.17134891081E+01 -0.98849144615E+01  0.30266679157E+02  0.31886038418E+02  0.00000000000E+00 0.  1.
         11    1    3    3    0    0 -0.57710476612E+01 -0.79416469782E+01 -0.19177418109E+02  0.21544096951E+02  0.51100000000E-03 0. -1.
        -11    1    3    3    0    0  0.13068970103E+01 -0.53772435220E+01  0.64814207821E+01  0.85224141712E+01  0.51100000000E-03 0.  1.
        -12    1    3    3    0    0  0.27506615428E+01  0.23203804962E+02 -0.17570681830E+02  0.29235450460E+02  0.00000000000E+00 0.  1.
</event>
<event>
 7    1  0.1138240E-011  0.5930196E+02  0.7816164E-02  0.1266605E+00
        -11   -1    0    0    0    0  0.00000000000E+00  0.00000000000E+00  0.45593999997E+02  0.45594000000E+02  0.51100000000E-03 0.  1.
         11   -1    0    0    0    0 -0.00000000000E+00 -0.00000000000E+00 -0.45593999997E+02  0.45594000000E+02  0.51100000000E-03 0. -1.
    9900012    2    1    2    0    0 -0.17282303026E+02  0.26032612763E+02 -0.63517554061E+01  0.59301957256E+02  0.50000024124E+02 0.  0.
        -12    1    1    2    0    0  0.17282303026E+02 -0.26032612763E+02  0.63517554061E+01  0.31886042744E+02  0.00000000000E+00 0.  1.
         11    1    3    3    0    0  0.17760974380E+01 -0.11556806212E+02 -0.67325255675E+01  0.13492264180E+02  0.51100000000E-03 0. -1.
        -11    1    3    3    0    0  0.11510397414E+01  0.44329539107E+01  0.49122658248E+01  0.67161245265E+01  0.51100000000E-03 0.  1.
        -12    1    3    3    0    0 -0.20209440206E+02  0.33156465064E+02 -0.45314956634E+01  0.39093568549E+02  0.00000000000E+00 0.  1.
</event>
<event>
 7    1  0.1138240E-011  0.5930193E+02  0.7816164E-02  0.1266605E+00
        -11   -1    0    0    0    0  0.00000000000E+00  0.00000000000E+00  0.45593999997E+02  0.45594000000E+02  0.51100000000E-03 0.  1.
         11   -1    0    0    0    0 -0.00000000000E+00 -0.00000000000E+00 -0.45593999997E+02  0.45594000000E+02  0.51100000000E-03 0. -1.
    9900012    2    1    2    0    0 -0.21984704845E+02  0.20400365620E+02  0.10826777870E+02  0.59301932767E+02  0.49999979463E+02 0.  0.
        -12    1    1    2    0    0  0.21984704845E+02 -0.20400365620E+02 -0.10826777870E+02  0.31886067233E+02  0.00000000000E+00 0.  1.
         11    1    3    3    0    0 -0.22566663254E+01  0.20095276930E+02 -0.65020012091E+01  0.21241203304E+02  0.51100000000E-03 0. -1.
        -11    1    3    3    0    0 -0.18113991728E+02  0.19312975354E+01 -0.22439552168E+01  0.18354343948E+02  0.51100000000E-03 0.  1.
        -12    1    3    3    0    0 -0.16140467915E+01 -0.16262088456E+01  0.19572734296E+02  0.19706385515E+02  0.00000000000E+00 0.  1.
</event>
<event>
 7    1  0.1345018E-011  0.5930195E+02  0.7816164E-02  0.1266605E+00
        -11   -1    0    0    0    0  0.00000000000E+00  0.00000000000E+00  0.45593999997E+02  0.45594000000E+02  0.51100000000E-03 0. -1.
         11   -1    0    0    0    0 -0.00000000000E+00 -0.00000000000E+00 -0.45593999997E+02  0.45594000000E+02  0.51100000000E-03 0.  1.
    9900012    2    1    2    0    0  0.16515966227E+02  0.13417936249E+02  0.23746624176E+02  0.59301947981E+02  0.50000007210E+02 0.  0.
        -12    1    1    2    0    0 -0.16515966227E+02 -0.13417936249E+02 -0.23746624176E+02  0.31886052019E+02  0.00000000000E+00 0.  1.
         11    1    3    3    0    0 -0.38328169250E+01 -0.87847574692E+01  0.55951590980E+01  0.11098119434E+02  0.51100000000E-03 0. -1.
        -11    1    3    3    0    0  0.74280927126E+01  0.25818422774E+01 -0.92296028072E+01  0.12125511912E+02  0.51100000000E-03 0.  1.
         12    1    3    3    0    0  0.12920690439E+02  0.19620851440E+02  0.27381067886E+02  0.36078316635E+02  0.00000000000E+00 0. -1.
</event>
<event>
 7    1  0.1138240E-011  0.5930195E+02  0.7816164E-02  0.1266605E+00
        -11   -1    0    0    0    0  0.00000000000E+00  0.00000000000E+00  0.45593999997E+02  0.45594000000E+02  0.51100000000E-03 0.  1.
         11   -1    0    0    0    0 -0.00000000000E+00 -0.00000000000E+00 -0.45593999997E+02  0.45594000000E+02  0.51100000000E-03 0. -1.
    9900012    2    1    2    0    0  0.17372232450E+01  0.54422084744E+01 -0.31370120170E+02  0.59301952626E+02  0.50000015680E+02 0.  0.
        -12    1    1    2    0    0 -0.17372232450E+01 -0.54422084744E+01  0.31370120170E+02  0.31886047374E+02  0.00000000000E+00 0.  1.
         11    1    3    3    0    0  0.42221171086E+00  0.19045778256E+02 -0.53571776541E+01  0.19789373026E+02  0.51100000000E-03 0. -1.
        -11    1    3    3    0    0  0.49853256435E+01 -0.36884359451E+01  0.42088352261E+01  0.74948199254E+01  0.51100000000E-03 0.  1.
         12    1    3    3    0    0 -0.36703141093E+01 -0.99151338361E+01 -0.30221777742E+02  0.32017759674E+02  0.00000000000E+00 0. -1.
</event>
<event>
 7    1  0.1138240E-011  0.5930192E+02  0.7816164E-02  0.1266605E+00
        -11   -1    0    0    0    0  0.00000000000E+00  0.00000000000E+00  0.45593999997E+02  0.45594000000E+02  0.51100000000E-03 0.  1.
         11   -1    0    0    0    0 -0.00000000000E+00 -0.00000000000E+00 -0.45593999997E+02  0.45594000000E+02  0.51100000000E-03 0. -1.
    9900012    2    1    2    0    0 -0.87872625938E+01 -0.17008482550E+02 -0.25499369348E+02  0.59301916834E+02  0.49999950405E+02 0.  0.
        -12    1    1    2    0    0  0.87872625938E+01  0.17008482550E+02  0.25499369348E+02  0.31886083166E+02  0.00000000000E+00 0.  1.
         11    1    3    3    0    0  0.29794698535E+01  0.25945884866E+01 -0.72446083933E+01  0.82518774262E+01  0.51100000000E-03 0. -1.
        -11    1    3    3    0    0 -0.13315768629E+02  0.10847248076E+02 -0.70850208302E+01  0.18578751450E+02  0.51100000000E-03 0.  1.
         12    1    3    3    0    0  0.15490361821E+01 -0.30450319113E+02 -0.11169740125E+02  0.32471287957E+02  0.00000000000E+00 0. -1.
</event>
<event>
 7    1  0.1138240E-011  0.5930194E+02  0.7816164E-02  0.1266605E+00
        -11   -1    0    0    0    0  0.00000000000E+00  0.00000000000E+00  0.45593999997E+02  0.45594000000E+02  0.51100000000E-03 0. -1.
         11   -1    0    0    0    0 -0.00000000000E+00 -0.00000000000E+00 -0.45593999997E+02  0.45594000000E+02  0.51100000000E-03 0.  1.
    9900012    2    1    2    0    0 -0.36219977576E+01  0.10686340903E+02  0.29822878818E+02  0.59301939556E+02  0.49999991844E+02 0.  0.
        -12    1    1    2    0    0  0.36219977576E+01 -0.10686340903E+02 -0.29822878818E+02  0.31886060444E+02  0.00000000000E+00 0.  1.
         11    1    3    3    0    0  0.88013268948E+01  0.38816601309E+01 -0.22642483722E+01  0.98821789820E+01  0.51100000000E-03 0. -1.
        -11    1    3    3    0    0 -0.43346417989E+01  0.20609498625E+02  0.14091833692E+02  0.25340093334E+02  0.51100000000E-03 0.  1.
         12    1    3    3    0    0 -0.80886828535E+01 -0.13804817854E+02  0.17995293498E+02  0.24079667239E+02  0.00000000000E+00 0. -1.
</event>
<event>
 7    1  0.1138240E-011  0.5930195E+02  0.7816164E-02  0.1266605E+00
        -11   -1    0    0    0    0  0.00000000000E+00  0.00000000000E+00  0.45593999997E+02  0.45594000000E+02  0.51100000000E-03 0.  1.
         11   -1    0    0    0    0 -0.00000000000E+00 -0.00000000000E+00 -0.45593999997E+02  0.45594000000E+02  0.51100000000E-03 0. -1.
    9900012    2    1    2    0    0 -0.19896688840E+02 -0.22629997969E+02 -0.10427146273E+02  0.59301946398E+02  0.50000004323E+02 0.  0.
        -12    1    1    2    0    0  0.19896688840E+02  0.22629997969E+02  0.10427146273E+02  0.31886053602E+02  0.00000000000E+00 0.  1.
         11    1    3    3    0    0 -0.86033234422E+01 -0.21961471775E+01 -0.10370202025E+02  0.13652154664E+02  0.51100000000E-03 0. -1.
        -11    1    3    3    0    0 -0.35666525802E+01 -0.31057225521E+02 -0.49125053663E+01  0.31644983440E+02  0.51100000000E-03 0.  1.
         12    1    3    3    0    0 -0.77267128177E+01  0.10623374729E+02  0.48555611176E+01  0.14004808294E+02  0.00000000000E+00 0. -1.
</event>
<event>
 7    1  0.1138240E-011  0.5930194E+02  0.7816164E-02  0.1266605E+00
        -11   -1    0    0    0    0  0.00000000000E+00  0.00000000000E+00  0.45593999997E+02  0.45594000000E+02  0.51100000000E-03 0. -1.
         11   -1    0    0    0    0 -0.00000000000E+00 -0.00000000000E+00 -0.45593999997E+02  0.45594000000E+02  0.51100000000E-03 0.  1.
    9900012    2    1    2    0    0 -0.15815849260E+02  0.11382272037E+02  0.25239321487E+02  0.59301944213E+02  0.50000000337E+02 0.  0.
        -12    1    1    2    0    0  0.15815849260E+02 -0.11382272037E+02 -0.25239321487E+02  0.31886055787E+02  0.00000000000E+00 0.  1.
         11    1    3    3    0    0  0.21544468377E+01  0.10857811580E+02  0.61733076638E+01  0.12674519370E+02  0.51100000000E-03 0. -1.
        -11    1    3    3    0    0 -0.67877693632E+00 -0.12150188284E+02 -0.60626572519E+01  0.13595720896E+02  0.51100000000E-03 0.  1.
         12    1    3    3    0    0 -0.17291519161E+02  0.12674648740E+02  0.25128671076E+02  0.33031703947E+02  0.00000000000E+00 0. -1.
</event>
<event>
 7    1  0.1138240E-011  0.5930200E+02  0.7816164E-02  0.1266605E+00
        -11   -1    0    0    0    0  0.00000000000E+00  0.00000000000E+00  0.45593999997E+02  0.45594000000E+02  0.51100000000E-03 0. -1.
         11   -1    0    0    0    0 -0.00000000000E+00 -0.00000000000E+00 -0.45593999997E+02  0.45594000000E+02  0.51100000000E-03 0.  1.
    9900012    2    1    2    0    0  0.11062963168E+02 -0.12009942151E+02  0.27387752727E+02  0.59302002071E+02  0.50000105857E+02 0.  0.
        -12    1    1    2    0    0 -0.11062963168E+02  0.12009942151E+02 -0.27387752727E+02  0.31885997929E+02  0.00000000000E+00 0.  1.
         11    1    3    3    0    0  0.13717261291E+02 -0.10454181531E+02  0.12534571710E+02  0.21320615774E+02  0.51100000000E-03 0. -1.
        -11    1    3    3    0    0 -0.83694697583E+01 -0.13666332421E+02  0.18127498527E+02  0.24195513406E+02  0.51100000000E-03 0.  1.
        -12    1    3    3    0    0  0.57151716360E+01  0.12110571801E+02 -0.32743175101E+01  0.13785872890E+02  0.00000000000E+00 0.  1.
</event>
<event>
 7    1  0.1138240E-011  0.5930195E+02  0.7816164E-02  0.1266605E+00
        -11   -1    0    0    0    0  0.00000000000E+00  0.00000000000E+00  0.45593999997E+02  0.45594000000E+02  0.51100000000E-03 0.  1.
         11   -1    0    0    0    0 -0.00000000000E+00 -0.00000000000E+00 -0.45593999997E+02  0.45594000000E+02  0.51100000000E-03 0. -1.
    9900012    2    1    2    0    0  0.20558242846E+02  0.21919539839E+02 -0.10658935347E+02  0.59301945393E+02  0.50000002490E+02 0.  0.
        -12    1    1    2    0    0 -0.20558242846E+02 -0.21919539839E+02  0.10658935347E+02  0.31886054607E+02  0.00000000000E+00 0.  1.
         11    1    3    3    0    0 -0.56320288796E+01  0.23087781250E+02 -0.76066222510E+01  0.24952476724E+02  0.51100000000E-03 0. -1.
        -11    1    3    3    0    0  0.10107825003E+02  0.26762668060E+01 -0.11698118497E+02  0.15690012968E+02  0.51100000000E-03 0.  1.
        -12    1    3    3    0    0  0.16082446722E+02 -0.38445082166E+01  0.86458054016E+01  0.18659455701E+02  0.00000000000E+00 0.  1.
</event>
<event>
 7    1  0.1138240E-011  0.5930193E+02  0.7816164E-02  0.1266605E+00
        -11   -1    0    0    0    0  0.00000000000E+00  0.00000000000E+00  0.45593999997E+02  0.45594000000E+02  0.51100000000E-03 0. -1.
         11   -1    0    0    0    0 -0.00000000000E+00 -0.00000000000E+00 -0.45593999997E+02  0.45594000000E+02  0.51100000000E-03 0.  1.
    9900012    2    1    2    0    0  0.24525803861E+02  0.19448315141E+02  0.60802678222E+01  0.59301926650E+02  0.49999968308E+02 0.  0.
        -12    1    1    2    0    0 -0.24525803861E+02 -0.19448315141E+02 -0.60802678222E+01  0.31886073350E+02  0.00000000000E+00 0.  1.
         11    1    3    3    0    0  0.19156338884E+02  0.42571140689E+01 -0.65911255568E+01  0.20700996981E+02  0.51100000000E-03 0. -1.
        -11    1    3    3    0    0  0.32017116489E+01  0.15445268085E+02 -0.80885369009E+01  0.17726581542E+02  0.51100000000E-03 0.  1.
         12    1    3    3    0    0  0.21677533284E+01 -0.25406701249E+00  0.20759930280E+02  0.20874348128E+02  0.00000000000E+00 0. -1.
</event>
<event>
 7    1  0.1138240E-011  0.5930195E+02  0.7816164E-02  0.1266605E+00
        -11   -1    0    0    0    0  0.00000000000E+00  0.00000000000E+00  0.45593999997E+02  0.45594000000E+02  0.51100000000E-03 0.  1.
         11   -1    0    0    0    0 -0.00000000000E+00 -0.00000000000E+00 -0.45593999997E+02  0.45594000000E+02  0.51100000000E-03 0. -1.
    9900012    2    1    2    0    0  0.28301521460E+02 -0.13398819117E+02  0.60179471916E+01  0.59301950400E+02  0.50000011622E+02 0.  0.
        -12    1    1    2    0    0 -0.28301521460E+02  0.13398819117E+02 -0.60179471916E+01  0.31886049600E+02  0.00000000000E+00 0.  1.
         11    1    3    3    0    0  0.24205012038E+02 -0.73066153935E+01 -0.57511950272E+01  0.25929625542E+02  0.51100000000E-03 0. -1.
        -11    1    3    3    0    0  0.84913037876E+01  0.29193812887E+01  0.18997238176E+02  0.21012379344E+02  0.51100000000E-03 0.  1.
         12    1    3    3    0    0 -0.43947943655E+01 -0.90115850118E+01 -0.72280959573E+01  0.12359945514E+02  0.00000000000E+00 0. -1.
</event>
<event>
 7    1  0.1138240E-011  0.5930195E+02  0.7816164E-02  0.1266605E+00
        -11   -1    0    0    0    0  0.00000000000E+00  0.00000000000E+00  0.45593999997E+02  0.45594000000E+02  0.51100000000E-03 0. -1.
         11   -1    0    0    0    0 -0.00000000000E+00 -0.00000000000E+00 -0.45593999997E+02  0.45594000000E+02  0.51100000000E-03 0.  1.
    9900012    2    1    2    0    0 -0.18255672696E+02 -0.82483019121E+01  0.24807581550E+02  0.59301950192E+02  0.50000011241E+02 0.  0.
        -12    1    1    2    0    0  0.18255672696E+02  0.82483019121E+01 -0.24807581550E+02  0.31886049808E+02  0.00000000000E+00 0.  1.
         11    1    3    3    0    0 -0.51051853575E+01  0.10145184073E+02 -0.99524427230E+01  0.15100953408E+02  0.51100000000E-03 0.  1.
        -11    1    3    3    0    0  0.18700689126E+01 -0.86800995362E+01  0.15873462609E+02  0.18188130777E+02  0.51100000000E-03 0. -1.
        -12    1    3    3    0    0 -0.15020556251E+02 -0.97133864489E+01  0.18886561664E+02  0.26012866006E+02  0.00000000000E+00 0.  1.
</event>
<event>
 7    1  0.1138240E-011  0.5930197E+02  0.7816164E-02  0.1266605E+00
        -11   -1    0    0    0    0  0.00000000000E+00  0.00000000000E+00  0.45593999997E+02  0.45594000000E+02  0.51100000000E-03 0.  1.
         11   -1    0    0    0    0 -0.00000000000E+00 -0.00000000000E+00 -0.45593999997E+02  0.45594000000E+02  0.51100000000E-03 0. -1.
    9900012    2    1    2    0    0  0.81768688452E+01 -0.15168676980E+02 -0.26828505914E+02  0.59301973671E+02  0.50000054063E+02 0.  0.
        -12    1    1    2    0    0 -0.81768688452E+01  0.15168676980E+02  0.26828505914E+02  0.31886026329E+02  0.00000000000E+00 0.  1.
         11    1    3    3    0    0 -0.16617723492E+01 -0.94635422026E+01 -0.24123946019E+02  0.25966996171E+02  0.51100000000E-03 0. -1.
        -11    1    3    3    0    0 -0.80426098601E+01  0.51700603708E+01 -0.71507038235E+01  0.11939248847E+02  0.51100000000E-03 0.  1.
        -12    1    3    3    0    0  0.17881251054E+02 -0.10875195148E+02  0.44461439278E+01  0.21395728653E+02  0.00000000000E+00 0.  1.
</event>
<event>
 7    1  0.1138240E-011  0.5930214E+02  0.7816164E-02  0.1266604E+00
        -11   -1    0    0    0    0  0.00000000000E+00  0.00000000000E+00  0.45593999997E+02  0.45594000000E+02  0.51100000000E-03 0.  1.
         11   -1    0    0    0    0 -0.00000000000E+00 -0.00000000000E+00 -0.45593999997E+02  0.45594000000E+02  0.51100000000E-03 0. -1.
    9900012    2    1    2    0    0 -0.37426544322E+00 -0.14620401891E+02 -0.28333930295E+02  0.59302143699E+02  0.50000364152E+02 0.  0.
        -12    1    1    2    0    0  0.37426544322E+00  0.14620401891E+02  0.28333930295E+02  0.31885856301E+02  0.00000000000E+00 0.  1.
         11    1    3    3    0    0 -0.16038130016E+02 -0.84833964732E+00 -0.19231307228E+02  0.25055627562E+02  0.51100000000E-03 0. -1.
        -11    1    3    3    0    0 -0.12648646038E+01  0.52501284197E+01 -0.67926161793E+01  0.86777511897E+01  0.51100000000E-03 0.  1.
         12    1    3    3    0    0  0.16928729176E+02 -0.19022190663E+02 -0.23100068874E+01  0.25568764948E+02  0.00000000000E+00 0. -1.
</event>
<event>
 7    1  0.1138240E-011  0.5930193E+02  0.7816164E-02  0.1266605E+00
        -11   -1    0    0    0    0  0.00000000000E+00  0.00000000000E+00  0.45593999997E+02  0.45594000000E+02  0.51100000000E-03 0.  1.
         11   -1    0    0    0    0 -0.00000000000E+00 -0.00000000000E+00 -0.45593999997E+02  0.45594000000E+02  0.51100000000E-03 0. -1.
    9900012    2    1    2    0    0  0.23437356207E+02 -0.18785610199E+02 -0.10701050227E+02  0.59301932628E+02  0.49999979209E+02 0.  0.
        -12    1    1    2    0    0 -0.23437356207E+02  0.18785610199E+02  0.10701050227E+02  0.31886067372E+02  0.00000000000E+00 0.  1.
         11    1    3    3    0    0 -0.41248550387E+01 -0.12099695243E+02 -0.11359315560E+02  0.17101201838E+02  0.51100000000E-03 0. -1.
        -11    1    3    3    0    0 -0.20948288054E+01 -0.11356735641E+02  0.34393330421E+01  0.12049596017E+02  0.51100000000E-03 0.  1.
         12    1    3    3    0    0  0.29657040051E+02  0.46708206849E+01 -0.27810677089E+01  0.30151134772E+02  0.00000000000E+00 0. -1.
</event>
<event>
 7    1  0.1138240E-011  0.5930195E+02  0.7816164E-02  0.1266605E+00
        -11   -1    0    0    0    0  0.00000000000E+00  0.00000000000E+00  0.45593999997E+02  0.45594000000E+02  0.51100000000E-03 0.  1.
         11   -1    0    0    0    0 -0.00000000000E+00 -0.00000000000E+00 -0.45593999997E+02  0.45594000000E+02  0.51100000000E-03 0. -1.
    9900012    2    1    2    0    0  0.65635910475E+01  0.21036234737E+02 -0.23045957868E+02  0.59301951744E+02  0.50000014072E+02 0.  0.
        -12    1    1    2    0    0 -0.65635910475E+01 -0.21036234737E+02  0.23045957868E+02  0.31886048256E+02  0.00000000000E+00 0.  1.
         11    1    3    3    0    0  0.10462923757E+02  0.37026606003E+01 -0.14306187897E+02  0.18106614302E+02  0.51100000000E-03 0. -1.
        -11    1    3    3    0    0  0.38873148400E+01  0.27243883161E+02 -0.75452703477E+01  0.28535442720E+02  0.51100000000E-03 0.  1.
        -12    1    3    3    0    0 -0.77866475495E+01 -0.99103090243E+01 -0.11944996235E+01  0.12659894722E+02  0.00000000000E+00 0.  1.
</event>
<event>
 7    1  0.1138240E-011  0.5930195E+02  0.7816164E-02  0.1266605E+00
        -11   -1    0    0    0    0  0.00000000000E+00  0.00000000000E+00  0.45593999997E+02  0.45594000000E+02  0.51100000000E-03 0. -1.
         11   -1    0    0    0    0 -0.00000000000E+00 -0.00000000000E+00 -0.45593999997E+02  0.45594000000E+02  0.51100000000E-03 0.  1.
    9900012    2    1    2    0    0  0.20161500359E+02  0.21212445656E+02  0.12659635547E+02  0.59301947883E+02  0.50000007031E+02 0.  0.
        -12    1    1    2    0    0 -0.20161500359E+02 -0.21212445656E+02 -0.12659635547E+02  0.31886052117E+02  0.00000000000E+00 0.  1.
         11    1    3    3    0    0  0.27047342298E+02  0.13793800480E+02  0.24082906899E+02  0.38753245826E+02  0.51100000000E-03 0. -1.
        -11    1    3    3    0    0 -0.15812131872E+01  0.10691017048E+02 -0.79217118001E+01  0.13399686518E+02  0.51100000000E-03 0.  1.
        -12    1    3    3    0    0 -0.53046287517E+01 -0.32723718733E+01 -0.35015595523E+01  0.71490155384E+01  0.00000000000E+00 0.  1.
</event>
<event>
 7    1  0.1138240E-011  0.5930195E+02  0.7816164E-02  0.1266605E+00
        -11   -1    0    0    0    0  0.00000000000E+00  0.00000000000E+00  0.45593999997E+02  0.45594000000E+02  0.51100000000E-03 0.  1.
         11   -1    0    0    0    0 -0.00000000000E+00 -0.00000000000E+00 -0.45593999997E+02  0.45594000000E+02  0.51100000000E-03 0. -1.
    9900012    2    1    2    0    0  0.29269697157E+02 -0.11519127897E+02 -0.52263534441E+01  0.59301948983E+02  0.50000009037E+02 0.  0.
        -12    1    1    2    0    0 -0.29269697157E+02  0.11519127897E+02  0.52263534441E+01  0.31886051017E+02  0.00000000000E+00 0.  1.
         11    1    3    3    0    0 -0.30035131674E+01  0.12549179105E+01 -0.50201991434E+01  0.59831688936E+01  0.51100000000E-03 0. -1.
        -11    1    3    3    0    0 -0.78449237522E+01  0.15245711206E+01  0.63754154020E+01  0.10223163287E+02  0.51100000000E-03 0.  1.
         12    1    3    3    0    0  0.40118134076E+02 -0.14298616928E+02 -0.65815697027E+01  0.43095616802E+02  0.00000000000E+00 0. -1.
</event>
<event>
 7    1  0.1138240E-011  0.5930194E+02  0.7816164E-02  0.1266605E+00
        -11   -1    0    0    0    0  0.00000000000E+00  0.00000000000E+00  0.45593999997E+02  0.45594000000E+02  0.51100000000E-03 0.  1.
         11   -1    0    0    0    0 -0.00000000000E+00 -0.00000000000E+00 -0.45593999997E+02  0.45594000000E+02  0.51100000000E-03 0. -1.
    9900012    2    1    2    0    0  0.13290068655E+02 -0.28510831080E+02  0.52180118655E+01  0.59301936249E+02  0.49999985813E+02 0.  0.
        -12    1    1    2    0    0 -0.13290068655E+02  0.28510831080E+02 -0.52180118655E+01  0.31886063751E+02  0.00000000000E+00 0.  1.
         11    1    3    3    0    0  0.63858496486E+01 -0.21033038615E+02 -0.86151089951E+01  0.23609063776E+02  0.51100000000E-03 0. -1.
        -11    1    3    3    0    0  0.12261561827E+02 -0.10028231989E+02 -0.44644579006E+01  0.16457299896E+02  0.51100000000E-03 0.  1.
        -12    1    3    3    0    0 -0.53573428200E+01  0.25504395242E+01  0.18297578761E+02  0.19235572577E+02  0.00000000000E+00 0.  1.
</event>
<event>
 7    1  0.1138240E-011  0.5930192E+02  0.7816164E-02  0.1266605E+00
        -11   -1    0    0    0    0  0.00000000000E+00  0.00000000000E+00  0.45593999997E+02  0.45594000000E+02  0.51100000000E-03 0.  1.
         11   -1    0    0    0    0 -0.00000000000E+00 -0.00000000000E+00 -0.45593999997E+02  0.45594000000E+02  0.51100000000E-03 0. -1.
    9900012    2    1    2    0    0 -0.10018243543E+01 -0.19945960215E+02 -0.24857130796E+02  0.59301922594E+02  0.49999960910E+02 0.  0.
        -12    1    1    2    0    0  0.10018243543E+01  0.19945960215E+02  0.24857130796E+02  0.31886077406E+02  0.00000000000E+00 0.  1.
         11    1    3    3    0    0 -0.37530231006E+01 -0.22285101392E+02 -0.24785317805E+00  0.22600273403E+02  0.51100000000E-03 0. -1.
        -11    1    3    3    0    0  0.99327698803E+00 -0.91915303975E+01  0.24314636798E+00  0.92482404078E+01  0.51100000000E-03 0.  1.
        -12    1    3    3    0    0  0.17579217584E+01  0.11530671574E+02 -0.24852423986E+02  0.27453408783E+02  0.00000000000E+00 0.  1.
</event>
<event>
 7    1  0.1138240E-011  0.5930195E+02  0.7816164E-02  0.1266605E+00
        -11   -1    0    0    0    0  0.00000000000E+00  0.00000000000E+00  0.45593999997E+02  0.45594000000E+02  0.51100000000E-03 0.  1.
         11   -1    0    0    0    0 -0.00000000000E+00 -0.00000000000E+00 -0.45593999997E+02  0.45594000000E+02  0.51100000000E-03 0. -1.
    9900012    2    1    2    0    0  0.19889519923E+02 -0.11363480545E+02 -0.22181044758E+02  0.59301946004E+02  0.50000003604E+02 0.  0.
        -12    1    1    2    0    0 -0.19889519923E+02  0.11363480545E+02  0.22181044758E+02  0.31886053996E+02  0.00000000000E+00 0.  1.
         11    1    3    3    0    0  0.14524233570E+02  0.14593423776E+02 -0.14268601749E+02  0.25050237014E+02  0.51100000000E-03 0. -1.
        -11    1    3    3    0    0  0.11296324237E+02 -0.67808726174E+01 -0.19958196082E+01  0.13325557057E+02  0.51100000000E-03 0.  1.
        -12    1    3    3    0    0 -0.59310378836E+01 -0.19176031703E+02 -0.59166234014E+01  0.20926151933E+02  0.00000000000E+00 0.  1.
</event>
<event>
 7    1  0.1138240E-011  0.5930193E+02  0.7816164E-02  0.1266605E+00
        -11   -1    0    0    0    0  0.00000000000E+00  0.00000000000E+00  0.45593999997E+02  0.45594000000E+02  0.51100000000E-03 0. -1.
         11   -1    0    0    0    0 -0.00000000000E+00 -0.00000000000E+00 -0.45593999997E+02  0.45594000000E+02  0.51100000000E-03 0.  1.
    9900012    2    1    2    0    0 -0.19231019945E+02  0.24493095014E+02  0.68540042835E+01  0.59301933981E+02  0.49999981676E+02 0.  0.
        -12    1    1    2    0    0  0.19231019945E+02 -0.24493095014E+02 -0.68540042835E+01  0.31886066019E+02  0.00000000000E+00 0.  1.
         11    1    3    3    0    0 -0.22251293807E+02  0.15475590837E+02  0.10423786117E+02  0.29039099592E+02  0.51100000000E-03 0. -1.
        -11    1    3    3    0    0 -0.81183009995E+01  0.15030245557E+02  0.10303440443E+00  0.17082906924E+02  0.51100000000E-03 0.  1.
        -12    1    3    3    0    0  0.11138574862E+02 -0.60127413802E+01 -0.36728162376E+01  0.13179927465E+02  0.00000000000E+00 0.  1.
</event>
<event>
 7    1  0.1138240E-011  0.5930196E+02  0.7816164E-02  0.1266605E+00
        -11   -1    0    0    0    0  0.00000000000E+00  0.00000000000E+00  0.45593999997E+02  0.45594000000E+02  0.51100000000E-03 0. -1.
         11   -1    0    0    0    0 -0.00000000000E+00 -0.00000000000E+00 -0.45593999997E+02  0.45594000000E+02  0.51100000000E-03 0.  1.
    9900012    2    1    2    0    0  0.13252954332E+02 -0.10989031422E+02  0.26838780322E+02  0.59301956983E+02  0.50000023627E+02 0.  0.
        -12    1    1    2    0    0 -0.13252954332E+02  0.10989031422E+02 -0.26838780322E+02  0.31886043017E+02  0.00000000000E+00 0.  1.
         11    1    3    3    0    0 -0.11429487986E+02  0.23321708444E+01 -0.30234862902E+01  0.12050464143E+02  0.51100000000E-03 0. -1.
        -11    1    3    3    0    0  0.24824992266E+00  0.56613938446E+01  0.42143131292E+01  0.70621132602E+01  0.51100000000E-03 0.  1.
         12    1    3    3    0    0  0.24434192395E+02 -0.18982596111E+02  0.25647953483E+02  0.40189379579E+02  0.00000000000E+00 0. -1.
</event>
<event>
 7    1  0.1138240E-011  0.5930195E+02  0.7816164E-02  0.1266605E+00
        -11   -1    0    0    0    0  0.00000000000E+00  0.00000000000E+00  0.45593999997E+02  0.45594000000E+02  0.51100000000E-03 0. -1.
         11   -1    0    0    0    0 -0.00000000000E+00 -0.00000000000E+00 -0.45593999997E+02  0.45594000000E+02  0.51100000000E-03 0.  1.
    9900012    2    1    2    0    0 -0.14535592904E+02 -0.51984703788E+01  0.27900048772E+02  0.59301948554E+02  0.50000008254E+02 0.  0.
        -12    1    1    2    0    0  0.14535592904E+02  0.51984703788E+01 -0.27900048772E+02  0.31886051446E+02  0.00000000000E+00 0.  1.
         11    1    3    3    0    0 -0.29248051669E+01  0.84669485106E+01  0.18726248856E+01  0.91515259148E+01  0.51100000000E-03 0.  1.
        -11    1    3    3    0    0 -0.13931969038E+02 -0.60833534953E+01 -0.66001479425E+01  0.16573138030E+02  0.51100000000E-03 0. -1.
         12    1    3    3    0    0  0.23211813009E+01 -0.75820653941E+01  0.32627571829E+02  0.33577284609E+02  0.00000000000E+00 0. -1.
</event>
<event>
 7    1  0.1138240E-011  0.5930200E+02  0.7816164E-02  0.1266605E+00
        -11   -1    0    0    0    0  0.00000000000E+00  0.00000000000E+00  0.45593999997E+02  0.45594000000E+02  0.51100000000E-03 0.  1.
         11   -1    0    0    0    0 -0.00000000000E+00 -0.00000000000E+00 -0.45593999997E+02  0.45594000000E+02  0.51100000000E-03 0. -1.
    9900012    2    1    2    0    0  0.17183966067E+02  0.22647545534E+02 -0.14440120895E+02  0.59301998370E+02  0.50000099107E+02 0.  0.
        -12    1    1    2    0    0 -0.17183966067E+02 -0.22647545534E+02  0.14440120895E+02  0.31886001630E+02  0.00000000000E+00 0.  1.
         11    1    3    3    0    0 -0.87435362810E+00  0.23983163778E+01 -0.12075252271E+02  0.12342128397E+02  0.51100000000E-03 0. -1.
        -11    1    3    3    0    0  0.19964102560E+02  0.24850099453E+02 -0.13610948450E+02  0.34660507092E+02  0.51100000000E-03 0.  1.
        -12    1    3    3    0    0 -0.19057828652E+01 -0.46008702975E+01  0.11246079826E+02  0.12299362881E+02  0.00000000000E+00 0.  1.
</event>
<event>
 7    1  0.1138240E-011  0.5930195E+02  0.7816164E-02  0.1266605E+00
        -11   -1    0    0    0    0  0.00000000000E+00  0.00000000000E+00  0.45593999997E+02  0.45594000000E+02  0.51100000000E-03 0.  1.
         11   -1    0    0    0    0 -0.00000000000E+00 -0.00000000000E+00 -0.45593999997E+02  0.45594000000E+02  0.51100000000E-03 0. -1.
    9900012    2    1    2    0    0  0.25880587169E+02  0.72609437665E+01 -0.17152080883E+02  0.59301953283E+02  0.50000016880E+02 0.  0.
        -12    1    1    2    0    0 -0.25880587169E+02 -0.72609437665E+01  0.17152080883E+02  0.31886046717E+02  0.00000000000E+00 0.  1.
         11    1    3    3    0    0  0.11968176480E+02  0.18402342780E+02 -0.82839240961E+01  0.23462882746E+02  0.51100000000E-03 0. -1.
        -11    1    3    3    0    0  0.75445663601E+01  0.79014353043E+01  0.43939041528E+01  0.11775379204E+02  0.51100000000E-03 0.  1.
         12    1    3    3    0    0  0.63678443291E+01 -0.19042834318E+02 -0.13262060940E+02  0.24063691334E+02  0.00000000000E+00 0. -1.
</event>
<event>
 7    1  0.1138240E-011  0.5930195E+02  0.7816164E-02  0.1266605E+00
        -11   -1    0    0    0    0  0.00000000000E+00  0.00000000000E+00  0.45593999997E+02  0.45594000000E+02  0.51100000000E-03 0.  1.
         11   -1    0    0    0    0 -0.00000000000E+00 -0.00000000000E+00 -0.45593999997E+02  0.45594000000E+02  0.51100000000E-03 0. -1.
    9900012    2    1    2    0    0 -0.63656303116E+00 -0.31259170054E+02 -0.62593579751E+01  0.59301945255E+02  0.50000002238E+02 0.  0.
        -12    1    1    2    0    0  0.63656303116E+00  0.31259170054E+02  0.62593579751E+01  0.31886054745E+02  0.00000000000E+00 0.  1.
         11    1    3    3    0    0 -0.62145111403E+01 -0.21220887434E+01 -0.13282559727E+02  0.14817213048E+02  0.51100000000E-03 0. -1.
        -11    1    3    3    0    0 -0.51699673335E+01  0.55660566666E+01  0.11168013725E+01  0.76783328015E+01  0.51100000000E-03 0.  1.
        -12    1    3    3    0    0  0.10747915443E+02 -0.34703137977E+02  0.59064003789E+01  0.36806399406E+02  0.00000000000E+00 0.  1.
</event>
<event>
 7    1  0.1138240E-011  0.5930194E+02  0.7816164E-02  0.1266605E+00
        -11   -1    0    0    0    0  0.00000000000E+00  0.00000000000E+00  0.45593999997E+02  0.45594000000E+02  0.51100000000E-03 0.  1.
         11   -1    0    0    0    0 -0.00000000000E+00 -0.00000000000E+00 -0.45593999997E+02  0.45594000000E+02  0.51100000000E-03 0. -1.
    9900012    2    1    2    0    0 -0.35589082188E+01 -0.10504496148E+02 -0.29894991598E+02  0.59301940512E+02  0.49999993588E+02 0.  0.
        -12    1    1    2    0    0  0.35589082188E+01  0.10504496148E+02  0.29894991598E+02  0.31886059488E+02  0.00000000000E+00 0.  1.
         11    1    3    3    0    0  0.93784896824E+01  0.43214315209E+00 -0.96851901216E+01  0.13488725825E+02  0.51100000000E-03 0. -1.
        -11    1    3    3    0    0  0.11480313617E+02  0.30336557243E+00  0.10632132319E+01  0.11533432015E+02  0.51100000000E-03 0.  1.
        -12    1    3    3    0    0 -0.24417711518E+02 -0.11240004873E+02 -0.21273014708E+02  0.34279782672E+02  0.00000000000E+00 0.  1.
</event>
<event>
 7    1  0.1138240E-011  0.5930196E+02  0.7816164E-02  0.1266605E+00
        -11   -1    0    0    0    0  0.00000000000E+00  0.00000000000E+00  0.45593999997E+02  0.45594000000E+02  0.51100000000E-03 0.  1.
         11   -1    0    0    0    0 -0.00000000000E+00 -0.00000000000E+00 -0.45593999997E+02  0.45594000000E+02  0.51100000000E-03 0. -1.
    9900012    2    1    2    0    0 -0.11630756820E+02 -0.81751532866E+01 -0.28541401968E+02  0.59301964471E+02  0.50000037283E+02 0.  0.
        -12    1    1    2    0    0  0.11630756820E+02  0.81751532866E+01  0.28541401968E+02  0.31886035529E+02  0.00000000000E+00 0.  1.
         11    1    3    3    0    0 -0.18367592358E+01  0.17866558885E+01 -0.70348476134E+00  0.26572005616E+01  0.51100000000E-03 0. -1.
        -11    1    3    3    0    0 -0.29854330044E+00 -0.68121114213E+01  0.12956693942E+02  0.14641376584E+02  0.51100000000E-03 0.  1.
        -12    1    3    3    0    0 -0.94954542839E+01 -0.31496977538E+01 -0.40794611149E+02  0.42003387325E+02  0.00000000000E+00 0.  1.
</event>
<event>
 7    1  0.1138240E-011  0.5930197E+02  0.7816164E-02  0.1266605E+00
        -11   -1    0    0    0    0  0.00000000000E+00  0.00000000000E+00  0.45593999997E+02  0.45594000000E+02  0.51100000000E-03 0. -1.
         11   -1    0    0    0    0 -0.00000000000E+00 -0.00000000000E+00 -0.45593999997E+02  0.45594000000E+02  0.51100000000E-03 0.  1.
    9900012    2    1    2    0    0  0.13798699922E+02  0.14692045344E+02  0.24707460938E+02  0.59301969486E+02  0.50000046430E+02 0.  0.
        -12    1    1    2    0    0 -0.13798699922E+02 -0.14692045344E+02 -0.24707460938E+02  0.31886030514E+02  0.00000000000E+00 0.  1.
         11    1    3    3    0    0  0.23876670549E+00  0.11640584185E+02 -0.46135417875E+01  0.12523776499E+02  0.51100000000E-03 0. -1.
        -11    1    3    3    0    0 -0.99368215894E+01  0.47774788197E+01  0.16807475268E+02  0.20101143060E+02  0.51100000000E-03 0.  1.
         12    1    3    3    0    0  0.23496754806E+02 -0.17260176606E+01  0.12513527458E+02  0.26677049927E+02  0.00000000000E+00 0. -1.
</event>
<event>
 7    1  0.1138240E-011  0.5930193E+02  0.7816164E-02  0.1266605E+00
        -11   -1    0    0    0    0  0.00000000000E+00  0.00000000000E+00  0.45593999997E+02  0.45594000000E+02  0.51100000000E-03 0.  1.
         11   -1    0    0    0    0 -0.00000000000E+00 -0.00000000000E+00 -0.45593999997E+02  0.45594000000E+02  0.51100000000E-03 0. -1.
    9900012    2    1    2    0    0  0.26745757758E+02  0.35127437810E+01  0.17001365164E+02  0.59301931814E+02  0.49999977725E+02 0.  0.
        -12    1    1    2    0    0 -0.26745757758E+02 -0.35127437810E+01 -0.17001365164E+02  0.31886068186E+02  0.00000000000E+00 0.  1.
         11    1    3    3    0    0  0.14737249788E+02  0.10876770816E+01  0.19554143429E+01  0.14906146996E+02  0.51100000000E-03 0. -1.
        -11    1    3    3    0    0  0.13733973351E+02 -0.13864441772E+02 -0.33096331731E+01  0.19793899102E+02  0.51100000000E-03 0.  1.
        -12    1    3    3    0    0 -0.17254653815E+01  0.16289508471E+02  0.18355583995E+02  0.24601885716E+02  0.00000000000E+00 0.  1.
</event>
<event>
 7    1  0.1138240E-011  0.5930196E+02  0.7816164E-02  0.1266605E+00
        -11   -1    0    0    0    0  0.00000000000E+00  0.00000000000E+00  0.45593999997E+02  0.45594000000E+02  0.51100000000E-03 0.  1.
         11   -1    0    0    0    0 -0.00000000000E+00 -0.00000000000E+00 -0.45593999997E+02  0.45594000000E+02  0.51100000000E-03 0. -1.
    9900012    2    1    2    0    0 -0.25928228664E+02 -0.65550064798E+01 -0.17363137447E+02  0.59301957700E+02  0.50000024934E+02 0.  0.
        -12    1    1    2    0    0  0.25928228664E+02  0.65550064798E+01  0.17363137447E+02  0.31886042300E+02  0.00000000000E+00 0.  1.
         11    1    3    3    0    0 -0.67953445340E+01  0.14881194997E+02 -0.44101977013E+01  0.16943332491E+02  0.51100000000E-03 0.  1.
        -11    1    3    3    0    0 -0.22337622033E+02 -0.13435882760E+02  0.85581793785E+00  0.26081118233E+02  0.51100000000E-03 0. -1.
        -12    1    3    3    0    0  0.32047379037E+01 -0.80003187164E+01 -0.13808757683E+02  0.16277506976E+02  0.00000000000E+00 0.  1.
</event>
<event>
 7    1  0.1138240E-011  0.5930214E+02  0.7816164E-02  0.1266604E+00
        -11   -1    0    0    0    0  0.00000000000E+00  0.00000000000E+00  0.45593999997E+02  0.45594000000E+02  0.51100000000E-03 0. -1.
         11   -1    0    0    0    0 -0.00000000000E+00 -0.00000000000E+00 -0.45593999997E+02  0.45594000000E+02  0.51100000000E-03 0.  1.
    9900012    2    1    2    0    0  0.28955972773E+02  0.36634276150E+01  0.12838965646E+02  0.59302139498E+02  0.50000356489E+02 0.  0.
        -12    1    1    2    0    0 -0.28955972773E+02 -0.36634276150E+01 -0.12838965646E+02  0.31885860502E+02  0.00000000000E+00 0.  1.
         11    1    3    3    0    0  0.11868672081E+02 -0.11748702398E+02  0.21321950311E+01  0.16835784535E+02  0.51100000000E-03 0. -1.
        -11    1    3    3    0    0  0.98967368620E+01 -0.31521014719E+01 -0.95173820757E+01  0.14087643736E+02  0.51100000000E-03 0.  1.
        -12    1    3    3    0    0  0.71905638303E+01  0.18564231485E+02  0.20224152691E+02  0.28378711226E+02  0.00000000000E+00 0.  1.
</event>
<event>
 7    1  0.1138240E-011  0.5930196E+02  0.7816164E-02  0.1266605E+00
        -11   -1    0    0    0    0  0.00000000000E+00  0.00000000000E+00  0.45593999997E+02  0.45594000000E+02  0.51100000000E-03 0. -1.
         11   -1    0    0    0    0 -0.00000000000E+00 -0.00000000000E+00 -0.45593999997E+02  0.45594000000E+02  0.51100000000E-03 0.  1.
    9900012    2    1    2    0    0  0.16709779653E+02  0.23637713284E+02  0.13370173052E+02  0.59301956771E+02  0.50000023241E+02 0.  0.
        -12    1    1    2    0    0 -0.16709779653E+02 -0.23637713284E+02 -0.13370173052E+02  0.31886043229E+02  0.00000000000E+00 0.  1.
         11    1    3    3    0    0  0.44270665561E+01 -0.76714455212E+01  0.38355520597E+01  0.96520181590E+01  0.51100000000E-03 0. -1.
        -11    1    3    3    0    0 -0.30800857479E+00 -0.18930911664E+01 -0.92716531324E+01  0.94679573043E+01  0.51100000000E-03 0.  1.
         12    1    3    3    0    0  0.12590721672E+02  0.33202249971E+02  0.18806274125E+02  0.40181981308E+02  0.00000000000E+00 0. -1.
</event>
<event>
 7    1  0.1138240E-011  0.5930202E+02  0.7816164E-02  0.1266605E+00
        -11   -1    0    0    0    0  0.00000000000E+00  0.00000000000E+00  0.45593999997E+02  0.45594000000E+02  0.51100000000E-03 0. -1.
         11   -1    0    0    0    0 -0.00000000000E+00 -0.00000000000E+00 -0.45593999997E+02  0.45594000000E+02  0.51100000000E-03 0.  1.
    9900012    2    1    2    0    0  0.15336564879E+01  0.13882614521E+02  0.28664208591E+02  0.59302016523E+02  0.50000132214E+02 0.  0.
        -12    1    1    2    0    0 -0.15336564879E+01 -0.13882614521E+02 -0.28664208591E+02  0.31885983477E+02  0.00000000000E+00 0.  1.
         11    1    3    3    0    0  0.15285614202E+02 -0.82752615654E+00  0.28572846446E+02  0.32415156260E+02  0.51100000000E-03 0. -1.
        -11    1    3    3    0    0 -0.12198590881E+01  0.13158531257E+02  0.37554833304E+01  0.13738218819E+02  0.51100000000E-03 0.  1.
        -12    1    3    3    0    0 -0.12532098626E+02  0.15516094207E+01 -0.36641211850E+01  0.13148641444E+02  0.00000000000E+00 0.  1.
</event>
<event>
 7    1  0.1138240E-011  0.5930188E+02  0.7816164E-02  0.1266605E+00
        -11   -1    0    0    0    0  0.00000000000E+00  0.00000000000E+00  0.45593999997E+02  0.45594000000E+02  0.51100000000E-03 0.  1.
         11   -1    0    0    0    0 -0.00000000000E+00 -0.00000000000E+00 -0.45593999997E+02  0.45594000000E+02  0.51100000000E-03 0. -1.
    9900012    2    1    2    0    0 -0.19434763506E+02 -0.21106028911E+02  0.13912224823E+02  0.59301882512E+02  0.49999887810E+02 0.  0.
        -12    1    1    2    0    0  0.19434763506E+02  0.21106028911E+02 -0.13912224823E+02  0.31886117488E+02  0.00000000000E+00 0.  1.
         11    1    3    3    0    0 -0.60425234265E+01 -0.80858812507E+01  0.23113890148E+02  0.25221924649E+02  0.51100000000E-03 0. -1.
        -11    1    3    3    0    0  0.67847269406E+01 -0.74864824301E+01 -0.84055222890E+01  0.13142782964E+02  0.51100000000E-03 0.  1.
         12    1    3    3    0    0 -0.20176967020E+02 -0.55336652300E+01 -0.79614303628E+00  0.20937174899E+02  0.00000000000E+00 0. -1.
</event>
<event>
 7    1  0.1138240E-011  0.5930196E+02  0.7816164E-02  0.1266605E+00
        -11   -1    0    0    0    0  0.00000000000E+00  0.00000000000E+00  0.45593999997E+02  0.45594000000E+02  0.51100000000E-03 0. -1.
         11   -1    0    0    0    0 -0.00000000000E+00 -0.00000000000E+00 -0.45593999997E+02  0.45594000000E+02  0.51100000000E-03 0.  1.
    9900012    2    1    2    0    0 -0.22514019822E+02  0.10009157930E+02  0.20239943879E+02  0.59301958238E+02  0.50000025916E+02 0.  0.
        -12    1    1    2    0    0  0.22514019822E+02 -0.10009157930E+02 -0.20239943879E+02  0.31886041762E+02  0.00000000000E+00 0.  1.
         11    1    3    3    0    0  0.71357834444E+01 -0.13409630459E+01  0.98030442200E+01  0.12199068140E+02  0.51100000000E-03 0. -1.
        -11    1    3    3    0    0 -0.13468508532E+02  0.22481772023E+02  0.45530406819E+01  0.26600018328E+02  0.51100000000E-03 0.  1.
         12    1    3    3    0    0 -0.16181294735E+02 -0.11131651047E+02  0.58838589769E+01  0.20502871769E+02  0.00000000000E+00 0. -1.
</event>
<event>
 7    1  0.1138240E-011  0.5930195E+02  0.7816164E-02  0.1266605E+00
        -11   -1    0    0    0    0  0.00000000000E+00  0.00000000000E+00  0.45593999997E+02  0.45594000000E+02  0.51100000000E-03 0.  1.
         11   -1    0    0    0    0 -0.00000000000E+00 -0.00000000000E+00 -0.45593999997E+02  0.45594000000E+02  0.51100000000E-03 0. -1.
    9900012    2    1    2    0    0 -0.25229866681E+02  0.31847336285E+01 -0.19236206333E+02  0.59301947640E+02  0.50000006587E+02 0.  0.
        -12    1    1    2    0    0  0.25229866681E+02 -0.31847336285E+01  0.19236206333E+02  0.31886052360E+02  0.00000000000E+00 0.  1.
         11    1    3    3    0    0 -0.29683731298E+02  0.58588996726E+01 -0.16539185120E+02  0.34481810478E+02  0.51100000000E-03 0. -1.
        -11    1    3    3    0    0  0.15379654945E+01  0.10667490594E+02 -0.29033504094E+01  0.11161995220E+02  0.51100000000E-03 0.  1.
        -12    1    3    3    0    0  0.29158991222E+01 -0.13341656638E+02  0.20632919581E+00  0.13658141941E+02  0.00000000000E+00 0.  1.
</event>
<event>
 7    1  0.1138240E-011  0.5930209E+02  0.7816164E-02  0.1266604E+00
        -11   -1    0    0    0    0  0.00000000000E+00  0.00000000000E+00  0.45593999997E+02  0.45594000000E+02  0.51100000000E-03 0.  1.
         11   -1    0    0    0    0 -0.00000000000E+00 -0.00000000000E+00 -0.45593999997E+02  0.45594000000E+02  0.51100000000E-03 0. -1.
    9900012    2    1    2    0    0 -0.21954844265E+02  0.13306707132E+01 -0.23085179905E+02  0.59302087711E+02  0.50000262043E+02 0.  0.
        -12    1    1    2    0    0  0.21954844265E+02 -0.13306707132E+01  0.23085179905E+02  0.31885912289E+02  0.00000000000E+00 0.  1.
         11    1    3    3    0    0 -0.16602816931E+02 -0.71124556732E+01 -0.58284719011E+01  0.18979242364E+02  0.51100000000E-03 0. -1.
        -11    1    3    3    0    0 -0.70408258165E+01  0.54127988797E+01  0.96955703216E+01  0.13148220565E+02  0.51100000000E-03 0.  1.
         12    1    3    3    0    0  0.16887984824E+01  0.30303275066E+01 -0.26952278326E+02  0.27174624783E+02  0.00000000000E+00 0. -1.
</event>
<event>
 7    1  0.1138240E-011  0.5930194E+02  0.7816164E-02  0.1266605E+00
        -11   -1    0    0    0    0  0.00000000000E+00  0.00000000000E+00  0.45593999997E+02  0.45594000000E+02  0.51100000000E-03 0.  1.
         11   -1    0    0    0    0 -0.00000000000E+00 -0.00000000000E+00 -0.45593999997E+02  0.45594000000E+02  0.51100000000E-03 0. -1.
    9900012    2    1    2    0    0 -0.24851439692E+02  0.51429359622E+01 -0.19304842807E+02  0.59301940336E+02  0.49999993268E+02 0.  0.
        -12    1    1    2    0    0  0.24851439692E+02 -0.51429359622E+01  0.19304842807E+02  0.31886059664E+02  0.00000000000E+00 0.  1.
         11    1    3    3    0    0 -0.15039495861E+01  0.23840273465E+00 -0.16537395440E+02  0.16607352240E+02  0.51100000000E-03 0. -1.
        -11    1    3    3    0    0  0.91141072822E+01 -0.14118583758E+01 -0.27503448416E+01  0.96241723090E+01  0.51100000000E-03 0.  1.
        -12    1    3    3    0    0 -0.32461597388E+02  0.63163916033E+01 -0.17102526092E-01  0.33070415788E+02  0.00000000000E+00 0.  1.
</event>
<event>
 7    1  0.1138240E-011  0.5930198E+02  0.7816164E-02  0.1266605E+00
        -11   -1    0    0    0    0  0.00000000000E+00  0.00000000000E+00  0.45593999997E+02  0.45594000000E+02  0.51100000000E-03 0.  1.
         11   -1    0    0    0    0 -0.00000000000E+00 -0.00000000000E+00 -0.45593999997E+02  0.45594000000E+02  0.51100000000E-03 0. -1.
    9900012    2    1    2    0    0  0.23578941331E+02 -0.29218734884E+01 -0.21265341485E+02  0.59301975359E+02  0.50000057140E+02 0.  0.
        -12    1    1    2    0    0 -0.23578941331E+02  0.29218734884E+01  0.21265341485E+02  0.31886024641E+02  0.00000000000E+00 0.  1.
         11    1    3    3    0    0  0.78701422494E+01  0.12144452245E+02 -0.23798761778E+02  0.27853328738E+02  0.51100000000E-03 0. -1.
        -11    1    3    3    0    0  0.64734301369E+01 -0.85711810237E+01 -0.99325511509E+01  0.14629627969E+02  0.51100000000E-03 0.  1.
        -12    1    3    3    0    0  0.92353689444E+01 -0.64951447099E+01  0.12465971445E+02  0.16819018652E+02  0.00000000000E+00 0.  1.
</event>
<event>
 7    1  0.1138240E-011  0.5930213E+02  0.7816164E-02  0.1266604E+00
        -11   -1    0    0    0    0  0.00000000000E+00  0.00000000000E+00  0.45593999997E+02  0.45594000000E+02  0.51100000000E-03 0. -1.
         11   -1    0    0    0    0 -0.00000000000E+00 -0.00000000000E+00 -0.45593999997E+02  0.45594000000E+02  0.51100000000E-03 0.  1.
    9900012    2    1    2    0    0 -0.36805529262E+01 -0.90485896579E+01  0.30352678632E+02  0.59302132523E+02  0.50000343769E+02 0.  0.
        -12    1    1    2    0    0  0.36805529262E+01  0.90485896579E+01 -0.30352678632E+02  0.31885867477E+02  0.00000000000E+00 0.  1.
         11    1    3    3    0    0 -0.38287667722E+01  0.14699421842E+01  0.97237272311E+00  0.42149370096E+01  0.51100000000E-03 0. -1.
        -11    1    3    3    0    0  0.81411641718E+01  0.15447472308E+02  0.40122076892E+01  0.17916494232E+02  0.51100000000E-03 0.  1.
         12    1    3    3    0    0 -0.79929503258E+01 -0.25966004150E+02  0.25368098220E+02  0.37170701281E+02  0.00000000000E+00 0. -1.
</event>
<event>
 7    1  0.1138240E-011  0.5930190E+02  0.7816164E-02  0.1266605E+00
        -11   -1    0    0    0    0  0.00000000000E+00  0.00000000000E+00  0.45593999997E+02  0.45594000000E+02  0.51100000000E-03 0. -1.
         11   -1    0    0    0    0 -0.00000000000E+00 -0.00000000000E+00 -0.45593999997E+02  0.45594000000E+02  0.51100000000E-03 0.  1.
    9900012    2    1    2    0    0  0.10038402345E+02  0.15218271009E+02  0.26160242560E+02  0.59301896680E+02  0.49999913649E+02 0.  0.
        -12    1    1    2    0    0 -0.10038402345E+02 -0.15218271009E+02 -0.26160242560E+02  0.31886103320E+02  0.00000000000E+00 0.  1.
         11    1    3    3    0    0  0.53418276093E+01  0.16273307818E+02  0.29594189915E+01  0.17381421995E+02  0.51100000000E-03 0. -1.
        -11    1    3    3    0    0 -0.72019269750E+01  0.58337559298E+01  0.26249522249E+02  0.27837706065E+02  0.51100000000E-03 0.  1.
         12    1    3    3    0    0  0.11898501711E+02 -0.68887927388E+01 -0.30486986802E+01  0.14082768620E+02  0.00000000000E+00 0. -1.
</event>
<event>
 7    1  0.1138240E-011  0.5930194E+02  0.7816164E-02  0.1266605E+00
        -11   -1    0    0    0    0  0.00000000000E+00  0.00000000000E+00  0.45593999997E+02  0.45594000000E+02  0.51100000000E-03 0.  1.
         11   -1    0    0    0    0 -0.00000000000E+00 -0.00000000000E+00 -0.45593999997E+02  0.45594000000E+02  0.51100000000E-03 0. -1.
    9900012    2    1    2    0    0 -0.17224660731E+01  0.77448902537E+00 -0.31830079142E+02  0.59301942532E+02  0.49999997273E+02 0.  0.
        -12    1    1    2    0    0  0.17224660731E+01 -0.77448902537E+00  0.31830079142E+02  0.31886057468E+02  0.00000000000E+00 0.  1.
         11    1    3    3    0    0 -0.68820525906E+01 -0.17062833385E+02  0.14277632175E+01  0.18453764902E+02  0.51100000000E-03 0. -1.
        -11    1    3    3    0    0  0.97675066867E+01  0.75514361783E+01 -0.15509844218E+02  0.19823815050E+02  0.51100000000E-03 0.  1.
        -12    1    3    3    0    0 -0.46079201692E+01  0.10285886232E+02 -0.17747998142E+02  0.21024362580E+02  0.00000000000E+00 0.  1.
</event>
<event>
 7    1  0.1138240E-011  0.5930194E+02  0.7816164E-02  0.1266605E+00
        -11   -1    0    0    0    0  0.00000000000E+00  0.00000000000E+00  0.45593999997E+02  0.45594000000E+02  0.51100000000E-03 0. -1.
         11   -1    0    0    0    0 -0.00000000000E+00 -0.00000000000E+00 -0.45593999997E+02  0.45594000000E+02  0.51100000000E-03 0.  1.
    9900012    2    1    2    0    0  0.29694488500E+01  0.47163538550E+01  0.31395214317E+02  0.59301935611E+02  0.49999984650E+02 0.  0.
        -12    1    1    2    0    0 -0.29694488500E+01 -0.47163538550E+01 -0.31395214317E+02  0.31886064389E+02  0.00000000000E+00 0.  1.
         11    1    3    3    0    0 -0.62055307654E+01 -0.86097587355E+00  0.23006404734E+02  0.23844172257E+02  0.51100000000E-03 0.  1.
        -11    1    3    3    0    0 -0.26628908323E+01  0.15206760964E+02  0.12260620436E+02  0.19714445981E+02  0.51100000000E-03 0. -1.
        -12    1    3    3    0    0  0.11837870448E+02 -0.96294312351E+01 -0.38718108533E+01  0.15743317374E+02  0.00000000000E+00 0.  1.
</event>
<event>
 7    1  0.1138240E-011  0.5930192E+02  0.7816164E-02  0.1266605E+00
        -11   -1    0    0    0    0  0.00000000000E+00  0.00000000000E+00  0.45593999997E+02  0.45594000000E+02  0.51100000000E-03 0. -1.
         11   -1    0    0    0    0 -0.00000000000E+00 -0.00000000000E+00 -0.45593999997E+02  0.45594000000E+02  0.51100000000E-03 0.  1.
    9900012    2    1    2    0    0  0.29212188885E+02 -0.10487224514E+02  0.73067120444E+01  0.59301923127E+02  0.49999961882E+02 0.  0.
        -12    1    1    2    0    0 -0.29212188885E+02  0.10487224514E+02 -0.73067120444E+01  0.31886076873E+02  0.00000000000E+00 0.  1.
         11    1    3    3    0    0  0.14643910251E+02  0.90515073509E+01  0.16017555113E+02  0.23514590466E+02  0.51100000000E-03 0. -1.
        -11    1    3    3    0    0  0.23410259770E+01  0.54221644394E+01  0.16372478771E+01  0.61286907823E+01  0.51100000000E-03 0.  1.
        -12    1    3    3    0    0  0.12227252657E+02 -0.24960896304E+02 -0.10348090946E+02  0.29658641878E+02  0.00000000000E+00 0.  1.
</event>
<event>
 7    1  0.1138240E-011  0.5930194E+02  0.7816164E-02  0.1266605E+00
        -11   -1    0    0    0    0  0.00000000000E+00  0.00000000000E+00  0.45593999997E+02  0.45594000000E+02  0.51100000000E-03 0.  1.
         11   -1    0    0    0    0 -0.00000000000E+00 -0.00000000000E+00 -0.45593999997E+02  0.45594000000E+02  0.51100000000E-03 0. -1.
    9900012    2    1    2    0    0 -0.25424631857E+02  0.57566553516E+01 -0.18362176656E+02  0.59301944781E+02  0.50000001374E+02 0.  0.
        -12    1    1    2    0    0  0.25424631857E+02 -0.57566553516E+01  0.18362176656E+02  0.31886055219E+02  0.00000000000E+00 0.  1.
         11    1    3    3    0    0 -0.12625720970E+02  0.75932393047E+01  0.64287510518E+01  0.16074668068E+02  0.51100000000E-03 0. -1.
        -11    1    3    3    0    0  0.69178214233E+01  0.11058715653E+01  0.41066794928E+01  0.81205924587E+01  0.51100000000E-03 0.  1.
        -12    1    3    3    0    0 -0.19716732310E+02 -0.29424555184E+01 -0.28897607200E+02  0.35106684255E+02  0.00000000000E+00 0.  1.
</event>
<event>
 7    1  0.1138240E-011  0.5930193E+02  0.7816164E-02  0.1266605E+00
        -11   -1    0    0    0    0  0.00000000000E+00  0.00000000000E+00  0.45593999997E+02  0.45594000000E+02  0.51100000000E-03 0. -1.
         11   -1    0    0    0    0 -0.00000000000E+00 -0.00000000000E+00 -0.45593999997E+02  0.45594000000E+02  0.51100000000E-03 0.  1.
    9900012    2    1    2    0    0 -0.20215374744E+01  0.13434002548E+02  0.28847229034E+02  0.59301926846E+02  0.49999968665E+02 0.  0.
        -12    1    1    2    0    0  0.20215374744E+01 -0.13434002548E+02 -0.28847229034E+02  0.31886073154E+02  0.00000000000E+00 0.  1.
         11    1    3    3    0    0  0.17652530529E+01  0.21429018792E+01  0.24754686332E+02  0.24909890454E+02  0.51100000000E-03 0. -1.
        -11    1    3    3    0    0  0.53401360791E+01 -0.89894183520E+01 -0.32863822919E+01  0.10960246552E+02  0.51100000000E-03 0.  1.
         12    1    3    3    0    0 -0.91269266064E+01  0.20280519021E+02  0.73789249946E+01  0.23431789840E+02  0.00000000000E+00 0. -1.
</event>
<event>
 7    1  0.1138240E-011  0.5930194E+02  0.7816164E-02  0.1266605E+00
        -11   -1    0    0    0    0  0.00000000000E+00  0.00000000000E+00  0.45593999997E+02  0.45594000000E+02  0.51100000000E-03 0.  1.
         11   -1    0    0    0    0 -0.00000000000E+00 -0.00000000000E+00 -0.45593999997E+02  0.45594000000E+02  0.51100000000E-03 0. -1.
    9900012    2    1    2    0    0 -0.13218302194E+01  0.28383658473E+02 -0.14468629713E+02  0.59301944283E+02  0.50000000465E+02 0.  0.
        -12    1    1    2    0    0  0.13218302194E+01 -0.28383658473E+02  0.14468629713E+02  0.31886055717E+02  0.00000000000E+00 0.  1.
         11    1    3    3    0    0 -0.36774595770E+00  0.80085055792E+01  0.71661113496E+01  0.10752885698E+02  0.51100000000E-03 0. -1.
        -11    1    3    3    0    0  0.54097936195E+01 -0.35215729720E+01  0.77871517437E+01  0.10114696028E+02  0.51100000000E-03 0.  1.
         12    1    3    3    0    0 -0.63638778813E+01  0.23896725865E+02 -0.29421892807E+02  0.38434362556E+02  0.00000000000E+00 0. -1.
</event>
<event>
 7    1  0.1138240E-011  0.5930197E+02  0.7816164E-02  0.1266605E+00
        -11   -1    0    0    0    0  0.00000000000E+00  0.00000000000E+00  0.45593999997E+02  0.45594000000E+02  0.51100000000E-03 0. -1.
         11   -1    0    0    0    0 -0.00000000000E+00 -0.00000000000E+00 -0.45593999997E+02  0.45594000000E+02  0.51100000000E-03 0.  1.
    9900012    2    1    2    0    0  0.29383111475E+02 -0.72953678014E+01  0.10006450429E+02  0.59301973569E+02  0.50000053877E+02 0.  0.
        -12    1    1    2    0    0 -0.29383111475E+02  0.72953678014E+01 -0.10006450429E+02  0.31886026431E+02  0.00000000000E+00 0.  1.
         11    1    3    3    0    0  0.53003464688E+01 -0.15470724879E+02  0.29157035169E+01  0.16611391520E+02  0.51100000000E-03 0. -1.
        -11    1    3    3    0    0 -0.53534424279E+01 -0.58693796098E+01 -0.30893097431E+01  0.85236610551E+01  0.51100000000E-03 0.  1.
         12    1    3    3    0    0  0.29436207435E+02  0.14044736687E+02  0.10180056656E+02  0.34166920995E+02  0.00000000000E+00 0. -1.
</event>
<event>
 7    1  0.1138240E-011  0.5930200E+02  0.7816164E-02  0.1266605E+00
        -11   -1    0    0    0    0  0.00000000000E+00  0.00000000000E+00  0.45593999997E+02  0.45594000000E+02  0.51100000000E-03 0. -1.
         11   -1    0    0    0    0 -0.00000000000E+00 -0.00000000000E+00 -0.45593999997E+02  0.45594000000E+02  0.51100000000E-03 0.  1.
    9900012    2    1    2    0    0 -0.10825618346E+02 -0.29457638113E+02 -0.56365567864E+01  0.59301996359E+02  0.50000095440E+02 0.  0.
        -12    1    1    2    0    0  0.10825618346E+02  0.29457638113E+02  0.56365567864E+01  0.31886003641E+02  0.00000000000E+00 0.  1.
         11    1    3    3    0    0  0.48502832637E+01  0.76899938283E+01 -0.91833570013E+01  0.12922666091E+02  0.51100000000E-03 0. -1.
        -11    1    3    3    0    0 -0.58613885592E+01  0.16717147508E+01 -0.59891491842E+00  0.61244759278E+01  0.51100000000E-03 0.  1.
         12    1    3    3    0    0 -0.98145130505E+01 -0.38819346692E+02  0.41457151332E+01  0.40254854341E+02  0.00000000000E+00 0. -1.
</event>
<event>
 7    1  0.1138240E-011  0.5930186E+02  0.7816164E-02  0.1266605E+00
        -11   -1    0    0    0    0  0.00000000000E+00  0.00000000000E+00  0.45593999997E+02  0.45594000000E+02  0.51100000000E-03 0.  1.
         11   -1    0    0    0    0 -0.00000000000E+00 -0.00000000000E+00 -0.45593999997E+02  0.45594000000E+02  0.51100000000E-03 0. -1.
    9900012    2    1    2    0    0 -0.32674071680E+01  0.25054225673E+02 -0.19450847436E+02  0.59301864460E+02  0.49999854888E+02 0.  0.
        -12    1    1    2    0    0  0.32674071680E+01 -0.25054225673E+02  0.19450847436E+02  0.31886135540E+02  0.00000000000E+00 0.  1.
         11    1    3    3    0    0  0.15205573021E+02  0.84184738598E+01 -0.75631843107E+01  0.18954733188E+02  0.51100000000E-03 0.  1.
        -11    1    3    3    0    0 -0.11089333561E+02  0.24630627684E+02 -0.11767062149E+02  0.29463619785E+02  0.51100000000E-03 0. -1.
        -12    1    3    3    0    0 -0.73836466283E+01 -0.79948758709E+01 -0.12060097629E+00  0.10883511488E+02  0.00000000000E+00 0.  1.
</event>
<event>
 7    1  0.1138240E-011  0.5930194E+02  0.7816164E-02  0.1266605E+00
        -11   -1    0    0    0    0  0.00000000000E+00  0.00000000000E+00  0.45593999997E+02  0.45594000000E+02  0.51100000000E-03 0.  1.
         11   -1    0    0    0    0 -0.00000000000E+00 -0.00000000000E+00 -0.45593999997E+02  0.45594000000E+02  0.51100000000E-03 0. -1.
    9900012    2    1    2    0    0  0.19851732936E+02  0.24728292749E+02  0.33378282624E+01  0.59301939404E+02  0.49999991567E+02 0.  0.
        -12    1    1    2    0    0 -0.19851732936E+02 -0.24728292749E+02 -0.33378282624E+01  0.31886060596E+02  0.00000000000E+00 0.  1.
         11    1    3    3    0    0 -0.10770670347E+02  0.76373859129E+01 -0.25511341022E+00  0.13206138210E+02  0.51100000000E-03 0.  1.
        -11    1    3    3    0    0  0.14480613401E+01 -0.38024833082E+00 -0.95292721032E+01  0.96461649123E+01  0.51100000000E-03 0. -1.
         12    1    3    3    0    0  0.29174341943E+02  0.17471155167E+02  0.13122213776E+02  0.36449636282E+02  0.00000000000E+00 0. -1.
</event>
<event>
 7    1  0.1138240E-011  0.5930189E+02  0.7816164E-02  0.1266605E+00
        -11   -1    0    0    0    0  0.00000000000E+00  0.00000000000E+00  0.45593999997E+02  0.45594000000E+02  0.51100000000E-03 0.  1.
         11   -1    0    0    0    0 -0.00000000000E+00 -0.00000000000E+00 -0.45593999997E+02  0.45594000000E+02  0.51100000000E-03 0. -1.
    9900012    2    1    2    0    0  0.22004282818E+02  0.11156702763E+01 -0.23049751810E+02  0.59301886392E+02  0.49999894886E+02 0.  0.
        -12    1    1    2    0    0 -0.22004282818E+02 -0.11156702763E+01  0.23049751810E+02  0.31886113608E+02  0.00000000000E+00 0.  1.
         11    1    3    3    0    0  0.53499226659E+01  0.11445301062E+02  0.98758822062E-01  0.12634331897E+02  0.51100000000E-03 0. -1.
        -11    1    3    3    0    0  0.85595662272E+01 -0.12953889407E+02  0.57387317583E+01  0.16553019882E+02  0.51100000000E-03 0.  1.
         12    1    3    3    0    0  0.80947939250E+01  0.26242586216E+01 -0.28887242390E+02  0.30114534612E+02  0.00000000000E+00 0. -1.
</event>
<event>
 7    1  0.1138240E-011  0.5930197E+02  0.7816164E-02  0.1266605E+00
        -11   -1    0    0    0    0  0.00000000000E+00  0.00000000000E+00  0.45593999997E+02  0.45594000000E+02  0.51100000000E-03 0.  1.
         11   -1    0    0    0    0 -0.00000000000E+00 -0.00000000000E+00 -0.45593999997E+02  0.45594000000E+02  0.51100000000E-03 0. -1.
    9900012    2    1    2    0    0  0.12399153387E+02  0.20475894009E+02  0.21064610322E+02  0.59301967819E+02  0.50000043390E+02 0.  0.
        -12    1    1    2    0    0 -0.12399153387E+02 -0.20475894009E+02 -0.21064610322E+02  0.31886032181E+02  0.00000000000E+00 0.  1.
         11    1    3    3    0    0 -0.10763143511E+02  0.20596108751E+02  0.16587152133E+02  0.28551332194E+02  0.51100000000E-03 0. -1.
        -11    1    3    3    0    0 -0.40837612974E+00 -0.16412225049E+01 -0.50167784289E+01  0.52941900646E+01  0.51100000000E-03 0.  1.
        -12    1    3    3    0    0  0.23570673028E+02  0.15210077630E+01  0.94942366185E+01  0.25456445560E+02  0.00000000000E+00 0.  1.
</event>
<event>
 7    1  0.1138240E-011  0.5930196E+02  0.7816164E-02  0.1266605E+00
        -11   -1    0    0    0    0  0.00000000000E+00  0.00000000000E+00  0.45593999997E+02  0.45594000000E+02  0.51100000000E-03 0.  1.
         11   -1    0    0    0    0 -0.00000000000E+00 -0.00000000000E+00 -0.45593999997E+02  0.45594000000E+02  0.51100000000E-03 0. -1.
    9900012    2    1    2    0    0 -0.18406310878E+02 -0.25889719613E+02 -0.27658499951E+01  0.59301956220E+02  0.50000022235E+02 0.  0.
        -12    1    1    2    0    0  0.18406310878E+02  0.25889719613E+02  0.27658499951E+01  0.31886043780E+02  0.00000000000E+00 0.  1.
         11    1    3    3    0    0 -0.19246807316E+02 -0.26843545013E+02 -0.11778103966E+02  0.35067637987E+02  0.51100000000E-03 0. -1.
        -11    1    3    3    0    0 -0.61820732136E+01  0.95171716631E+01  0.35865233379E+01  0.11902005528E+02  0.51100000000E-03 0.  1.
        -12    1    3    3    0    0  0.70225696515E+01 -0.85633462629E+01  0.54257306330E+01  0.12332312704E+02  0.00000000000E+00 0.  1.
</event>
<event>
 7    1  0.1138240E-011  0.5930198E+02  0.7816164E-02  0.1266605E+00
        -11   -1    0    0    0    0  0.00000000000E+00  0.00000000000E+00  0.45593999997E+02  0.45594000000E+02  0.51100000000E-03 0.  1.
         11   -1    0    0    0    0 -0.00000000000E+00 -0.00000000000E+00 -0.45593999997E+02  0.45594000000E+02  0.51100000000E-03 0. -1.
    9900012    2    1    2    0    0 -0.11937039368E+02  0.29525856511E+02 -0.15650535794E+01  0.59301976349E+02  0.50000058947E+02 0.  0.
        -12    1    1    2    0    0  0.11937039368E+02 -0.29525856511E+02  0.15650535794E+01  0.31886023651E+02  0.00000000000E+00 0.  1.
         11    1    3    3    0    0 -0.24642750131E+02  0.18398941663E+02 -0.68063834683E+01  0.31497826028E+02  0.51100000000E-03 0. -1.
        -11    1    3    3    0    0 -0.46096686192E+01  0.60977837637E+01  0.60598025764E+01  0.97546511539E+01  0.51100000000E-03 0.  1.
        -12    1    3    3    0    0  0.17315379383E+02  0.50291310843E+01 -0.81847268751E+00  0.18049499167E+02  0.00000000000E+00 0.  1.
</event>
<event>
 7    1  0.1138240E-011  0.5930194E+02  0.7816164E-02  0.1266605E+00
        -11   -1    0    0    0    0  0.00000000000E+00  0.00000000000E+00  0.45593999997E+02  0.45594000000E+02  0.51100000000E-03 0. -1.
         11   -1    0    0    0    0 -0.00000000000E+00 -0.00000000000E+00 -0.45593999997E+02  0.45594000000E+02  0.51100000000E-03 0.  1.
    9900012    2    1    2    0    0  0.26284620399E+01  0.31732984105E+02 -0.16822660519E+01  0.59301935458E+02  0.49999984371E+02 0.  0.
        -12    1    1    2    0    0 -0.26284620399E+01 -0.31732984105E+02  0.16822660519E+01  0.31886064542E+02  0.00000000000E+00 0.  1.
         11    1    3    3    0    0 -0.33796719387E+01  0.12627705243E+01  0.83651148394E+01  0.91099900301E+01  0.51100000000E-03 0. -1.
        -11    1    3    3    0    0 -0.11654372304E+02 -0.15724117080E+01  0.14281926355E+01  0.11846375262E+02  0.51100000000E-03 0.  1.
        -12    1    3    3    0    0  0.17662506283E+02  0.32042625289E+02 -0.11475573527E+02  0.38345570166E+02  0.00000000000E+00 0.  1.
</event>
<event>
 7    1  0.1138240E-011  0.5930180E+02  0.7816164E-02  0.1266605E+00
        -11   -1    0    0    0    0  0.00000000000E+00  0.00000000000E+00  0.45593999997E+02  0.45594000000E+02  0.51100000000E-03 0. -1.
         11   -1    0    0    0    0 -0.00000000000E+00 -0.00000000000E+00 -0.45593999997E+02  0.45594000000E+02  0.51100000000E-03 0.  1.
    9900012    2    1    2    0    0 -0.96834914713E+01  0.27896733124E+02 -0.12030453785E+02  0.59301803232E+02  0.49999743222E+02 0.  0.
        -12    1    1    2    0    0  0.96834914713E+01 -0.27896733124E+02  0.12030453785E+02  0.31886196768E+02  0.00000000000E+00 0.  1.
         11    1    3    3    0    0 -0.10589403451E+02  0.35718427259E+01 -0.62775920967E+01  0.12818022028E+02  0.51100000000E-03 0. -1.
        -11    1    3    3    0    0 -0.87193159157E+01 -0.81368990026E+01  0.96435076622E+00  0.11965181490E+02  0.51100000000E-03 0.  1.
        -12    1    3    3    0    0  0.96252278954E+01  0.32461789400E+02 -0.67172124544E+01  0.34518599715E+02  0.00000000000E+00 0.  1.
</event>
<event>
 7    1  0.1138240E-011  0.5930197E+02  0.7816164E-02  0.1266605E+00
        -11   -1    0    0    0    0  0.00000000000E+00  0.00000000000E+00  0.45593999997E+02  0.45594000000E+02  0.51100000000E-03 0.  1.
         11   -1    0    0    0    0 -0.00000000000E+00 -0.00000000000E+00 -0.45593999997E+02  0.45594000000E+02  0.51100000000E-03 0. -1.
    9900012    2    1    2    0    0  0.27391316025E+02  0.72093180921E+01 -0.14644461376E+02  0.59301973124E+02  0.50000053065E+02 0.  0.
        -12    1    1    2    0    0 -0.27391316025E+02 -0.72093180921E+01  0.14644461376E+02  0.31886026876E+02  0.00000000000E+00 0.  1.
         11    1    3    3    0    0 -0.65613241244E+01 -0.53250112869E+01  0.58886422373E+01  0.10299651797E+02  0.51100000000E-03 0. -1.
        -11    1    3    3    0    0 -0.18709829730E+01 -0.32132347932E+01  0.15963443940E+01  0.40464516316E+01  0.51100000000E-03 0.  1.
        -12    1    3    3    0    0  0.35823623123E+02  0.15747564172E+02 -0.22129448008E+02  0.44955869696E+02  0.00000000000E+00 0.  1.
</event>
<event>
 7    1  0.1138240E-011  0.5930206E+02  0.7816164E-02  0.1266604E+00
        -11   -1    0    0    0    0  0.00000000000E+00  0.00000000000E+00  0.45593999997E+02  0.45594000000E+02  0.51100000000E-03 0.  1.
         11   -1    0    0    0    0 -0.00000000000E+00 -0.00000000000E+00 -0.45593999997E+02  0.45594000000E+02  0.51100000000E-03 0. -1.
    9900012    2    1    2    0    0  0.87688120596E+00  0.31662151617E+02  0.36677620711E+01  0.59302058830E+02  0.50000209372E+02 0.  0.
        -12    1    1    2    0    0 -0.87688120596E+00 -0.31662151617E+02 -0.36677620711E+01  0.31885941170E+02  0.00000000000E+00 0.  1.
         11    1    3    3    0    0 -0.42581794067E+01  0.18122252738E+02 -0.70639213191E+01  0.19910979906E+02  0.51100000000E-03 0. -1.
        -11    1    3    3    0    0 -0.37355659328E+01 -0.49037825158E+00  0.20018880894E+02  0.20370334219E+02  0.51100000000E-03 0.  1.
         12    1    3    3    0    0  0.88706265455E+01  0.14030277131E+02 -0.92871975039E+01  0.19020744705E+02  0.00000000000E+00 0. -1.
</event>
<event>
 7    1  0.1138240E-011  0.5930211E+02  0.7816164E-02  0.1266604E+00
        -11   -1    0    0    0    0  0.00000000000E+00  0.00000000000E+00  0.45593999997E+02  0.45594000000E+02  0.51100000000E-03 0. -1.
         11   -1    0    0    0    0 -0.00000000000E+00 -0.00000000000E+00 -0.45593999997E+02  0.45594000000E+02  0.51100000000E-03 0.  1.
    9900012    2    1    2    0    0  0.20643438507E+02  0.23854480358E+02 -0.46392298385E+01  0.59302105939E+02  0.50000295287E+02 0.  0.
        -12    1    1    2    0    0 -0.20643438507E+02 -0.23854480358E+02  0.46392298385E+01  0.31885894061E+02  0.00000000000E+00 0.  1.
         11    1    3    3    0    0 -0.11773414402E+01 -0.10228480628E+02  0.72003915724E+01  0.12563979778E+02  0.51100000000E-03 0. -1.
        -11    1    3    3    0    0  0.32519287472E+01 -0.56698616658E+00 -0.61997580219E+01  0.70237820070E+01  0.51100000000E-03 0.  1.
        -12    1    3    3    0    0  0.18568851200E+02  0.34649947152E+02 -0.56398633889E+01  0.39714344154E+02  0.00000000000E+00 0.  1.
</event>
<event>
 7    1  0.1138240E-011  0.5930201E+02  0.7816164E-02  0.1266605E+00
        -11   -1    0    0    0    0  0.00000000000E+00  0.00000000000E+00  0.45593999997E+02  0.45594000000E+02  0.51100000000E-03 0. -1.
         11   -1    0    0    0    0 -0.00000000000E+00 -0.00000000000E+00 -0.45593999997E+02  0.45594000000E+02  0.51100000000E-03 0.  1.
    9900012    2    1    2    0    0  0.15624576448E+02  0.24190180114E+02 -0.13690283065E+02  0.59302014779E+02  0.50000129033E+02 0.  0.
        -12    1    1    2    0    0 -0.15624576448E+02 -0.24190180114E+02  0.13690283065E+02  0.31885985221E+02  0.00000000000E+00 0.  1.
         11    1    3    3    0    0  0.16851857093E+01  0.10039465961E+02  0.75960443531E+01  0.12701599023E+02  0.51100000000E-03 0. -1.
        -11    1    3    3    0    0 -0.10580589943E+02  0.43032724560E+01  0.17371515706E+01  0.11553559331E+02  0.51100000000E-03 0.  1.
         12    1    3    3    0    0  0.24519980682E+02  0.98474416967E+01 -0.23023478988E+02  0.35046856426E+02  0.00000000000E+00 0. -1.
</event>
<event>
 7    1  0.1138240E-011  0.5930197E+02  0.7816164E-02  0.1266605E+00
        -11   -1    0    0    0    0  0.00000000000E+00  0.00000000000E+00  0.45593999997E+02  0.45594000000E+02  0.51100000000E-03 0.  1.
         11   -1    0    0    0    0 -0.00000000000E+00 -0.00000000000E+00 -0.45593999997E+02  0.45594000000E+02  0.51100000000E-03 0. -1.
    9900012    2    1    2    0    0 -0.95872424229E+01 -0.29899807676E+02  0.55502294481E+01  0.59301972288E+02  0.50000051540E+02 0.  0.
        -12    1    1    2    0    0  0.95872424229E+01  0.29899807676E+02 -0.55502294481E+01  0.31886027712E+02  0.00000000000E+00 0.  1.
         11    1    3    3    0    0 -0.31742884673E+01 -0.60165344390E+01  0.56265809541E+00  0.68257877438E+01  0.51100000000E-03 0. -1.
        -11    1    3    3    0    0  0.67740378403E+01 -0.14994677764E+02  0.23107750775E+02  0.28367165809E+02  0.51100000000E-03 0.  1.
         12    1    3    3    0    0 -0.13186991796E+02 -0.88885954725E+01 -0.18120179422E+02  0.24109018735E+02  0.00000000000E+00 0. -1.
</event>
<event>
 7    1  0.1138240E-011  0.5930192E+02  0.7816164E-02  0.1266605E+00
        -11   -1    0    0    0    0  0.00000000000E+00  0.00000000000E+00  0.45593999997E+02  0.45594000000E+02  0.51100000000E-03 0.  1.
         11   -1    0    0    0    0 -0.00000000000E+00 -0.00000000000E+00 -0.45593999997E+02  0.45594000000E+02  0.51100000000E-03 0. -1.
    9900012    2    1    2    0    0 -0.17242191749E+02 -0.19538122661E+02 -0.18376362074E+02  0.59301920020E+02  0.49999956215E+02 0.  0.
        -12    1    1    2    0    0  0.17242191749E+02  0.19538122661E+02  0.18376362074E+02  0.31886079980E+02  0.00000000000E+00 0.  1.
         11    1    3    3    0    0 -0.17374402659E+02 -0.11854332392E+02 -0.70183745432E+01  0.22173241660E+02  0.51100000000E-03 0. -1.
        -11    1    3    3    0    0  0.34739989735E+01 -0.19969641610E+02 -0.13308197276E+02  0.24247955994E+02  0.51100000000E-03 0.  1.
         12    1    3    3    0    0 -0.33417880642E+01  0.12285851340E+02  0.19502097460E+01  0.12880722366E+02  0.00000000000E+00 0. -1.
</event>
<event>
 7    1  0.1138240E-011  0.5930197E+02  0.7816164E-02  0.1266605E+00
        -11   -1    0    0    0    0  0.00000000000E+00  0.00000000000E+00  0.45593999997E+02  0.45594000000E+02  0.51100000000E-03 0.  1.
         11   -1    0    0    0    0 -0.00000000000E+00 -0.00000000000E+00 -0.45593999997E+02  0.45594000000E+02  0.51100000000E-03 0. -1.
    9900012    2    1    2    0    0  0.10332564450E+02  0.16999044052E+02 -0.24919655899E+02  0.59301974269E+02  0.50000055153E+02 0.  0.
        -12    1    1    2    0    0 -0.10332564450E+02 -0.16999044052E+02  0.24919655899E+02  0.31886025731E+02  0.00000000000E+00 0.  1.
         11    1    3    3    0    0  0.41945107664E+01  0.78403491171E-01 -0.29989642914E+02  0.30281656990E+02  0.51100000000E-03 0. -1.
        -11    1    3    3    0    0 -0.55363898639E+01  0.36824575140E-01  0.63852170092E+01  0.84512700401E+01  0.51100000000E-03 0.  1.
        -12    1    3    3    0    0  0.11674443548E+02  0.16883815985E+02 -0.13152299942E+01  0.20569047239E+02  0.00000000000E+00 0.  1.
</event>
<event>
 7    1  0.1138240E-011  0.5930193E+02  0.7816164E-02  0.1266605E+00
        -11   -1    0    0    0    0  0.00000000000E+00  0.00000000000E+00  0.45593999997E+02  0.45594000000E+02  0.51100000000E-03 0.  1.
         11   -1    0    0    0    0 -0.00000000000E+00 -0.00000000000E+00 -0.45593999997E+02  0.45594000000E+02  0.51100000000E-03 0. -1.
    9900012    2    1    2    0    0 -0.61624883319E+00  0.31291107000E+02 -0.60998401704E+01  0.59301934235E+02  0.49999982140E+02 0.  0.
        -12    1    1    2    0    0  0.61624883319E+00 -0.31291107000E+02  0.60998401704E+01  0.31886065765E+02  0.00000000000E+00 0.  1.
         11    1    3    3    0    0  0.10999151929E+01 -0.30058455391E+01 -0.31239556070E+01  0.44725853521E+01  0.51100000000E-03 0. -1.
        -11    1    3    3    0    0 -0.13669118837E+02 -0.26336374745E+01 -0.73932969756E+01  0.15762033389E+02  0.51100000000E-03 0.  1.
         12    1    3    3    0    0  0.11952954811E+02  0.36930590013E+02  0.44174124121E+01  0.39067315493E+02  0.00000000000E+00 0. -1.
</event>
<event>
 7    1  0.1138240E-011  0.5930199E+02  0.7816164E-02  0.1266605E+00
        -11   -1    0    0    0    0  0.00000000000E+00  0.00000000000E+00  0.45593999997E+02  0.45594000000E+02  0.51100000000E-03 0.  1.
         11   -1    0    0    0    0 -0.00000000000E+00 -0.00000000000E+00 -0.45593999997E+02  0.45594000000E+02  0.51100000000E-03 0. -1.
    9900012    2    1    2    0    0 -0.30477735958E+00 -0.31850602433E+02  0.14710603376E+01  0.59301987658E+02  0.50000079571E+02 0.  0.
        -12    1    1    2    0    0  0.30477735958E+00  0.31850602433E+02 -0.14710603376E+01  0.31886012342E+02  0.00000000000E+00 0.  1.
         11    1    3    3    0    0  0.12501499922E+01 -0.31001290014E+02  0.10933437730E+00  0.31026679033E+02  0.51100000000E-03 0. -1.
        -11    1    3    3    0    0 -0.70958973282E+01 -0.11842782014E+02 -0.46592142816E+01  0.14570913585E+02  0.51100000000E-03 0.  1.
        -12    1    3    3    0    0  0.55409699764E+01  0.10993469595E+02  0.60209402419E+01  0.13704395040E+02  0.00000000000E+00 0.  1.
</event>
<event>
 7    1  0.1138240E-011  0.5930194E+02  0.7816164E-02  0.1266605E+00
        -11   -1    0    0    0    0  0.00000000000E+00  0.00000000000E+00  0.45593999997E+02  0.45594000000E+02  0.51100000000E-03 0. -1.
         11   -1    0    0    0    0 -0.00000000000E+00 -0.00000000000E+00 -0.45593999997E+02  0.45594000000E+02  0.51100000000E-03 0.  1.
    9900012    2    1    2    0    0 -0.29929838624E+02 -0.39604345188E+01  0.10258695137E+02  0.59301935527E+02  0.49999984497E+02 0.  0.
        -12    1    1    2    0    0  0.29929838624E+02  0.39604345188E+01 -0.10258695137E+02  0.31886064473E+02  0.00000000000E+00 0.  1.
         11    1    3    3    0    0 -0.17331235087E+02 -0.11096622530E+02 -0.82286988363E+01  0.22163443460E+02  0.51100000000E-03 0. -1.
        -11    1    3    3    0    0  0.19073002821E+01 -0.95705743249E+01  0.32982711285E+01  0.10301081495E+02  0.51100000000E-03 0.  1.
         12    1    3    3    0    0 -0.14505903819E+02  0.16706762337E+02  0.15189122845E+02  0.26837410572E+02  0.00000000000E+00 0. -1.
</event>
<event>
 7    1  0.1138240E-011  0.5930198E+02  0.7816164E-02  0.1266605E+00
        -11   -1    0    0    0    0  0.00000000000E+00  0.00000000000E+00  0.45593999997E+02  0.45594000000E+02  0.51100000000E-03 0.  1.
         11   -1    0    0    0    0 -0.00000000000E+00 -0.00000000000E+00 -0.45593999997E+02  0.45594000000E+02  0.51100000000E-03 0. -1.
    9900012    2    1    2    0    0 -0.16972296041E+02 -0.18690462978E+02 -0.19476299717E+02  0.59301976574E+02  0.50000059357E+02 0.  0.
        -12    1    1    2    0    0  0.16972296041E+02  0.18690462978E+02  0.19476299717E+02  0.31886023426E+02  0.00000000000E+00 0.  1.
         11    1    3    3    0    0  0.32444758257E+01 -0.29435113619E+02 -0.86732056218E+01  0.30857365947E+02  0.51100000000E-03 0. -1.
        -11    1    3    3    0    0  0.96654332228E+00  0.13530800335E+00  0.14686834040E+01  0.17633903289E+01  0.51100000000E-03 0.  1.
         12    1    3    3    0    0 -0.21183315189E+02  0.10609342638E+02 -0.12271777500E+02  0.26681220298E+02  0.00000000000E+00 0. -1.
</event>
<event>
 7    1  0.1138240E-011  0.5930188E+02  0.7816164E-02  0.1266605E+00
        -11   -1    0    0    0    0  0.00000000000E+00  0.00000000000E+00  0.45593999997E+02  0.45594000000E+02  0.51100000000E-03 0. -1.
         11   -1    0    0    0    0 -0.00000000000E+00 -0.00000000000E+00 -0.45593999997E+02  0.45594000000E+02  0.51100000000E-03 0.  1.
    9900012    2    1    2    0    0  0.25631720038E+02  0.16294585025E+02 -0.97070199128E+01  0.59301877488E+02  0.49999878648E+02 0.  0.
        -12    1    1    2    0    0 -0.25631720038E+02 -0.16294585025E+02  0.97070199128E+01  0.31886122512E+02  0.00000000000E+00 0.  1.
         11    1    3    3    0    0 -0.35505778286E+01  0.10235373440E+01  0.10507969807E+02  0.11138745950E+02  0.51100000000E-03 0. -1.
        -11    1    3    3    0    0  0.64359504982E+01  0.13929230178E+02  0.29993905258E+01  0.15634617231E+02  0.51100000000E-03 0.  1.
        -12    1    3    3    0    0  0.22746347369E+02  0.13418175023E+01 -0.23214380246E+02  0.32528514307E+02  0.00000000000E+00 0.  1.
</event>
<event>
 7    1  0.1138240E-011  0.5930191E+02  0.7816164E-02  0.1266605E+00
        -11   -1    0    0    0    0  0.00000000000E+00  0.00000000000E+00  0.45593999997E+02  0.45594000000E+02  0.51100000000E-03 0.  1.
         11   -1    0    0    0    0 -0.00000000000E+00 -0.00000000000E+00 -0.45593999997E+02  0.45594000000E+02  0.51100000000E-03 0. -1.
    9900012    2    1    2    0    0 -0.13995542232E+02  0.15184172604E+02 -0.24295855327E+02  0.59301907638E+02  0.49999933634E+02 0.  0.
        -12    1    1    2    0    0  0.13995542232E+02 -0.15184172604E+02  0.24295855327E+02  0.31886092362E+02  0.00000000000E+00 0.  1.
         11    1    3    3    0    0 -0.12384937472E+02 -0.96893083959E+01 -0.19084742929E+02  0.24728461058E+02  0.51100000000E-03 0. -1.
        -11    1    3    3    0    0  0.74883047288E+01  0.13604429070E+01 -0.54485958297E+01  0.93601660985E+01  0.51100000000E-03 0.  1.
         12    1    3    3    0    0 -0.90989094889E+01  0.23513038093E+02  0.23748343156E+00  0.25213280481E+02  0.00000000000E+00 0. -1.
</event>
<event>
 7    1  0.1138240E-011  0.5930203E+02  0.7816164E-02  0.1266604E+00
        -11   -1    0    0    0    0  0.00000000000E+00  0.00000000000E+00  0.45593999997E+02  0.45594000000E+02  0.51100000000E-03 0. -1.
         11   -1    0    0    0    0 -0.00000000000E+00 -0.00000000000E+00 -0.45593999997E+02  0.45594000000E+02  0.51100000000E-03 0.  1.
    9900012    2    1    2    0    0  0.27853079033E+02 -0.10068254950E+02  0.11813173845E+02  0.59302033719E+02  0.50000163576E+02 0.  0.
        -12    1    1    2    0    0 -0.27853079033E+02  0.10068254950E+02 -0.11813173845E+02  0.31885966281E+02  0.00000000000E+00 0.  1.
         11    1    3    3    0    0  0.11487947134E+02 -0.49400099553E+01 -0.35744612139E+00  0.12510171690E+02  0.51100000000E-03 0. -1.
        -11    1    3    3    0    0  0.82216437955E+01 -0.76962885925E+01 -0.14745269296E+02  0.18554009045E+02  0.51100000000E-03 0.  1.
         12    1    3    3    0    0  0.81434881037E+01  0.25680435976E+01  0.26915889262E+02  0.28237852984E+02  0.00000000000E+00 0. -1.
</event>
<event>
 7    1  0.1138240E-011  0.5930198E+02  0.7816164E-02  0.1266605E+00
        -11   -1    0    0    0    0  0.00000000000E+00  0.00000000000E+00  0.45593999997E+02  0.45594000000E+02  0.51100000000E-03 0.  1.
         11   -1    0    0    0    0 -0.00000000000E+00 -0.00000000000E+00 -0.45593999997E+02  0.45594000000E+02  0.51100000000E-03 0. -1.
    9900012    2    1    2    0    0  0.14081744965E+02 -0.46229675071E+01 -0.28232085078E+02  0.59301984293E+02  0.50000073434E+02 0.  0.
        -12    1    1    2    0    0 -0.14081744965E+02  0.46229675071E+01  0.28232085078E+02  0.31886015707E+02  0.00000000000E+00 0.  1.
         11    1    3    3    0    0 -0.17350184845E+01  0.10021830239E+02 -0.87208144515E+01  0.13397760090E+02  0.51100000000E-03 0. -1.
        -11    1    3    3    0    0 -0.97571058834E+01  0.15838106449E+01 -0.10230531708E+02  0.14225798771E+02  0.51100000000E-03 0.  1.
         12    1    3    3    0    0  0.25573869333E+02 -0.16228608391E+02 -0.92807389184E+01  0.31678425432E+02  0.00000000000E+00 0. -1.
</event>
<event>
 7    1  0.1138240E-011  0.5930193E+02  0.7816164E-02  0.1266605E+00
        -11   -1    0    0    0    0  0.00000000000E+00  0.00000000000E+00  0.45593999997E+02  0.45594000000E+02  0.51100000000E-03 0. -1.
         11   -1    0    0    0    0 -0.00000000000E+00 -0.00000000000E+00 -0.45593999997E+02  0.45594000000E+02  0.51100000000E-03 0.  1.
    9900012    2    1    2    0    0  0.95459059981E+01  0.17894049003E+02  0.24604885973E+02  0.59301925848E+02  0.49999966845E+02 0.  0.
        -12    1    1    2    0    0 -0.95459059981E+01 -0.17894049003E+02 -0.24604885973E+02  0.31886074152E+02  0.00000000000E+00 0.  1.
         11    1    3    3    0    0 -0.13201748465E+02  0.15222066843E+02  0.20517733840E+02  0.28757170996E+02  0.51100000000E-03 0. -1.
        -11    1    3    3    0    0  0.44364578915E+00 -0.23553384931E+01  0.70906342600E+01  0.74847535346E+01  0.51100000000E-03 0.  1.
        -12    1    3    3    0    0  0.22304008674E+02  0.50273206536E+01 -0.30034821264E+01  0.23060001318E+02  0.00000000000E+00 0.  1.
</event>
<event>
 7    1  0.1138240E-011  0.5930189E+02  0.7816164E-02  0.1266605E+00
        -11   -1    0    0    0    0  0.00000000000E+00  0.00000000000E+00  0.45593999997E+02  0.45594000000E+02  0.51100000000E-03 0.  1.
         11   -1    0    0    0    0 -0.00000000000E+00 -0.00000000000E+00 -0.45593999997E+02  0.45594000000E+02  0.51100000000E-03 0. -1.
    9900012    2    1    2    0    0 -0.27407048889E+02  0.16172753165E+02 -0.20049556949E+01  0.59301888273E+02  0.49999898316E+02 0.  0.
        -12    1    1    2    0    0  0.27407048889E+02 -0.16172753165E+02  0.20049556949E+01  0.31886111727E+02  0.00000000000E+00 0.  1.
         11    1    3    3    0    0 -0.24776631077E+02  0.16337659918E+02 -0.13021231256E+02  0.32409150603E+02  0.51100000000E-03 0. -1.
        -11    1    3    3    0    0 -0.11025176067E+02 -0.67043037033E+01  0.22340895509E+01  0.13095547023E+02  0.51100000000E-03 0.  1.
        -12    1    3    3    0    0  0.83947582550E+01  0.65393969508E+01  0.87821860100E+01  0.13797190647E+02  0.00000000000E+00 0.  1.
</event>
<event>
 7    1  0.1138240E-011  0.5930195E+02  0.7816164E-02  0.1266605E+00
        -11   -1    0    0    0    0  0.00000000000E+00  0.00000000000E+00  0.45593999997E+02  0.45594000000E+02  0.51100000000E-03 0.  1.
         11   -1    0    0    0    0 -0.00000000000E+00 -0.00000000000E+00 -0.45593999997E+02  0.45594000000E+02  0.51100000000E-03 0. -1.
    9900012    2    1    2    0    0 -0.40470275492E+01  0.83255821290E+01 -0.30512726609E+02  0.59301949212E+02  0.50000009455E+02 0.  0.
        -12    1    1    2    0    0  0.40470275492E+01 -0.83255821290E+01  0.30512726609E+02  0.31886050788E+02  0.00000000000E+00 0.  1.
         11    1    3    3    0    0 -0.39732817854E+01  0.18901754577E+02 -0.15759657323E+01  0.19379034095E+02  0.51100000000E-03 0. -1.
        -11    1    3    3    0    0 -0.83028306426E+01  0.32234177784E+01 -0.29725443313E+01  0.93895388022E+01  0.51100000000E-03 0.  1.
         12    1    3    3    0    0  0.82290848788E+01 -0.13799590226E+02 -0.25964216545E+02  0.30533376314E+02  0.00000000000E+00 0. -1.
</event>
<event>
 7    1  0.1138240E-011  0.5930192E+02  0.7816164E-02  0.1266605E+00
        -11   -1    0    0    0    0  0.00000000000E+00  0.00000000000E+00  0.45593999997E+02  0.45594000000E+02  0.51100000000E-03 0. -1.
         11   -1    0    0    0    0 -0.00000000000E+00 -0.00000000000E+00 -0.45593999997E+02  0.45594000000E+02  0.51100000000E-03 0.  1.
    9900012    2    1    2    0    0  0.64124610308E+01  0.29791484677E+02 -0.93845694773E+01  0.59301915888E+02  0.49999948680E+02 0.  0.
        -12    1    1    2    0    0 -0.64124610308E+01 -0.29791484677E+02  0.93845694773E+01  0.31886084112E+02  0.00000000000E+00 0.  1.
         11    1    3    3    0    0  0.14134140422E+02  0.10556639056E+01 -0.48747138780E+01  0.14988368404E+02  0.51100000000E-03 0. -1.
        -11    1    3    3    0    0  0.12225314879E+02  0.98821380481E+01  0.26649138376E+01  0.15944175811E+02  0.51100000000E-03 0.  1.
         12    1    3    3    0    0 -0.19946994270E+02  0.18853682723E+02 -0.71747694369E+01  0.28369371673E+02  0.00000000000E+00 0. -1.
</event>
<event>
 7    1  0.1138240E-011  0.5930194E+02  0.7816164E-02  0.1266605E+00
        -11   -1    0    0    0    0  0.00000000000E+00  0.00000000000E+00  0.45593999997E+02  0.45594000000E+02  0.51100000000E-03 0.  1.
         11   -1    0    0    0    0 -0.00000000000E+00 -0.00000000000E+00 -0.45593999997E+02  0.45594000000E+02  0.51100000000E-03 0. -1.
    9900012    2    1    2    0    0  0.38540097530E+01  0.25234620193E+02 -0.19107095805E+02  0.59301944151E+02  0.50000000225E+02 0.  0.
        -12    1    1    2    0    0 -0.38540097530E+01 -0.25234620193E+02  0.19107095805E+02  0.31886055849E+02  0.00000000000E+00 0.  1.
         11    1    3    3    0    0 -0.13191122199E+01 -0.12906643779E+01  0.40627913592E+01  0.44623027099E+01  0.51100000000E-03 0. -1.
        -11    1    3    3    0    0  0.14123074699E+01 -0.84541076214E+01  0.48639918938E+01  0.98551999203E+01  0.51100000000E-03 0.  1.
         12    1    3    3    0    0  0.37608145030E+01  0.34979392193E+02 -0.28033879058E+02  0.44984441521E+02  0.00000000000E+00 0. -1.
</event>
<event>
 7    1  0.1138240E-011  0.5930193E+02  0.7816164E-02  0.1266605E+00
        -11   -1    0    0    0    0  0.00000000000E+00  0.00000000000E+00  0.45593999997E+02  0.45594000000E+02  0.51100000000E-03 0.  1.
         11   -1    0    0    0    0 -0.00000000000E+00 -0.00000000000E+00 -0.45593999997E+02  0.45594000000E+02  0.51100000000E-03 0. -1.
    9900012    2    1    2    0    0  0.30974302564E+01 -0.31670647472E+02 -0.20242058339E+01  0.59301931024E+02  0.49999976284E+02 0.  0.
        -12    1    1    2    0    0 -0.30974302564E+01  0.31670647472E+02  0.20242058339E+01  0.31886068976E+02  0.00000000000E+00 0.  1.
         11    1    3    3    0    0 -0.90256460895E+00 -0.21076014051E+02 -0.87965317301E+01  0.22855895561E+02  0.51100000000E-03 0. -1.
        -11    1    3    3    0    0  0.11565876638E+02 -0.13444549218E+02  0.16204439682E+02  0.24023098713E+02  0.51100000000E-03 0.  1.
         12    1    3    3    0    0 -0.75658817728E+01  0.28499157968E+01 -0.94321137856E+01  0.12422936751E+02  0.00000000000E+00 0. -1.
</event>
<event>
 7    1  0.1138240E-011  0.5930195E+02  0.7816164E-02  0.1266605E+00
        -11   -1    0    0    0    0  0.00000000000E+00  0.00000000000E+00  0.45593999997E+02  0.45594000000E+02  0.51100000000E-03 0. -1.
         11   -1    0    0    0    0 -0.00000000000E+00 -0.00000000000E+00 -0.45593999997E+02  0.45594000000E+02  0.51100000000E-03 0.  1.
    9900012    2    1    2    0    0  0.11747676524E+01  0.72399732621E+00  0.31856175533E+02  0.59301950217E+02  0.50000011288E+02 0.  0.
        -12    1    1    2    0    0 -0.11747676524E+01 -0.72399732621E+00 -0.31856175533E+02  0.31886049783E+02  0.00000000000E+00 0.  1.
         11    1    3    3    0    0  0.10197188329E+02  0.30509975505E+01  0.16879784262E+02  0.19955409113E+02  0.51100000000E-03 0. -1.
        -11    1    3    3    0    0 -0.20058777508E+01 -0.17629031958E+02  0.13788574466E+02  0.22470671983E+02  0.51100000000E-03 0.  1.
         12    1    3    3    0    0 -0.70165429261E+01  0.15302031733E+02  0.11878168047E+01  0.16875869120E+02  0.00000000000E+00 0. -1.
</event>
<event>
 7    1  0.1138240E-011  0.5930194E+02  0.7816164E-02  0.1266605E+00
        -11   -1    0    0    0    0  0.00000000000E+00  0.00000000000E+00  0.45593999997E+02  0.45594000000E+02  0.51100000000E-03 0.  1.
         11   -1    0    0    0    0 -0.00000000000E+00 -0.00000000000E+00 -0.45593999997E+02  0.45594000000E+02  0.51100000000E-03 0. -1.
    9900012    2    1    2    0    0 -0.44580088020E+01 -0.53983814673E+01 -0.31107945390E+02  0.59301942995E+02  0.49999998117E+02 0.  0.
        -12    1    1    2    0    0  0.44580088020E+01  0.53983814673E+01  0.31107945390E+02  0.31886057005E+02  0.00000000000E+00 0.  1.
         11    1    3    3    0    0 -0.89612828026E+00  0.83191697688E+01  0.34929102921E+01  0.90670863075E+01  0.51100000000E-03 0. -1.
        -11    1    3    3    0    0  0.62522216630E+01 -0.28296108352E+01  0.46810364664E+01  0.83071701477E+01  0.51100000000E-03 0.  1.
         12    1    3    3    0    0 -0.98141021847E+01 -0.10887940401E+02 -0.39281892148E+02  0.41927686540E+02  0.00000000000E+00 0. -1.
</event>
<event>
 7    1  0.1138240E-011  0.5930196E+02  0.7816164E-02  0.1266605E+00
        -11   -1    0    0    0    0  0.00000000000E+00  0.00000000000E+00  0.45593999997E+02  0.45594000000E+02  0.51100000000E-03 0. -1.
         11   -1    0    0    0    0 -0.00000000000E+00 -0.00000000000E+00 -0.45593999997E+02  0.45594000000E+02  0.51100000000E-03 0.  1.
    9900012    2    1    2    0    0  0.25006932254E+02  0.95299960134E+01  0.17336440139E+02  0.59301958517E+02  0.50000026424E+02 0.  0.
        -12    1    1    2    0    0 -0.25006932254E+02 -0.95299960134E+01 -0.17336440139E+02  0.31886041483E+02  0.00000000000E+00 0.  1.
         11    1    3    3    0    0 -0.62125955483E+01  0.89181259098E+00  0.19272847888E+02  0.20269048796E+02  0.51100000000E-03 0. -1.
        -11    1    3    3    0    0  0.22382091273E+02 -0.27459658710E+01  0.49089338050E+01  0.23078040854E+02  0.51100000000E-03 0.  1.
        -12    1    3    3    0    0  0.88374365299E+01  0.11384149293E+02 -0.68453415535E+01  0.15954868866E+02  0.00000000000E+00 0.  1.
</event>
<event>
 7    1  0.1138240E-011  0.5930195E+02  0.7816164E-02  0.1266605E+00
        -11   -1    0    0    0    0  0.00000000000E+00  0.00000000000E+00  0.45593999997E+02  0.45594000000E+02  0.51100000000E-03 0.  1.
         11   -1    0    0    0    0 -0.00000000000E+00 -0.00000000000E+00 -0.45593999997E+02  0.45594000000E+02  0.51100000000E-03 0. -1.
    9900012    2    1    2    0    0 -0.16240532431E+02 -0.18097345576E+02 -0.20626465393E+02  0.59301954695E+02  0.50000019455E+02 0.  0.
        -12    1    1    2    0    0  0.16240532431E+02  0.18097345576E+02  0.20626465393E+02  0.31886045305E+02  0.00000000000E+00 0.  1.
         11    1    3    3    0    0 -0.68644757961E+00 -0.12476666475E+02 -0.84780854460E+01  0.15100210254E+02  0.51100000000E-03 0. -1.
        -11    1    3    3    0    0 -0.27428700225E+01 -0.39580290595E+01 -0.25307271021E+02  0.25761352775E+02  0.51100000000E-03 0.  1.
         12    1    3    3    0    0 -0.12811214829E+02 -0.16626500413E+01  0.13158891073E+02  0.18440391667E+02  0.00000000000E+00 0. -1.
</event>
<event>
 7    1  0.1138240E-011  0.5930195E+02  0.7816164E-02  0.1266605E+00
        -11   -1    0    0    0    0  0.00000000000E+00  0.00000000000E+00  0.45593999997E+02  0.45594000000E+02  0.51100000000E-03 0.  1.
         11   -1    0    0    0    0 -0.00000000000E+00 -0.00000000000E+00 -0.45593999997E+02  0.45594000000E+02  0.51100000000E-03 0. -1.
    9900012    2    1    2    0    0 -0.80832905563E+01  0.17904282320E+02 -0.25116080509E+02  0.59301946438E+02  0.50000004396E+02 0.  0.
        -12    1    1    2    0    0  0.80832905563E+01 -0.17904282320E+02  0.25116080509E+02  0.31886053562E+02  0.00000000000E+00 0.  1.
         11    1    3    3    0    0 -0.25331426552E+02  0.21264101538E+01 -0.15354135820E+01  0.25466846809E+02  0.51100000000E-03 0. -1.
        -11    1    3    3    0    0  0.56119655009E+01  0.60353570116E+01 -0.12784165132E+02  0.15210344158E+02  0.51100000000E-03 0.  1.
        -12    1    3    3    0    0  0.11636170494E+02  0.97425151544E+01 -0.10796501796E+02  0.18624755470E+02  0.00000000000E+00 0.  1.
</event>
<event>
 7    1  0.1138240E-011  0.5930200E+02  0.7816164E-02  0.1266605E+00
        -11   -1    0    0    0    0  0.00000000000E+00  0.00000000000E+00  0.45593999997E+02  0.45594000000E+02  0.51100000000E-03 0.  1.
         11   -1    0    0    0    0 -0.00000000000E+00 -0.00000000000E+00 -0.45593999997E+02  0.45594000000E+02  0.51100000000E-03 0. -1.
    9900012    2    1    2    0    0  0.31364124706E+02  0.57198090867E+01 -0.54090026534E+00  0.59301998250E+02  0.50000098888E+02 0.  0.
        -12    1    1    2    0    0 -0.31364124706E+02 -0.57198090867E+01  0.54090026534E+00  0.31886001750E+02  0.00000000000E+00 0.  1.
         11    1    3    3    0    0 -0.15044314178E+01 -0.12984134206E+01 -0.93594712665E+01  0.95681186213E+01  0.51100000000E-03 0. -1.
        -11    1    3    3    0    0  0.10538911308E+02 -0.79979201823E+01 -0.10264555747E+02  0.16745043557E+02  0.51100000000E-03 0.  1.
         12    1    3    3    0    0  0.22329644815E+02  0.15016142690E+02  0.19083126748E+02  0.32988836071E+02  0.00000000000E+00 0. -1.
</event>
<event>
 7    1  0.1138240E-011  0.5930193E+02  0.7816164E-02  0.1266605E+00
        -11   -1    0    0    0    0  0.00000000000E+00  0.00000000000E+00  0.45593999997E+02  0.45594000000E+02  0.51100000000E-03 0. -1.
         11   -1    0    0    0    0 -0.00000000000E+00 -0.00000000000E+00 -0.45593999997E+02  0.45594000000E+02  0.51100000000E-03 0.  1.
    9900012    2    1    2    0    0 -0.26533902897E+02 -0.12778722742E+02  0.12222011368E+02  0.59301932200E+02  0.49999978428E+02 0.  0.
        -12    1    1    2    0    0  0.26533902897E+02  0.12778722742E+02 -0.12222011368E+02  0.31886067800E+02  0.00000000000E+00 0.  1.
         11    1    3    3    0    0 -0.14527476535E+02  0.42919584337E+01  0.10946349081E+02  0.18689329580E+02  0.51100000000E-03 0. -1.
        -11    1    3    3    0    0  0.34223979035E+01 -0.17751301912E+02  0.12099368193E+02  0.21753533917E+02  0.51100000000E-03 0.  1.
         12    1    3    3    0    0 -0.15428824266E+02  0.68062073578E+00 -0.10823705905E+02  0.18859068703E+02  0.00000000000E+00 0. -1.
</event>
<event>
 7    1  0.1138240E-011  0.5930196E+02  0.7816164E-02  0.1266605E+00
        -11   -1    0    0    0    0  0.00000000000E+00  0.00000000000E+00  0.45593999997E+02  0.45594000000E+02  0.51100000000E-03 0.  1.
         11   -1    0    0    0    0 -0.00000000000E+00 -0.00000000000E+00 -0.45593999997E+02  0.45594000000E+02  0.51100000000E-03 0. -1.
    9900012    2    1    2    0    0  0.98787180733E+01 -0.76474785801E+01 -0.29336781729E+02  0.59301956633E+02  0.50000022988E+02 0.  0.
        -12    1    1    2    0    0 -0.98787180733E+01  0.76474785801E+01  0.29336781729E+02  0.31886043367E+02  0.00000000000E+00 0.  1.
         11    1    3    3    0    0  0.87813262653E+01  0.33263643774E+01 -0.15764082347E+02  0.18348915048E+02  0.51100000000E-03 0. -1.
        -11    1    3    3    0    0  0.22618032610E+01  0.81007332047E+01  0.83628961698E+01  0.11860677259E+02  0.51100000000E-03 0.  1.
        -12    1    3    3    0    0 -0.11644114530E+01 -0.19074576162E+02 -0.21935595552E+02  0.29092364325E+02  0.00000000000E+00 0.  1.
</event>
<event>
 7    1  0.1138240E-011  0.5930195E+02  0.7816164E-02  0.1266605E+00
        -11   -1    0    0    0    0  0.00000000000E+00  0.00000000000E+00  0.45593999997E+02  0.45594000000E+02  0.51100000000E-03 0. -1.
         11   -1    0    0    0    0 -0.00000000000E+00 -0.00000000000E+00 -0.45593999997E+02  0.45594000000E+02  0.51100000000E-03 0.  1.
    9900012    2    1    2    0    0  0.30656962241E+02 -0.61234351168E+01  0.62748955130E+01  0.59301951246E+02  0.50000013164E+02 0.  0.
        -12    1    1    2    0    0 -0.30656962241E+02  0.61234351168E+01 -0.62748955130E+01  0.31886048754E+02  0.00000000000E+00 0.  1.
         11    1    3    3    0    0  0.31825621554E+01  0.55595316483E+01  0.42142434361E+01  0.76679164067E+01  0.51100000000E-03 0.  1.
        -11    1    3    3    0    0  0.34824500479E+02 -0.18306522631E+02  0.79238504883E+01  0.40133053850E+02  0.51100000000E-03 0. -1.
         12    1    3    3    0    0 -0.73501003941E+01  0.66235558658E+01 -0.58631984114E+01  0.11500980990E+02  0.00000000000E+00 0. -1.
</event>
<event>
 7    1  0.1138240E-011  0.5930186E+02  0.7816164E-02  0.1266605E+00
        -11   -1    0    0    0    0  0.00000000000E+00  0.00000000000E+00  0.45593999997E+02  0.45594000000E+02  0.51100000000E-03 0.  1.
         11   -1    0    0    0    0 -0.00000000000E+00 -0.00000000000E+00 -0.45593999997E+02  0.45594000000E+02  0.51100000000E-03 0. -1.
    9900012    2    1    2    0    0 -0.48701111832E+01  0.28798032381E+02 -0.12793793991E+02  0.59301861685E+02  0.49999849826E+02 0.  0.
        -12    1    1    2    0    0  0.48701111832E+01 -0.28798032381E+02  0.12793793991E+02  0.31886138315E+02  0.00000000000E+00 0.  1.
         11    1    3    3    0    0 -0.88693813472E+01 -0.39332944718E+01 -0.31184576301E+01  0.10191246692E+02  0.51100000000E-03 0. -1.
        -11    1    3    3    0    0  0.69143061041E+00 -0.73097434274E+01  0.13101916974E+01  0.74583528884E+01  0.51100000000E-03 0.  1.
        -12    1    3    3    0    0  0.33078395536E+01  0.40041070280E+02 -0.10985528059E+02  0.41652262105E+02  0.00000000000E+00 0.  1.
</event>
<event>
 7    1  0.2110329E-011  0.5930185E+02  0.7816164E-02  0.1266605E+00
        -11   -1    0    0    0    0  0.00000000000E+00  0.00000000000E+00  0.45593999997E+02  0.45594000000E+02  0.51100000000E-03 0. -1.
         11   -1    0    0    0    0 -0.00000000000E+00 -0.00000000000E+00 -0.45593999997E+02  0.45594000000E+02  0.51100000000E-03 0.  1.
    9900012    2    1    2    0    0  0.20969772721E+02  0.21012402899E+02  0.11639322888E+02  0.59301854406E+02  0.49999836551E+02 0.  0.
        -12    1    1    2    0    0 -0.20969772721E+02 -0.21012402899E+02 -0.11639322888E+02  0.31886145594E+02  0.00000000000E+00 0.  1.
         11    1    3    3    0    0  0.17019692021E+02  0.17883045719E+02  0.21033188944E+02  0.32432518837E+02  0.51100000000E-03 0. -1.
        -11    1    3    3    0    0  0.61290226169E+01  0.13126664828E+02 -0.79817914129E+01  0.16540351936E+02  0.51100000000E-03 0.  1.
        -12    1    3    3    0    0 -0.21789419175E+01 -0.99973076483E+01 -0.14120746423E+01  0.10328983633E+02  0.00000000000E+00 0.  1.
</event>
<event>
 7    1  0.1138240E-011  0.5930196E+02  0.7816164E-02  0.1266605E+00
        -11   -1    0    0    0    0  0.00000000000E+00  0.00000000000E+00  0.45593999997E+02  0.45594000000E+02  0.51100000000E-03 0. -1.
         11   -1    0    0    0    0 -0.00000000000E+00 -0.00000000000E+00 -0.45593999997E+02  0.45594000000E+02  0.51100000000E-03 0.  1.
    9900012    2    1    2    0    0 -0.30671686745E+02  0.44285638239E+01  0.75070117863E+01  0.59301956481E+02  0.50000022712E+02 0.  0.
        -12    1    1    2    0    0  0.30671686745E+02 -0.44285638239E+01 -0.75070117863E+01  0.31886043519E+02  0.00000000000E+00 0.  1.
         11    1    3    3    0    0 -0.11634329524E+02  0.10147163447E+01 -0.14205413632E+02  0.18389699547E+02  0.51100000000E-03 0. -1.
        -11    1    3    3    0    0 -0.72071928463E+01  0.15178718976E+02  0.55829439398E+01  0.17706111989E+02  0.51100000000E-03 0.  1.
        -12    1    3    3    0    0 -0.11830164375E+02 -0.11764871496E+02  0.16129481478E+02  0.23206144945E+02  0.00000000000E+00 0.  1.
</event>
<event>
 7    1  0.1138240E-011  0.5930193E+02  0.7816164E-02  0.1266605E+00
        -11   -1    0    0    0    0  0.00000000000E+00  0.00000000000E+00  0.45593999997E+02  0.45594000000E+02  0.51100000000E-03 0.  1.
         11   -1    0    0    0    0 -0.00000000000E+00 -0.00000000000E+00 -0.45593999997E+02  0.45594000000E+02  0.51100000000E-03 0. -1.
    9900012    2    1    2    0    0 -0.23810022395E+02  0.20889980279E+02 -0.36623357044E+01  0.59301934935E+02  0.49999983418E+02 0.  0.
        -12    1    1    2    0    0  0.23810022395E+02 -0.20889980279E+02  0.36623357044E+01  0.31886065065E+02  0.00000000000E+00 0.  1.
         11    1    3    3    0    0 -0.14991179808E+01 -0.36360880485E+01  0.27147949192E+01  0.47789750713E+01  0.51100000000E-03 0. -1.
        -11    1    3    3    0    0  0.48401377423E+01  0.15264255718E+02  0.12386018278E+02  0.20244453192E+02  0.51100000000E-03 0.  1.
         12    1    3    3    0    0 -0.27151042156E+02  0.92618126092E+01 -0.18763148902E+02  0.34278506672E+02  0.00000000000E+00 0. -1.
</event>
<event>
 7    1  0.1138240E-011  0.5930195E+02  0.7816164E-02  0.1266605E+00
        -11   -1    0    0    0    0  0.00000000000E+00  0.00000000000E+00  0.45593999997E+02  0.45594000000E+02  0.51100000000E-03 0.  1.
         11   -1    0    0    0    0 -0.00000000000E+00 -0.00000000000E+00 -0.45593999997E+02  0.45594000000E+02  0.51100000000E-03 0. -1.
    9900012    2    1    2    0    0  0.44954751317E+01  0.22402024437E+02  0.22240955445E+02  0.59301951411E+02  0.50000013465E+02 0.  0.
        -12    1    1    2    0    0 -0.44954751317E+01 -0.22402024437E+02 -0.22240955445E+02  0.31886048589E+02  0.00000000000E+00 0.  1.
         11    1    3    3    0    0 -0.71640565998E+01  0.20100828249E+02  0.54528296272E+01  0.22024993858E+02  0.51100000000E-03 0. -1.
        -11    1    3    3    0    0 -0.10086325324E+02  0.49084122665E+01  0.74615213729E+01  0.13472222199E+02  0.51100000000E-03 0.  1.
         12    1    3    3    0    0  0.21745857056E+02 -0.26072160778E+01  0.93266044445E+01  0.23804735353E+02  0.00000000000E+00 0. -1.
</event>
<event>
 7    1  0.1138240E-011  0.5930180E+02  0.7816164E-02  0.1266605E+00
        -11   -1    0    0    0    0  0.00000000000E+00  0.00000000000E+00  0.45593999997E+02  0.45594000000E+02  0.51100000000E-03 0. -1.
         11   -1    0    0    0    0 -0.00000000000E+00 -0.00000000000E+00 -0.45593999997E+02  0.45594000000E+02  0.51100000000E-03 0.  1.
    9900012    2    1    2    0    0 -0.18115328031E+02  0.35369808381E+01  0.26001046680E+02  0.59301799668E+02  0.49999736722E+02 0.  0.
        -12    1    1    2    0    0  0.18115328031E+02 -0.35369808381E+01 -0.26001046680E+02  0.31886200332E+02  0.00000000000E+00 0.  1.
         11    1    3    3    0    0  0.23011217770E+00  0.95022558169E+01  0.63820864792E+01  0.11448879653E+02  0.51100000000E-03 0.  1.
        -11    1    3    3    0    0  0.35239408079E+01  0.12817021076E+02  0.57963892599E+00  0.13305268492E+02  0.51100000000E-03 0. -1.
         12    1    3    3    0    0 -0.21869381017E+02 -0.18782296055E+02  0.19039321275E+02  0.34547651523E+02  0.00000000000E+00 0. -1.
</event>
<event>
 7    1  0.1138240E-011  0.5930201E+02  0.7816164E-02  0.1266605E+00
        -11   -1    0    0    0    0  0.00000000000E+00  0.00000000000E+00  0.45593999997E+02  0.45594000000E+02  0.51100000000E-03 0. -1.
         11   -1    0    0    0    0 -0.00000000000E+00 -0.00000000000E+00 -0.45593999997E+02  0.45594000000E+02  0.51100000000E-03 0.  1.
    9900012    2    1    2    0    0 -0.46901333417E+01 -0.16726801477E+01  0.31494777577E+02  0.59302012101E+02  0.50000124150E+02 0.  0.
        -12    1    1    2    0    0  0.46901333417E+01  0.16726801477E+01 -0.31494777577E+02  0.31885987899E+02  0.00000000000E+00 0.  1.
         11    1    3    3    0    0 -0.59817291920E+01  0.63695251473E+01  0.88535628142E+01  0.12439353259E+02  0.51100000000E-03 0. -1.
        -11    1    3    3    0    0  0.99536484525E+01  0.54854424320E+01  0.27765813340E+02  0.30001759730E+02  0.51100000000E-03 0.  1.
         12    1    3    3    0    0 -0.86620526021E+01 -0.13527647727E+02 -0.51245985771E+01  0.16860899113E+02  0.00000000000E+00 0. -1.
</event>
<event>
 7    1  0.1138240E-011  0.5930194E+02  0.7816164E-02  0.1266605E+00
        -11   -1    0    0    0    0  0.00000000000E+00  0.00000000000E+00  0.45593999997E+02  0.45594000000E+02  0.51100000000E-03 0.  1.
         11   -1    0    0    0    0 -0.00000000000E+00 -0.00000000000E+00 -0.45593999997E+02  0.45594000000E+02  0.51100000000E-03 0. -1.
    9900012    2    1    2    0    0 -0.17600932727E+02 -0.45651719146E+01 -0.26193261206E+02  0.59301944112E+02  0.50000000154E+02 0.  0.
        -12    1    1    2    0    0  0.17600932727E+02  0.45651719146E+01  0.26193261206E+02  0.31886055888E+02  0.00000000000E+00 0.  1.
         11    1    3    3    0    0 -0.23954076152E+02 -0.16905145272E+02 -0.23785935731E+02  0.37753840067E+02  0.51100000000E-03 0. -1.
        -11    1    3    3    0    0  0.15331750420E+01 -0.40491751815E+01 -0.44274704202E+00  0.43522948618E+01  0.51100000000E-03 0.  1.
        -12    1    3    3    0    0  0.48199683822E+01  0.16389148539E+02 -0.19645784324E+01  0.17195809183E+02  0.00000000000E+00 0.  1.
</event>
<event>
 7    1  0.1138240E-011  0.5930196E+02  0.7816164E-02  0.1266605E+00
        -11   -1    0    0    0    0  0.00000000000E+00  0.00000000000E+00  0.45593999997E+02  0.45594000000E+02  0.51100000000E-03 0.  1.
         11   -1    0    0    0    0 -0.00000000000E+00 -0.00000000000E+00 -0.45593999997E+02  0.45594000000E+02  0.51100000000E-03 0. -1.
    9900012    2    1    2    0    0  0.28330082393E+02 -0.10116395665E+01 -0.14598043342E+02  0.59301955209E+02  0.50000020392E+02 0.  0.
        -12    1    1    2    0    0 -0.28330082393E+02  0.10116395665E+01  0.14598043342E+02  0.31886044791E+02  0.00000000000E+00 0.  1.
         11    1    3    3    0    0  0.63401483723E+01 -0.38971596033E+01  0.54700723669E+01  0.92361802882E+01  0.51100000000E-03 0. -1.
        -11    1    3    3    0    0  0.21730843504E+02 -0.15986714511E+02 -0.12455062393E+02  0.29714191554E+02  0.51100000000E-03 0.  1.
         12    1    3    3    0    0  0.25909051670E+00  0.18872234548E+02 -0.76130533155E+01  0.20351583366E+02  0.00000000000E+00 0. -1.
</event>
<event>
 7    1  0.1138240E-011  0.5930191E+02  0.7816164E-02  0.1266605E+00
        -11   -1    0    0    0    0  0.00000000000E+00  0.00000000000E+00  0.45593999997E+02  0.45594000000E+02  0.51100000000E-03 0.  1.
         11   -1    0    0    0    0 -0.00000000000E+00 -0.00000000000E+00 -0.45593999997E+02  0.45594000000E+02  0.51100000000E-03 0. -1.
    9900012    2    1    2    0    0  0.10448016006E+02  0.23479075275E+02 -0.18875776475E+02  0.59301906609E+02  0.49999931757E+02 0.  0.
        -12    1    1    2    0    0 -0.10448016006E+02 -0.23479075275E+02  0.18875776475E+02  0.31886093391E+02  0.00000000000E+00 0.  1.
         11    1    3    3    0    0 -0.48758186951E+01  0.12170200344E+02  0.30347839813E+01  0.13457239629E+02  0.51100000000E-03 0. -1.
        -11    1    3    3    0    0  0.21636454993E+02  0.18802849539E+02 -0.98603536897E+01  0.30313526858E+02  0.51100000000E-03 0.  1.
        -12    1    3    3    0    0 -0.63126202922E+01 -0.74939746074E+01 -0.12050206767E+02  0.15531140122E+02  0.00000000000E+00 0.  1.
</event>
<event>
 7    1  0.1138240E-011  0.5930193E+02  0.7816164E-02  0.1266605E+00
        -11   -1    0    0    0    0  0.00000000000E+00  0.00000000000E+00  0.45593999997E+02  0.45594000000E+02  0.51100000000E-03 0. -1.
         11   -1    0    0    0    0 -0.00000000000E+00 -0.00000000000E+00 -0.45593999997E+02  0.45594000000E+02  0.51100000000E-03 0.  1.
    9900012    2    1    2    0    0 -0.17977554364E+02 -0.25532434075E+02  0.64516445833E+01  0.59301931435E+02  0.49999977033E+02 0.  0.
        -12    1    1    2    0    0  0.17977554364E+02  0.25532434075E+02 -0.64516445833E+01  0.31886068565E+02  0.00000000000E+00 0.  1.
         11    1    3    3    0    0 -0.24822116815E+02 -0.11786427998E+02  0.57806868186E+01  0.28079774010E+02  0.51100000000E-03 0. -1.
        -11    1    3    3    0    0 -0.59039601390E+01 -0.16350712454E+02 -0.31364764178E+01  0.17664654756E+02  0.51100000000E-03 0.  1.
        -12    1    3    3    0    0  0.12748522590E+02  0.26047063764E+01  0.38074341825E+01  0.13557502668E+02  0.00000000000E+00 0.  1.
</event>
<event>
 7    1  0.1138240E-011  0.5930195E+02  0.7816164E-02  0.1266605E+00
        -11   -1    0    0    0    0  0.00000000000E+00  0.00000000000E+00  0.45593999997E+02  0.45594000000E+02  0.51100000000E-03 0. -1.
         11   -1    0    0    0    0 -0.00000000000E+00 -0.00000000000E+00 -0.45593999997E+02  0.45594000000E+02  0.51100000000E-03 0.  1.
    9900012    2    1    2    0    0 -0.28197361462E+02  0.46316258295E+01  0.14148396031E+02  0.59301948794E+02  0.50000008693E+02 0.  0.
        -12    1    1    2    0    0  0.28197361462E+02 -0.46316258295E+01 -0.14148396031E+02  0.31886051206E+02  0.00000000000E+00 0.  1.
         11    1    3    3    0    0  0.87652316812E+01  0.26157990014E+01  0.60420667114E+01  0.10962584606E+02  0.51100000000E-03 0. -1.
        -11    1    3    3    0    0 -0.13412911886E+02  0.14791608477E+02  0.80989833106E+01  0.21547422526E+02  0.51100000000E-03 0.  1.
         12    1    3    3    0    0 -0.23549681257E+02 -0.12775781649E+02  0.73460090969E-02  0.26791941662E+02  0.00000000000E+00 0. -1.
</event>
<event>
 7    1  0.1138240E-011  0.5930200E+02  0.7816164E-02  0.1266605E+00
        -11   -1    0    0    0    0  0.00000000000E+00  0.00000000000E+00  0.45593999997E+02  0.45594000000E+02  0.51100000000E-03 0. -1.
         11   -1    0    0    0    0 -0.00000000000E+00 -0.00000000000E+00 -0.45593999997E+02  0.45594000000E+02  0.51100000000E-03 0.  1.
    9900012    2    1    2    0    0  0.12501565393E+02  0.12277565223E+02  0.26639998987E+02  0.59301995373E+02  0.50000093641E+02 0.  0.
        -12    1    1    2    0    0 -0.12501565393E+02 -0.12277565223E+02 -0.26639998987E+02  0.31886004627E+02  0.00000000000E+00 0.  1.
         11    1    3    3    0    0  0.64214727996E+01  0.50639445321E+01  0.27477361928E-01  0.81779950114E+01  0.51100000000E-03 0. -1.
        -11    1    3    3    0    0 -0.11932250109E+02 -0.34451097897E+01 -0.48523623979E+01  0.13333896476E+02  0.51100000000E-03 0.  1.
         12    1    3    3    0    0  0.18012342702E+02  0.10658730481E+02  0.31464884023E+02  0.37790103885E+02  0.00000000000E+00 0. -1.
</event>
<event>
 7    1  0.1138240E-011  0.5930193E+02  0.7816164E-02  0.1266605E+00
        -11   -1    0    0    0    0  0.00000000000E+00  0.00000000000E+00  0.45593999997E+02  0.45594000000E+02  0.51100000000E-03 0. -1.
         11   -1    0    0    0    0 -0.00000000000E+00 -0.00000000000E+00 -0.45593999997E+02  0.45594000000E+02  0.51100000000E-03 0.  1.
    9900012    2    1    2    0    0 -0.30565054528E+02  0.89771344181E+01 -0.13819586078E+01  0.59301932349E+02  0.49999978701E+02 0.  0.
        -12    1    1    2    0    0  0.30565054528E+02 -0.89771344181E+01  0.13819586078E+01  0.31886067651E+02  0.00000000000E+00 0.  1.
         11    1    3    3    0    0 -0.97306995837E-01 -0.14087005514E+02 -0.26116651583E+01  0.14327385950E+02  0.51100000000E-03 0. -1.
        -11    1    3    3    0    0  0.23180348091E+01  0.16881499647E+01 -0.45833279583E+01  0.54064804738E+01  0.51100000000E-03 0.  1.
         12    1    3    3    0    0 -0.32785782341E+02  0.21375989968E+02  0.58130345089E+01  0.39568065925E+02  0.00000000000E+00 0. -1.
</event>
<event>
 7    1  0.1138240E-011  0.5930195E+02  0.7816164E-02  0.1266605E+00
        -11   -1    0    0    0    0  0.00000000000E+00  0.00000000000E+00  0.45593999997E+02  0.45594000000E+02  0.51100000000E-03 0.  1.
         11   -1    0    0    0    0 -0.00000000000E+00 -0.00000000000E+00 -0.45593999997E+02  0.45594000000E+02  0.51100000000E-03 0. -1.
    9900012    2    1    2    0    0 -0.76770887453E+01  0.19075975881E+02 -0.24369845889E+02  0.59301953898E+02  0.50000018001E+02 0.  0.
        -12    1    1    2    0    0  0.76770887453E+01 -0.19075975881E+02  0.24369845889E+02  0.31886046102E+02  0.00000000000E+00 0.  1.
         11    1    3    3    0    0 -0.11493774347E+02 -0.70228856688E+01 -0.60177532541E+01  0.14752665059E+02  0.51100000000E-03 0.  1.
        -11    1    3    3    0    0  0.12647198606E+02  0.28064459348E+02 -0.10363236740E+02  0.32480181451E+02  0.51100000000E-03 0. -1.
         12    1    3    3    0    0 -0.88305130051E+01 -0.19655977990E+01 -0.79888558947E+01  0.12069107388E+02  0.00000000000E+00 0. -1.
</event>
<event>
 7    1  0.1138240E-011  0.5930185E+02  0.7816164E-02  0.1266605E+00
        -11   -1    0    0    0    0  0.00000000000E+00  0.00000000000E+00  0.45593999997E+02  0.45594000000E+02  0.51100000000E-03 0.  1.
         11   -1    0    0    0    0 -0.00000000000E+00 -0.00000000000E+00 -0.45593999997E+02  0.45594000000E+02  0.51100000000E-03 0. -1.
    9900012    2    1    2    0    0 -0.87736062189E+01  0.14013118664E+02 -0.27265050759E+02  0.59301848560E+02  0.49999825889E+02 0.  0.
        -12    1    1    2    0    0  0.87736062189E+01 -0.14013118664E+02  0.27265050759E+02  0.31886151440E+02  0.00000000000E+00 0.  1.
         11    1    3    3    0    0 -0.82986181948E+01 -0.14678424818E+01 -0.16781257958E+02  0.18778504850E+02  0.51100000000E-03 0. -1.
        -11    1    3    3    0    0  0.63870748028E+01 -0.63660582962E+01 -0.14693677941E+02  0.17240231856E+02  0.51100000000E-03 0.  1.
        -12    1    3    3    0    0 -0.68620628269E+01  0.21847019442E+02  0.42098851387E+01  0.23283111854E+02  0.00000000000E+00 0.  1.
</event>
<event>
 7    1  0.1138240E-011  0.5930196E+02  0.7816164E-02  0.1266605E+00
        -11   -1    0    0    0    0  0.00000000000E+00  0.00000000000E+00  0.45593999997E+02  0.45594000000E+02  0.51100000000E-03 0.  1.
         11   -1    0    0    0    0 -0.00000000000E+00 -0.00000000000E+00 -0.45593999997E+02  0.45594000000E+02  0.51100000000E-03 0. -1.
    9900012    2    1    2    0    0  0.25320730289E+01  0.49654764687E+01 -0.31395099489E+02  0.59301958817E+02  0.50000026972E+02 0.  0.
        -12    1    1    2    0    0 -0.25320730289E+01 -0.49654764687E+01  0.31395099489E+02  0.31886041183E+02  0.00000000000E+00 0.  1.
         11    1    3    3    0    0 -0.38732572503E+01  0.50353897372E+01 -0.35245225351E+01  0.72649522293E+01  0.51100000000E-03 0. -1.
        -11    1    3    3    0    0 -0.17355988025E+02 -0.40406120457E+00 -0.21107215047E+02  0.27329619702E+02  0.51100000000E-03 0.  1.
         12    1    3    3    0    0  0.23761318304E+02  0.33414793609E+00 -0.67633619073E+01  0.24707386885E+02  0.00000000000E+00 0. -1.
</event>
<event>
 7    1  0.1138240E-011  0.5930194E+02  0.7816164E-02  0.1266605E+00
        -11   -1    0    0    0    0  0.00000000000E+00  0.00000000000E+00  0.45593999997E+02  0.45594000000E+02  0.51100000000E-03 0. -1.
         11   -1    0    0    0    0 -0.00000000000E+00 -0.00000000000E+00 -0.45593999997E+02  0.45594000000E+02  0.51100000000E-03 0.  1.
    9900012    2    1    2    0    0  0.90960452382E+01 -0.24346456435E+02  0.18472487509E+02  0.59301940747E+02  0.49999994017E+02 0.  0.
        -12    1    1    2    0    0 -0.90960452382E+01  0.24346456435E+02 -0.18472487509E+02  0.31886059253E+02  0.00000000000E+00 0.  1.
         11    1    3    3    0    0  0.15590070164E+02 -0.17642203337E+02  0.10139231938E+02  0.25633994048E+02  0.51100000000E-03 0. -1.
        -11    1    3    3    0    0  0.10358939726E+02 -0.67707556014E+01 -0.37495866378E+01  0.12930976911E+02  0.51100000000E-03 0.  1.
        -12    1    3    3    0    0 -0.16852964652E+02  0.66502503377E-01  0.12082842209E+02  0.20736969788E+02  0.00000000000E+00 0.  1.
</event>
<event>
 7    1  0.1138240E-011  0.5930205E+02  0.7816164E-02  0.1266604E+00
        -11   -1    0    0    0    0  0.00000000000E+00  0.00000000000E+00  0.45593999997E+02  0.45594000000E+02  0.51100000000E-03 0. -1.
         11   -1    0    0    0    0 -0.00000000000E+00 -0.00000000000E+00 -0.45593999997E+02  0.45594000000E+02  0.51100000000E-03 0.  1.
    9900012    2    1    2    0    0 -0.74669425937E+01  0.21577083103E+02  0.22257314886E+02  0.59302049914E+02  0.50000193111E+02 0.  0.
        -12    1    1    2    0    0  0.74669425937E+01 -0.21577083103E+02 -0.22257314886E+02  0.31885950086E+02  0.00000000000E+00 0.  1.
         11    1    3    3    0    0 -0.39988049297E+00  0.19255257466E+02  0.13542301066E+02  0.23543975087E+02  0.51100000000E-03 0. -1.
        -11    1    3    3    0    0 -0.10357351716E+02  0.11657323164E+02  0.16840724509E+02  0.22951643083E+02  0.51100000000E-03 0.  1.
        -12    1    3    3    0    0  0.32902896153E+01 -0.93354975268E+01 -0.81257106892E+01  0.12806431745E+02  0.00000000000E+00 0.  1.
</event>
<event>
 7    1  0.1138240E-011  0.5930194E+02  0.7816164E-02  0.1266605E+00
        -11   -1    0    0    0    0  0.00000000000E+00  0.00000000000E+00  0.45593999997E+02  0.45594000000E+02  0.51100000000E-03 0. -1.
         11   -1    0    0    0    0 -0.00000000000E+00 -0.00000000000E+00 -0.45593999997E+02  0.45594000000E+02  0.51100000000E-03 0.  1.
    9900012    2    1    2    0    0  0.12572396195E+02 -0.28342101285E+02  0.74418299603E+01  0.59301942161E+02  0.49999996596E+02 0.  0.
        -12    1    1    2    0    0 -0.12572396195E+02  0.28342101285E+02 -0.74418299603E+01  0.31886057839E+02  0.00000000000E+00 0.  1.
         11    1    3    3    0    0  0.63504172292E+01 -0.98945884562E+01  0.44692519199E+00  0.11765645842E+02  0.51100000000E-03 0. -1.
        -11    1    3    3    0    0 -0.83113648723E+01 -0.19307464690E+02 -0.11530128714E+02  0.23975004634E+02  0.51100000000E-03 0.  1.
         12    1    3    3    0    0  0.14533343838E+02  0.85995186146E+00  0.18525033482E+02  0.23561291684E+02  0.00000000000E+00 0. -1.
</event>
<event>
 7    1  0.1138240E-011  0.5930193E+02  0.7816164E-02  0.1266605E+00
        -11   -1    0    0    0    0  0.00000000000E+00  0.00000000000E+00  0.45593999997E+02  0.45594000000E+02  0.51100000000E-03 0.  1.
         11   -1    0    0    0    0 -0.00000000000E+00 -0.00000000000E+00 -0.45593999997E+02  0.45594000000E+02  0.51100000000E-03 0. -1.
    9900012    2    1    2    0    0  0.27853038262E+02 -0.10553304075E+02  0.11382328817E+02  0.59301931308E+02  0.49999976803E+02 0.  0.
        -12    1    1    2    0    0 -0.27853038262E+02  0.10553304075E+02 -0.11382328817E+02  0.31886068692E+02  0.00000000000E+00 0.  1.
         11    1    3    3    0    0 -0.27801929787E+01  0.88381122212E+01  0.15076455259E+00  0.92663062137E+01  0.51100000000E-03 0. -1.
        -11    1    3    3    0    0  0.87380000977E+01 -0.79256217818E+01  0.20489497488E+02  0.23642919318E+02  0.51100000000E-03 0.  1.
         12    1    3    3    0    0  0.21895231143E+02 -0.11465794514E+02 -0.92579332234E+01  0.26392705776E+02  0.00000000000E+00 0. -1.
</event>
<event>
 7    1  0.1138240E-011  0.5930194E+02  0.7816164E-02  0.1266605E+00
        -11   -1    0    0    0    0  0.00000000000E+00  0.00000000000E+00  0.45593999997E+02  0.45594000000E+02  0.51100000000E-03 0. -1.
         11   -1    0    0    0    0 -0.00000000000E+00 -0.00000000000E+00 -0.45593999997E+02  0.45594000000E+02  0.51100000000E-03 0.  1.
    9900012    2    1    2    0    0 -0.24195642345E+02 -0.20469339081E+02  0.35068241531E+01  0.59301940875E+02  0.49999994250E+02 0.  0.
        -12    1    1    2    0    0  0.24195642345E+02  0.20469339081E+02 -0.35068241531E+01  0.31886059125E+02  0.00000000000E+00 0.  1.
         11    1    3    3    0    0  0.63001908225E+01 -0.12281079314E+02  0.23696922387E+01  0.14004740451E+02  0.51100000000E-03 0. -1.
        -11    1    3    3    0    0  0.21062197098E-02  0.36944481806E+01  0.10600247847E+02  0.11225604950E+02  0.51100000000E-03 0.  1.
        -12    1    3    3    0    0 -0.30497939387E+02 -0.11882707947E+02 -0.94631159331E+01  0.34071595474E+02  0.00000000000E+00 0.  1.
</event>
<event>
 7    1  0.1138240E-011  0.5930191E+02  0.7816164E-02  0.1266605E+00
        -11   -1    0    0    0    0  0.00000000000E+00  0.00000000000E+00  0.45593999997E+02  0.45594000000E+02  0.51100000000E-03 0. -1.
         11   -1    0    0    0    0 -0.00000000000E+00 -0.00000000000E+00 -0.45593999997E+02  0.45594000000E+02  0.51100000000E-03 0.  1.
    9900012    2    1    2    0    0  0.20079229214E+02 -0.23410357702E+02  0.80933469257E+01  0.59301912783E+02  0.49999943017E+02 0.  0.
        -12    1    1    2    0    0 -0.20079229214E+02  0.23410357702E+02 -0.80933469257E+01  0.31886087217E+02  0.00000000000E+00 0.  1.
         11    1    3    3    0    0 -0.65797290479E+01  0.10232412109E+02 -0.31966884946E+01  0.12578311075E+02  0.51100000000E-03 0. -1.
        -11    1    3    3    0    0  0.14875386307E+02 -0.27511704610E+02  0.38857968402E+01  0.31516193071E+02  0.51100000000E-03 0.  1.
        -12    1    3    3    0    0  0.11783571954E+02 -0.61310652011E+01  0.74042385802E+01  0.15207408637E+02  0.00000000000E+00 0.  1.
</event>
<event>
 7    1  0.1138240E-011  0.5930199E+02  0.7816164E-02  0.1266605E+00
        -11   -1    0    0    0    0  0.00000000000E+00  0.00000000000E+00  0.45593999997E+02  0.45594000000E+02  0.51100000000E-03 0.  1.
         11   -1    0    0    0    0 -0.00000000000E+00 -0.00000000000E+00 -0.45593999997E+02  0.45594000000E+02  0.51100000000E-03 0. -1.
    9900012    2    1    2    0    0  0.28546789189E+02 -0.14082751978E+02 -0.18639529448E+01  0.59301993714E+02  0.50000090616E+02 0.  0.
        -12    1    1    2    0    0 -0.28546789189E+02  0.14082751978E+02  0.18639529448E+01  0.31886006286E+02  0.00000000000E+00 0.  1.
         11    1    3    3    0    0  0.14080890336E+02  0.14377156399E+02  0.57654274882E+01  0.20933567617E+02  0.51100000000E-03 0. -1.
        -11    1    3    3    0    0  0.15153733236E+02 -0.81943485395E+01 -0.21291573298E+01  0.17358464511E+02  0.51100000000E-03 0.  1.
        -12    1    3    3    0    0 -0.68783438319E+00 -0.20265559838E+02 -0.55002231032E+01  0.21009961586E+02  0.00000000000E+00 0.  1.
</event>
<event>
 7    1  0.1138240E-011  0.5930198E+02  0.7816164E-02  0.1266605E+00
        -11   -1    0    0    0    0  0.00000000000E+00  0.00000000000E+00  0.45593999997E+02  0.45594000000E+02  0.51100000000E-03 0.  1.
         11   -1    0    0    0    0 -0.00000000000E+00 -0.00000000000E+00 -0.45593999997E+02  0.45594000000E+02  0.51100000000E-03 0. -1.
    9900012    2    1    2    0    0  0.25299377255E+02 -0.14377740750E+02  0.13036127108E+02  0.59301975968E+02  0.50000058251E+02 0.  0.
        -12    1    1    2    0    0 -0.25299377255E+02  0.14377740750E+02 -0.13036127108E+02  0.31886024032E+02  0.00000000000E+00 0.  1.
         11    1    3    3    0    0  0.68454750403E+01  0.15920853813E+02  0.88592975538E+00  0.17352780366E+02  0.51100000000E-03 0. -1.
        -11    1    3    3    0    0  0.38617648437E+01 -0.30363792409E+00  0.72705297003E+01  0.82380838841E+01  0.51100000000E-03 0.  1.
         12    1    3    3    0    0  0.14592137371E+02 -0.29994956639E+02  0.48796676527E+01  0.33711111717E+02  0.00000000000E+00 0. -1.
</event>
<event>
 7    1  0.1138240E-011  0.5930193E+02  0.7816164E-02  0.1266605E+00
        -11   -1    0    0    0    0  0.00000000000E+00  0.00000000000E+00  0.45593999997E+02  0.45594000000E+02  0.51100000000E-03 0. -1.
         11   -1    0    0    0    0 -0.00000000000E+00 -0.00000000000E+00 -0.45593999997E+02  0.45594000000E+02  0.51100000000E-03 0.  1.
    9900012    2    1    2    0    0 -0.81423888985E+01 -0.30496652475E+02  0.45141315680E+01  0.59301926347E+02  0.49999967755E+02 0.  0.
        -12    1    1    2    0    0  0.81423888985E+01  0.30496652475E+02 -0.45141315680E+01  0.31886073653E+02  0.00000000000E+00 0.  1.
         11    1    3    3    0    0 -0.56689331877E+01 -0.11256427419E+02  0.44494642723E+01  0.13365690940E+02  0.51100000000E-03 0. -1.
        -11    1    3    3    0    0 -0.20887708204E+02 -0.12616725631E+02 -0.65725686250E+01  0.25272055284E+02  0.51100000000E-03 0.  1.
        -12    1    3    3    0    0  0.18414252493E+02 -0.66234994253E+01  0.66372359207E+01  0.20664180124E+02  0.00000000000E+00 0.  1.
</event>
<event>
 7    1  0.1138240E-011  0.5930196E+02  0.7816164E-02  0.1266605E+00
        -11   -1    0    0    0    0  0.00000000000E+00  0.00000000000E+00  0.45593999997E+02  0.45594000000E+02  0.51100000000E-03 0.  1.
         11   -1    0    0    0    0 -0.00000000000E+00 -0.00000000000E+00 -0.45593999997E+02  0.45594000000E+02  0.51100000000E-03 0. -1.
    9900012    2    1    2    0    0 -0.10248718488E+02 -0.79668140118E+01 -0.29124102763E+02  0.59301957318E+02  0.50000024238E+02 0.  0.
        -12    1    1    2    0    0  0.10248718488E+02  0.79668140118E+01  0.29124102763E+02  0.31886042682E+02  0.00000000000E+00 0.  1.
         11    1    3    3    0    0 -0.13566337360E+02 -0.13526148273E+02 -0.26932182806E+02  0.33050637928E+02  0.51100000000E-03 0. -1.
        -11    1    3    3    0    0 -0.38024187461E+01 -0.38190114702E+01 -0.10526051135E+02  0.11825438245E+02  0.51100000000E-03 0.  1.
        -12    1    3    3    0    0  0.71200376184E+01  0.93783457310E+01  0.83341311775E+01  0.14425881145E+02  0.00000000000E+00 0.  1.
</event>
<event>
 7    1  0.1138240E-011  0.5930196E+02  0.7816164E-02  0.1266605E+00
        -11   -1    0    0    0    0  0.00000000000E+00  0.00000000000E+00  0.45593999997E+02  0.45594000000E+02  0.51100000000E-03 0.  1.
         11   -1    0    0    0    0 -0.00000000000E+00 -0.00000000000E+00 -0.45593999997E+02  0.45594000000E+02  0.51100000000E-03 0. -1.
    9900012    2    1    2    0    0  0.14483007209E+02 -0.20000128591E+02  0.20173178048E+02  0.59301956752E+02  0.50000023205E+02 0.  0.
        -12    1    1    2    0    0 -0.14483007209E+02  0.20000128591E+02 -0.20173178048E+02  0.31886043248E+02  0.00000000000E+00 0.  1.
         11    1    3    3    0    0  0.49031378513E+01 -0.39465598818E+01  0.19878134518E+02  0.20850811204E+02  0.51100000000E-03 0.  1.
        -11    1    3    3    0    0 -0.59698418205E+01  0.75871258076E+01  0.27787283658E+01  0.10046134629E+02  0.51100000000E-03 0. -1.
        -12    1    3    3    0    0  0.15549711179E+02 -0.23640694517E+02 -0.24836848352E+01  0.28405010919E+02  0.00000000000E+00 0.  1.
</event>
<event>
 7    1  0.1138240E-011  0.5930192E+02  0.7816164E-02  0.1266605E+00
        -11   -1    0    0    0    0  0.00000000000E+00  0.00000000000E+00  0.45593999997E+02  0.45594000000E+02  0.51100000000E-03 0. -1.
         11   -1    0    0    0    0 -0.00000000000E+00 -0.00000000000E+00 -0.45593999997E+02  0.45594000000E+02  0.51100000000E-03 0.  1.
    9900012    2    1    2    0    0  0.15690252714E+02 -0.10079578700E+02  0.25863876398E+02  0.59301920916E+02  0.49999957850E+02 0.  0.
        -12    1    1    2    0    0 -0.15690252714E+02  0.10079578700E+02 -0.25863876398E+02  0.31886079084E+02  0.00000000000E+00 0.  1.
         11    1    3    3    0    0 -0.51430627971E+01 -0.58430760476E+01  0.11526479952E+02  0.13908715720E+02  0.51100000000E-03 0. -1.
        -11    1    3    3    0    0 -0.28838964288E+01 -0.12937416377E+02 -0.43712752573E+01  0.13957136123E+02  0.51100000000E-03 0.  1.
        -12    1    3    3    0    0  0.23717211940E+02  0.87009137253E+01  0.18708671704E+02  0.31436069073E+02  0.00000000000E+00 0.  1.
</event>
<event>
 7    1  0.1138240E-011  0.5930195E+02  0.7816164E-02  0.1266605E+00
        -11   -1    0    0    0    0  0.00000000000E+00  0.00000000000E+00  0.45593999997E+02  0.45594000000E+02  0.51100000000E-03 0.  1.
         11   -1    0    0    0    0 -0.00000000000E+00 -0.00000000000E+00 -0.45593999997E+02  0.45594000000E+02  0.51100000000E-03 0. -1.
    9900012    2    1    2    0    0 -0.90985529007E+01  0.28266955568E+02 -0.11615332063E+02  0.59301946922E+02  0.50000005278E+02 0.  0.
        -12    1    1    2    0    0  0.90985529007E+01 -0.28266955568E+02  0.11615332063E+02  0.31886053078E+02  0.00000000000E+00 0.  1.
         11    1    3    3    0    0 -0.81555920360E+01  0.21580862376E+02 -0.60746032710E+01  0.23856825177E+02  0.51100000000E-03 0. -1.
        -11    1    3    3    0    0  0.14029137079E+02  0.11216924518E+02 -0.79053910345E+01  0.19624762177E+02  0.51100000000E-03 0.  1.
         12    1    3    3    0    0 -0.14972097944E+02 -0.45308313265E+01  0.23646622422E+01  0.15820359568E+02  0.00000000000E+00 0. -1.
</event>
<event>
 7    1  0.1138240E-011  0.5930193E+02  0.7816164E-02  0.1266605E+00
        -11   -1    0    0    0    0  0.00000000000E+00  0.00000000000E+00  0.45593999997E+02  0.45594000000E+02  0.51100000000E-03 0. -1.
         11   -1    0    0    0    0 -0.00000000000E+00 -0.00000000000E+00 -0.45593999997E+02  0.45594000000E+02  0.51100000000E-03 0.  1.
    9900012    2    1    2    0    0 -0.28605454197E+02 -0.13595244328E+02  0.36903351851E+01  0.59301933263E+02  0.49999980368E+02 0.  0.
        -12    1    1    2    0    0  0.28605454197E+02  0.13595244328E+02 -0.36903351851E+01  0.31886066737E+02  0.00000000000E+00 0.  1.
         11    1    3    3    0    0  0.80127302975E+01 -0.87242316658E+01 -0.70985754658E+00  0.11866758739E+02  0.51100000000E-03 0.  1.
        -11    1    3    3    0    0 -0.11388712091E+02  0.97975020831E+01  0.95485200720E+01  0.17800787791E+02  0.51100000000E-03 0. -1.
        -12    1    3    3    0    0 -0.25229472404E+02 -0.14668514745E+02 -0.51483273404E+01  0.29634386732E+02  0.00000000000E+00 0.  1.
</event>
<event>
 7    1  0.1138240E-011  0.5930195E+02  0.7816164E-02  0.1266605E+00
        -11   -1    0    0    0    0  0.00000000000E+00  0.00000000000E+00  0.45593999997E+02  0.45594000000E+02  0.51100000000E-03 0.  1.
         11   -1    0    0    0    0 -0.00000000000E+00 -0.00000000000E+00 -0.45593999997E+02  0.45594000000E+02  0.51100000000E-03 0. -1.
    9900012    2    1    2    0    0 -0.22205674561E+02  0.22754305347E+02 -0.24227121886E+01  0.59301954010E+02  0.50000018205E+02 0.  0.
        -12    1    1    2    0    0  0.22205674561E+02 -0.22754305347E+02  0.24227121886E+01  0.31886045990E+02  0.00000000000E+00 0.  1.
         11    1    3    3    0    0  0.72262866050E+01 -0.63736756808E+01 -0.62201089351E+01  0.11468771303E+02  0.51100000000E-03 0. -1.
        -11    1    3    3    0    0 -0.18534470163E+01  0.38884955603E+01  0.91061037412E+01  0.10073568840E+02  0.51100000000E-03 0.  1.
        -12    1    3    3    0    0 -0.27578514150E+02  0.25239485468E+02 -0.53087069947E+01  0.37759613867E+02  0.00000000000E+00 0.  1.
</event>
<event>
 7    1  0.1138240E-011  0.5930195E+02  0.7816164E-02  0.1266605E+00
        -11   -1    0    0    0    0  0.00000000000E+00  0.00000000000E+00  0.45593999997E+02  0.45594000000E+02  0.51100000000E-03 0.  1.
         11   -1    0    0    0    0 -0.00000000000E+00 -0.00000000000E+00 -0.45593999997E+02  0.45594000000E+02  0.51100000000E-03 0. -1.
    9900012    2    1    2    0    0 -0.30092078506E+02  0.36042348435E+01 -0.99093985019E+01  0.59301954834E+02  0.50000019709E+02 0.  0.
        -12    1    1    2    0    0  0.30092078506E+02 -0.36042348435E+01  0.99093985019E+01  0.31886045166E+02  0.00000000000E+00 0.  1.
         11    1    3    3    0    0  0.98889030020E+01 -0.39706228090E+01  0.19607123929E+00  0.10658081078E+02  0.51100000000E-03 0.  1.
        -11    1    3    3    0    0 -0.86005027077E+01 -0.23544761044E+01 -0.12822258866E+02  0.15618019312E+02  0.51100000000E-03 0. -1.
        -12    1    3    3    0    0 -0.31380478801E+02  0.99293337569E+01  0.27167891247E+01  0.33025854444E+02  0.00000000000E+00 0.  1.
</event>
<event>
 7    1  0.1138240E-011  0.5930195E+02  0.7816164E-02  0.1266605E+00
        -11   -1    0    0    0    0  0.00000000000E+00  0.00000000000E+00  0.45593999997E+02  0.45594000000E+02  0.51100000000E-03 0.  1.
         11   -1    0    0    0    0 -0.00000000000E+00 -0.00000000000E+00 -0.45593999997E+02  0.45594000000E+02  0.51100000000E-03 0. -1.
    9900012    2    1    2    0    0 -0.18448097702E+02 -0.21365653988E+01 -0.25919548068E+02  0.59301949875E+02  0.50000010663E+02 0.  0.
        -12    1    1    2    0    0  0.18448097702E+02  0.21365653988E+01  0.25919548068E+02  0.31886050125E+02  0.00000000000E+00 0.  1.
         11    1    3    3    0    0  0.27928245800E+01 -0.16725886803E+02 -0.13013508925E+02  0.21375373056E+02  0.51100000000E-03 0. -1.
        -11    1    3    3    0    0 -0.18021906416E+02 -0.18134162397E+01 -0.10775338193E+02  0.21075708832E+02  0.51100000000E-03 0.  1.
         12    1    3    3    0    0 -0.32190158665E+01  0.16402737644E+02 -0.21307009496E+01  0.16850867987E+02  0.00000000000E+00 0. -1.
</event>
<event>
 7    1  0.1138240E-011  0.5930194E+02  0.7816164E-02  0.1266605E+00
        -11   -1    0    0    0    0  0.00000000000E+00  0.00000000000E+00  0.45593999997E+02  0.45594000000E+02  0.51100000000E-03 0.  1.
         11   -1    0    0    0    0 -0.00000000000E+00 -0.00000000000E+00 -0.45593999997E+02  0.45594000000E+02  0.51100000000E-03 0. -1.
    9900012    2    1    2    0    0  0.16388753469E+02 -0.14309808406E+02 -0.23310057807E+02  0.59301942673E+02  0.49999997528E+02 0.  0.
        -12    1    1    2    0    0 -0.16388753469E+02  0.14309808406E+02  0.23310057807E+02  0.31886057327E+02  0.00000000000E+00 0.  1.
         11    1    3    3    0    0  0.16447514613E+02 -0.22676145814E+02 -0.31311744498E+02  0.42013731918E+02  0.51100000000E-03 0. -1.
        -11    1    3    3    0    0 -0.53618355085E+01  0.11741305534E+01  0.30962611920E+00  0.54976114060E+01  0.51100000000E-03 0.  1.
        -12    1    3    3    0    0  0.53030743652E+01  0.71922068547E+01  0.76920605711E+01  0.11790599348E+02  0.00000000000E+00 0.  1.
</event>
<event>
 7    1  0.1138240E-011  0.5930195E+02  0.7816164E-02  0.1266605E+00
        -11   -1    0    0    0    0  0.00000000000E+00  0.00000000000E+00  0.45593999997E+02  0.45594000000E+02  0.51100000000E-03 0.  1.
         11   -1    0    0    0    0 -0.00000000000E+00 -0.00000000000E+00 -0.45593999997E+02  0.45594000000E+02  0.51100000000E-03 0. -1.
    9900012    2    1    2    0    0 -0.16064410559E+01 -0.23783810734E+01 -0.31756614691E+02  0.59301954055E+02  0.50000018287E+02 0.  0.
        -12    1    1    2    0    0  0.16064410559E+01  0.23783810734E+01  0.31756614691E+02  0.31886045945E+02  0.00000000000E+00 0.  1.
         11    1    3    3    0    0  0.99829261837E+01 -0.29678559243E+01 -0.12411912850E+02  0.16202548097E+02  0.51100000000E-03 0. -1.
        -11    1    3    3    0    0 -0.32335839003E+00 -0.13837419540E+02 -0.20526007758E+02  0.24756731103E+02  0.51100000000E-03 0.  1.
         12    1    3    3    0    0 -0.11266008850E+02  0.14426894390E+02  0.11813059173E+01  0.18342674855E+02  0.00000000000E+00 0. -1.
</event>
<event>
 7    1  0.1138240E-011  0.5930196E+02  0.7816164E-02  0.1266605E+00
        -11   -1    0    0    0    0  0.00000000000E+00  0.00000000000E+00  0.45593999997E+02  0.45594000000E+02  0.51100000000E-03 0. -1.
         11   -1    0    0    0    0 -0.00000000000E+00 -0.00000000000E+00 -0.45593999997E+02  0.45594000000E+02  0.51100000000E-03 0.  1.
    9900012    2    1    2    0    0  0.24235444794E+02  0.30294779587E+01  0.20498415862E+02  0.59301959577E+02  0.50000028357E+02 0.  0.
        -12    1    1    2    0    0 -0.24235444794E+02 -0.30294779587E+01 -0.20498415862E+02  0.31886040423E+02  0.00000000000E+00 0.  1.
         11    1    3    3    0    0  0.79467331531E+01 -0.16857712301E+02  0.29738996356E+01  0.18872655116E+02  0.51100000000E-03 0.  1.
        -11    1    3    3    0    0 -0.69782744762E-01  0.34134525456E+00  0.14790995353E+02  0.14795098175E+02  0.51100000000E-03 0. -1.
        -12    1    3    3    0    0  0.16358494385E+02  0.19545845005E+02  0.27335208737E+01  0.25634206286E+02  0.00000000000E+00 0.  1.
</event>
<event>
 7    1  0.1138240E-011  0.5930193E+02  0.7816164E-02  0.1266605E+00
        -11   -1    0    0    0    0  0.00000000000E+00  0.00000000000E+00  0.45593999997E+02  0.45594000000E+02  0.51100000000E-03 0.  1.
         11   -1    0    0    0    0 -0.00000000000E+00 -0.00000000000E+00 -0.45593999997E+02  0.45594000000E+02  0.51100000000E-03 0. -1.
    9900012    2    1    2    0    0 -0.71745120888E+01 -0.18624472108E+02 -0.24867180405E+02  0.59301933352E+02  0.49999980530E+02 0.  0.
        -12    1    1    2    0    0  0.71745120888E+01  0.18624472108E+02  0.24867180405E+02  0.31886066648E+02  0.00000000000E+00 0.  1.
         11    1    3    3    0    0 -0.74555773464E+01 -0.73552376233E+01 -0.24131294659E+02  0.26305979097E+02  0.51100000000E-03 0. -1.
        -11    1    3    3    0    0 -0.43040991349E+01 -0.15429343111E+02 -0.12086456499E+02  0.20066697017E+02  0.51100000000E-03 0.  1.
        -12    1    3    3    0    0  0.45851643925E+01  0.41601086265E+01  0.11350570753E+02  0.12929257238E+02  0.00000000000E+00 0.  1.
</event>
<event>
 7    1  0.1138240E-011  0.5930195E+02  0.7816164E-02  0.1266605E+00
        -11   -1    0    0    0    0  0.00000000000E+00  0.00000000000E+00  0.45593999997E+02  0.45594000000E+02  0.51100000000E-03 0.  1.
         11   -1    0    0    0    0 -0.00000000000E+00 -0.00000000000E+00 -0.45593999997E+02  0.45594000000E+02  0.51100000000E-03 0. -1.
    9900012    2    1    2    0    0 -0.19349831152E+01  0.11479979826E+02 -0.29684782882E+02  0.59301946133E+02  0.50000003840E+02 0.  0.
        -12    1    1    2    0    0  0.19349831152E+01 -0.11479979826E+02  0.29684782882E+02  0.31886053867E+02  0.00000000000E+00 0.  1.
         11    1    3    3    0    0  0.71321472861E+01  0.24103173645E+01 -0.26125395112E+02  0.27188479633E+02  0.51100000000E-03 0. -1.
        -11    1    3    3    0    0  0.57580334336E+01 -0.14027033306E+01  0.84705294417E+01  0.10337910569E+02  0.51100000000E-03 0.  1.
         12    1    3    3    0    0 -0.14825163835E+02  0.10472365792E+02 -0.12029917211E+02  0.21775555931E+02  0.00000000000E+00 0. -1.
</event>
<event>
 7    1  0.1138240E-011  0.5930194E+02  0.7816164E-02  0.1266605E+00
        -11   -1    0    0    0    0  0.00000000000E+00  0.00000000000E+00  0.45593999997E+02  0.45594000000E+02  0.51100000000E-03 0.  1.
         11   -1    0    0    0    0 -0.00000000000E+00 -0.00000000000E+00 -0.45593999997E+02  0.45594000000E+02  0.51100000000E-03 0. -1.
    9900012    2    1    2    0    0  0.10401678075E+01  0.31756799772E+02 -0.26729558885E+01  0.59301937621E+02  0.49999988316E+02 0.  0.
        -12    1    1    2    0    0 -0.10401678075E+01 -0.31756799772E+02  0.26729558885E+01  0.31886062379E+02  0.00000000000E+00 0.  1.
         11    1    3    3    0    0  0.76389712137E+00  0.27274211045E+02 -0.38057594400E+01  0.27549045938E+02  0.51100000000E-03 0. -1.
        -11    1    3    3    0    0 -0.45554709548E+01  0.17225719674E+02 -0.14690242571E+01  0.17878360283E+02  0.51100000000E-03 0.  1.
         12    1    3    3    0    0  0.48317416410E+01 -0.12743130947E+02  0.26018278086E+01  0.13874531399E+02  0.00000000000E+00 0. -1.
</event>
