<event>
 8    1  0.7977359E-012  0.9118800E+02  0.7816164E-02  0.1184000E+00
        -11   -1    0    0    0    0  0.00000000000E+00  0.00000000000E+00  0.45593999997E+02  0.45594000000E+02  0.51100000000E-03 0. -1.
         11   -1    0    0    0    0 -0.00000000000E+00 -0.00000000000E+00 -0.45593999997E+02  0.45594000000E+02  0.51100000000E-03 0.  1.
         23    2    1    2    0    0 -0.17763568394E-14  0.00000000000E+00  0.00000000000E+00  0.91188000000E+02  0.91188000000E+02 0.  0.
    9900012    2    3    3    0    0 -0.97426115450E+01 -0.36546118754E+02  0.14920741667E+02  0.50528858253E+02  0.29999995145E+02 0.  0.
        -12    1    3    3    0    0  0.97426115450E+01  0.36546118754E+02 -0.14920741667E+02  0.40659141747E+02  0.00000000000E+00 0.  1.
         11    1    4    4    0    0  0.16981793022E+01 -0.23610943802E+02  0.13664854611E+02  0.27332923956E+02  0.51100000000E-03 0. -1.
        -11    1    4    4    0    0 -0.52026534153E+01 -0.13135677195E+02  0.60065293614E+01  0.15352264105E+02  0.51100000000E-03 0.  1.
        -12    1    4    4    0    0 -0.62381374319E+01  0.20050224184E+00 -0.47506423056E+01  0.78436701922E+01  0.00000000000E+00 0.  1.
</event>
<event>
 8    1  0.7977359E-012  0.9118800E+02  0.7816164E-02  0.1184000E+00
        -11   -1    0    0    0    0  0.00000000000E+00  0.00000000000E+00  0.45593999997E+02  0.45594000000E+02  0.51100000000E-03 0. -1.
         11   -1    0    0    0    0 -0.00000000000E+00 -0.00000000000E+00 -0.45593999997E+02  0.45594000000E+02  0.51100000000E-03 0.  1.
         23    2    1    2    0    0 -0.11102230246E-14  0.00000000000E+00  0.00000000000E+00  0.91188000000E+02  0.91188000000E+02 0.  0.
    9900012    2    3    3    0    0  0.35326242762E+00 -0.21108091329E+02  0.34748954589E+02  0.50528853933E+02  0.29999982015E+02 0.  0.
        -12    1    3    3    0    0 -0.35326242762E+00  0.21108091329E+02 -0.34748954589E+02  0.40659146067E+02  0.00000000000E+00 0.  1.
         11    1    4    4    0    0 -0.74591523268E+00  0.21264422506E+01  0.58169812997E+01  0.62382223334E+01  0.51100000000E-03 0. -1.
        -11    1    4    4    0    0 -0.78504611267E+01 -0.32593838322E-01  0.31190025509E+01  0.84474244260E+01  0.51100000000E-03 0.  1.
         12    1    4    4    0    0  0.89496387870E+01 -0.23201939741E+02  0.25812970738E+02  0.35843207174E+02  0.00000000000E+00 0. -1.
</event>
<event>
 8    1  0.7977359E-012  0.9118800E+02  0.7816164E-02  0.1184000E+00
        -11   -1    0    0    0    0  0.00000000000E+00  0.00000000000E+00  0.45593999997E+02  0.45594000000E+02  0.51100000000E-03 0. -1.
         11   -1    0    0    0    0 -0.00000000000E+00 -0.00000000000E+00 -0.45593999997E+02  0.45594000000E+02  0.51100000000E-03 0.  1.
         23    2    1    2    0    0  0.00000000000E+00  0.00000000000E+00 -0.35527136788E-14  0.91188000000E+02  0.91188000000E+02 0.  0.
    9900012    2    3    3    0    0  0.29970470900E+02  0.32933932053E+01  0.27278016068E+02  0.50528859264E+02  0.29999998220E+02 0.  0.
        -12    1    3    3    0    0 -0.29970470900E+02 -0.32933932053E+01 -0.27278016068E+02  0.40659140736E+02  0.00000000000E+00 0.  1.
         11    1    4    4    0    0  0.15614669771E+02  0.25653282148E+00  0.13099835121E+02  0.20383557137E+02  0.51100000000E-03 0. -1.
        -11    1    4    4    0    0  0.17529364634E+00 -0.20318988091E-01  0.15571252226E+02  0.15572252145E+02  0.51100000000E-03 0.  1.
        -12    1    4    4    0    0  0.14180507483E+02  0.30571793719E+01 -0.13930712788E+01  0.14573049982E+02  0.00000000000E+00 0.  1.
</event>
<event>
 8    1  0.7977359E-012  0.9118800E+02  0.7816164E-02  0.1184000E+00
        -11   -1    0    0    0    0  0.00000000000E+00  0.00000000000E+00  0.45593999997E+02  0.45594000000E+02  0.51100000000E-03 0. -1.
         11   -1    0    0    0    0 -0.00000000000E+00 -0.00000000000E+00 -0.45593999997E+02  0.45594000000E+02  0.51100000000E-03 0.  1.
         23    2    1    2    0    0 -0.35527136788E-14  0.88817841970E-15 -0.71054273576E-14  0.91188000000E+02  0.91188000000E+02 0.  0.
    9900012    2    3    3    0    0 -0.22181028932E+02  0.72180701745E+01 -0.33302661080E+02  0.50528858143E+02  0.29999994812E+02 0.  0.
         12    1    3    3    0    0  0.22181028932E+02 -0.72180701745E+01  0.33302661080E+02  0.40659141857E+02  0.00000000000E+00 0. -1.
         11    1    4    4    0    0 -0.20177805434E+01  0.40036920301E+01  0.26796108312E+00  0.44914130957E+01  0.51100000000E-03 0. -1.
        -11    1    4    4    0    0 -0.44882951375E+01 -0.62025945316E+01  0.17237186402E+00  0.76581123317E+01  0.51100000000E-03 0.  1.
        -12    1    4    4    0    0 -0.15674953251E+02  0.94169726760E+01 -0.33742994027E+02  0.38379332716E+02  0.00000000000E+00 0.  1.
</event>
<event>
 8    1  0.7977359E-012  0.9118800E+02  0.7816164E-02  0.1184000E+00
        -11   -1    0    0    0    0  0.00000000000E+00  0.00000000000E+00  0.45593999997E+02  0.45594000000E+02  0.51100000000E-03 0. -1.
         11   -1    0    0    0    0 -0.00000000000E+00 -0.00000000000E+00 -0.45593999997E+02  0.45594000000E+02  0.51100000000E-03 0.  1.
         23    2    1    2    0    0  0.00000000000E+00  0.17763568394E-14  0.00000000000E+00  0.91188000000E+02  0.91188000000E+02 0.  0.
    9900012    2    3    3    0    0  0.34560614735E+02 -0.89705807323E+01 -0.19448867273E+02  0.50528857759E+02  0.29999993645E+02 0.  0.
         12    1    3    3    0    0 -0.34560614735E+02  0.89705807323E+01  0.19448867273E+02  0.40659142241E+02  0.00000000000E+00 0. -1.
         11    1    4    4    0    0  0.94006023795E+01  0.58299865419E+01 -0.39044639633E-01  0.11061717449E+02  0.51100000000E-03 0. -1.
        -11    1    4    4    0    0  0.66175825393E+01  0.80960873836E+00  0.21731732420E+01  0.70121713595E+01  0.51100000000E-03 0.  1.
        -12    1    4    4    0    0  0.18542429816E+02 -0.15610176013E+02 -0.21582995875E+02  0.32454968951E+02  0.00000000000E+00 0.  1.
</event>
<event>
 8    1  0.7977359E-012  0.9118800E+02  0.7816164E-02  0.1184000E+00
        -11   -1    0    0    0    0  0.00000000000E+00  0.00000000000E+00  0.45593999997E+02  0.45594000000E+02  0.51100000000E-03 0. -1.
         11   -1    0    0    0    0 -0.00000000000E+00 -0.00000000000E+00 -0.45593999997E+02  0.45594000000E+02  0.51100000000E-03 0.  1.
         23    2    1    2    0    0 -0.88817841970E-15  0.14210854715E-13 -0.35527136788E-14  0.91188000000E+02  0.91188000000E+02 0.  0.
    9900012    2    3    3    0    0 -0.60014071012E+01  0.35412114397E+02 -0.19055990007E+02  0.50528862178E+02  0.30000007077E+02 0.  0.
         12    1    3    3    0    0  0.60014071012E+01 -0.35412114397E+02  0.19055990007E+02  0.40659137822E+02  0.00000000000E+00 0. -1.
         11    1    4    4    0    0  0.10706380590E+00 -0.16577102264E+01 -0.56610705694E+01  0.58997615296E+01  0.51100000000E-03 0. -1.
        -11    1    4    4    0    0 -0.41852960185E+00  0.24032852945E+02 -0.17605539293E+02  0.29794432395E+02  0.51100000000E-03 0.  1.
         12    1    4    4    0    0 -0.56899413052E+01  0.13036971679E+02  0.42106198559E+01  0.14834668253E+02  0.00000000000E+00 0. -1.
</event>
<event>
 8    1  0.7977359E-012  0.9118800E+02  0.7816164E-02  0.1184000E+00
        -11   -1    0    0    0    0  0.00000000000E+00  0.00000000000E+00  0.45593999997E+02  0.45594000000E+02  0.51100000000E-03 0. -1.
         11   -1    0    0    0    0 -0.00000000000E+00 -0.00000000000E+00 -0.45593999997E+02  0.45594000000E+02  0.51100000000E-03 0.  1.
         23    2    1    2    0    0 -0.88817841970E-15  0.00000000000E+00  0.71054273576E-14  0.91188000000E+02  0.91188000000E+02 0.  0.
    9900012    2    3    3    0    0 -0.37582648219E+01 -0.19080073794E+02  0.35707038333E+02  0.50528851497E+02  0.29999974610E+02 0.  0.
        -12    1    3    3    0    0  0.37582648219E+01  0.19080073794E+02 -0.35707038333E+02  0.40659148503E+02  0.00000000000E+00 0.  1.
         11    1    4    4    0    0 -0.27805331835E+01 -0.51579696368E+01  0.24276244477E+02  0.24973427112E+02  0.51100000000E-03 0. -1.
        -11    1    4    4    0    0 -0.25068961466E+01 -0.11249913366E+02  0.16198189549E+02  0.19880302412E+02  0.51100000000E-03 0.  1.
        -12    1    4    4    0    0  0.15291645082E+01 -0.26721907914E+01 -0.47673956930E+01  0.56751219733E+01  0.00000000000E+00 0.  1.
</event>
<event>
 8    1  0.7977359E-012  0.9118800E+02  0.7816164E-02  0.1184000E+00
        -11   -1    0    0    0    0  0.00000000000E+00  0.00000000000E+00  0.45593999997E+02  0.45594000000E+02  0.51100000000E-03 0. -1.
         11   -1    0    0    0    0 -0.00000000000E+00 -0.00000000000E+00 -0.45593999997E+02  0.45594000000E+02  0.51100000000E-03 0.  1.
         23    2    1    2    0    0 -0.17763568394E-14  0.38857805862E-15  0.00000000000E+00  0.91188000000E+02  0.91188000000E+02 0.  0.
    9900012    2    3    3    0    0 -0.15470472601E+02  0.30648886479E+00  0.37599684273E+02  0.50528859388E+02  0.29999998595E+02 0.  0.
        -12    1    3    3    0    0  0.15470472601E+02 -0.30648886479E+00 -0.37599684273E+02  0.40659140612E+02  0.00000000000E+00 0.  1.
         11    1    4    4    0    0 -0.31041245311E+01  0.22493657346E+01  0.53251895215E+01  0.65614692724E+01  0.51100000000E-03 0. -1.
        -11    1    4    4    0    0 -0.12978931246E+02  0.10275343597E+02  0.12616945980E+02  0.20814001741E+02  0.51100000000E-03 0.  1.
        -12    1    4    4    0    0  0.61258317615E+00 -0.12218220467E+02  0.19657548771E+02  0.23153388375E+02  0.00000000000E+00 0.  1.
</event>
<event>
 8    1  0.7977359E-012  0.9118800E+02  0.7816164E-02  0.1184000E+00
        -11   -1    0    0    0    0  0.00000000000E+00  0.00000000000E+00  0.45593999997E+02  0.45594000000E+02  0.51100000000E-03 0. -1.
         11   -1    0    0    0    0 -0.00000000000E+00 -0.00000000000E+00 -0.45593999997E+02  0.45594000000E+02  0.51100000000E-03 0.  1.
         23    2    1    2    0    0  0.71054273576E-14  0.88817841970E-15  0.00000000000E+00  0.91188000000E+02  0.91188000000E+02 0.  0.
    9900012    2    3    3    0    0  0.36943816066E+02 -0.25724352383E+01  0.16783976420E+02  0.50528870238E+02  0.30000031575E+02 0.  0.
        -12    1    3    3    0    0 -0.36943816066E+02  0.25724352383E+01 -0.16783976420E+02  0.40659129762E+02  0.00000000000E+00 0.  1.
         11    1    4    4    0    0  0.36087841125E+02  0.64923154036E+01  0.97590994613E+01  0.37943674821E+02  0.51100000000E-03 0. -1.
        -11    1    4    4    0    0  0.19825394233E+01 -0.10507868053E+01  0.82548943174E+00  0.23908259113E+01  0.51100000000E-03 0.  1.
        -12    1    4    4    0    0 -0.11265644827E+01 -0.80139638366E+01  0.61993875269E+01  0.10194369506E+02  0.00000000000E+00 0.  1.
</event>
<event>
 8    1  0.7977359E-012  0.9118800E+02  0.7816164E-02  0.1184000E+00
        -11   -1    0    0    0    0  0.00000000000E+00  0.00000000000E+00  0.45593999997E+02  0.45594000000E+02  0.51100000000E-03 0. -1.
         11   -1    0    0    0    0 -0.00000000000E+00 -0.00000000000E+00 -0.45593999997E+02  0.45594000000E+02  0.51100000000E-03 0.  1.
         23    2    1    2    0    0  0.00000000000E+00  0.00000000000E+00  0.00000000000E+00  0.91188000000E+02  0.91188000000E+02 0.  0.
    9900012    2    3    3    0    0  0.23143705343E+02  0.21255443196E+02  0.25801958579E+02  0.50528855531E+02  0.29999986872E+02 0.  0.
        -12    1    3    3    0    0 -0.23143705343E+02 -0.21255443196E+02 -0.25801958579E+02  0.40659144469E+02  0.00000000000E+00 0.  1.
         11    1    4    4    0    0  0.21246302471E+01  0.89139384925E+00  0.96897768723E-01  0.23060845865E+01  0.51100000000E-03 0. -1.
        -11    1    4    4    0    0  0.10075305575E-02  0.83069866723E+00 -0.56555976503E+01  0.57162790637E+01  0.51100000000E-03 0.  1.
         12    1    4    4    0    0  0.21018067565E+02  0.19533350680E+02  0.31360658461E+02  0.42506491881E+02  0.00000000000E+00 0. -1.
</event>
<event>
 8    1  0.7977359E-012  0.9118800E+02  0.7816164E-02  0.1184000E+00
        -11   -1    0    0    0    0  0.00000000000E+00  0.00000000000E+00  0.45593999997E+02  0.45594000000E+02  0.51100000000E-03 0. -1.
         11   -1    0    0    0    0 -0.00000000000E+00 -0.00000000000E+00 -0.45593999997E+02  0.45594000000E+02  0.51100000000E-03 0.  1.
         23    2    1    2    0    0  0.00000000000E+00  0.88817841970E-15  0.00000000000E+00  0.91188000000E+02  0.91188000000E+02 0.  0.
    9900012    2    3    3    0    0  0.15210931578E+02 -0.58964164551E+01  0.37242800411E+02  0.50528851596E+02  0.29999974910E+02 0.  0.
        -12    1    3    3    0    0 -0.15210931578E+02  0.58964164551E+01 -0.37242800411E+02  0.40659148404E+02  0.00000000000E+00 0.  1.
         11    1    4    4    0    0 -0.24420031693E+01  0.18627444735E+01  0.19058060782E+02  0.19303960150E+02  0.51100000000E-03 0. -1.
        -11    1    4    4    0    0 -0.19651136027E+01  0.17599284673E+01  0.52398660794E+01  0.58664483695E+01  0.51100000000E-03 0.  1.
         12    1    4    4    0    0  0.19618048350E+02 -0.95190893959E+01  0.12944873550E+02  0.25358443076E+02  0.00000000000E+00 0. -1.
</event>
<event>
 8    1  0.7977359E-012  0.9118800E+02  0.7816164E-02  0.1184000E+00
        -11   -1    0    0    0    0  0.00000000000E+00  0.00000000000E+00  0.45593999997E+02  0.45594000000E+02  0.51100000000E-03 0. -1.
         11   -1    0    0    0    0 -0.00000000000E+00 -0.00000000000E+00 -0.45593999997E+02  0.45594000000E+02  0.51100000000E-03 0.  1.
         23    2    1    2    0    0  0.00000000000E+00 -0.35527136788E-14  0.17763568394E-14  0.91188000000E+02  0.91188000000E+02 0.  0.
    9900012    2    3    3    0    0  0.36331731115E+02  0.16331021051E+02 -0.81527169458E+01  0.50528883827E+02  0.30000072880E+02 0.  0.
         12    1    3    3    0    0 -0.36331731115E+02 -0.16331021051E+02  0.81527169458E+01  0.40659116173E+02  0.00000000000E+00 0. -1.
         11    1    4    4    0    0  0.11594500400E+02  0.74278275860E+01  0.36379248599E+01  0.14242175386E+02  0.51100000000E-03 0. -1.
        -11    1    4    4    0    0  0.62286967184E+00  0.14434280905E+01  0.54806167413E+01  0.57016323458E+01  0.51100000000E-03 0.  1.
        -12    1    4    4    0    0  0.24114361043E+02  0.74597653742E+01 -0.17271258547E+02  0.30585076096E+02  0.00000000000E+00 0.  1.
</event>
<event>
 8    1  0.7977359E-012  0.9118800E+02  0.7816164E-02  0.1184000E+00
        -11   -1    0    0    0    0  0.00000000000E+00  0.00000000000E+00  0.45593999997E+02  0.45594000000E+02  0.51100000000E-03 0. -1.
         11   -1    0    0    0    0 -0.00000000000E+00 -0.00000000000E+00 -0.45593999997E+02  0.45594000000E+02  0.51100000000E-03 0.  1.
         23    2    1    2    0    0  0.00000000000E+00 -0.35527136788E-14  0.00000000000E+00  0.91188000000E+02  0.91188000000E+02 0.  0.
    9900012    2    3    3    0    0 -0.17529422601E+02  0.29295560235E+02  0.22082954807E+02  0.50528838681E+02  0.29999935654E+02 0.  0.
        -12    1    3    3    0    0  0.17529422601E+02 -0.29295560235E+02 -0.22082954807E+02  0.40659161319E+02  0.00000000000E+00 0.  1.
         11    1    4    4    0    0 -0.11917420189E+02  0.11342124171E+02 -0.27065060594E+01  0.16673147873E+02  0.51100000000E-03 0.  1.
        -11    1    4    4    0    0  0.32798596990E+01  0.29052068763E+01  0.12880095851E+01  0.45669109463E+01  0.51100000000E-03 0. -1.
         12    1    4    4    0    0 -0.88918621104E+01  0.15048229187E+02  0.23501451281E+02  0.29288779862E+02  0.00000000000E+00 0. -1.
</event>
<event>
 8    1  0.7977359E-012  0.9118800E+02  0.7816164E-02  0.1184000E+00
        -11   -1    0    0    0    0  0.00000000000E+00  0.00000000000E+00  0.45593999997E+02  0.45594000000E+02  0.51100000000E-03 0. -1.
         11   -1    0    0    0    0 -0.00000000000E+00 -0.00000000000E+00 -0.45593999997E+02  0.45594000000E+02  0.51100000000E-03 0.  1.
         23    2    1    2    0    0  0.00000000000E+00  0.00000000000E+00  0.35527136788E-14  0.91188000000E+02  0.91188000000E+02 0.  0.
    9900012    2    3    3    0    0  0.12225893087E+02  0.24613007716E+02 -0.29964871351E+02  0.50528854342E+02  0.29999983256E+02 0.  0.
         12    1    3    3    0    0 -0.12225893087E+02 -0.24613007716E+02  0.29964871351E+02  0.40659145658E+02  0.00000000000E+00 0. -1.
         11    1    4    4    0    0 -0.46590714630E+01  0.44840773563E+01 -0.60612513832E+01  0.88629941457E+01  0.51100000000E-03 0. -1.
        -11    1    4    4    0    0 -0.20557658873E+01  0.12107943031E+02 -0.14634064221E+02  0.19104562118E+02  0.51100000000E-03 0.  1.
        -12    1    4    4    0    0  0.18940730437E+02  0.80209873292E+01 -0.92695557461E+01  0.22561298078E+02  0.00000000000E+00 0.  1.
</event>
<event>
 8    1  0.7977359E-012  0.9118800E+02  0.7816164E-02  0.1184000E+00
        -11   -1    0    0    0    0  0.00000000000E+00  0.00000000000E+00  0.45593999997E+02  0.45594000000E+02  0.51100000000E-03 0. -1.
         11   -1    0    0    0    0 -0.00000000000E+00 -0.00000000000E+00 -0.45593999997E+02  0.45594000000E+02  0.51100000000E-03 0.  1.
         23    2    1    2    0    0  0.00000000000E+00  0.00000000000E+00 -0.35527136788E-14  0.91188000000E+02  0.91188000000E+02 0.  0.
    9900012    2    3    3    0    0  0.22596178311E+02  0.20191243415E+02  0.27108879696E+02  0.50528868882E+02  0.30000027453E+02 0.  0.
        -12    1    3    3    0    0 -0.22596178311E+02 -0.20191243415E+02 -0.27108879696E+02  0.40659131118E+02  0.00000000000E+00 0.  1.
         11    1    4    4    0    0  0.19797796842E+02  0.17311549105E+02  0.19909224651E+02  0.32985143909E+02  0.51100000000E-03 0. -1.
        -11    1    4    4    0    0  0.36940279824E+01  0.49309051165E+01 -0.31744903192E+01  0.69308770765E+01  0.51100000000E-03 0.  1.
        -12    1    4    4    0    0 -0.89564651351E+00 -0.20512108059E+01  0.10374145364E+02  0.10612847897E+02  0.00000000000E+00 0.  1.
</event>
<event>
 8    1  0.7977359E-012  0.9118800E+02  0.7816164E-02  0.1184000E+00
        -11   -1    0    0    0    0  0.00000000000E+00  0.00000000000E+00  0.45593999997E+02  0.45594000000E+02  0.51100000000E-03 0. -1.
         11   -1    0    0    0    0 -0.00000000000E+00 -0.00000000000E+00 -0.45593999997E+02  0.45594000000E+02  0.51100000000E-03 0.  1.
         23    2    1    2    0    0  0.00000000000E+00  0.00000000000E+00  0.00000000000E+00  0.91188000000E+02  0.91188000000E+02 0.  0.
    9900012    2    3    3    0    0  0.14021421010E+02  0.21120017058E+02  0.31788530621E+02  0.50528855313E+02  0.29999986208E+02 0.  0.
        -12    1    3    3    0    0 -0.14021421010E+02 -0.21120017058E+02 -0.31788530621E+02  0.40659144687E+02  0.00000000000E+00 0.  1.
         11    1    4    4    0    0  0.92201519010E+01  0.27329661777E+01  0.21030613578E+02  0.23125030009E+02  0.51100000000E-03 0. -1.
        -11    1    4    4    0    0  0.60123416460E+01 -0.72269217890E+00  0.25375694366E+01  0.65658049743E+01  0.51100000000E-03 0.  1.
        -12    1    4    4    0    0 -0.12110725366E+01  0.19109743059E+02  0.82203476066E+01  0.20838020329E+02  0.00000000000E+00 0.  1.
</event>
<event>
 8    1  0.7977359E-012  0.9118800E+02  0.7816164E-02  0.1184000E+00
        -11   -1    0    0    0    0  0.00000000000E+00  0.00000000000E+00  0.45593999997E+02  0.45594000000E+02  0.51100000000E-03 0. -1.
         11   -1    0    0    0    0 -0.00000000000E+00 -0.00000000000E+00 -0.45593999997E+02  0.45594000000E+02  0.51100000000E-03 0.  1.
         23    2    1    2    0    0  0.00000000000E+00  0.00000000000E+00  0.35527136788E-14  0.91188000000E+02  0.91188000000E+02 0.  0.
    9900012    2    3    3    0    0  0.17737379719E+02 -0.21688565510E+02 -0.29464511739E+02  0.50528856315E+02  0.29999989256E+02 0.  0.
         12    1    3    3    0    0 -0.17737379719E+02  0.21688565510E+02  0.29464511739E+02  0.40659143685E+02  0.00000000000E+00 0. -1.
         11    1    4    4    0    0  0.19124847405E+02 -0.20931368988E+02 -0.20359147330E+02  0.34905255711E+02  0.51100000000E-03 0. -1.
        -11    1    4    4    0    0 -0.22026013445E+01 -0.23959022144E+01 -0.11869975135E+02  0.12308050620E+02  0.51100000000E-03 0.  1.
        -12    1    4    4    0    0  0.81513365871E+00  0.16387056929E+01  0.27646107262E+01  0.33155499841E+01  0.00000000000E+00 0.  1.
</event>
<event>
 8    1  0.7977359E-012  0.9118800E+02  0.7816164E-02  0.1184000E+00
        -11   -1    0    0    0    0  0.00000000000E+00  0.00000000000E+00  0.45593999997E+02  0.45594000000E+02  0.51100000000E-03 0. -1.
         11   -1    0    0    0    0 -0.00000000000E+00 -0.00000000000E+00 -0.45593999997E+02  0.45594000000E+02  0.51100000000E-03 0.  1.
         23    2    1    2    0    0  0.00000000000E+00  0.35527136788E-14  0.00000000000E+00  0.91188000000E+02  0.91188000000E+02 0.  0.
    9900012    2    3    3    0    0 -0.19252517511E+02  0.30040980769E+02  0.19494757023E+02  0.50528861944E+02  0.30000006365E+02 0.  0.
        -12    1    3    3    0    0  0.19252517511E+02 -0.30040980769E+02 -0.19494757023E+02  0.40659138056E+02  0.00000000000E+00 0.  1.
         11    1    4    4    0    0 -0.79784903610E+00  0.62404281312E+01 -0.41380682903E+00  0.63048190059E+01  0.51100000000E-03 0. -1.
        -11    1    4    4    0    0 -0.18122176713E+02  0.15445165527E+02  0.13274198178E+01  0.23848028652E+02  0.51100000000E-03 0.  1.
         12    1    4    4    0    0 -0.33249176217E+00  0.83553871110E+01  0.18581144035E+02  0.20376014286E+02  0.00000000000E+00 0. -1.
</event>
<event>
 8    1  0.7977359E-012  0.9118800E+02  0.7816164E-02  0.1184000E+00
        -11   -1    0    0    0    0  0.00000000000E+00  0.00000000000E+00  0.45593999997E+02  0.45594000000E+02  0.51100000000E-03 0.  1.
         11   -1    0    0    0    0 -0.00000000000E+00 -0.00000000000E+00 -0.45593999997E+02  0.45594000000E+02  0.51100000000E-03 0. -1.
         23    2    1    2    0    0  0.00000000000E+00  0.00000000000E+00 -0.26645352591E-14  0.91188000000E+02  0.91188000000E+02 0.  0.
    9900012    2    3    3    0    0 -0.79081939620E+01 -0.39851060469E+02 -0.15871407114E+01  0.50528861200E+02  0.30000004105E+02 0.  0.
        -12    1    3    3    0    0  0.79081939620E+01  0.39851060469E+02  0.15871407114E+01  0.40659138800E+02  0.00000000000E+00 0.  1.
         11    1    4    4    0    0 -0.74838826978E+00 -0.42555164472E+01  0.84935686189E+01  0.95294393004E+01  0.51100000000E-03 0. -1.
        -11    1    4    4    0    0 -0.69006738008E+01 -0.53663461340E+01  0.10079063171E+01  0.87995934645E+01  0.51100000000E-03 0.  1.
         12    1    4    4    0    0 -0.25913189141E+00 -0.30229197888E+02 -0.11088615647E+02  0.32199828436E+02  0.00000000000E+00 0. -1.
</event>
<event>
 8    1  0.7977359E-012  0.9118800E+02  0.7816164E-02  0.1184000E+00
        -11   -1    0    0    0    0  0.00000000000E+00  0.00000000000E+00  0.45593999997E+02  0.45594000000E+02  0.51100000000E-03 0. -1.
         11   -1    0    0    0    0 -0.00000000000E+00 -0.00000000000E+00 -0.45593999997E+02  0.45594000000E+02  0.51100000000E-03 0.  1.
         23    2    1    2    0    0  0.00000000000E+00  0.35527136788E-14 -0.35527136788E-14  0.91188000000E+02  0.91188000000E+02 0.  0.
    9900012    2    3    3    0    0 -0.10636201987E+02 -0.25223626070E+02 -0.30063377806E+02  0.50528846173E+02  0.29999958427E+02 0.  0.
         12    1    3    3    0    0  0.10636201987E+02  0.25223626070E+02  0.30063377806E+02  0.40659153827E+02  0.00000000000E+00 0. -1.
         11    1    4    4    0    0 -0.38582849370E+01 -0.55983280160E+01 -0.27819599778E+02  0.28638396801E+02  0.51100000000E-03 0. -1.
        -11    1    4    4    0    0 -0.97261833313E+00 -0.12645509314E+02 -0.16917864407E+01  0.12795195733E+02  0.51100000000E-03 0.  1.
        -12    1    4    4    0    0 -0.58052987165E+01 -0.69797887403E+01 -0.55199158722E+00  0.90952536391E+01  0.00000000000E+00 0.  1.
</event>
<event>
 8    1  0.8978114E-012  0.9118800E+02  0.7816164E-02  0.1184000E+00
        -11   -1    0    0    0    0  0.00000000000E+00  0.00000000000E+00  0.45593999997E+02  0.45594000000E+02  0.51100000000E-03 0. -1.
         11   -1    0    0    0    0 -0.00000000000E+00 -0.00000000000E+00 -0.45593999997E+02  0.45594000000E+02  0.51100000000E-03 0.  1.
         23    2    1    2    0    0 -0.35527136788E-14  0.17763568394E-14  0.71054273576E-14  0.91188000000E+02  0.91188000000E+02 0.  0.
    9900012    2    3    3    0    0 -0.19605889864E+02  0.13030914145E+02  0.33150722209E+02  0.50528855594E+02  0.29999987064E+02 0.  0.
        -12    1    3    3    0    0  0.19605889864E+02 -0.13030914145E+02 -0.33150722209E+02  0.40659144406E+02  0.00000000000E+00 0.  1.
         11    1    4    4    0    0 -0.16110440514E+02  0.84862351292E+01  0.29544920092E+02  0.34705399922E+02  0.51100000000E-03 0. -1.
        -11    1    4    4    0    0 -0.74531423154E+01  0.22767562433E+00  0.59253581328E+01  0.95242341333E+01  0.51100000000E-03 0.  1.
        -12    1    4    4    0    0  0.39576929655E+01  0.43170033910E+01 -0.23195560153E+01  0.62992215388E+01  0.00000000000E+00 0.  1.
</event>
<event>
 8    1  0.7977359E-012  0.9118800E+02  0.7816164E-02  0.1184000E+00
        -11   -1    0    0    0    0  0.00000000000E+00  0.00000000000E+00  0.45593999997E+02  0.45594000000E+02  0.51100000000E-03 0. -1.
         11   -1    0    0    0    0 -0.00000000000E+00 -0.00000000000E+00 -0.45593999997E+02  0.45594000000E+02  0.51100000000E-03 0.  1.
         23    2    1    2    0    0  0.00000000000E+00 -0.88817841970E-15  0.35527136788E-14  0.91188000000E+02  0.91188000000E+02 0.  0.
    9900012    2    3    3    0    0 -0.29402991060E+02  0.55885723240E+01  0.27520863803E+02  0.50528856276E+02  0.29999989137E+02 0.  0.
        -12    1    3    3    0    0  0.29402991060E+02 -0.55885723240E+01 -0.27520863803E+02  0.40659143724E+02  0.00000000000E+00 0.  1.
         11    1    4    4    0    0 -0.17757684290E+01  0.43203291638E+01  0.33979234655E+00  0.46833809045E+01  0.51100000000E-03 0. -1.
        -11    1    4    4    0    0 -0.62966743851E+01  0.32392408377E+01 -0.39103418608E+01  0.80889778863E+01  0.51100000000E-03 0.  1.
         12    1    4    4    0    0 -0.21330548246E+02 -0.19709976774E+01  0.31091413317E+02  0.37756497485E+02  0.00000000000E+00 0. -1.
</event>
<event>
 8    1  0.7977359E-012  0.9118800E+02  0.7816164E-02  0.1184000E+00
        -11   -1    0    0    0    0  0.00000000000E+00  0.00000000000E+00  0.45593999997E+02  0.45594000000E+02  0.51100000000E-03 0. -1.
         11   -1    0    0    0    0 -0.00000000000E+00 -0.00000000000E+00 -0.45593999997E+02  0.45594000000E+02  0.51100000000E-03 0.  1.
         23    2    1    2    0    0 -0.88817841970E-15  0.17763568394E-14  0.00000000000E+00  0.91188000000E+02  0.91188000000E+02 0.  0.
    9900012    2    3    3    0    0  0.51752730630E+01 -0.73266933832E+01  0.39657305556E+02  0.50528858701E+02  0.29999996508E+02 0.  0.
        -12    1    3    3    0    0 -0.51752730630E+01  0.73266933832E+01 -0.39657305556E+02  0.40659141299E+02  0.00000000000E+00 0.  1.
         11    1    4    4    0    0  0.67351201704E+01 -0.12629793384E+01  0.38675381285E+01  0.78685965683E+01  0.51100000000E-03 0. -1.
        -11    1    4    4    0    0  0.44355808727E+01 -0.12501968953E+02  0.14652944783E+02  0.19765687351E+02  0.51100000000E-03 0.  1.
        -12    1    4    4    0    0 -0.59954279801E+01  0.64382549087E+01  0.21136822644E+02  0.22894574781E+02  0.00000000000E+00 0.  1.
</event>
<event>
 8    1  0.7977359E-012  0.9118800E+02  0.7816164E-02  0.1184000E+00
        -11   -1    0    0    0    0  0.00000000000E+00  0.00000000000E+00  0.45593999997E+02  0.45594000000E+02  0.51100000000E-03 0.  1.
         11   -1    0    0    0    0 -0.00000000000E+00 -0.00000000000E+00 -0.45593999997E+02  0.45594000000E+02  0.51100000000E-03 0. -1.
         23    2    1    2    0    0  0.35527136788E-14  0.00000000000E+00  0.00000000000E+00  0.91188000000E+02  0.91188000000E+02 0.  0.
    9900012    2    3    3    0    0  0.27142264212E+02 -0.21514280283E+02 -0.21297861090E+02  0.50528860195E+02  0.30000001049E+02 0.  0.
         12    1    3    3    0    0 -0.27142264212E+02  0.21514280283E+02  0.21297861090E+02  0.40659139805E+02  0.00000000000E+00 0. -1.
         11    1    4    4    0    0  0.50670182849E+01 -0.32728895936E+01  0.24380686912E+01  0.65062016412E+01  0.51100000000E-03 0. -1.
        -11    1    4    4    0    0  0.18719227334E+02 -0.14876996523E+02 -0.46562675374E+01  0.24360117511E+02  0.51100000000E-03 0.  1.
        -12    1    4    4    0    0  0.33560185934E+01 -0.33643941657E+01 -0.19079662244E+02  0.19662541043E+02  0.00000000000E+00 0.  1.
</event>
<event>
 8    1  0.7977359E-012  0.9118800E+02  0.7816164E-02  0.1184000E+00
        -11   -1    0    0    0    0  0.00000000000E+00  0.00000000000E+00  0.45593999997E+02  0.45594000000E+02  0.51100000000E-03 0. -1.
         11   -1    0    0    0    0 -0.00000000000E+00 -0.00000000000E+00 -0.45593999997E+02  0.45594000000E+02  0.51100000000E-03 0.  1.
         23    2    1    2    0    0  0.00000000000E+00  0.00000000000E+00  0.35527136788E-14  0.91188000000E+02  0.91188000000E+02 0.  0.
    9900012    2    3    3    0    0  0.16461972399E+02 -0.19105812591E+02  0.31892536415E+02  0.50528899063E+02  0.30000119191E+02 0.  0.
        -12    1    3    3    0    0 -0.16461972399E+02  0.19105812591E+02 -0.31892536415E+02  0.40659100937E+02  0.00000000000E+00 0.  1.
         11    1    4    4    0    0  0.78869183316E+01 -0.99048100485E+01  0.35970313734E+01  0.13162346973E+02  0.51100000000E-03 0. -1.
        -11    1    4    4    0    0  0.10335134232E+02 -0.10426775493E+02  0.75466021591E+01  0.16507084878E+02  0.51100000000E-03 0.  1.
         12    1    4    4    0    0 -0.17600801644E+01  0.12257729504E+01  0.20748902883E+02  0.20859467212E+02  0.00000000000E+00 0. -1.
</event>
<event>
 8    1  0.7977359E-012  0.9118800E+02  0.7816164E-02  0.1184000E+00
        -11   -1    0    0    0    0  0.00000000000E+00  0.00000000000E+00  0.45593999997E+02  0.45594000000E+02  0.51100000000E-03 0. -1.
         11   -1    0    0    0    0 -0.00000000000E+00 -0.00000000000E+00 -0.45593999997E+02  0.45594000000E+02  0.51100000000E-03 0.  1.
         23    2    1    2    0    0  0.00000000000E+00  0.00000000000E+00  0.00000000000E+00  0.91188000000E+02  0.91188000000E+02 0.  0.
    9900012    2    3    3    0    0 -0.37925181116E+02 -0.93048250640E+01  0.11325486109E+02  0.50528858743E+02  0.29999996636E+02 0.  0.
        -12    1    3    3    0    0  0.37925181116E+02  0.93048250640E+01 -0.11325486109E+02  0.40659141257E+02  0.00000000000E+00 0.  1.
         11    1    4    4    0    0 -0.16290018721E+02  0.31951283206E+01  0.18665988363E+01  0.16705021592E+02  0.51100000000E-03 0. -1.
        -11    1    4    4    0    0 -0.79199234304E+00  0.46205973746E+01 -0.11704331716E+01  0.48318822461E+01  0.51100000000E-03 0.  1.
        -12    1    4    4    0    0 -0.20843170052E+02 -0.17120550759E+02  0.10629320445E+02  0.28991954905E+02  0.00000000000E+00 0.  1.
</event>
<event>
 8    1  0.7977359E-012  0.9118800E+02  0.7816164E-02  0.1184000E+00
        -11   -1    0    0    0    0  0.00000000000E+00  0.00000000000E+00  0.45593999997E+02  0.45594000000E+02  0.51100000000E-03 0. -1.
         11   -1    0    0    0    0 -0.00000000000E+00 -0.00000000000E+00 -0.45593999997E+02  0.45594000000E+02  0.51100000000E-03 0.  1.
         23    2    1    2    0    0 -0.35527136788E-14  0.00000000000E+00 -0.35527136788E-14  0.91188000000E+02  0.91188000000E+02 0.  0.
    9900012    2    3    3    0    0 -0.26699925639E+02  0.61952871225E+01 -0.30031639658E+02  0.50528843685E+02  0.29999950866E+02 0.  0.
         12    1    3    3    0    0  0.26699925639E+02 -0.61952871225E+01  0.30031639658E+02  0.40659156315E+02  0.00000000000E+00 0. -1.
         11    1    4    4    0    0 -0.20307130146E+02 -0.31644024207E+01 -0.24699909093E+02  0.32132203269E+02  0.51100000000E-03 0. -1.
        -11    1    4    4    0    0 -0.97776782950E+01  0.72499897689E+01 -0.70356965462E+01  0.14059387278E+02  0.51100000000E-03 0.  1.
         12    1    4    4    0    0  0.33848828023E+01  0.21096997743E+01  0.17039659804E+01  0.43372531382E+01  0.00000000000E+00 0. -1.
</event>
<event>
 8    1  0.7977359E-012  0.9118800E+02  0.7816164E-02  0.1184000E+00
        -11   -1    0    0    0    0  0.00000000000E+00  0.00000000000E+00  0.45593999997E+02  0.45594000000E+02  0.51100000000E-03 0. -1.
         11   -1    0    0    0    0 -0.00000000000E+00 -0.00000000000E+00 -0.45593999997E+02  0.45594000000E+02  0.51100000000E-03 0.  1.
         23    2    1    2    0    0  0.00000000000E+00  0.00000000000E+00  0.00000000000E+00  0.91188000000E+02  0.91188000000E+02 0.  0.
    9900012    2    3    3    0    0  0.12346732536E+02  0.11027558207E+02 -0.37136472939E+02  0.50528850148E+02  0.29999970510E+02 0.  0.
         12    1    3    3    0    0 -0.12346732536E+02 -0.11027558207E+02  0.37136472939E+02  0.40659149852E+02  0.00000000000E+00 0. -1.
         11    1    4    4    0    0 -0.20831340587E+01  0.46330698140E+01  0.20844898992E-01  0.50798836777E+01  0.51100000000E-03 0. -1.
        -11    1    4    4    0    0  0.10406946219E+02  0.12242534352E+02 -0.14282725784E+02  0.21498382104E+02  0.51100000000E-03 0.  1.
         12    1    4    4    0    0  0.40229203754E+01 -0.58480459590E+01 -0.22874592054E+02  0.23950584367E+02  0.00000000000E+00 0. -1.
</event>
<event>
 8    1  0.7977359E-012  0.9118800E+02  0.7816164E-02  0.1184000E+00
        -11   -1    0    0    0    0  0.00000000000E+00  0.00000000000E+00  0.45593999997E+02  0.45594000000E+02  0.51100000000E-03 0.  1.
         11   -1    0    0    0    0 -0.00000000000E+00 -0.00000000000E+00 -0.45593999997E+02  0.45594000000E+02  0.51100000000E-03 0. -1.
         23    2    1    2    0    0  0.00000000000E+00  0.71054273576E-14  0.00000000000E+00  0.91188000000E+02  0.91188000000E+02 0.  0.
    9900012    2    3    3    0    0 -0.17295440263E+02 -0.36306541491E+02  0.59890216795E+01  0.50528860934E+02  0.30000003295E+02 0.  0.
        -12    1    3    3    0    0  0.17295440263E+02  0.36306541491E+02 -0.59890216795E+01  0.40659139066E+02  0.00000000000E+00 0.  1.
         11    1    4    4    0    0 -0.34317855567E+01 -0.11271549790E+02 -0.33956807738E+01  0.12261958854E+02  0.51100000000E-03 0. -1.
        -11    1    4    4    0    0  0.44744258506E+01 -0.91834434171E+01 -0.35216419159E+01  0.10805465364E+02  0.51100000000E-03 0.  1.
        -12    1    4    4    0    0 -0.18338080556E+02 -0.15851548284E+02  0.12906344369E+02  0.27461436715E+02  0.00000000000E+00 0.  1.
</event>
<event>
 8    1  0.7977359E-012  0.9118800E+02  0.7816164E-02  0.1184000E+00
        -11   -1    0    0    0    0  0.00000000000E+00  0.00000000000E+00  0.45593999997E+02  0.45594000000E+02  0.51100000000E-03 0. -1.
         11   -1    0    0    0    0 -0.00000000000E+00 -0.00000000000E+00 -0.45593999997E+02  0.45594000000E+02  0.51100000000E-03 0.  1.
         23    2    1    2    0    0 -0.17763568394E-14  0.00000000000E+00  0.00000000000E+00  0.91188000000E+02  0.91188000000E+02 0.  0.
    9900012    2    3    3    0    0 -0.85847525752E+01  0.11705035638E+02  0.37979727768E+02  0.50528861329E+02  0.30000004497E+02 0.  0.
        -12    1    3    3    0    0  0.85847525752E+01 -0.11705035638E+02 -0.37979727768E+02  0.40659138671E+02  0.00000000000E+00 0.  1.
         11    1    4    4    0    0 -0.11278017557E+02  0.42916814317E+01  0.26425723435E+02  0.29050491714E+02  0.51100000000E-03 0. -1.
        -11    1    4    4    0    0 -0.52669860227E+01  0.81152773083E+01  0.39577354934E+01  0.10452872239E+02  0.51100000000E-03 0.  1.
         12    1    4    4    0    0  0.79602510043E+01 -0.70192310156E+00  0.75962688402E+01  0.11025497376E+02  0.00000000000E+00 0. -1.
</event>
<event>
 8    1  0.7977359E-012  0.9118800E+02  0.7816164E-02  0.1184000E+00
        -11   -1    0    0    0    0  0.00000000000E+00  0.00000000000E+00  0.45593999997E+02  0.45594000000E+02  0.51100000000E-03 0. -1.
         11   -1    0    0    0    0 -0.00000000000E+00 -0.00000000000E+00 -0.45593999997E+02  0.45594000000E+02  0.51100000000E-03 0.  1.
         23    2    1    2    0    0 -0.88817841970E-15  0.35527136788E-14  0.00000000000E+00  0.91188000000E+02  0.91188000000E+02 0.  0.
    9900012    2    3    3    0    0 -0.78271582273E+01  0.28218561187E+02  0.28206628413E+02  0.50528862186E+02  0.30000007100E+02 0.  0.
        -12    1    3    3    0    0  0.78271582273E+01 -0.28218561187E+02 -0.28206628413E+02  0.40659137814E+02  0.00000000000E+00 0.  1.
         11    1    4    4    0    0  0.27576695603E+01  0.34157042898E+01  0.11091353964E+02  0.11928533448E+02  0.51100000000E-03 0. -1.
        -11    1    4    4    0    0  0.37106486427E+01  0.11222407461E+02  0.14504120040E+02  0.18710447375E+02  0.51100000000E-03 0.  1.
        -12    1    4    4    0    0 -0.14295476430E+02  0.13580449437E+02  0.26111544078E+01  0.19889881362E+02  0.00000000000E+00 0.  1.
</event>
<event>
 8    1  0.7977359E-012  0.9118800E+02  0.7816164E-02  0.1184000E+00
        -11   -1    0    0    0    0  0.00000000000E+00  0.00000000000E+00  0.45593999997E+02  0.45594000000E+02  0.51100000000E-03 0. -1.
         11   -1    0    0    0    0 -0.00000000000E+00 -0.00000000000E+00 -0.45593999997E+02  0.45594000000E+02  0.51100000000E-03 0.  1.
         23    2    1    2    0    0  0.00000000000E+00  0.00000000000E+00  0.00000000000E+00  0.91188000000E+02  0.91188000000E+02 0.  0.
    9900012    2    3    3    0    0  0.37438494481E+02  0.47211307476E+01 -0.15140548751E+02  0.50528853907E+02  0.29999981936E+02 0.  0.
         12    1    3    3    0    0 -0.37438494481E+02 -0.47211307476E+01  0.15140548751E+02  0.40659146093E+02  0.00000000000E+00 0. -1.
         11    1    4    4    0    0  0.79261511223E+01 -0.27135861245E+01  0.34554371507E+01  0.90624206166E+01  0.51100000000E-03 0. -1.
        -11    1    4    4    0    0  0.29216466824E+02 -0.30647614694E+00 -0.15897940475E+02  0.33263198477E+02  0.51100000000E-03 0.  1.
        -12    1    4    4    0    0  0.29587653413E+00  0.77411930191E+01 -0.26980454274E+01  0.82032348138E+01  0.00000000000E+00 0.  1.
</event>
<event>
 8    1  0.7977359E-012  0.9118800E+02  0.7816164E-02  0.1184000E+00
        -11   -1    0    0    0    0  0.00000000000E+00  0.00000000000E+00  0.45593999997E+02  0.45594000000E+02  0.51100000000E-03 0. -1.
         11   -1    0    0    0    0 -0.00000000000E+00 -0.00000000000E+00 -0.45593999997E+02  0.45594000000E+02  0.51100000000E-03 0.  1.
         23    2    1    2    0    0 -0.17763568394E-14 -0.35527136788E-14 -0.35527136788E-14  0.91188000000E+02  0.91188000000E+02 0.  0.
    9900012    2    3    3    0    0  0.15800829743E+02 -0.31865527163E+02 -0.19699959947E+02  0.50528850183E+02  0.29999970616E+02 0.  0.
         12    1    3    3    0    0 -0.15800829743E+02  0.31865527163E+02  0.19699959947E+02  0.40659149817E+02  0.00000000000E+00 0. -1.
         11    1    4    4    0    0  0.33167721183E+01  0.13388938570E+01 -0.42929752909E+01  0.55877769421E+01  0.51100000000E-03 0. -1.
        -11    1    4    4    0    0 -0.54405189516E+01 -0.13162935640E+01 -0.27150494870E+01  0.62212031945E+01  0.51100000000E-03 0.  1.
        -12    1    4    4    0    0  0.17924576576E+02 -0.31888127456E+02 -0.12691935170E+02  0.38719870046E+02  0.00000000000E+00 0.  1.
</event>
<event>
 8    1  0.7977359E-012  0.9118800E+02  0.7816164E-02  0.1184000E+00
        -11   -1    0    0    0    0  0.00000000000E+00  0.00000000000E+00  0.45593999997E+02  0.45594000000E+02  0.51100000000E-03 0. -1.
         11   -1    0    0    0    0 -0.00000000000E+00 -0.00000000000E+00 -0.45593999997E+02  0.45594000000E+02  0.51100000000E-03 0.  1.
         23    2    1    2    0    0  0.00000000000E+00 -0.35527136788E-14 -0.35527136788E-14  0.91188000000E+02  0.91188000000E+02 0.  0.
    9900012    2    3    3    0    0 -0.20154187918E+02  0.24823213294E+02  0.25115367805E+02  0.50528869305E+02  0.30000028741E+02 0.  0.
        -12    1    3    3    0    0  0.20154187918E+02 -0.24823213294E+02 -0.25115367805E+02  0.40659130695E+02  0.00000000000E+00 0.  1.
         11    1    4    4    0    0 -0.23611349291E+02  0.18596674492E+02  0.19314281632E+02  0.35726371111E+02  0.51100000000E-03 0. -1.
        -11    1    4    4    0    0 -0.35183476054E+01  0.50936816903E+01  0.44078389004E+01  0.75995662421E+01  0.51100000000E-03 0.  1.
        -12    1    4    4    0    0  0.69755089790E+01  0.11328571113E+01  0.13932472728E+01  0.72029319526E+01  0.00000000000E+00 0.  1.
</event>
<event>
 8    1  0.7977359E-012  0.9118800E+02  0.7816164E-02  0.1184000E+00
        -11   -1    0    0    0    0  0.00000000000E+00  0.00000000000E+00  0.45593999997E+02  0.45594000000E+02  0.51100000000E-03 0. -1.
         11   -1    0    0    0    0 -0.00000000000E+00 -0.00000000000E+00 -0.45593999997E+02  0.45594000000E+02  0.51100000000E-03 0.  1.
         23    2    1    2    0    0  0.00000000000E+00  0.00000000000E+00  0.00000000000E+00  0.91188000000E+02  0.91188000000E+02 0.  0.
    9900012    2    3    3    0    0 -0.37086864409E+02  0.98031160429E+01  0.13477003831E+02  0.50528853082E+02  0.29999979427E+02 0.  0.
        -12    1    3    3    0    0  0.37086864409E+02 -0.98031160429E+01 -0.13477003831E+02  0.40659146918E+02  0.00000000000E+00 0.  1.
         11    1    4    4    0    0  0.67539627721E+00 -0.23907846878E+01 -0.28119317139E+01  0.37521955944E+01  0.51100000000E-03 0. -1.
        -11    1    4    4    0    0 -0.12418434116E+02  0.47965002311E+01  0.15405432987E+02  0.20360532560E+02  0.51100000000E-03 0.  1.
         12    1    4    4    0    0 -0.25343826570E+02  0.73974004996E+01  0.88350255782E+00  0.26416124927E+02  0.00000000000E+00 0. -1.
</event>
<event>
 8    1  0.7977359E-012  0.9118800E+02  0.7816164E-02  0.1184000E+00
        -11   -1    0    0    0    0  0.00000000000E+00  0.00000000000E+00  0.45593999997E+02  0.45594000000E+02  0.51100000000E-03 0. -1.
         11   -1    0    0    0    0 -0.00000000000E+00 -0.00000000000E+00 -0.45593999997E+02  0.45594000000E+02  0.51100000000E-03 0.  1.
         23    2    1    2    0    0  0.35527136788E-14  0.00000000000E+00  0.00000000000E+00  0.91188000000E+02  0.91188000000E+02 0.  0.
    9900012    2    3    3    0    0 -0.17304248697E+02 -0.34390658570E+02 -0.13077178371E+02  0.50528843418E+02  0.29999950052E+02 0.  0.
         12    1    3    3    0    0  0.17304248697E+02  0.34390658570E+02  0.13077178371E+02  0.40659156582E+02  0.00000000000E+00 0. -1.
         11    1    4    4    0    0 -0.17062194433E+02 -0.24575422069E+02 -0.14856495496E+02  0.33403372695E+02  0.51100000000E-03 0. -1.
        -11    1    4    4    0    0 -0.37739507401E+01 -0.61559590514E+01 -0.49029818175E+01  0.87279875684E+01  0.51100000000E-03 0.  1.
         12    1    4    4    0    0  0.35318964764E+01 -0.36592774497E+01  0.66822989419E+01  0.83974831540E+01  0.00000000000E+00 0. -1.
</event>
<event>
 8    1  0.7977359E-012  0.9118800E+02  0.7816164E-02  0.1184000E+00
        -11   -1    0    0    0    0  0.00000000000E+00  0.00000000000E+00  0.45593999997E+02  0.45594000000E+02  0.51100000000E-03 0. -1.
         11   -1    0    0    0    0 -0.00000000000E+00 -0.00000000000E+00 -0.45593999997E+02  0.45594000000E+02  0.51100000000E-03 0.  1.
         23    2    1    2    0    0  0.00000000000E+00  0.00000000000E+00  0.35527136788E-14  0.91188000000E+02  0.91188000000E+02 0.  0.
    9900012    2    3    3    0    0  0.33644636683E+02 -0.18507162487E+01 -0.22754747297E+02  0.50528865077E+02  0.30000015888E+02 0.  0.
         12    1    3    3    0    0 -0.33644636683E+02  0.18507162487E+01  0.22754747297E+02  0.40659134923E+02  0.00000000000E+00 0. -1.
         11    1    4    4    0    0  0.11640225279E+00 -0.10049567850E+01  0.25133864830E+01  0.27093540739E+01  0.51100000000E-03 0.  1.
        -11    1    4    4    0    0  0.73438339632E+01  0.14469010396E+01  0.39954078253E+01  0.84846157161E+01  0.51100000000E-03 0. -1.
        -12    1    4    4    0    0  0.26184400467E+02 -0.22926605033E+01 -0.29263541605E+02  0.39334895287E+02  0.00000000000E+00 0.  1.
</event>
<event>
 8    1  0.7977359E-012  0.9118800E+02  0.7816164E-02  0.1184000E+00
        -11   -1    0    0    0    0  0.00000000000E+00  0.00000000000E+00  0.45593999997E+02  0.45594000000E+02  0.51100000000E-03 0. -1.
         11   -1    0    0    0    0 -0.00000000000E+00 -0.00000000000E+00 -0.45593999997E+02  0.45594000000E+02  0.51100000000E-03 0.  1.
         23    2    1    2    0    0  0.00000000000E+00 -0.17763568394E-14  0.00000000000E+00  0.91188000000E+02  0.91188000000E+02 0.  0.
    9900012    2    3    3    0    0 -0.10974649109E+02  0.15004930713E+02  0.36160384773E+02  0.50528876845E+02  0.30000051658E+02 0.  0.
        -12    1    3    3    0    0  0.10974649109E+02 -0.15004930713E+02 -0.36160384773E+02  0.40659123155E+02  0.00000000000E+00 0.  1.
         11    1    4    4    0    0 -0.42765271271E+01  0.12398628475E+01  0.31757289934E+02  0.32067918678E+02  0.51100000000E-03 0. -1.
        -11    1    4    4    0    0  0.16991193186E+01  0.51651271310E+01  0.33697729245E+01  0.63969457214E+01  0.51100000000E-03 0.  1.
        -12    1    4    4    0    0 -0.83972413008E+01  0.85999407347E+01  0.10333219153E+01  0.12064012445E+02  0.00000000000E+00 0.  1.
</event>
<event>
 8    1  0.7977359E-012  0.9118800E+02  0.7816164E-02  0.1184000E+00
        -11   -1    0    0    0    0  0.00000000000E+00  0.00000000000E+00  0.45593999997E+02  0.45594000000E+02  0.51100000000E-03 0.  1.
         11   -1    0    0    0    0 -0.00000000000E+00 -0.00000000000E+00 -0.45593999997E+02  0.45594000000E+02  0.51100000000E-03 0. -1.
         23    2    1    2    0    0 -0.17763568394E-14 -0.71054273576E-14  0.44408920985E-15  0.91188000000E+02  0.91188000000E+02 0.  0.
    9900012    2    3    3    0    0 -0.10096689273E+02 -0.39284085239E+02 -0.28254675655E+01  0.50528858908E+02  0.29999997138E+02 0.  0.
         12    1    3    3    0    0  0.10096689273E+02  0.39284085239E+02  0.28254675655E+01  0.40659141092E+02  0.00000000000E+00 0. -1.
         11    1    4    4    0    0  0.25766942801E+00 -0.33662119214E+02 -0.51495312434E+01  0.34054696237E+02  0.51100000000E-03 0. -1.
        -11    1    4    4    0    0 -0.14829008368E+01 -0.31902050532E+01 -0.39880954178E+01  0.53180173463E+01  0.51100000000E-03 0.  1.
         12    1    4    4    0    0 -0.88714578642E+01 -0.24317609716E+01  0.63121590957E+01  0.11156145325E+02  0.00000000000E+00 0. -1.
</event>
<event>
 8    1  0.7977359E-012  0.9118800E+02  0.7816164E-02  0.1184000E+00
        -11   -1    0    0    0    0  0.00000000000E+00  0.00000000000E+00  0.45593999997E+02  0.45594000000E+02  0.51100000000E-03 0. -1.
         11   -1    0    0    0    0 -0.00000000000E+00 -0.00000000000E+00 -0.45593999997E+02  0.45594000000E+02  0.51100000000E-03 0.  1.
         23    2    1    2    0    0  0.35527136788E-14 -0.77715611724E-15  0.00000000000E+00  0.91188000000E+02  0.91188000000E+02 0.  0.
    9900012    2    3    3    0    0 -0.16758433340E+02  0.60799560658E+00 -0.37039852104E+02  0.50528863381E+02  0.30000010733E+02 0.  0.
         12    1    3    3    0    0  0.16758433340E+02 -0.60799560658E+00  0.37039852104E+02  0.40659136619E+02  0.00000000000E+00 0. -1.
         11    1    4    4    0    0 -0.11924494378E+01  0.62457463604E+01 -0.20084571294E+02  0.21067066421E+02  0.51100000000E-03 0. -1.
        -11    1    4    4    0    0 -0.15267848011E+02 -0.18788162318E+01 -0.19555969820E+02  0.24881179417E+02  0.51100000000E-03 0.  1.
         12    1    4    4    0    0 -0.29813589112E+00 -0.37589345220E+01  0.26006890096E+01  0.45806175430E+01  0.00000000000E+00 0. -1.
</event>
<event>
 8    1  0.7977359E-012  0.9118800E+02  0.7816164E-02  0.1184000E+00
        -11   -1    0    0    0    0  0.00000000000E+00  0.00000000000E+00  0.45593999997E+02  0.45594000000E+02  0.51100000000E-03 0. -1.
         11   -1    0    0    0    0 -0.00000000000E+00 -0.00000000000E+00 -0.45593999997E+02  0.45594000000E+02  0.51100000000E-03 0.  1.
         23    2    1    2    0    0 -0.22204460493E-15  0.88817841970E-15 -0.71054273576E-14  0.91188000000E+02  0.91188000000E+02 0.  0.
    9900012    2    3    3    0    0 -0.19207460556E+01 -0.16221737315E+01 -0.40581322412E+02  0.50528875050E+02  0.30000046201E+02 0.  0.
         12    1    3    3    0    0  0.19207460556E+01  0.16221737315E+01  0.40581322412E+02  0.40659124950E+02  0.00000000000E+00 0. -1.
         11    1    4    4    0    0  0.24776454748E+01 -0.86384729804E+01 -0.13528422560E+02  0.16241310284E+02  0.51100000000E-03 0. -1.
        -11    1    4    4    0    0 -0.78630400362E+01 -0.37683187748E+01 -0.17160175349E+02  0.19248356898E+02  0.51100000000E-03 0.  1.
         12    1    4    4    0    0  0.34646485058E+01  0.10784618024E+02 -0.98927245031E+01  0.15039207867E+02  0.00000000000E+00 0. -1.
</event>
<event>
 8    1  0.7977359E-012  0.9118800E+02  0.7816164E-02  0.1184000E+00
        -11   -1    0    0    0    0  0.00000000000E+00  0.00000000000E+00  0.45593999997E+02  0.45594000000E+02  0.51100000000E-03 0. -1.
         11   -1    0    0    0    0 -0.00000000000E+00 -0.00000000000E+00 -0.45593999997E+02  0.45594000000E+02  0.51100000000E-03 0.  1.
         23    2    1    2    0    0 -0.17763568394E-14  0.00000000000E+00 -0.71054273576E-14  0.91188000000E+02  0.91188000000E+02 0.  0.
    9900012    2    3    3    0    0  0.12034430803E+02 -0.94769172033E+01  0.37663174137E+02  0.50529001359E+02  0.30000430128E+02 0.  0.
        -12    1    3    3    0    0 -0.12034430803E+02  0.94769172033E+01 -0.37663174137E+02  0.40658998641E+02  0.00000000000E+00 0.  1.
         11    1    4    4    0    0  0.79217640225E-01 -0.50268294583E+01 -0.47995442368E-01  0.50276827327E+01  0.51100000000E-03 0. -1.
        -11    1    4    4    0    0  0.46783540979E+01 -0.33741930313E+01 -0.12077883926E+01  0.58932952362E+01  0.51100000000E-03 0.  1.
         12    1    4    4    0    0  0.72768590650E+01 -0.10758947137E+01  0.38918957972E+02  0.39608023390E+02  0.00000000000E+00 0. -1.
</event>
<event>
 8    1  0.7977359E-012  0.9118800E+02  0.7816164E-02  0.1184000E+00
        -11   -1    0    0    0    0  0.00000000000E+00  0.00000000000E+00  0.45593999997E+02  0.45594000000E+02  0.51100000000E-03 0.  1.
         11   -1    0    0    0    0 -0.00000000000E+00 -0.00000000000E+00 -0.45593999997E+02  0.45594000000E+02  0.51100000000E-03 0. -1.
         23    2    1    2    0    0 -0.71054273576E-14 -0.13322676296E-14  0.44408920985E-15  0.91188000000E+02  0.91188000000E+02 0.  0.
    9900012    2    3    3    0    0  0.40512784055E+02  0.22333034599E+01 -0.26253039943E+01  0.50528861577E+02  0.30000005249E+02 0.  0.
        -12    1    3    3    0    0 -0.40512784055E+02 -0.22333034599E+01  0.26253039943E+01  0.40659138423E+02  0.00000000000E+00 0.  1.
         11    1    4    4    0    0  0.47446623712E+01 -0.65056878603E+01  0.11602084101E+01  0.81352246046E+01  0.51100000000E-03 0. -1.
        -11    1    4    4    0    0  0.16943357800E+02 -0.49975271884E+01  0.34371391613E+01  0.17996293435E+02  0.51100000000E-03 0.  1.
         12    1    4    4    0    0  0.18824763884E+02  0.13736518509E+02 -0.72226515656E+01  0.24397343537E+02  0.00000000000E+00 0. -1.
</event>
<event>
 8    1  0.7977359E-012  0.9118800E+02  0.7816164E-02  0.1184000E+00
        -11   -1    0    0    0    0  0.00000000000E+00  0.00000000000E+00  0.45593999997E+02  0.45594000000E+02  0.51100000000E-03 0. -1.
         11   -1    0    0    0    0 -0.00000000000E+00 -0.00000000000E+00 -0.45593999997E+02  0.45594000000E+02  0.51100000000E-03 0.  1.
         23    2    1    2    0    0  0.00000000000E+00  0.00000000000E+00 -0.35527136788E-14  0.91188000000E+02  0.91188000000E+02 0.  0.
    9900012    2    3    3    0    0 -0.18517014606E+02  0.19510865611E+02  0.30489538098E+02  0.50528860311E+02  0.30000001402E+02 0.  0.
        -12    1    3    3    0    0  0.18517014606E+02 -0.19510865611E+02 -0.30489538098E+02  0.40659139689E+02  0.00000000000E+00 0.  1.
         11    1    4    4    0    0 -0.36315396302E+01 -0.40512097690E+01  0.39666117935E+01  0.67330817654E+01  0.51100000000E-03 0. -1.
        -11    1    4    4    0    0  0.35745627910E+01  0.10832285248E+01 -0.87567352708E+00  0.38363638476E+01  0.51100000000E-03 0.  1.
        -12    1    4    4    0    0 -0.18460037767E+02  0.22478846856E+02  0.27398599831E+02  0.39959414698E+02  0.00000000000E+00 0.  1.
</event>
<event>
 8    1  0.7977359E-012  0.9118800E+02  0.7816164E-02  0.1184000E+00
        -11   -1    0    0    0    0  0.00000000000E+00  0.00000000000E+00  0.45593999997E+02  0.45594000000E+02  0.51100000000E-03 0. -1.
         11   -1    0    0    0    0 -0.00000000000E+00 -0.00000000000E+00 -0.45593999997E+02  0.45594000000E+02  0.51100000000E-03 0.  1.
         23    2    1    2    0    0  0.00000000000E+00  0.17763568394E-14  0.00000000000E+00  0.91188000000E+02  0.91188000000E+02 0.  0.
    9900012    2    3    3    0    0  0.23936353142E+02  0.15933284610E+02  0.28746249437E+02  0.50528863057E+02  0.30000009748E+02 0.  0.
        -12    1    3    3    0    0 -0.23936353142E+02 -0.15933284610E+02 -0.28746249437E+02  0.40659136943E+02  0.00000000000E+00 0.  1.
         11    1    4    4    0    0 -0.82135078387E+00  0.66325476085E+01  0.33458848466E+01  0.74739715384E+01  0.51100000000E-03 0. -1.
        -11    1    4    4    0    0  0.44789229517E+01 -0.37826559116E+00  0.19236357944E+02  0.19754526136E+02  0.51100000000E-03 0.  1.
         12    1    4    4    0    0  0.20278780975E+02  0.96790025928E+01  0.61640066468E+01  0.23300365382E+02  0.00000000000E+00 0. -1.
</event>
<event>
 8    1  0.7977359E-012  0.9118800E+02  0.7816164E-02  0.1184000E+00
        -11   -1    0    0    0    0  0.00000000000E+00  0.00000000000E+00  0.45593999997E+02  0.45594000000E+02  0.51100000000E-03 0. -1.
         11   -1    0    0    0    0 -0.00000000000E+00 -0.00000000000E+00 -0.45593999997E+02  0.45594000000E+02  0.51100000000E-03 0.  1.
         23    2    1    2    0    0 -0.35527136788E-14  0.00000000000E+00  0.00000000000E+00  0.91188000000E+02  0.91188000000E+02 0.  0.
    9900012    2    3    3    0    0 -0.30914364547E+02  0.20322869115E+02  0.16865586286E+02  0.50528868858E+02  0.30000027381E+02 0.  0.
        -12    1    3    3    0    0  0.30914364547E+02 -0.20322869115E+02 -0.16865586286E+02  0.40659131142E+02  0.00000000000E+00 0.  1.
         11    1    4    4    0    0 -0.13064032430E+02 -0.31897804652E+01  0.10520830120E+02  0.17074293819E+02  0.51100000000E-03 0. -1.
        -11    1    4    4    0    0 -0.90451073819E+01  0.65148909344E+01 -0.38158897784E+01  0.11782138452E+02  0.51100000000E-03 0.  1.
        -12    1    4    4    0    0 -0.88052247357E+01  0.16997758646E+02  0.10160645944E+02  0.21672436587E+02  0.00000000000E+00 0.  1.
</event>
<event>
 8    1  0.7977359E-012  0.9118800E+02  0.7816164E-02  0.1184000E+00
        -11   -1    0    0    0    0  0.00000000000E+00  0.00000000000E+00  0.45593999997E+02  0.45594000000E+02  0.51100000000E-03 0. -1.
         11   -1    0    0    0    0 -0.00000000000E+00 -0.00000000000E+00 -0.45593999997E+02  0.45594000000E+02  0.51100000000E-03 0.  1.
         23    2    1    2    0    0  0.88817841970E-15  0.00000000000E+00 -0.44408920985E-14  0.91188000000E+02  0.91188000000E+02 0.  0.
    9900012    2    3    3    0    0 -0.64455734481E+01  0.39822371812E+02  0.50797561588E+01  0.50528798871E+02  0.29999814647E+02 0.  0.
        -12    1    3    3    0    0  0.64455734481E+01 -0.39822371812E+02 -0.50797561588E+01  0.40659201129E+02  0.00000000000E+00 0.  1.
         11    1    4    4    0    0 -0.22017205941E+01  0.27696662114E+01 -0.22558119255E+01  0.41961067910E+01  0.51100000000E-03 0.  1.
        -11    1    4    4    0    0 -0.18757202114E+01  0.17729022918E+02  0.16967853387E+02  0.24611879830E+02  0.51100000000E-03 0. -1.
         12    1    4    4    0    0 -0.23681326425E+01  0.19323682683E+02 -0.96322853027E+01  0.21720812250E+02  0.00000000000E+00 0. -1.
</event>
<event>
 8    1  0.7977359E-012  0.9118800E+02  0.7816164E-02  0.1184000E+00
        -11   -1    0    0    0    0  0.00000000000E+00  0.00000000000E+00  0.45593999997E+02  0.45594000000E+02  0.51100000000E-03 0. -1.
         11   -1    0    0    0    0 -0.00000000000E+00 -0.00000000000E+00 -0.45593999997E+02  0.45594000000E+02  0.51100000000E-03 0.  1.
         23    2    1    2    0    0  0.00000000000E+00  0.00000000000E+00  0.00000000000E+00  0.91188000000E+02  0.91188000000E+02 0.  0.
    9900012    2    3    3    0    0  0.16090644874E+02  0.21961246060E+02 -0.30198702034E+02  0.50528846227E+02  0.29999958592E+02 0.  0.
         12    1    3    3    0    0 -0.16090644874E+02 -0.21961246060E+02  0.30198702034E+02  0.40659153773E+02  0.00000000000E+00 0. -1.
         11    1    4    4    0    0  0.96274090728E+01  0.15863794660E+02 -0.18952098460E+02  0.26524121527E+02  0.51100000000E-03 0. -1.
        -11    1    4    4    0    0  0.15003645761E+01  0.10755408721E+02 -0.13036409953E+02  0.16966964824E+02  0.51100000000E-03 0.  1.
         12    1    4    4    0    0  0.49628712252E+01 -0.46579573207E+01  0.17898063792E+01  0.70377598762E+01  0.00000000000E+00 0. -1.
</event>
<event>
 8    1  0.7977359E-012  0.9118800E+02  0.7816164E-02  0.1184000E+00
        -11   -1    0    0    0    0  0.00000000000E+00  0.00000000000E+00  0.45593999997E+02  0.45594000000E+02  0.51100000000E-03 0. -1.
         11   -1    0    0    0    0 -0.00000000000E+00 -0.00000000000E+00 -0.45593999997E+02  0.45594000000E+02  0.51100000000E-03 0.  1.
         23    2    1    2    0    0 -0.88817841970E-15  0.88817841970E-15  0.00000000000E+00  0.91188000000E+02  0.91188000000E+02 0.  0.
    9900012    2    3    3    0    0  0.54656014170E+01  0.42955053179E+01  0.40060504497E+02  0.50528829013E+02  0.29999906267E+02 0.  0.
        -12    1    3    3    0    0 -0.54656014170E+01 -0.42955053179E+01 -0.40060504497E+02  0.40659170987E+02  0.00000000000E+00 0.  1.
         11    1    4    4    0    0  0.12352006368E+01 -0.18345514345E+01  0.71691455745E+01  0.75025294474E+01  0.51100000000E-03 0. -1.
        -11    1    4    4    0    0  0.53342051520E+00 -0.91189754131E+01  0.22292049812E+02  0.24090988670E+02  0.51100000000E-03 0.  1.
         12    1    4    4    0    0  0.36969802650E+01  0.15249032166E+02  0.10599309111E+02  0.18935310895E+02  0.00000000000E+00 0. -1.
</event>
<event>
 8    1  0.7977359E-012  0.9118800E+02  0.7816164E-02  0.1184000E+00
        -11   -1    0    0    0    0  0.00000000000E+00  0.00000000000E+00  0.45593999997E+02  0.45594000000E+02  0.51100000000E-03 0. -1.
         11   -1    0    0    0    0 -0.00000000000E+00 -0.00000000000E+00 -0.45593999997E+02  0.45594000000E+02  0.51100000000E-03 0.  1.
         23    2    1    2    0    0  0.00000000000E+00  0.22204460493E-15  0.00000000000E+00  0.91188000000E+02  0.91188000000E+02 0.  0.
    9900012    2    3    3    0    0  0.41368311746E+01 -0.10244505001E+01 -0.40435064967E+02  0.50528962261E+02  0.30000311287E+02 0.  0.
         12    1    3    3    0    0 -0.41368311746E+01  0.10244505001E+01  0.40435064967E+02  0.40659037739E+02  0.00000000000E+00 0. -1.
         11    1    4    4    0    0  0.55472870263E+00 -0.87130078410E+01 -0.22140448452E+01  0.90070097373E+01  0.51100000000E-03 0. -1.
        -11    1    4    4    0    0  0.62455430005E+00 -0.40413094851E+01 -0.84655390283E+01  0.94014680625E+01  0.51100000000E-03 0.  1.
        -12    1    4    4    0    0  0.29575481719E+01  0.11729866826E+02 -0.29755481093E+02  0.32120484461E+02  0.00000000000E+00 0.  1.
</event>
<event>
 8    1  0.7977359E-012  0.9118800E+02  0.7816164E-02  0.1184000E+00
        -11   -1    0    0    0    0  0.00000000000E+00  0.00000000000E+00  0.45593999997E+02  0.45594000000E+02  0.51100000000E-03 0.  1.
         11   -1    0    0    0    0 -0.00000000000E+00 -0.00000000000E+00 -0.45593999997E+02  0.45594000000E+02  0.51100000000E-03 0. -1.
         23    2    1    2    0    0 -0.99920072216E-15  0.00000000000E+00 -0.17763568394E-14  0.91188000000E+02  0.91188000000E+02 0.  0.
    9900012    2    3    3    0    0  0.91440166812E+00 -0.38913204628E+02  0.11751251882E+02  0.50528861475E+02  0.30000004939E+02 0.  0.
        -12    1    3    3    0    0 -0.91440166812E+00  0.38913204628E+02 -0.11751251882E+02  0.40659138525E+02  0.00000000000E+00 0.  1.
         11    1    4    4    0    0 -0.53505101141E+01 -0.22966141947E+02  0.58829811820E+00  0.23588508417E+02  0.51100000000E-03 0. -1.
        -11    1    4    4    0    0 -0.32991263516E+01 -0.13962074818E+02  0.42131310441E+01  0.14952399184E+02  0.51100000000E-03 0.  1.
        -12    1    4    4    0    0  0.95640381339E+01 -0.19849878628E+01  0.69498227197E+01  0.11987953874E+02  0.00000000000E+00 0.  1.
</event>
<event>
 8    1  0.7977359E-012  0.9118800E+02  0.7816164E-02  0.1184000E+00
        -11   -1    0    0    0    0  0.00000000000E+00  0.00000000000E+00  0.45593999997E+02  0.45594000000E+02  0.51100000000E-03 0. -1.
         11   -1    0    0    0    0 -0.00000000000E+00 -0.00000000000E+00 -0.45593999997E+02  0.45594000000E+02  0.51100000000E-03 0.  1.
         23    2    1    2    0    0  0.71054273576E-14 -0.88817841970E-15  0.00000000000E+00  0.91188000000E+02  0.91188000000E+02 0.  0.
    9900012    2    3    3    0    0 -0.33682517020E+02  0.47905015240E+01 -0.22264370620E+02  0.50528892081E+02  0.30000097969E+02 0.  0.
         12    1    3    3    0    0  0.33682517020E+02 -0.47905015240E+01  0.22264370620E+02  0.40659107919E+02  0.00000000000E+00 0. -1.
         11    1    4    4    0    0 -0.23301521864E+01  0.19902624621E+01  0.16380530307E+00  0.30688086154E+01  0.51100000000E-03 0.  1.
        -11    1    4    4    0    0 -0.84504296419E+01 -0.98155688531E+00  0.62564307943E+01  0.10560120340E+02  0.51100000000E-03 0. -1.
         12    1    4    4    0    0 -0.22901935192E+02  0.37817959473E+01 -0.28684606717E+02  0.36899963125E+02  0.00000000000E+00 0. -1.
</event>
<event>
 8    1  0.9901323E-012  0.9118800E+02  0.7816164E-02  0.1184000E+00
        -11   -1    0    0    0    0  0.00000000000E+00  0.00000000000E+00  0.45593999997E+02  0.45594000000E+02  0.51100000000E-03 0. -1.
         11   -1    0    0    0    0 -0.00000000000E+00 -0.00000000000E+00 -0.45593999997E+02  0.45594000000E+02  0.51100000000E-03 0.  1.
         23    2    1    2    0    0  0.00000000000E+00  0.00000000000E+00  0.00000000000E+00  0.91188000000E+02  0.91188000000E+02 0.  0.
    9900012    2    3    3    0    0  0.59578372011E+01 -0.11971919608E+02  0.38397179271E+02  0.50528855159E+02  0.29999985741E+02 0.  0.
        -12    1    3    3    0    0 -0.59578372011E+01  0.11971919608E+02 -0.38397179271E+02  0.40659144841E+02  0.00000000000E+00 0.  1.
         11    1    4    4    0    0  0.33894995734E+01 -0.52232204320E+01  0.14475690402E+02  0.15758056730E+02  0.51100000000E-03 0. -1.
        -11    1    4    4    0    0  0.13265968975E+02 -0.57309266372E+01  0.14650788366E+02  0.20578509494E+02  0.51100000000E-03 0.  1.
        -12    1    4    4    0    0 -0.10697631347E+02 -0.10177725391E+01  0.92707005028E+01  0.14192288934E+02  0.00000000000E+00 0.  1.
</event>
<event>
 8    1  0.7977359E-012  0.9118800E+02  0.7816164E-02  0.1184000E+00
        -11   -1    0    0    0    0  0.00000000000E+00  0.00000000000E+00  0.45593999997E+02  0.45594000000E+02  0.51100000000E-03 0. -1.
         11   -1    0    0    0    0 -0.00000000000E+00 -0.00000000000E+00 -0.45593999997E+02  0.45594000000E+02  0.51100000000E-03 0.  1.
         23    2    1    2    0    0  0.00000000000E+00  0.00000000000E+00 -0.35527136788E-14  0.91188000000E+02  0.91188000000E+02 0.  0.
    9900012    2    3    3    0    0 -0.88880737989E+01  0.29588376288E+02  0.26432849914E+02  0.50528862997E+02  0.30000009567E+02 0.  0.
        -12    1    3    3    0    0  0.88880737989E+01 -0.29588376288E+02 -0.26432849914E+02  0.40659137003E+02  0.00000000000E+00 0.  1.
         11    1    4    4    0    0 -0.59430959435E+01 -0.41566817309E+00  0.38932851190E+00  0.59703221333E+01  0.51100000000E-03 0.  1.
        -11    1    4    4    0    0  0.41741825699E+01 -0.63088700378E+00  0.95932232201E+00  0.43292168018E+01  0.51100000000E-03 0. -1.
         12    1    4    4    0    0 -0.71191604253E+01  0.30634931465E+02  0.25084199080E+02  0.40229324062E+02  0.00000000000E+00 0. -1.
</event>
<event>
 8    1  0.7977359E-012  0.9118800E+02  0.7816164E-02  0.1184000E+00
        -11   -1    0    0    0    0  0.00000000000E+00  0.00000000000E+00  0.45593999997E+02  0.45594000000E+02  0.51100000000E-03 0. -1.
         11   -1    0    0    0    0 -0.00000000000E+00 -0.00000000000E+00 -0.45593999997E+02  0.45594000000E+02  0.51100000000E-03 0.  1.
         23    2    1    2    0    0  0.00000000000E+00  0.00000000000E+00  0.00000000000E+00  0.91188000000E+02  0.91188000000E+02 0.  0.
    9900012    2    3    3    0    0 -0.20991471005E+02  0.13410906512E+02 -0.32135192970E+02  0.50528869467E+02  0.30000029233E+02 0.  0.
         12    1    3    3    0    0  0.20991471005E+02 -0.13410906512E+02  0.32135192970E+02  0.40659130533E+02  0.00000000000E+00 0. -1.
         11    1    4    4    0    0  0.32577653125E+01 -0.13875890485E+00 -0.56922297820E+01  0.65600128825E+01  0.51100000000E-03 0. -1.
        -11    1    4    4    0    0 -0.33435162800E+01  0.11914035364E+02 -0.34426059226E+01  0.12844254574E+02  0.51100000000E-03 0.  1.
        -12    1    4    4    0    0 -0.20905720038E+02  0.16356300532E+01 -0.23000357266E+02  0.31124602011E+02  0.00000000000E+00 0.  1.
</event>
<event>
 8    1  0.7977359E-012  0.9118800E+02  0.7816164E-02  0.1184000E+00
        -11   -1    0    0    0    0  0.00000000000E+00  0.00000000000E+00  0.45593999997E+02  0.45594000000E+02  0.51100000000E-03 0. -1.
         11   -1    0    0    0    0 -0.00000000000E+00 -0.00000000000E+00 -0.45593999997E+02  0.45594000000E+02  0.51100000000E-03 0.  1.
         23    2    1    2    0    0 -0.71054273576E-14 -0.44408920985E-15  0.00000000000E+00  0.91188000000E+02  0.91188000000E+02 0.  0.
    9900012    2    3    3    0    0 -0.34339151591E+02 -0.14666467163E+01  0.21721796172E+02  0.50528870478E+02  0.30000032304E+02 0.  0.
        -12    1    3    3    0    0  0.34339151591E+02  0.14666467163E+01 -0.21721796172E+02  0.40659129522E+02  0.00000000000E+00 0.  1.
         11    1    4    4    0    0 -0.18588089929E+02 -0.19965123675E+01  0.25559197169E+02  0.31666634002E+02  0.51100000000E-03 0. -1.
        -11    1    4    4    0    0 -0.26398383036E+01  0.36069278379E+01 -0.29707113601E+01  0.53669172662E+01  0.51100000000E-03 0.  1.
        -12    1    4    4    0    0 -0.13111223358E+02 -0.30770621866E+01 -0.86668963620E+00  0.13495319210E+02  0.00000000000E+00 0.  1.
</event>
<event>
 8    1  0.7977359E-012  0.9118800E+02  0.7816164E-02  0.1184000E+00
        -11   -1    0    0    0    0  0.00000000000E+00  0.00000000000E+00  0.45593999997E+02  0.45594000000E+02  0.51100000000E-03 0. -1.
         11   -1    0    0    0    0 -0.00000000000E+00 -0.00000000000E+00 -0.45593999997E+02  0.45594000000E+02  0.51100000000E-03 0.  1.
         23    2    1    2    0    0  0.00000000000E+00  0.00000000000E+00  0.00000000000E+00  0.91188000000E+02  0.91188000000E+02 0.  0.
    9900012    2    3    3    0    0  0.25512145915E+02  0.19082982712E+02  0.25261346686E+02  0.50528862592E+02  0.30000008334E+02 0.  0.
        -12    1    3    3    0    0 -0.25512145915E+02 -0.19082982712E+02 -0.25261346686E+02  0.40659137408E+02  0.00000000000E+00 0.  1.
         11    1    4    4    0    0 -0.28231135911E+01  0.58827007358E+01  0.97750371443E+01  0.11752765195E+02  0.51100000000E-03 0. -1.
        -11    1    4    4    0    0 -0.19923015247E+00 -0.25878082561E+01 -0.17096390818E+00  0.26010907602E+01  0.51100000000E-03 0.  1.
         12    1    4    4    0    0  0.28534489659E+02  0.15788090232E+02  0.15657273450E+02  0.36175006637E+02  0.00000000000E+00 0. -1.
</event>
<event>
 8    1  0.7977359E-012  0.9118800E+02  0.7816164E-02  0.1184000E+00
        -11   -1    0    0    0    0  0.00000000000E+00  0.00000000000E+00  0.45593999997E+02  0.45594000000E+02  0.51100000000E-03 0. -1.
         11   -1    0    0    0    0 -0.00000000000E+00 -0.00000000000E+00 -0.45593999997E+02  0.45594000000E+02  0.51100000000E-03 0.  1.
         23    2    1    2    0    0 -0.11102230246E-14 -0.35527136788E-14 -0.35527136788E-14  0.91188000000E+02  0.91188000000E+02 0.  0.
    9900012    2    3    3    0    0  0.17435520748E+01  0.31692518117E+02 -0.25410815308E+02  0.50528865564E+02  0.30000017369E+02 0.  0.
         12    1    3    3    0    0 -0.17435520748E+01 -0.31692518117E+02  0.25410815308E+02  0.40659134436E+02  0.00000000000E+00 0. -1.
         11    1    4    4    0    0  0.42703353584E+01  0.78529470321E+01  0.16286604051E+01  0.90860924571E+01  0.51100000000E-03 0. -1.
        -11    1    4    4    0    0  0.74992365725E+01  0.16230493428E+02 -0.10768052280E+02  0.20871473744E+02  0.51100000000E-03 0.  1.
        -12    1    4    4    0    0 -0.10026019856E+02  0.76090776570E+01 -0.16271423433E+02  0.20571299363E+02  0.00000000000E+00 0.  1.
</event>
<event>
 8    1  0.7977359E-012  0.9118800E+02  0.7816164E-02  0.1184000E+00
        -11   -1    0    0    0    0  0.00000000000E+00  0.00000000000E+00  0.45593999997E+02  0.45594000000E+02  0.51100000000E-03 0. -1.
         11   -1    0    0    0    0 -0.00000000000E+00 -0.00000000000E+00 -0.45593999997E+02  0.45594000000E+02  0.51100000000E-03 0.  1.
         23    2    1    2    0    0 -0.35527136788E-14 -0.35527136788E-14  0.00000000000E+00  0.91188000000E+02  0.91188000000E+02 0.  0.
    9900012    2    3    3    0    0 -0.22701110604E+02 -0.25415104631E+02  0.22178783324E+02  0.50528851020E+02  0.29999973160E+02 0.  0.
        -12    1    3    3    0    0  0.22701110604E+02  0.25415104631E+02 -0.22178783324E+02  0.40659148980E+02  0.00000000000E+00 0.  1.
         11    1    4    4    0    0  0.46901722933E+01 -0.46815677730E+01  0.94427636620E+01  0.11536055599E+02  0.51100000000E-03 0.  1.
        -11    1    4    4    0    0 -0.11826225573E+02 -0.17218164705E+02  0.67997395733E+01  0.21967277156E+02  0.51100000000E-03 0. -1.
        -12    1    4    4    0    0 -0.15565057325E+02 -0.35153721527E+01  0.59362800883E+01  0.17025518265E+02  0.00000000000E+00 0.  1.
</event>
<event>
 8    1  0.7977359E-012  0.9118800E+02  0.7816164E-02  0.1184000E+00
        -11   -1    0    0    0    0  0.00000000000E+00  0.00000000000E+00  0.45593999997E+02  0.45594000000E+02  0.51100000000E-03 0. -1.
         11   -1    0    0    0    0 -0.00000000000E+00 -0.00000000000E+00 -0.45593999997E+02  0.45594000000E+02  0.51100000000E-03 0.  1.
         23    2    1    2    0    0  0.00000000000E+00 -0.11102230246E-14  0.00000000000E+00  0.91188000000E+02  0.91188000000E+02 0.  0.
    9900012    2    3    3    0    0 -0.15054822760E+02 -0.18315423735E+01 -0.37724849554E+02  0.50528849619E+02  0.29999968902E+02 0.  0.
         12    1    3    3    0    0  0.15054822760E+02  0.18315423735E+01  0.37724849554E+02  0.40659150381E+02  0.00000000000E+00 0. -1.
         11    1    4    4    0    0 -0.13649403863E+02 -0.92882945625E+01 -0.10386377994E+02  0.19505268257E+02  0.51100000000E-03 0. -1.
        -11    1    4    4    0    0  0.53594972129E+00 -0.17593293558E+01  0.26446309286E+00  0.18580696636E+01  0.51100000000E-03 0.  1.
        -12    1    4    4    0    0 -0.19413686189E+01  0.92160815449E+01 -0.27602934653E+02  0.29165511698E+02  0.00000000000E+00 0.  1.
</event>
<event>
 8    1  0.7977359E-012  0.9118800E+02  0.7816164E-02  0.1184000E+00
        -11   -1    0    0    0    0  0.00000000000E+00  0.00000000000E+00  0.45593999997E+02  0.45594000000E+02  0.51100000000E-03 0. -1.
         11   -1    0    0    0    0 -0.00000000000E+00 -0.00000000000E+00 -0.45593999997E+02  0.45594000000E+02  0.51100000000E-03 0.  1.
         23    2    1    2    0    0 -0.17763568394E-14  0.00000000000E+00  0.00000000000E+00  0.91188000000E+02  0.91188000000E+02 0.  0.
    9900012    2    3    3    0    0  0.13439460900E+02 -0.95938887424E+01 -0.37155084144E+02  0.50528903992E+02  0.30000134173E+02 0.  0.
         12    1    3    3    0    0 -0.13439460900E+02  0.95938887424E+01  0.37155084144E+02  0.40659096008E+02  0.00000000000E+00 0. -1.
         11    1    4    4    0    0 -0.34783986107E+01 -0.10930879975E+01  0.15321490467E+01  0.39549436440E+01  0.51100000000E-03 0. -1.
        -11    1    4    4    0    0  0.43941667107E+01 -0.39791932131E+01 -0.29175429109E+00  0.59353012170E+01  0.51100000000E-03 0.  1.
        -12    1    4    4    0    0  0.12523692799E+02 -0.45216075318E+01 -0.38395478900E+02  0.40638659131E+02  0.00000000000E+00 0.  1.
</event>
<event>
 8    1  0.7977359E-012  0.9118800E+02  0.7816164E-02  0.1184000E+00
        -11   -1    0    0    0    0  0.00000000000E+00  0.00000000000E+00  0.45593999997E+02  0.45594000000E+02  0.51100000000E-03 0. -1.
         11   -1    0    0    0    0 -0.00000000000E+00 -0.00000000000E+00 -0.45593999997E+02  0.45594000000E+02  0.51100000000E-03 0.  1.
         23    2    1    2    0    0  0.35527136788E-14 -0.17763568394E-14  0.00000000000E+00  0.91188000000E+02  0.91188000000E+02 0.  0.
    9900012    2    3    3    0    0 -0.27638558832E+02  0.10315221676E+02 -0.27979824367E+02  0.50528876741E+02  0.30000051343E+02 0.  0.
         12    1    3    3    0    0  0.27638558832E+02 -0.10315221676E+02  0.27979824367E+02  0.40659123259E+02  0.00000000000E+00 0. -1.
         11    1    4    4    0    0 -0.23989793432E+00  0.27438538660E+01  0.13640924746E+01  0.30736027065E+01  0.51100000000E-03 0. -1.
        -11    1    4    4    0    0 -0.31319651079E+02  0.78840567225E+01 -0.21855621743E+02  0.38996757508E+02  0.51100000000E-03 0.  1.
         12    1    4    4    0    0  0.39209901809E+01 -0.31268891283E+00 -0.74882950986E+01  0.84585165270E+01  0.00000000000E+00 0. -1.
</event>
<event>
 8    1  0.7977359E-012  0.9118800E+02  0.7816164E-02  0.1184000E+00
        -11   -1    0    0    0    0  0.00000000000E+00  0.00000000000E+00  0.45593999997E+02  0.45594000000E+02  0.51100000000E-03 0. -1.
         11   -1    0    0    0    0 -0.00000000000E+00 -0.00000000000E+00 -0.45593999997E+02  0.45594000000E+02  0.51100000000E-03 0.  1.
         23    2    1    2    0    0  0.35527136788E-14 -0.17763568394E-14  0.71054273576E-14  0.91188000000E+02  0.91188000000E+02 0.  0.
    9900012    2    3    3    0    0  0.22877406906E+02 -0.11820244689E+02  0.31465450372E+02  0.50528825164E+02  0.29999894567E+02 0.  0.
        -12    1    3    3    0    0 -0.22877406906E+02  0.11820244689E+02 -0.31465450372E+02  0.40659174836E+02  0.00000000000E+00 0.  1.
         11    1    4    4    0    0  0.15475067022E+02 -0.11635704141E+02  0.88646836811E+01  0.21294363743E+02  0.51100000000E-03 0. -1.
        -11    1    4    4    0    0  0.52769733888E+01 -0.77176001862E+01  0.66697281581E+01  0.11484471026E+02  0.51100000000E-03 0.  1.
        -12    1    4    4    0    0  0.21253664943E+01  0.75330596381E+01  0.15931038533E+02  0.17749990394E+02  0.00000000000E+00 0.  1.
</event>
<event>
 8    1  0.8145636E-012  0.9118800E+02  0.7816164E-02  0.1184000E+00
        -11   -1    0    0    0    0  0.00000000000E+00  0.00000000000E+00  0.45593999997E+02  0.45594000000E+02  0.51100000000E-03 0. -1.
         11   -1    0    0    0    0 -0.00000000000E+00 -0.00000000000E+00 -0.45593999997E+02  0.45594000000E+02  0.51100000000E-03 0.  1.
         23    2    1    2    0    0  0.00000000000E+00  0.17763568394E-14  0.00000000000E+00  0.91188000000E+02  0.91188000000E+02 0.  0.
    9900012    2    3    3    0    0 -0.24333579934E+02  0.12535804131E+02  0.30064863099E+02  0.50528862149E+02  0.30000006989E+02 0.  0.
        -12    1    3    3    0    0  0.24333579934E+02 -0.12535804131E+02 -0.30064863099E+02  0.40659137851E+02  0.00000000000E+00 0.  1.
         11    1    4    4    0    0 -0.12063610147E+02  0.16895696677E+02  0.15337538896E+02  0.25811535321E+02  0.51100000000E-03 0.  1.
        -11    1    4    4    0    0 -0.13290392896E+02  0.18439363589E+01  0.11384916736E+02  0.17596902397E+02  0.51100000000E-03 0. -1.
        -12    1    4    4    0    0  0.10204231095E+01 -0.62038289047E+01  0.33424074666E+01  0.71204244308E+01  0.00000000000E+00 0.  1.
</event>
<event>
 8    1  0.7977359E-012  0.9118800E+02  0.7816164E-02  0.1184000E+00
        -11   -1    0    0    0    0  0.00000000000E+00  0.00000000000E+00  0.45593999997E+02  0.45594000000E+02  0.51100000000E-03 0. -1.
         11   -1    0    0    0    0 -0.00000000000E+00 -0.00000000000E+00 -0.45593999997E+02  0.45594000000E+02  0.51100000000E-03 0.  1.
         23    2    1    2    0    0 -0.71054273576E-14  0.00000000000E+00  0.00000000000E+00  0.91188000000E+02  0.91188000000E+02 0.  0.
    9900012    2    3    3    0    0  0.34878446801E+02 -0.47247470224E+01 -0.20355249634E+02  0.50528862364E+02  0.30000007641E+02 0.  0.
         12    1    3    3    0    0 -0.34878446801E+02  0.47247470224E+01  0.20355249634E+02  0.40659137636E+02  0.00000000000E+00 0. -1.
         11    1    4    4    0    0  0.12341303001E+02  0.11154205788E+01 -0.22942243904E+01  0.12602197771E+02  0.51100000000E-03 0. -1.
        -11    1    4    4    0    0  0.27623897916E+02 -0.42563547207E+01 -0.16061830570E+02  0.32236294655E+02  0.51100000000E-03 0.  1.
         12    1    4    4    0    0 -0.50867541166E+01 -0.15838128804E+01 -0.19991946738E+01  0.56903699376E+01  0.00000000000E+00 0. -1.
</event>
<event>
 8    1  0.7977359E-012  0.9118800E+02  0.7816164E-02  0.1184000E+00
        -11   -1    0    0    0    0  0.00000000000E+00  0.00000000000E+00  0.45593999997E+02  0.45594000000E+02  0.51100000000E-03 0. -1.
         11   -1    0    0    0    0 -0.00000000000E+00 -0.00000000000E+00 -0.45593999997E+02  0.45594000000E+02  0.51100000000E-03 0.  1.
         23    2    1    2    0    0  0.00000000000E+00  0.17763568394E-14 -0.35527136788E-14  0.91188000000E+02  0.91188000000E+02 0.  0.
    9900012    2    3    3    0    0 -0.29258941052E+02 -0.72962944506E+01  0.27273476760E+02  0.50528879513E+02  0.30000059768E+02 0.  0.
        -12    1    3    3    0    0  0.29258941052E+02  0.72962944506E+01 -0.27273476760E+02  0.40659120487E+02  0.00000000000E+00 0.  1.
         11    1    4    4    0    0 -0.93897844977E+01 -0.14075801102E+02  0.19204955326E+02  0.25595439807E+02  0.51100000000E-03 0. -1.
        -11    1    4    4    0    0 -0.56793354274E+01 -0.10856989387E+01  0.63982335241E+01  0.86238614073E+01  0.51100000000E-03 0.  1.
        -12    1    4    4    0    0 -0.14189821127E+02  0.78652055896E+01  0.16702879096E+01  0.16309578299E+02  0.00000000000E+00 0.  1.
</event>
<event>
 8    1  0.7977359E-012  0.9118800E+02  0.7816164E-02  0.1184000E+00
        -11   -1    0    0    0    0  0.00000000000E+00  0.00000000000E+00  0.45593999997E+02  0.45594000000E+02  0.51100000000E-03 0. -1.
         11   -1    0    0    0    0 -0.00000000000E+00 -0.00000000000E+00 -0.45593999997E+02  0.45594000000E+02  0.51100000000E-03 0.  1.
         23    2    1    2    0    0 -0.35527136788E-14 -0.17763568394E-14  0.00000000000E+00  0.91188000000E+02  0.91188000000E+02 0.  0.
    9900012    2    3    3    0    0 -0.29765797882E+02 -0.12298055404E+02 -0.24817733867E+02  0.50528870588E+02  0.30000032639E+02 0.  0.
         12    1    3    3    0    0  0.29765797882E+02  0.12298055404E+02  0.24817733867E+02  0.40659129412E+02  0.00000000000E+00 0. -1.
         11    1    4    4    0    0 -0.54380656573E+01  0.71508434812E+01 -0.64828370827E+01  0.11078551236E+02  0.51100000000E-03 0. -1.
        -11    1    4    4    0    0 -0.66464871029E+01 -0.15234119332E+02 -0.70412840202E+01  0.18050868775E+02  0.51100000000E-03 0.  1.
        -12    1    4    4    0    0 -0.17681245122E+02 -0.42147795533E+01 -0.11293612764E+02  0.21399450577E+02  0.00000000000E+00 0.  1.
</event>
<event>
 8    1  0.7977359E-012  0.9118800E+02  0.7816164E-02  0.1184000E+00
        -11   -1    0    0    0    0  0.00000000000E+00  0.00000000000E+00  0.45593999997E+02  0.45594000000E+02  0.51100000000E-03 0. -1.
         11   -1    0    0    0    0 -0.00000000000E+00 -0.00000000000E+00 -0.45593999997E+02  0.45594000000E+02  0.51100000000E-03 0.  1.
         23    2    1    2    0    0 -0.17763568394E-14  0.00000000000E+00  0.00000000000E+00  0.91188000000E+02  0.91188000000E+02 0.  0.
    9900012    2    3    3    0    0 -0.14908765161E+02 -0.36166241196E+02 -0.11085941717E+02  0.50528851157E+02  0.29999973577E+02 0.  0.
         12    1    3    3    0    0  0.14908765161E+02  0.36166241196E+02  0.11085941717E+02  0.40659148843E+02  0.00000000000E+00 0. -1.
         11    1    4    4    0    0  0.37317343827E+01 -0.21119820811E+01 -0.35422607003E+01  0.55618271227E+01  0.51100000000E-03 0. -1.
        -11    1    4    4    0    0 -0.79111607551E+01 -0.26322996495E+02  0.35383948461E+01  0.27712936462E+02  0.51100000000E-03 0.  1.
         12    1    4    4    0    0 -0.10729338788E+02 -0.77312626201E+01 -0.11082075863E+02  0.17254087572E+02  0.00000000000E+00 0. -1.
</event>
<event>
 8    1  0.7977359E-012  0.9118800E+02  0.7816164E-02  0.1184000E+00
        -11   -1    0    0    0    0  0.00000000000E+00  0.00000000000E+00  0.45593999997E+02  0.45594000000E+02  0.51100000000E-03 0. -1.
         11   -1    0    0    0    0 -0.00000000000E+00 -0.00000000000E+00 -0.45593999997E+02  0.45594000000E+02  0.51100000000E-03 0.  1.
         23    2    1    2    0    0  0.00000000000E+00  0.00000000000E+00  0.00000000000E+00  0.91188000000E+02  0.91188000000E+02 0.  0.
    9900012    2    3    3    0    0 -0.13407202869E+02  0.20828538209E+02 -0.32242589292E+02  0.50528860106E+02  0.30000000777E+02 0.  0.
         12    1    3    3    0    0  0.13407202869E+02 -0.20828538209E+02  0.32242589292E+02  0.40659139894E+02  0.00000000000E+00 0. -1.
         11    1    4    4    0    0 -0.56159757774E+01 -0.69018677162E+00  0.32582941204E+01  0.65293202209E+01  0.51100000000E-03 0. -1.
        -11    1    4    4    0    0 -0.36166124772E+01 -0.43519289029E+00 -0.52186562349E+01  0.63642479384E+01  0.51100000000E-03 0.  1.
        -12    1    4    4    0    0 -0.41746146148E+01  0.21953917871E+02 -0.30282227177E+02  0.37635291946E+02  0.00000000000E+00 0.  1.
</event>
<event>
 8    1  0.7977359E-012  0.9118800E+02  0.7816164E-02  0.1184000E+00
        -11   -1    0    0    0    0  0.00000000000E+00  0.00000000000E+00  0.45593999997E+02  0.45594000000E+02  0.51100000000E-03 0. -1.
         11   -1    0    0    0    0 -0.00000000000E+00 -0.00000000000E+00 -0.45593999997E+02  0.45594000000E+02  0.51100000000E-03 0.  1.
         23    2    1    2    0    0  0.17763568394E-14 -0.35527136788E-14  0.00000000000E+00  0.91188000000E+02  0.91188000000E+02 0.  0.
    9900012    2    3    3    0    0  0.79731836958E+01 -0.21432164883E+02  0.33619288753E+02  0.50528856796E+02  0.29999990716E+02 0.  0.
        -12    1    3    3    0    0 -0.79731836958E+01  0.21432164883E+02 -0.33619288753E+02  0.40659143204E+02  0.00000000000E+00 0.  1.
         11    1    4    4    0    0 -0.49594119048E+01 -0.12033263640E+02  0.12836108091E+02  0.18280067600E+02  0.51100000000E-03 0. -1.
        -11    1    4    4    0    0  0.11524649145E+02  0.26375774594E+01  0.64097230326E+01  0.13448379173E+02  0.51100000000E-03 0.  1.
         12    1    4    4    0    0  0.14079464554E+01 -0.12036478703E+02  0.14373457630E+02  0.18800410022E+02  0.00000000000E+00 0. -1.
</event>
<event>
 8    1  0.7977359E-012  0.9118800E+02  0.7816164E-02  0.1184000E+00
        -11   -1    0    0    0    0  0.00000000000E+00  0.00000000000E+00  0.45593999997E+02  0.45594000000E+02  0.51100000000E-03 0. -1.
         11   -1    0    0    0    0 -0.00000000000E+00 -0.00000000000E+00 -0.45593999997E+02  0.45594000000E+02  0.51100000000E-03 0.  1.
         23    2    1    2    0    0  0.00000000000E+00  0.35527136788E-14  0.00000000000E+00  0.91188000000E+02  0.91188000000E+02 0.  0.
    9900012    2    3    3    0    0 -0.10392651896E+02  0.30420157190E+02 -0.24895293970E+02  0.50528820978E+02  0.29999881844E+02 0.  0.
         12    1    3    3    0    0  0.10392651896E+02 -0.30420157190E+02  0.24895293970E+02  0.40659179022E+02  0.00000000000E+00 0. -1.
         11    1    4    4    0    0 -0.17981657824E+01  0.93577722425E+01  0.30560880209E+01  0.10007046306E+02  0.51100000000E-03 0. -1.
        -11    1    4    4    0    0  0.13279364484E+01  0.13321216340E+01  0.23602089775E+01  0.30180374315E+01  0.51100000000E-03 0.  1.
        -12    1    4    4    0    0 -0.99224225618E+01  0.19730263313E+02 -0.30311590969E+02  0.37503737240E+02  0.00000000000E+00 0.  1.
</event>
<event>
 8    1  0.7977359E-012  0.9118800E+02  0.7816164E-02  0.1184000E+00
        -11   -1    0    0    0    0  0.00000000000E+00  0.00000000000E+00  0.45593999997E+02  0.45594000000E+02  0.51100000000E-03 0.  1.
         11   -1    0    0    0    0 -0.00000000000E+00 -0.00000000000E+00 -0.45593999997E+02  0.45594000000E+02  0.51100000000E-03 0. -1.
         23    2    1    2    0    0  0.00000000000E+00  0.00000000000E+00 -0.35527136788E-14  0.91188000000E+02  0.91188000000E+02 0.  0.
    9900012    2    3    3    0    0 -0.58517012448E+01  0.33886499801E+02  0.21693961703E+02  0.50528865103E+02  0.30000015967E+02 0.  0.
        -12    1    3    3    0    0  0.58517012448E+01 -0.33886499801E+02 -0.21693961703E+02  0.40659134897E+02  0.00000000000E+00 0.  1.
         11    1    4    4    0    0  0.43469649755E+01  0.14401031540E+02  0.53488857151E+01  0.15965475018E+02  0.51100000000E-03 0. -1.
        -11    1    4    4    0    0 -0.27950768760E+01 -0.35022284824E+01 -0.12861211871E+01  0.46617772421E+01  0.51100000000E-03 0.  1.
         12    1    4    4    0    0 -0.74035893443E+01  0.22987696744E+02  0.17631197175E+02  0.29901612842E+02  0.00000000000E+00 0. -1.
</event>
<event>
 8    1  0.1531490E-011  0.9118800E+02  0.7816164E-02  0.1184000E+00
        -11   -1    0    0    0    0  0.00000000000E+00  0.00000000000E+00  0.45593999997E+02  0.45594000000E+02  0.51100000000E-03 0. -1.
         11   -1    0    0    0    0 -0.00000000000E+00 -0.00000000000E+00 -0.45593999997E+02  0.45594000000E+02  0.51100000000E-03 0.  1.
         23    2    1    2    0    0 -0.44408920985E-15  0.00000000000E+00  0.00000000000E+00  0.91188000000E+02  0.91188000000E+02 0.  0.
    9900012    2    3    3    0    0  0.34500938805E+01  0.11712971337E+02  0.38782336212E+02  0.50528850385E+02  0.29999971230E+02 0.  0.
        -12    1    3    3    0    0 -0.34500938805E+01 -0.11712971337E+02 -0.38782336212E+02  0.40659149615E+02  0.00000000000E+00 0.  1.
         11    1    4    4    0    0  0.16205326655E+01  0.84873228215E+01  0.18909778078E+02  0.20790393984E+02  0.51100000000E-03 0. -1.
        -11    1    4    4    0    0  0.10327986929E+02  0.37268879700E+01  0.17900810965E+02  0.20999905748E+02  0.51100000000E-03 0.  1.
        -12    1    4    4    0    0 -0.84984257144E+01 -0.50123945443E+00  0.19717471693E+01  0.87385506529E+01  0.00000000000E+00 0.  1.
</event>
<event>
 8    1  0.7977359E-012  0.9118800E+02  0.7816164E-02  0.1184000E+00
        -11   -1    0    0    0    0  0.00000000000E+00  0.00000000000E+00  0.45593999997E+02  0.45594000000E+02  0.51100000000E-03 0. -1.
         11   -1    0    0    0    0 -0.00000000000E+00 -0.00000000000E+00 -0.45593999997E+02  0.45594000000E+02  0.51100000000E-03 0.  1.
         23    2    1    2    0    0  0.00000000000E+00  0.00000000000E+00  0.00000000000E+00  0.91188000000E+02  0.91188000000E+02 0.  0.
    9900012    2    3    3    0    0 -0.22227708694E+02  0.40947314620E+01 -0.33798416163E+02  0.50528796926E+02  0.29999808734E+02 0.  0.
         12    1    3    3    0    0  0.22227708694E+02 -0.40947314620E+01  0.33798416163E+02  0.40659203074E+02  0.00000000000E+00 0. -1.
         11    1    4    4    0    0 -0.16711177132E+02  0.14809578249E+02 -0.12934168473E+02  0.25804646159E+02  0.51100000000E-03 0. -1.
        -11    1    4    4    0    0 -0.38365139860E+01 -0.38958296302E+01 -0.13414221878E+02  0.14485774985E+02  0.51100000000E-03 0.  1.
        -12    1    4    4    0    0 -0.16800175755E+01 -0.68190171565E+01 -0.74500258120E+01  0.10238375781E+02  0.00000000000E+00 0.  1.
</event>
<event>
 8    1  0.7977359E-012  0.9118800E+02  0.7816164E-02  0.1184000E+00
        -11   -1    0    0    0    0  0.00000000000E+00  0.00000000000E+00  0.45593999997E+02  0.45594000000E+02  0.51100000000E-03 0. -1.
         11   -1    0    0    0    0 -0.00000000000E+00 -0.00000000000E+00 -0.45593999997E+02  0.45594000000E+02  0.51100000000E-03 0.  1.
         23    2    1    2    0    0  0.00000000000E+00  0.00000000000E+00  0.00000000000E+00  0.91188000000E+02  0.91188000000E+02 0.  0.
    9900012    2    3    3    0    0  0.13789404295E+01 -0.37885147053E+02 -0.14696285275E+02  0.50528847957E+02  0.29999963851E+02 0.  0.
         12    1    3    3    0    0 -0.13789404295E+01  0.37885147053E+02  0.14696285275E+02  0.40659152043E+02  0.00000000000E+00 0. -1.
         11    1    4    4    0    0  0.47959523204E+01  0.22836295094E+01 -0.13816990719E+01  0.54886441843E+01  0.51100000000E-03 0. -1.
        -11    1    4    4    0    0 -0.89802583889E+01 -0.29769622369E+02 -0.80181796858E+01  0.32111783856E+02  0.51100000000E-03 0.  1.
         12    1    4    4    0    0  0.55632464980E+01 -0.10399154194E+02 -0.52964065172E+01  0.12928419917E+02  0.00000000000E+00 0. -1.
</event>
<event>
 8    1  0.7977359E-012  0.9118800E+02  0.7816164E-02  0.1184000E+00
        -11   -1    0    0    0    0  0.00000000000E+00  0.00000000000E+00  0.45593999997E+02  0.45594000000E+02  0.51100000000E-03 0. -1.
         11   -1    0    0    0    0 -0.00000000000E+00 -0.00000000000E+00 -0.45593999997E+02  0.45594000000E+02  0.51100000000E-03 0.  1.
         23    2    1    2    0    0  0.00000000000E+00 -0.17763568394E-14  0.00000000000E+00  0.91188000000E+02  0.91188000000E+02 0.  0.
    9900012    2    3    3    0    0  0.15981789299E+02 -0.15158401537E+02  0.34175585315E+02  0.50528863782E+02  0.30000011951E+02 0.  0.
        -12    1    3    3    0    0 -0.15981789299E+02  0.15158401537E+02 -0.34175585315E+02  0.40659136218E+02  0.00000000000E+00 0.  1.
         11    1    4    4    0    0 -0.12199652696E+01 -0.88863959958E+00  0.50879707960E-01  0.15101604560E+01  0.51100000000E-03 0. -1.
        -11    1    4    4    0    0  0.44718891605E+01  0.28154256571E+01  0.25485593327E+02  0.26027675305E+02  0.51100000000E-03 0.  1.
        -12    1    4    4    0    0  0.12729865408E+02 -0.17085187595E+02  0.86391122807E+01  0.22991028021E+02  0.00000000000E+00 0.  1.
</event>
<event>
 8    1  0.7977359E-012  0.9118800E+02  0.7816164E-02  0.1184000E+00
        -11   -1    0    0    0    0  0.00000000000E+00  0.00000000000E+00  0.45593999997E+02  0.45594000000E+02  0.51100000000E-03 0. -1.
         11   -1    0    0    0    0 -0.00000000000E+00 -0.00000000000E+00 -0.45593999997E+02  0.45594000000E+02  0.51100000000E-03 0.  1.
         23    2    1    2    0    0  0.00000000000E+00  0.00000000000E+00  0.71054273576E-14  0.91188000000E+02  0.91188000000E+02 0.  0.
    9900012    2    3    3    0    0 -0.97814465841E+01  0.15087065217E+02 -0.36467375821E+02  0.50528859166E+02  0.29999997920E+02 0.  0.
         12    1    3    3    0    0  0.97814465841E+01 -0.15087065217E+02  0.36467375821E+02  0.40659140834E+02  0.00000000000E+00 0. -1.
         11    1    4    4    0    0 -0.58480333614E+00  0.31596489288E+01 -0.10685395475E+02  0.11158093610E+02  0.51100000000E-03 0. -1.
        -11    1    4    4    0    0 -0.33705163887E+01  0.11764893433E+02 -0.29851157257E+02  0.32262434627E+02  0.51100000000E-03 0.  1.
         12    1    4    4    0    0 -0.58261268593E+01  0.16252285527E+00  0.40691769110E+01  0.71083309287E+01  0.00000000000E+00 0. -1.
</event>
<event>
 8    1  0.7977359E-012  0.9118800E+02  0.7816164E-02  0.1184000E+00
        -11   -1    0    0    0    0  0.00000000000E+00  0.00000000000E+00  0.45593999997E+02  0.45594000000E+02  0.51100000000E-03 0. -1.
         11   -1    0    0    0    0 -0.00000000000E+00 -0.00000000000E+00 -0.45593999997E+02  0.45594000000E+02  0.51100000000E-03 0.  1.
         23    2    1    2    0    0 -0.17763568394E-14  0.00000000000E+00  0.00000000000E+00  0.91188000000E+02  0.91188000000E+02 0.  0.
    9900012    2    3    3    0    0 -0.97793072768E+01 -0.88594894574E+01 -0.38458232178E+02  0.50528917047E+02  0.30000173857E+02 0.  0.
         12    1    3    3    0    0  0.97793072768E+01  0.88594894574E+01  0.38458232178E+02  0.40659082953E+02  0.00000000000E+00 0. -1.
         11    1    4    4    0    0  0.26676129629E+01  0.46855601762E+01 -0.61721293951E+01  0.81954752526E+01  0.51100000000E-03 0. -1.
        -11    1    4    4    0    0 -0.86991464482E+00 -0.89004478653E+01 -0.27592746534E+02  0.29005764690E+02  0.51100000000E-03 0.  1.
        -12    1    4    4    0    0 -0.11577005595E+02 -0.46446017682E+01 -0.46933562494E+01  0.13327677105E+02  0.00000000000E+00 0.  1.
</event>
<event>
 8    1  0.7977359E-012  0.9118800E+02  0.7816164E-02  0.1184000E+00
        -11   -1    0    0    0    0  0.00000000000E+00  0.00000000000E+00  0.45593999997E+02  0.45594000000E+02  0.51100000000E-03 0.  1.
         11   -1    0    0    0    0 -0.00000000000E+00 -0.00000000000E+00 -0.45593999997E+02  0.45594000000E+02  0.51100000000E-03 0. -1.
         23    2    1    2    0    0  0.00000000000E+00  0.35527136788E-14  0.00000000000E+00  0.91188000000E+02  0.91188000000E+02 0.  0.
    9900012    2    3    3    0    0 -0.22308589923E+02 -0.29724424217E+02  0.16490938826E+02  0.50528860281E+02  0.30000001309E+02 0.  0.
        -12    1    3    3    0    0  0.22308589923E+02  0.29724424217E+02 -0.16490938826E+02  0.40659139719E+02  0.00000000000E+00 0.  1.
         11    1    4    4    0    0 -0.53839482923E+01 -0.13852166435E+02 -0.30236381731E+01  0.15166139991E+02  0.51100000000E-03 0. -1.
        -11    1    4    4    0    0  0.38153523643E+00 -0.11725051468E+01 -0.30875048149E+01  0.33246088039E+01  0.51100000000E-03 0.  1.
        -12    1    4    4    0    0 -0.17306176867E+02 -0.14699752635E+02  0.22602081814E+02  0.32038111486E+02  0.00000000000E+00 0.  1.
</event>
<event>
 8    1  0.7977359E-012  0.9118800E+02  0.7816164E-02  0.1184000E+00
        -11   -1    0    0    0    0  0.00000000000E+00  0.00000000000E+00  0.45593999997E+02  0.45594000000E+02  0.51100000000E-03 0. -1.
         11   -1    0    0    0    0 -0.00000000000E+00 -0.00000000000E+00 -0.45593999997E+02  0.45594000000E+02  0.51100000000E-03 0.  1.
         23    2    1    2    0    0  0.44408920985E-15 -0.22204460493E-15  0.71054273576E-14  0.91188000000E+02  0.91188000000E+02 0.  0.
    9900012    2    3    3    0    0 -0.11396009476E+01 -0.17884831635E+01 -0.40603801001E+02  0.50528855665E+02  0.29999987278E+02 0.  0.
         12    1    3    3    0    0  0.11396009476E+01  0.17884831635E+01  0.40603801001E+02  0.40659144335E+02  0.00000000000E+00 0. -1.
         11    1    4    4    0    0 -0.48468955431E+01  0.18193029055E+01 -0.40315989585E+01  0.65617108966E+01  0.51100000000E-03 0. -1.
        -11    1    4    4    0    0 -0.41127434941E+01 -0.91694194608E+01 -0.55194495005E+01  0.11465480162E+02  0.51100000000E-03 0.  1.
         12    1    4    4    0    0  0.78200380896E+01  0.55616333918E+01 -0.31052752542E+02  0.32501664606E+02  0.00000000000E+00 0. -1.
</event>
<event>
 8    1  0.1017288E-011  0.9118800E+02  0.7816164E-02  0.1184000E+00
        -11   -1    0    0    0    0  0.00000000000E+00  0.00000000000E+00  0.45593999997E+02  0.45594000000E+02  0.51100000000E-03 0. -1.
         11   -1    0    0    0    0 -0.00000000000E+00 -0.00000000000E+00 -0.45593999997E+02  0.45594000000E+02  0.51100000000E-03 0.  1.
         23    2    1    2    0    0  0.22204460493E-15  0.13322676296E-14  0.00000000000E+00  0.91188000000E+02  0.91188000000E+02 0.  0.
    9900012    2    3    3    0    0  0.11955553443E+01  0.34272579743E+01  0.40496794191E+02  0.50528858475E+02  0.29999995822E+02 0.  0.
        -12    1    3    3    0    0 -0.11955553443E+01 -0.34272579743E+01 -0.40496794191E+02  0.40659141525E+02  0.00000000000E+00 0.  1.
         11    1    4    4    0    0 -0.27874218128E+01  0.26515740571E+01  0.28438059199E+02  0.28697103976E+02  0.51100000000E-03 0. -1.
        -11    1    4    4    0    0 -0.49505260742E+01 -0.50227017772E+01  0.23872118603E+01  0.74454027615E+01  0.51100000000E-03 0.  1.
        -12    1    4    4    0    0  0.89335032312E+01  0.57983856944E+01  0.96715231314E+01  0.14386351738E+02  0.00000000000E+00 0.  1.
</event>
<event>
 8    1  0.7977359E-012  0.9118800E+02  0.7816164E-02  0.1184000E+00
        -11   -1    0    0    0    0  0.00000000000E+00  0.00000000000E+00  0.45593999997E+02  0.45594000000E+02  0.51100000000E-03 0. -1.
         11   -1    0    0    0    0 -0.00000000000E+00 -0.00000000000E+00 -0.45593999997E+02  0.45594000000E+02  0.51100000000E-03 0.  1.
         23    2    1    2    0    0  0.00000000000E+00  0.71054273576E-14  0.00000000000E+00  0.91188000000E+02  0.91188000000E+02 0.  0.
    9900012    2    3    3    0    0 -0.13132601657E+02  0.34253194383E+02 -0.17533375272E+02  0.50528858345E+02  0.29999995425E+02 0.  0.
         12    1    3    3    0    0  0.13132601657E+02 -0.34253194383E+02  0.17533375272E+02  0.40659141655E+02  0.00000000000E+00 0. -1.
         11    1    4    4    0    0 -0.12368877457E+01  0.62954404078E+01 -0.13424956738E+02  0.14879244769E+02  0.51100000000E-03 0.  1.
        -11    1    4    4    0    0 -0.11510190645E+02  0.16019244752E+02  0.53219181357E+01  0.20430944765E+02  0.51100000000E-03 0. -1.
         12    1    4    4    0    0 -0.38552326671E+00  0.11938509223E+02 -0.94303366693E+01  0.15218668810E+02  0.00000000000E+00 0. -1.
</event>
<event>
 8    1  0.7977359E-012  0.9118800E+02  0.7816164E-02  0.1184000E+00
        -11   -1    0    0    0    0  0.00000000000E+00  0.00000000000E+00  0.45593999997E+02  0.45594000000E+02  0.51100000000E-03 0. -1.
         11   -1    0    0    0    0 -0.00000000000E+00 -0.00000000000E+00 -0.45593999997E+02  0.45594000000E+02  0.51100000000E-03 0.  1.
         23    2    1    2    0    0  0.35527136788E-14 -0.35527136788E-14  0.00000000000E+00  0.91188000000E+02  0.91188000000E+02 0.  0.
    9900012    2    3    3    0    0 -0.17777376233E+02  0.29463138984E+02  0.21657641578E+02  0.50528866915E+02  0.30000021473E+02 0.  0.
        -12    1    3    3    0    0  0.17777376233E+02 -0.29463138984E+02 -0.21657641578E+02  0.40659133085E+02  0.00000000000E+00 0.  1.
         11    1    4    4    0    0 -0.36167541093E+01  0.12951759055E+02 -0.27115602698E+01  0.13717927404E+02  0.51100000000E-03 0. -1.
        -11    1    4    4    0    0 -0.83728816575E-01  0.24589292545E+01 -0.24159201671E+01  0.34481899757E+01  0.51100000000E-03 0.  1.
         12    1    4    4    0    0 -0.14076893307E+02  0.14052450674E+02  0.26785122015E+02  0.33362749534E+02  0.00000000000E+00 0. -1.
</event>
<event>
 8    1  0.7977359E-012  0.9118800E+02  0.7816164E-02  0.1184000E+00
        -11   -1    0    0    0    0  0.00000000000E+00  0.00000000000E+00  0.45593999997E+02  0.45594000000E+02  0.51100000000E-03 0. -1.
         11   -1    0    0    0    0 -0.00000000000E+00 -0.00000000000E+00 -0.45593999997E+02  0.45594000000E+02  0.51100000000E-03 0.  1.
         23    2    1    2    0    0 -0.80491169285E-15  0.26645352591E-14  0.00000000000E+00  0.91188000000E+02  0.91188000000E+02 0.  0.
    9900012    2    3    3    0    0 -0.19873200009E+00  0.48647707475E+01  0.40366569547E+02  0.50528862948E+02  0.30000009417E+02 0.  0.
        -12    1    3    3    0    0  0.19873200009E+00 -0.48647707475E+01 -0.40366569547E+02  0.40659137052E+02  0.00000000000E+00 0.  1.
         11    1    4    4    0    0 -0.31794321814E+01  0.57699293645E+01  0.26494887774E+01  0.71007510103E+01  0.51100000000E-03 0. -1.
        -11    1    4    4    0    0 -0.65058680612E+00  0.10005398030E+02  0.17292508687E+02  0.19989049749E+02  0.51100000000E-03 0.  1.
        -12    1    4    4    0    0  0.36312869875E+01 -0.10910556647E+02  0.20424572082E+02  0.23439062188E+02  0.00000000000E+00 0.  1.
</event>
<event>
 8    1  0.7977359E-012  0.9118800E+02  0.7816164E-02  0.1184000E+00
        -11   -1    0    0    0    0  0.00000000000E+00  0.00000000000E+00  0.45593999997E+02  0.45594000000E+02  0.51100000000E-03 0. -1.
         11   -1    0    0    0    0 -0.00000000000E+00 -0.00000000000E+00 -0.45593999997E+02  0.45594000000E+02  0.51100000000E-03 0.  1.
         23    2    1    2    0    0 -0.17763568394E-14  0.00000000000E+00  0.35527136788E-14  0.91188000000E+02  0.91188000000E+02 0.  0.
    9900012    2    3    3    0    0 -0.13838789838E+02 -0.28270052979E+02  0.25738224094E+02  0.50528878279E+02  0.30000056017E+02 0.  0.
        -12    1    3    3    0    0  0.13838789838E+02  0.28270052979E+02 -0.25738224094E+02  0.40659121721E+02  0.00000000000E+00 0.  1.
         11    1    4    4    0    0  0.18653270171E+01  0.17750991211E+01  0.23489027259E+00  0.25856518466E+01  0.51100000000E-03 0. -1.
        -11    1    4    4    0    0  0.57402376181E+01 -0.53361356773E+01  0.40745185186E+01  0.88332538341E+01  0.51100000000E-03 0.  1.
         12    1    4    4    0    0 -0.21444354473E+02 -0.24709016423E+02  0.21428815303E+02  0.39109972598E+02  0.00000000000E+00 0. -1.
</event>
<event>
 8    1  0.7977359E-012  0.9118800E+02  0.7816164E-02  0.1184000E+00
        -11   -1    0    0    0    0  0.00000000000E+00  0.00000000000E+00  0.45593999997E+02  0.45594000000E+02  0.51100000000E-03 0. -1.
         11   -1    0    0    0    0 -0.00000000000E+00 -0.00000000000E+00 -0.45593999997E+02  0.45594000000E+02  0.51100000000E-03 0.  1.
         23    2    1    2    0    0  0.35527136788E-14  0.00000000000E+00  0.00000000000E+00  0.91188000000E+02  0.91188000000E+02 0.  0.
    9900012    2    3    3    0    0  0.31659534059E+02  0.33847531590E+01  0.25286021255E+02  0.50528861769E+02  0.30000005833E+02 0.  0.
        -12    1    3    3    0    0 -0.31659534059E+02 -0.33847531590E+01 -0.25286021255E+02  0.40659138231E+02  0.00000000000E+00 0.  1.
         11    1    4    4    0    0  0.33326944225E+02 -0.99833784543E+00  0.18962471608E+02  0.38356970938E+02  0.51100000000E-03 0. -1.
        -11    1    4    4    0    0 -0.21324353201E+01  0.15269238528E+01  0.82756038636E+01  0.86812669821E+01  0.51100000000E-03 0.  1.
        -12    1    4    4    0    0  0.46502515406E+00  0.28561671517E+01 -0.19520542160E+01  0.34906238489E+01  0.00000000000E+00 0.  1.
</event>
<event>
 8    1  0.7977359E-012  0.9118800E+02  0.7816164E-02  0.1184000E+00
        -11   -1    0    0    0    0  0.00000000000E+00  0.00000000000E+00  0.45593999997E+02  0.45594000000E+02  0.51100000000E-03 0. -1.
         11   -1    0    0    0    0 -0.00000000000E+00 -0.00000000000E+00 -0.45593999997E+02  0.45594000000E+02  0.51100000000E-03 0.  1.
         23    2    1    2    0    0  0.35527136788E-14  0.00000000000E+00  0.00000000000E+00  0.91188000000E+02  0.91188000000E+02 0.  0.
    9900012    2    3    3    0    0  0.31873199920E+02  0.91394373405E+01  0.23531600931E+02  0.50528850594E+02  0.29999971867E+02 0.  0.
        -12    1    3    3    0    0 -0.31873199920E+02 -0.91394373405E+01 -0.23531600931E+02  0.40659149406E+02  0.00000000000E+00 0.  1.
         11    1    4    4    0    0 -0.37436350863E+01  0.10656053287E+01  0.46967658029E+01  0.60999940692E+01  0.51100000000E-03 0. -1.
        -11    1    4    4    0    0 -0.12234991177E+01  0.20382397452E+01 -0.43599505499E+00  0.24169119345E+01  0.51100000000E-03 0.  1.
         12    1    4    4    0    0  0.36840334124E+02  0.60355922666E+01  0.19270830183E+02  0.42011944591E+02  0.00000000000E+00 0. -1.
</event>
<event>
 8    1  0.7977359E-012  0.9118800E+02  0.7816164E-02  0.1184000E+00
        -11   -1    0    0    0    0  0.00000000000E+00  0.00000000000E+00  0.45593999997E+02  0.45594000000E+02  0.51100000000E-03 0. -1.
         11   -1    0    0    0    0 -0.00000000000E+00 -0.00000000000E+00 -0.45593999997E+02  0.45594000000E+02  0.51100000000E-03 0.  1.
         23    2    1    2    0    0  0.44408920985E-15 -0.17763568394E-14  0.00000000000E+00  0.91188000000E+02  0.91188000000E+02 0.  0.
    9900012    2    3    3    0    0 -0.37049192274E+01  0.12062569819E+02 -0.38651439497E+02  0.50528858441E+02  0.29999995717E+02 0.  0.
         12    1    3    3    0    0  0.37049192274E+01 -0.12062569819E+02  0.38651439497E+02  0.40659141559E+02  0.00000000000E+00 0. -1.
         11    1    4    4    0    0 -0.13402608962E+01 -0.11576263695E+01 -0.99598962854E+00  0.20318448963E+01  0.51100000000E-03 0.  1.
        -11    1    4    4    0    0  0.27321717569E+01 -0.71170849609E+01 -0.34286049823E+01  0.83590067135E+01  0.51100000000E-03 0. -1.
         12    1    4    4    0    0 -0.50968300881E+01  0.20337281149E+02 -0.34226844886E+02  0.40138006831E+02  0.00000000000E+00 0. -1.
</event>
<event>
 8    1  0.7977359E-012  0.9118800E+02  0.7816164E-02  0.1184000E+00
        -11   -1    0    0    0    0  0.00000000000E+00  0.00000000000E+00  0.45593999997E+02  0.45594000000E+02  0.51100000000E-03 0. -1.
         11   -1    0    0    0    0 -0.00000000000E+00 -0.00000000000E+00 -0.45593999997E+02  0.45594000000E+02  0.51100000000E-03 0.  1.
         23    2    1    2    0    0  0.17763568394E-14  0.17763568394E-14  0.14210854715E-13  0.91188000000E+02  0.91188000000E+02 0.  0.
    9900012    2    3    3    0    0  0.11684334065E+02  0.13299602158E+02  0.36602762254E+02  0.50528864683E+02  0.30000014691E+02 0.  0.
        -12    1    3    3    0    0 -0.11684334065E+02 -0.13299602158E+02 -0.36602762254E+02  0.40659135317E+02  0.00000000000E+00 0.  1.
         11    1    4    4    0    0  0.54689878423E+01  0.62388327718E+01  0.18577167713E+02  0.20345614340E+02  0.51100000000E-03 0. -1.
        -11    1    4    4    0    0  0.93964559220E+01  0.66391325036E+01  0.22148629221E+02  0.24958630590E+02  0.51100000000E-03 0.  1.
        -12    1    4    4    0    0 -0.31811096989E+01  0.42163688284E+00 -0.41230346811E+01  0.52246197526E+01  0.00000000000E+00 0.  1.
</event>
<event>
 8    1  0.7977359E-012  0.9118800E+02  0.7816164E-02  0.1184000E+00
        -11   -1    0    0    0    0  0.00000000000E+00  0.00000000000E+00  0.45593999997E+02  0.45594000000E+02  0.51100000000E-03 0. -1.
         11   -1    0    0    0    0 -0.00000000000E+00 -0.00000000000E+00 -0.45593999997E+02  0.45594000000E+02  0.51100000000E-03 0.  1.
         23    2    1    2    0    0  0.00000000000E+00  0.00000000000E+00  0.00000000000E+00  0.91188000000E+02  0.91188000000E+02 0.  0.
    9900012    2    3    3    0    0 -0.56493712209E+01 -0.17041249360E+02 -0.36480752831E+02  0.50528869389E+02  0.30000028995E+02 0.  0.
         12    1    3    3    0    0  0.56493712209E+01  0.17041249360E+02  0.36480752831E+02  0.40659130611E+02  0.00000000000E+00 0. -1.
         11    1    4    4    0    0 -0.20287393822E+01 -0.72056697270E+01  0.46630528462E+00  0.75003266979E+01  0.51100000000E-03 0. -1.
        -11    1    4    4    0    0  0.28605557865E+01  0.28014557577E+01 -0.65566039396E+00  0.40571941762E+01  0.51100000000E-03 0.  1.
        -12    1    4    4    0    0 -0.64811876252E+01 -0.12637035390E+02 -0.36291397721E+02  0.38971348515E+02  0.00000000000E+00 0.  1.
</event>
<event>
 8    1  0.7977359E-012  0.9118800E+02  0.7816164E-02  0.1184000E+00
        -11   -1    0    0    0    0  0.00000000000E+00  0.00000000000E+00  0.45593999997E+02  0.45594000000E+02  0.51100000000E-03 0. -1.
         11   -1    0    0    0    0 -0.00000000000E+00 -0.00000000000E+00 -0.45593999997E+02  0.45594000000E+02  0.51100000000E-03 0.  1.
         23    2    1    2    0    0  0.35527136788E-14  0.00000000000E+00  0.35527136788E-14  0.91188000000E+02  0.91188000000E+02 0.  0.
    9900012    2    3    3    0    0  0.20967174134E+02  0.23889060801E+02  0.25354565438E+02  0.50528885331E+02  0.30000077451E+02 0.  0.
        -12    1    3    3    0    0 -0.20967174134E+02 -0.23889060801E+02 -0.25354565438E+02  0.40659114669E+02  0.00000000000E+00 0.  1.
         11    1    4    4    0    0  0.11261347335E+02  0.10080693076E+02  0.11398229833E+02  0.18930344959E+02  0.51100000000E-03 0. -1.
        -11    1    4    4    0    0  0.16329052633E+02  0.13541139484E+02  0.13056090703E+02  0.24909073109E+02  0.51100000000E-03 0.  1.
        -12    1    4    4    0    0 -0.66232258338E+01  0.26722824092E+00  0.90024490175E+00  0.66894672629E+01  0.00000000000E+00 0.  1.
</event>
<event>
 8    1  0.7977359E-012  0.9118800E+02  0.7816164E-02  0.1184000E+00
        -11   -1    0    0    0    0  0.00000000000E+00  0.00000000000E+00  0.45593999997E+02  0.45594000000E+02  0.51100000000E-03 0. -1.
         11   -1    0    0    0    0 -0.00000000000E+00 -0.00000000000E+00 -0.45593999997E+02  0.45594000000E+02  0.51100000000E-03 0.  1.
         23    2    1    2    0    0  0.00000000000E+00  0.00000000000E+00  0.00000000000E+00  0.91188000000E+02  0.91188000000E+02 0.  0.
    9900012    2    3    3    0    0  0.12586452706E+02  0.16598762974E+02 -0.34917442187E+02  0.50528862124E+02  0.30000006911E+02 0.  0.
         12    1    3    3    0    0 -0.12586452706E+02 -0.16598762974E+02  0.34917442187E+02  0.40659137876E+02  0.00000000000E+00 0. -1.
         11    1    4    4    0    0  0.10984176671E+02  0.11921655452E+02 -0.40936242673E+01  0.16719323126E+02  0.51100000000E-03 0. -1.
        -11    1    4    4    0    0 -0.33711227242E+01  0.31545060019E+01 -0.30050093765E+01  0.55086711784E+01  0.51100000000E-03 0.  1.
         12    1    4    4    0    0  0.49733987588E+01  0.15226015200E+01 -0.27818808543E+02  0.28300867820E+02  0.00000000000E+00 0. -1.
</event>
<event>
 8    1  0.7977359E-012  0.9118800E+02  0.7816164E-02  0.1184000E+00
        -11   -1    0    0    0    0  0.00000000000E+00  0.00000000000E+00  0.45593999997E+02  0.45594000000E+02  0.51100000000E-03 0. -1.
         11   -1    0    0    0    0 -0.00000000000E+00 -0.00000000000E+00 -0.45593999997E+02  0.45594000000E+02  0.51100000000E-03 0.  1.
         23    2    1    2    0    0 -0.17763568394E-14  0.00000000000E+00  0.00000000000E+00  0.91188000000E+02  0.91188000000E+02 0.  0.
    9900012    2    3    3    0    0  0.15084753626E+02 -0.16984819429E+02 -0.33721377104E+02  0.50528866257E+02  0.30000019474E+02 0.  0.
         12    1    3    3    0    0 -0.15084753626E+02  0.16984819429E+02  0.33721377104E+02  0.40659133743E+02  0.00000000000E+00 0. -1.
         11    1    4    4    0    0 -0.56711999244E+01 -0.43916441216E+01 -0.66429287627E+01  0.97763771143E+01  0.51100000000E-03 0. -1.
        -11    1    4    4    0    0  0.22523217996E+01 -0.11676242848E+02 -0.11578950624E+02  0.16597581099E+02  0.51100000000E-03 0.  1.
         12    1    4    4    0    0  0.18503631751E+02 -0.91693245901E+00 -0.15499497717E+02  0.24154908043E+02  0.00000000000E+00 0. -1.
</event>
<event>
 8    1  0.7977359E-012  0.9118800E+02  0.7816164E-02  0.1184000E+00
        -11   -1    0    0    0    0  0.00000000000E+00  0.00000000000E+00  0.45593999997E+02  0.45594000000E+02  0.51100000000E-03 0. -1.
         11   -1    0    0    0    0 -0.00000000000E+00 -0.00000000000E+00 -0.45593999997E+02  0.45594000000E+02  0.51100000000E-03 0.  1.
         23    2    1    2    0    0  0.00000000000E+00  0.00000000000E+00  0.35527136788E-14  0.91188000000E+02  0.91188000000E+02 0.  0.
    9900012    2    3    3    0    0 -0.18135852586E+02  0.24647488407E+02 -0.26772322123E+02  0.50528867377E+02  0.30000022879E+02 0.  0.
         12    1    3    3    0    0  0.18135852586E+02 -0.24647488407E+02  0.26772322123E+02  0.40659132623E+02  0.00000000000E+00 0. -1.
         11    1    4    4    0    0 -0.16942759647E+02  0.10211854037E+02 -0.87947178856E+01  0.21649160037E+02  0.51100000000E-03 0. -1.
        -11    1    4    4    0    0 -0.62001982203E+01  0.27761079604E+00 -0.11261146295E+01  0.63077460432E+01  0.51100000000E-03 0.  1.
        -12    1    4    4    0    0  0.50071052810E+01  0.14158023574E+02 -0.16851489607E+02  0.22571961297E+02  0.00000000000E+00 0.  1.
</event>
<event>
 8    1  0.7977359E-012  0.9118800E+02  0.7816164E-02  0.1184000E+00
        -11   -1    0    0    0    0  0.00000000000E+00  0.00000000000E+00  0.45593999997E+02  0.45594000000E+02  0.51100000000E-03 0. -1.
         11   -1    0    0    0    0 -0.00000000000E+00 -0.00000000000E+00 -0.45593999997E+02  0.45594000000E+02  0.51100000000E-03 0.  1.
         23    2    1    2    0    0  0.00000000000E+00 -0.35527136788E-14  0.00000000000E+00  0.91188000000E+02  0.91188000000E+02 0.  0.
    9900012    2    3    3    0    0 -0.33812648170E+02  0.13982840159E+02  0.17729868177E+02  0.50528890065E+02  0.30000091840E+02 0.  0.
        -12    1    3    3    0    0  0.33812648170E+02 -0.13982840159E+02 -0.17729868177E+02  0.40659109935E+02  0.00000000000E+00 0.  1.
         11    1    4    4    0    0 -0.16469176074E+02  0.79733508522E+01 -0.18772509052E+01  0.18393807534E+02  0.51100000000E-03 0. -1.
        -11    1    4    4    0    0 -0.89567739464E+01  0.10598664160E+02  0.51467328259E+01  0.14800146639E+02  0.51100000000E-03 0.  1.
        -12    1    4    4    0    0 -0.83866981492E+01 -0.45891748528E+01  0.14460386257E+02  0.17334935892E+02  0.00000000000E+00 0.  1.
</event>
<event>
 8    1  0.7977359E-012  0.9118800E+02  0.7816164E-02  0.1184000E+00
        -11   -1    0    0    0    0  0.00000000000E+00  0.00000000000E+00  0.45593999997E+02  0.45594000000E+02  0.51100000000E-03 0.  1.
         11   -1    0    0    0    0 -0.00000000000E+00 -0.00000000000E+00 -0.45593999997E+02  0.45594000000E+02  0.51100000000E-03 0. -1.
         23    2    1    2    0    0  0.00000000000E+00  0.71054273576E-14  0.22204460493E-15  0.91188000000E+02  0.91188000000E+02 0.  0.
    9900012    2    3    3    0    0 -0.20299030649E+02 -0.35209646269E+02 -0.11846363669E+01  0.50528767359E+02  0.29999718862E+02 0.  0.
        -12    1    3    3    0    0  0.20299030649E+02  0.35209646269E+02  0.11846363669E+01  0.40659232641E+02  0.00000000000E+00 0.  1.
         11    1    4    4    0    0 -0.43356442613E+01 -0.27548233972E+02 -0.27343425624E+00  0.27888667459E+02  0.51100000000E-03 0. -1.
        -11    1    4    4    0    0 -0.55081658320E+01 -0.60897443812E+01  0.58574511245E+01  0.10086357687E+02  0.51100000000E-03 0.  1.
         12    1    4    4    0    0 -0.10455220556E+02 -0.15716679158E+01 -0.67686532352E+01  0.12553742212E+02  0.00000000000E+00 0. -1.
</event>
<event>
 8    1  0.7977359E-012  0.9118800E+02  0.7816164E-02  0.1184000E+00
        -11   -1    0    0    0    0  0.00000000000E+00  0.00000000000E+00  0.45593999997E+02  0.45594000000E+02  0.51100000000E-03 0.  1.
         11   -1    0    0    0    0 -0.00000000000E+00 -0.00000000000E+00 -0.45593999997E+02  0.45594000000E+02  0.51100000000E-03 0. -1.
         23    2    1    2    0    0  0.21094237468E-14  0.71054273576E-14  0.00000000000E+00  0.91188000000E+02  0.91188000000E+02 0.  0.
    9900012    2    3    3    0    0 -0.69786861968E+00 -0.38943493490E+02  0.11665460342E+02  0.50528859935E+02  0.30000000260E+02 0.  0.
        -12    1    3    3    0    0  0.69786861968E+00  0.38943493490E+02 -0.11665460342E+02  0.40659140065E+02  0.00000000000E+00 0.  1.
         11    1    4    4    0    0  0.41572858350E+01 -0.11220588212E+02  0.90577389960E+00  0.12000210496E+02  0.51100000000E-03 0. -1.
        -11    1    4    4    0    0  0.58120552889E+01 -0.18987242338E+02  0.14085648528E+02  0.24345448301E+02  0.51100000000E-03 0.  1.
         12    1    4    4    0    0 -0.10667209744E+02 -0.87356629399E+01 -0.33259620855E+01  0.14183201138E+02  0.00000000000E+00 0. -1.
</event>
<event>
 8    1  0.7977359E-012  0.9118800E+02  0.7816164E-02  0.1184000E+00
        -11   -1    0    0    0    0  0.00000000000E+00  0.00000000000E+00  0.45593999997E+02  0.45594000000E+02  0.51100000000E-03 0. -1.
         11   -1    0    0    0    0 -0.00000000000E+00 -0.00000000000E+00 -0.45593999997E+02  0.45594000000E+02  0.51100000000E-03 0.  1.
         23    2    1    2    0    0  0.00000000000E+00  0.00000000000E+00 -0.71054273576E-14  0.91188000000E+02  0.91188000000E+02 0.  0.
    9900012    2    3    3    0    0 -0.16158371075E+02  0.94460632908E+01  0.36094939891E+02  0.50528858922E+02  0.29999997179E+02 0.  0.
        -12    1    3    3    0    0  0.16158371075E+02 -0.94460632908E+01 -0.36094939891E+02  0.40659141078E+02  0.00000000000E+00 0.  1.
         11    1    4    4    0    0  0.72839828764E+00  0.30947992102E+01  0.56673042337E+00  0.32294782629E+01  0.51100000000E-03 0. -1.
        -11    1    4    4    0    0  0.60480349558E+01 -0.10510856533E+01  0.12691978420E+02  0.14098575260E+02  0.51100000000E-03 0.  1.
         12    1    4    4    0    0 -0.22934804318E+02  0.74023497339E+01  0.22836231047E+02  0.33200805399E+02  0.00000000000E+00 0. -1.
</event>
<event>
 8    1  0.7977359E-012  0.9118800E+02  0.7816164E-02  0.1184000E+00
        -11   -1    0    0    0    0  0.00000000000E+00  0.00000000000E+00  0.45593999997E+02  0.45594000000E+02  0.51100000000E-03 0. -1.
         11   -1    0    0    0    0 -0.00000000000E+00 -0.00000000000E+00 -0.45593999997E+02  0.45594000000E+02  0.51100000000E-03 0.  1.
         23    2    1    2    0    0 -0.55511151231E-16  0.17763568394E-14  0.00000000000E+00  0.91188000000E+02  0.91188000000E+02 0.  0.
    9900012    2    3    3    0    0 -0.20683942503E+00 -0.40718529362E+01  0.40454200467E+02  0.50528866902E+02  0.30000021435E+02 0.  0.
        -12    1    3    3    0    0  0.20683942503E+00  0.40718529362E+01 -0.40454200467E+02  0.40659133098E+02  0.00000000000E+00 0.  1.
         11    1    4    4    0    0 -0.14333476687E+01 -0.11434160917E+02  0.53892234269E+01  0.12721566366E+02  0.51100000000E-03 0. -1.
        -11    1    4    4    0    0 -0.62572244492E+00  0.30932989860E+00 -0.88390534301E+00  0.11262781543E+01  0.51100000000E-03 0.  1.
         12    1    4    4    0    0  0.18522306886E+01  0.70529780819E+01  0.35948882383E+02  0.36681022381E+02  0.00000000000E+00 0. -1.
</event>
<event>
 8    1  0.7977359E-012  0.9118800E+02  0.7816164E-02  0.1184000E+00
        -11   -1    0    0    0    0  0.00000000000E+00  0.00000000000E+00  0.45593999997E+02  0.45594000000E+02  0.51100000000E-03 0. -1.
         11   -1    0    0    0    0 -0.00000000000E+00 -0.00000000000E+00 -0.45593999997E+02  0.45594000000E+02  0.51100000000E-03 0.  1.
         23    2    1    2    0    0  0.00000000000E+00 -0.17763568394E-14  0.00000000000E+00  0.91188000000E+02  0.91188000000E+02 0.  0.
    9900012    2    3    3    0    0 -0.20331802718E+02  0.94076053742E+01  0.33930492552E+02  0.50528885826E+02  0.30000078956E+02 0.  0.
        -12    1    3    3    0    0  0.20331802718E+02 -0.94076053742E+01 -0.33930492552E+02  0.40659114174E+02  0.00000000000E+00 0.  1.
         11    1    4    4    0    0 -0.39441228151E+01  0.11113126653E+02  0.13972113651E+01  0.11874758467E+02  0.51100000000E-03 0. -1.
        -11    1    4    4    0    0  0.21294470830E+01  0.56033971604E+00  0.39338617046E+01  0.45081918381E+01  0.51100000000E-03 0.  1.
         12    1    4    4    0    0 -0.18517126986E+02 -0.22658609951E+01  0.28599419482E+02  0.34145935520E+02  0.00000000000E+00 0. -1.
</event>
<event>
 8    1  0.7977359E-012  0.9118800E+02  0.7816164E-02  0.1184000E+00
        -11   -1    0    0    0    0  0.00000000000E+00  0.00000000000E+00  0.45593999997E+02  0.45594000000E+02  0.51100000000E-03 0. -1.
         11   -1    0    0    0    0 -0.00000000000E+00 -0.00000000000E+00 -0.45593999997E+02  0.45594000000E+02  0.51100000000E-03 0.  1.
         23    2    1    2    0    0 -0.13322676296E-14  0.00000000000E+00  0.00000000000E+00  0.91188000000E+02  0.91188000000E+02 0.  0.
    9900012    2    3    3    0    0 -0.34177992946E+01 -0.40131804604E+02 -0.55608506697E+01  0.50528854006E+02  0.29999982238E+02 0.  0.
         12    1    3    3    0    0  0.34177992946E+01  0.40131804604E+02  0.55608506697E+01  0.40659145994E+02  0.00000000000E+00 0. -1.
         11    1    4    4    0    0  0.18987993039E+01 -0.14255027285E+01  0.27472427354E+01  0.36310934626E+01  0.51100000000E-03 0. -1.
        -11    1    4    4    0    0  0.65798330065E+01 -0.26507671165E+02 -0.11372612058E+02  0.29585252040E+02  0.51100000000E-03 0.  1.
         12    1    4    4    0    0 -0.11896431605E+02 -0.12198630710E+02  0.30645186523E+01  0.17312508504E+02  0.00000000000E+00 0. -1.
</event>
<event>
 8    1  0.7977359E-012  0.9118800E+02  0.7816164E-02  0.1184000E+00
        -11   -1    0    0    0    0  0.00000000000E+00  0.00000000000E+00  0.45593999997E+02  0.45594000000E+02  0.51100000000E-03 0. -1.
         11   -1    0    0    0    0 -0.00000000000E+00 -0.00000000000E+00 -0.45593999997E+02  0.45594000000E+02  0.51100000000E-03 0.  1.
         23    2    1    2    0    0  0.17763568394E-14 -0.71054273576E-14 -0.17763568394E-14  0.91188000000E+02  0.91188000000E+02 0.  0.
    9900012    2    3    3    0    0 -0.12334396314E+02  0.37130321070E+02  0.11061986998E+02  0.50528860418E+02  0.30000001727E+02 0.  0.
        -12    1    3    3    0    0  0.12334396314E+02 -0.37130321070E+02 -0.11061986998E+02  0.40659139582E+02  0.00000000000E+00 0.  1.
         11    1    4    4    0    0 -0.41393573600E+01  0.24529782967E+02  0.14598487822E+02  0.28843723385E+02  0.51100000000E-03 0. -1.
        -11    1    4    4    0    0 -0.92059904204E+01  0.15542144973E+02 -0.41014252584E+01  0.18523774437E+02  0.51100000000E-03 0.  1.
        -12    1    4    4    0    0  0.10109514668E+01 -0.29416068701E+01  0.56492443431E+00  0.31613625959E+01  0.00000000000E+00 0.  1.
</event>
<event>
 8    1  0.7977359E-012  0.9118800E+02  0.7816164E-02  0.1184000E+00
        -11   -1    0    0    0    0  0.00000000000E+00  0.00000000000E+00  0.45593999997E+02  0.45594000000E+02  0.51100000000E-03 0. -1.
         11   -1    0    0    0    0 -0.00000000000E+00 -0.00000000000E+00 -0.45593999997E+02  0.45594000000E+02  0.51100000000E-03 0.  1.
         23    2    1    2    0    0  0.00000000000E+00  0.00000000000E+00  0.17763568394E-14  0.91188000000E+02  0.91188000000E+02 0.  0.
    9900012    2    3    3    0    0  0.16580997921E+02 -0.35612154155E+02 -0.10488549235E+02  0.50528872111E+02  0.30000037269E+02 0.  0.
         12    1    3    3    0    0 -0.16580997921E+02  0.35612154155E+02  0.10488549235E+02  0.40659127889E+02  0.00000000000E+00 0. -1.
         11    1    4    4    0    0  0.13958534273E+00 -0.23714268740E+01 -0.78589940205E+00  0.25021565934E+01  0.51100000000E-03 0.  1.
        -11    1    4    4    0    0  0.83551321104E+01 -0.15544104776E+02  0.10043740689E+02  0.20305274023E+02  0.51100000000E-03 0. -1.
         12    1    4    4    0    0  0.80862804682E+01 -0.17696622505E+02 -0.19746390522E+02  0.27721441495E+02  0.00000000000E+00 0. -1.
</event>
<event>
 8    1  0.7977359E-012  0.9118800E+02  0.7816164E-02  0.1184000E+00
        -11   -1    0    0    0    0  0.00000000000E+00  0.00000000000E+00  0.45593999997E+02  0.45594000000E+02  0.51100000000E-03 0. -1.
         11   -1    0    0    0    0 -0.00000000000E+00 -0.00000000000E+00 -0.45593999997E+02  0.45594000000E+02  0.51100000000E-03 0.  1.
         23    2    1    2    0    0  0.17763568394E-14  0.00000000000E+00  0.00000000000E+00  0.91188000000E+02  0.91188000000E+02 0.  0.
    9900012    2    3    3    0    0  0.12058085233E+02  0.37402782856E+02  0.10431213731E+02  0.50528735315E+02  0.29999621460E+02 0.  0.
        -12    1    3    3    0    0 -0.12058085233E+02 -0.37402782856E+02 -0.10431213731E+02  0.40659264685E+02  0.00000000000E+00 0.  1.
         11    1    4    4    0    0 -0.45671851616E+00  0.37270563638E+01 -0.39014443331E+01  0.54148692586E+01  0.51100000000E-03 0. -1.
        -11    1    4    4    0    0 -0.65723810649E+00 -0.18378518534E+01 -0.29037994141E+01  0.34988158943E+01  0.51100000000E-03 0.  1.
         12    1    4    4    0    0  0.13172041856E+02  0.35513578346E+02  0.17236457478E+02  0.41615050162E+02  0.00000000000E+00 0. -1.
</event>
<event>
 8    1  0.7977359E-012  0.9118800E+02  0.7816164E-02  0.1184000E+00
        -11   -1    0    0    0    0  0.00000000000E+00  0.00000000000E+00  0.45593999997E+02  0.45594000000E+02  0.51100000000E-03 0. -1.
         11   -1    0    0    0    0 -0.00000000000E+00 -0.00000000000E+00 -0.45593999997E+02  0.45594000000E+02  0.51100000000E-03 0.  1.
         23    2    1    2    0    0  0.00000000000E+00  0.71054273576E-14 -0.33306690739E-15  0.91188000000E+02  0.91188000000E+02 0.  0.
    9900012    2    3    3    0    0  0.10940656927E+02 -0.39152259857E+02 -0.75393338524E+00  0.50528857836E+02  0.29999993879E+02 0.  0.
        -12    1    3    3    0    0 -0.10940656927E+02  0.39152259857E+02  0.75393338524E+00  0.40659142164E+02  0.00000000000E+00 0.  1.
         11    1    4    4    0    0 -0.16126427531E+01 -0.19103938337E+02  0.54054848258E+01  0.19919345950E+02  0.51100000000E-03 0. -1.
        -11    1    4    4    0    0 -0.24921299176E+01 -0.96954485431E+01 -0.71775941294E+01  0.12317885035E+02  0.51100000000E-03 0.  1.
        -12    1    4    4    0    0  0.15045429598E+02 -0.10352872977E+02  0.10181759183E+01  0.18291626851E+02  0.00000000000E+00 0.  1.
</event>
<event>
 8    1  0.9460794E-012  0.9118800E+02  0.7816164E-02  0.1184000E+00
        -11   -1    0    0    0    0  0.00000000000E+00  0.00000000000E+00  0.45593999997E+02  0.45594000000E+02  0.51100000000E-03 0. -1.
         11   -1    0    0    0    0 -0.00000000000E+00 -0.00000000000E+00 -0.45593999997E+02  0.45594000000E+02  0.51100000000E-03 0.  1.
         23    2    1    2    0    0  0.00000000000E+00 -0.17763568394E-14 -0.71054273576E-14  0.91188000000E+02  0.91188000000E+02 0.  0.
    9900012    2    3    3    0    0 -0.21135652646E+02  0.10943893440E+02  0.32964841455E+02  0.50528863406E+02  0.30000010809E+02 0.  0.
        -12    1    3    3    0    0  0.21135652646E+02 -0.10943893440E+02 -0.32964841455E+02  0.40659136594E+02  0.00000000000E+00 0.  1.
         11    1    4    4    0    0 -0.18456988096E+02  0.35986945774E+01  0.16060123995E+02  0.24729306404E+02  0.51100000000E-03 0. -1.
        -11    1    4    4    0    0 -0.73351517373E+01 -0.31312125140E+01  0.78471245695E+01  0.11188668691E+02  0.51100000000E-03 0.  1.
        -12    1    4    4    0    0  0.46564871867E+01  0.10476411376E+02  0.90575928912E+01  0.14610888311E+02  0.00000000000E+00 0.  1.
</event>
<event>
 8    1  0.7977359E-012  0.9118800E+02  0.7816164E-02  0.1184000E+00
        -11   -1    0    0    0    0  0.00000000000E+00  0.00000000000E+00  0.45593999997E+02  0.45594000000E+02  0.51100000000E-03 0.  1.
         11   -1    0    0    0    0 -0.00000000000E+00 -0.00000000000E+00 -0.45593999997E+02  0.45594000000E+02  0.51100000000E-03 0. -1.
         23    2    1    2    0    0  0.00000000000E+00  0.00000000000E+00  0.00000000000E+00  0.91188000000E+02  0.91188000000E+02 0.  0.
    9900012    2    3    3    0    0  0.24087617841E+02  0.67233069127E+01 -0.32058431642E+02  0.50528939160E+02  0.30000241069E+02 0.  0.
         12    1    3    3    0    0 -0.24087617841E+02 -0.67233069127E+01  0.32058431642E+02  0.40659060840E+02  0.00000000000E+00 0. -1.
         11    1    4    4    0    0  0.57331840593E+01 -0.17181608569E+01 -0.18798282636E+02  0.19728074070E+02  0.51100000000E-03 0. -1.
        -11    1    4    4    0    0  0.90607646285E+01  0.31674998673E+01 -0.16964090386E+02  0.19491302520E+02  0.51100000000E-03 0.  1.
        -12    1    4    4    0    0  0.92936691535E+01  0.52739679023E+01  0.37039413800E+01  0.11309562570E+02  0.00000000000E+00 0.  1.
</event>
<event>
 8    1  0.7977359E-012  0.9118800E+02  0.7816164E-02  0.1184000E+00
        -11   -1    0    0    0    0  0.00000000000E+00  0.00000000000E+00  0.45593999997E+02  0.45594000000E+02  0.51100000000E-03 0. -1.
         11   -1    0    0    0    0 -0.00000000000E+00 -0.00000000000E+00 -0.45593999997E+02  0.45594000000E+02  0.51100000000E-03 0.  1.
         23    2    1    2    0    0  0.00000000000E+00  0.00000000000E+00  0.00000000000E+00  0.91188000000E+02  0.91188000000E+02 0.  0.
    9900012    2    3    3    0    0  0.13282205126E+02 -0.16683492479E+02 -0.34618045596E+02  0.50528868489E+02  0.30000026259E+02 0.  0.
         12    1    3    3    0    0 -0.13282205126E+02  0.16683492479E+02  0.34618045596E+02  0.40659131511E+02  0.00000000000E+00 0. -1.
         11    1    4    4    0    0  0.11407641758E+02 -0.14235745679E+02 -0.19281991784E+02  0.26544037992E+02  0.51100000000E-03 0. -1.
        -11    1    4    4    0    0 -0.35146546983E+01 -0.82385077216E+01 -0.12905789737E+02  0.15709398974E+02  0.51100000000E-03 0.  1.
         12    1    4    4    0    0  0.53892180666E+01  0.57907609216E+01 -0.24302640761E+01  0.82754315235E+01  0.00000000000E+00 0. -1.
</event>
<event>
 8    1  0.7977359E-012  0.9118800E+02  0.7816164E-02  0.1184000E+00
        -11   -1    0    0    0    0  0.00000000000E+00  0.00000000000E+00  0.45593999997E+02  0.45594000000E+02  0.51100000000E-03 0. -1.
         11   -1    0    0    0    0 -0.00000000000E+00 -0.00000000000E+00 -0.45593999997E+02  0.45594000000E+02  0.51100000000E-03 0.  1.
         23    2    1    2    0    0 -0.35527136788E-14  0.00000000000E+00  0.00000000000E+00  0.91188000000E+02  0.91188000000E+02 0.  0.
    9900012    2    3    3    0    0 -0.25199078540E+02  0.88246271713E+01 -0.30664295546E+02  0.50528848198E+02  0.29999964581E+02 0.  0.
         12    1    3    3    0    0  0.25199078540E+02 -0.88246271713E+01  0.30664295546E+02  0.40659151802E+02  0.00000000000E+00 0. -1.
         11    1    4    4    0    0 -0.50117238054E+01 -0.29082421374E+01  0.11780813227E+01  0.59129623452E+01  0.51100000000E-03 0. -1.
        -11    1    4    4    0    0  0.10354297254E+01  0.57634892061E+01  0.37055436217E-01  0.58558770403E+01  0.51100000000E-03 0.  1.
        -12    1    4    4    0    0 -0.21222784460E+02  0.59693801026E+01 -0.31879432305E+02  0.38760008812E+02  0.00000000000E+00 0.  1.
</event>
<event>
 8    1  0.7977359E-012  0.9118800E+02  0.7816164E-02  0.1184000E+00
        -11   -1    0    0    0    0  0.00000000000E+00  0.00000000000E+00  0.45593999997E+02  0.45594000000E+02  0.51100000000E-03 0. -1.
         11   -1    0    0    0    0 -0.00000000000E+00 -0.00000000000E+00 -0.45593999997E+02  0.45594000000E+02  0.51100000000E-03 0.  1.
         23    2    1    2    0    0  0.88817841970E-15  0.00000000000E+00  0.00000000000E+00  0.91188000000E+02  0.91188000000E+02 0.  0.
    9900012    2    3    3    0    0  0.78942881741E+01  0.21124595712E+02  0.33831887484E+02  0.50528868916E+02  0.30000027558E+02 0.  0.
        -12    1    3    3    0    0 -0.78942881741E+01 -0.21124595712E+02 -0.33831887484E+02  0.40659131084E+02  0.00000000000E+00 0.  1.
         11    1    4    4    0    0  0.32258209942E+01  0.64083807519E+01 -0.17984566943E+01  0.73964661624E+01  0.51100000000E-03 0. -1.
        -11    1    4    4    0    0  0.73585622172E+01  0.88536259871E+01  0.63450257838E+01  0.13145131551E+02  0.51100000000E-03 0.  1.
         12    1    4    4    0    0 -0.26900950373E+01  0.58625889729E+01  0.29285318394E+02  0.29987271203E+02  0.00000000000E+00 0. -1.
</event>
<event>
 8    1  0.7977359E-012  0.9118800E+02  0.7816164E-02  0.1184000E+00
        -11   -1    0    0    0    0  0.00000000000E+00  0.00000000000E+00  0.45593999997E+02  0.45594000000E+02  0.51100000000E-03 0. -1.
         11   -1    0    0    0    0 -0.00000000000E+00 -0.00000000000E+00 -0.45593999997E+02  0.45594000000E+02  0.51100000000E-03 0.  1.
         23    2    1    2    0    0  0.00000000000E+00  0.00000000000E+00  0.00000000000E+00  0.91188000000E+02  0.91188000000E+02 0.  0.
    9900012    2    3    3    0    0  0.38588631181E+01  0.30646491857E+02 -0.26439881241E+02  0.50528860710E+02  0.30000002616E+02 0.  0.
         12    1    3    3    0    0 -0.38588631181E+01 -0.30646491857E+02  0.26439881241E+02  0.40659139290E+02  0.00000000000E+00 0. -1.
         11    1    4    4    0    0 -0.32655980020E+01  0.19808078983E+02 -0.17226419916E+02  0.26453235467E+02  0.51100000000E-03 0.  1.
        -11    1    4    4    0    0  0.47568097494E+01 -0.40673002820E+01  0.24631788627E+00  0.62634529884E+01  0.51100000000E-03 0. -1.
         12    1    4    4    0    0  0.23676513707E+01  0.14905713156E+02 -0.94597792120E+01  0.17812172255E+02  0.00000000000E+00 0. -1.
</event>
<event>
 8    1  0.7977359E-012  0.9118800E+02  0.7816164E-02  0.1184000E+00
        -11   -1    0    0    0    0  0.00000000000E+00  0.00000000000E+00  0.45593999997E+02  0.45594000000E+02  0.51100000000E-03 0.  1.
         11   -1    0    0    0    0 -0.00000000000E+00 -0.00000000000E+00 -0.45593999997E+02  0.45594000000E+02  0.51100000000E-03 0. -1.
         23    2    1    2    0    0  0.00000000000E+00  0.35527136788E-14  0.17763568394E-14  0.91188000000E+02  0.91188000000E+02 0.  0.
    9900012    2    3    3    0    0  0.29855421225E+02  0.25346997692E+02  0.10924727951E+02  0.50528854051E+02  0.29999982374E+02 0.  0.
        -12    1    3    3    0    0 -0.29855421225E+02 -0.25346997692E+02 -0.10924727951E+02  0.40659145949E+02  0.00000000000E+00 0.  1.
         11    1    4    4    0    0  0.46099247982E+01  0.89786179718E+01 -0.23148594264E+01  0.10354977632E+02  0.51100000000E-03 0. -1.
        -11    1    4    4    0    0  0.82247175010E+01  0.35103016486E+01 -0.65434408931E+01  0.11080830953E+02  0.51100000000E-03 0.  1.
        -12    1    4    4    0    0  0.17020778926E+02  0.12858078071E+02  0.19783028271E+02  0.29093045466E+02  0.00000000000E+00 0.  1.
</event>
<event>
 8    1  0.7977359E-012  0.9118800E+02  0.7816164E-02  0.1184000E+00
        -11   -1    0    0    0    0  0.00000000000E+00  0.00000000000E+00  0.45593999997E+02  0.45594000000E+02  0.51100000000E-03 0. -1.
         11   -1    0    0    0    0 -0.00000000000E+00 -0.00000000000E+00 -0.45593999997E+02  0.45594000000E+02  0.51100000000E-03 0.  1.
         23    2    1    2    0    0 -0.17763568394E-14 -0.71054273576E-14  0.00000000000E+00  0.91188000000E+02  0.91188000000E+02 0.  0.
    9900012    2    3    3    0    0  0.12750892189E+02  0.34202552361E+02 -0.17909918328E+02  0.50528868010E+02  0.30000024804E+02 0.  0.
         12    1    3    3    0    0 -0.12750892189E+02 -0.34202552361E+02  0.17909918328E+02  0.40659131990E+02  0.00000000000E+00 0. -1.
         11    1    4    4    0    0  0.49812945621E+01  0.88588864650E+00  0.29693079168E+01  0.58664200306E+01  0.51100000000E-03 0. -1.
        -11    1    4    4    0    0  0.10891868602E+02  0.80657433797E+01 -0.40063718103E+01  0.14132941423E+02  0.51100000000E-03 0.  1.
         12    1    4    4    0    0 -0.31222709756E+01  0.25250920335E+02 -0.16872854434E+02  0.30529506557E+02  0.00000000000E+00 0. -1.
</event>
<event>
 8    1  0.7977359E-012  0.9118800E+02  0.7816164E-02  0.1184000E+00
        -11   -1    0    0    0    0  0.00000000000E+00  0.00000000000E+00  0.45593999997E+02  0.45594000000E+02  0.51100000000E-03 0. -1.
         11   -1    0    0    0    0 -0.00000000000E+00 -0.00000000000E+00 -0.45593999997E+02  0.45594000000E+02  0.51100000000E-03 0.  1.
         23    2    1    2    0    0 -0.35527136788E-14  0.17763568394E-14  0.35527136788E-14  0.91188000000E+02  0.91188000000E+02 0.  0.
    9900012    2    3    3    0    0  0.26107298835E+02 -0.69900913486E+01 -0.30376199273E+02  0.50528856972E+02  0.29999991251E+02 0.  0.
         12    1    3    3    0    0 -0.26107298835E+02  0.69900913486E+01  0.30376199273E+02  0.40659143028E+02  0.00000000000E+00 0. -1.
         11    1    4    4    0    0  0.36607922658E+01 -0.46948577117E+01 -0.10983395738E+02  0.12493120953E+02  0.51100000000E-03 0. -1.
        -11    1    4    4    0    0  0.48549693870E+01 -0.11390226780E+02 -0.10869534162E+02  0.16475884407E+02  0.51100000000E-03 0.  1.
         12    1    4    4    0    0  0.17591537182E+02  0.90949931426E+01 -0.85232693723E+01  0.21559851611E+02  0.00000000000E+00 0. -1.
</event>
<event>
 8    1  0.7977359E-012  0.9118800E+02  0.7816164E-02  0.1184000E+00
        -11   -1    0    0    0    0  0.00000000000E+00  0.00000000000E+00  0.45593999997E+02  0.45594000000E+02  0.51100000000E-03 0. -1.
         11   -1    0    0    0    0 -0.00000000000E+00 -0.00000000000E+00 -0.45593999997E+02  0.45594000000E+02  0.51100000000E-03 0.  1.
         23    2    1    2    0    0  0.00000000000E+00 -0.17763568394E-14  0.00000000000E+00  0.91188000000E+02  0.91188000000E+02 0.  0.
    9900012    2    3    3    0    0 -0.18552683674E+02  0.14135756134E+02 -0.33303818712E+02  0.50528855717E+02  0.29999987438E+02 0.  0.
         12    1    3    3    0    0  0.18552683674E+02 -0.14135756134E+02  0.33303818712E+02  0.40659144283E+02  0.00000000000E+00 0. -1.
         11    1    4    4    0    0 -0.37983868486E+01 -0.33747333674E+01 -0.27237338684E+01  0.57650060191E+01  0.51100000000E-03 0. -1.
        -11    1    4    4    0    0 -0.71513478575E+01  0.35290833931E+01  0.22445050160E+01  0.82845644908E+01  0.51100000000E-03 0.  1.
        -12    1    4    4    0    0 -0.76029489676E+01  0.13981406109E+02 -0.32824589860E+02  0.36479285207E+02  0.00000000000E+00 0.  1.
</event>
<event>
 8    1  0.7977359E-012  0.9118800E+02  0.7816164E-02  0.1184000E+00
        -11   -1    0    0    0    0  0.00000000000E+00  0.00000000000E+00  0.45593999997E+02  0.45594000000E+02  0.51100000000E-03 0. -1.
         11   -1    0    0    0    0 -0.00000000000E+00 -0.00000000000E+00 -0.45593999997E+02  0.45594000000E+02  0.51100000000E-03 0.  1.
         23    2    1    2    0    0  0.00000000000E+00 -0.17763568394E-14  0.00000000000E+00  0.91188000000E+02  0.91188000000E+02 0.  0.
    9900012    2    3    3    0    0  0.19663511560E+02 -0.14812967038E+02  0.32358736149E+02  0.50528862226E+02  0.30000007222E+02 0.  0.
        -12    1    3    3    0    0 -0.19663511560E+02  0.14812967038E+02 -0.32358736149E+02  0.40659137774E+02  0.00000000000E+00 0.  1.
         11    1    4    4    0    0  0.16205585030E+02 -0.16631721447E+02  0.13896129266E+02  0.27061735962E+02  0.51100000000E-03 0. -1.
        -11    1    4    4    0    0  0.58761360651E+00 -0.13104885725E+00 -0.23199950633E+01  0.23968397753E+01  0.51100000000E-03 0.  1.
        -12    1    4    4    0    0  0.28703129237E+01  0.19498032658E+01  0.20782601946E+02  0.21070286489E+02  0.00000000000E+00 0.  1.
</event>
<event>
 8    1  0.7977359E-012  0.9118800E+02  0.7816164E-02  0.1184000E+00
        -11   -1    0    0    0    0  0.00000000000E+00  0.00000000000E+00  0.45593999997E+02  0.45594000000E+02  0.51100000000E-03 0.  1.
         11   -1    0    0    0    0 -0.00000000000E+00 -0.00000000000E+00 -0.45593999997E+02  0.45594000000E+02  0.51100000000E-03 0. -1.
         23    2    1    2    0    0  0.00000000000E+00  0.00000000000E+00  0.13877787808E-16  0.91188000000E+02  0.91188000000E+02 0.  0.
    9900012    2    3    3    0    0  0.39729830195E+02  0.86429172103E+01  0.83536750308E-01  0.50528850923E+02  0.29999972866E+02 0.  0.
        -12    1    3    3    0    0 -0.39729830195E+02 -0.86429172103E+01 -0.83536750308E-01  0.40659149077E+02  0.00000000000E+00 0.  1.
         11    1    4    4    0    0 -0.16436831072E+01  0.13319641128E+01 -0.11407800610E+01  0.24035810706E+01  0.51100000000E-03 0. -1.
        -11    1    4    4    0    0 -0.28384217063E+01 -0.12052151660E+01  0.16630430697E+00  0.30881772557E+01  0.51100000000E-03 0.  1.
         12    1    4    4    0    0  0.44211935009E+02  0.85161682635E+01  0.10580125043E+01  0.45037092597E+02  0.00000000000E+00 0. -1.
</event>
<event>
 8    1  0.7977359E-012  0.9118800E+02  0.7816164E-02  0.1184000E+00
        -11   -1    0    0    0    0  0.00000000000E+00  0.00000000000E+00  0.45593999997E+02  0.45594000000E+02  0.51100000000E-03 0. -1.
         11   -1    0    0    0    0 -0.00000000000E+00 -0.00000000000E+00 -0.45593999997E+02  0.45594000000E+02  0.51100000000E-03 0.  1.
         23    2    1    2    0    0  0.00000000000E+00  0.00000000000E+00 -0.17763568394E-14  0.91188000000E+02  0.91188000000E+02 0.  0.
    9900012    2    3    3    0    0  0.32589923814E+02 -0.18435803675E+02  0.15848775884E+02  0.50528859719E+02  0.29999999603E+02 0.  0.
        -12    1    3    3    0    0 -0.32589923814E+02  0.18435803675E+02 -0.15848775884E+02  0.40659140281E+02  0.00000000000E+00 0.  1.
         11    1    4    4    0    0  0.10576199446E+02 -0.58810389908E+00  0.10962042208E+02  0.15243629179E+02  0.51100000000E-03 0.  1.
        -11    1    4    4    0    0  0.14125349867E+02 -0.10718631227E+02  0.12936524222E+02  0.21949219200E+02  0.51100000000E-03 0. -1.
         12    1    4    4    0    0  0.78883745007E+01 -0.71290685486E+01 -0.80497905463E+01  0.13336011340E+02  0.00000000000E+00 0. -1.
</event>
<event>
 8    1  0.7977359E-012  0.9118800E+02  0.7816164E-02  0.1184000E+00
        -11   -1    0    0    0    0  0.00000000000E+00  0.00000000000E+00  0.45593999997E+02  0.45594000000E+02  0.51100000000E-03 0. -1.
         11   -1    0    0    0    0 -0.00000000000E+00 -0.00000000000E+00 -0.45593999997E+02  0.45594000000E+02  0.51100000000E-03 0.  1.
         23    2    1    2    0    0  0.00000000000E+00  0.00000000000E+00  0.00000000000E+00  0.91188000000E+02  0.91188000000E+02 0.  0.
    9900012    2    3    3    0    0  0.13705357597E+02 -0.18292573280E+02  0.33626046053E+02  0.50528855429E+02  0.29999986563E+02 0.  0.
        -12    1    3    3    0    0 -0.13705357597E+02  0.18292573280E+02 -0.33626046053E+02  0.40659144571E+02  0.00000000000E+00 0.  1.
         11    1    4    4    0    0 -0.36624477557E+01 -0.87634044109E+01  0.22131490484E+02  0.24083472584E+02  0.51100000000E-03 0. -1.
        -11    1    4    4    0    0 -0.16185165993E+01  0.92050886154E+00  0.21511334872E+01  0.28450497512E+01  0.51100000000E-03 0.  1.
         12    1    4    4    0    0  0.18986321952E+02 -0.10449677731E+02  0.93434220818E+01  0.23600333094E+02  0.00000000000E+00 0. -1.
</event>
<event>
 8    1  0.7977359E-012  0.9118800E+02  0.7816164E-02  0.1184000E+00
        -11   -1    0    0    0    0  0.00000000000E+00  0.00000000000E+00  0.45593999997E+02  0.45594000000E+02  0.51100000000E-03 0.  1.
         11   -1    0    0    0    0 -0.00000000000E+00 -0.00000000000E+00 -0.45593999997E+02  0.45594000000E+02  0.51100000000E-03 0. -1.
         23    2    1    2    0    0  0.00000000000E+00  0.00000000000E+00 -0.88817841970E-15  0.91188000000E+02  0.91188000000E+02 0.  0.
    9900012    2    3    3    0    0 -0.38002035309E+02  0.12609532600E+02 -0.70717388810E+01  0.50528874446E+02  0.30000044367E+02 0.  0.
         12    1    3    3    0    0  0.38002035309E+02 -0.12609532600E+02  0.70717388810E+01  0.40659125554E+02  0.00000000000E+00 0. -1.
         11    1    4    4    0    0 -0.96975693253E+01  0.71417784452E+01  0.70569408875E+01  0.13958806007E+02  0.51100000000E-03 0. -1.
        -11    1    4    4    0    0 -0.99609292154E+01 -0.27500362171E-01  0.34842801437E+01  0.10552775724E+02  0.51100000000E-03 0.  1.
        -12    1    4    4    0    0 -0.18343536768E+02  0.54952545168E+01 -0.17612959912E+02  0.26017292715E+02  0.00000000000E+00 0.  1.
</event>
<event>
 8    1  0.7977359E-012  0.9118800E+02  0.7816164E-02  0.1184000E+00
        -11   -1    0    0    0    0  0.00000000000E+00  0.00000000000E+00  0.45593999997E+02  0.45594000000E+02  0.51100000000E-03 0.  1.
         11   -1    0    0    0    0 -0.00000000000E+00 -0.00000000000E+00 -0.45593999997E+02  0.45594000000E+02  0.51100000000E-03 0. -1.
         23    2    1    2    0    0  0.00000000000E+00  0.00000000000E+00 -0.17763568394E-14  0.91188000000E+02  0.91188000000E+02 0.  0.
    9900012    2    3    3    0    0  0.38582532353E+02 -0.84899741981E+01  0.96163596095E+01  0.50528857894E+02  0.29999994054E+02 0.  0.
         12    1    3    3    0    0 -0.38582532353E+02  0.84899741981E+01 -0.96163596095E+01  0.40659142106E+02  0.00000000000E+00 0. -1.
         11    1    4    4    0    0  0.28140014850E+02 -0.71071828151E+01  0.53125720995E+01  0.29505862229E+02  0.51100000000E-03 0. -1.
        -11    1    4    4    0    0  0.13043017941E+02 -0.22846181928E+01  0.86944903443E+01  0.15840895173E+02  0.51100000000E-03 0.  1.
         12    1    4    4    0    0 -0.26005004376E+01  0.90182680981E+00 -0.43907028343E+01  0.51821004911E+01  0.00000000000E+00 0. -1.
</event>
<event>
 8    1  0.7977359E-012  0.9118800E+02  0.7816164E-02  0.1184000E+00
        -11   -1    0    0    0    0  0.00000000000E+00  0.00000000000E+00  0.45593999997E+02  0.45594000000E+02  0.51100000000E-03 0. -1.
         11   -1    0    0    0    0 -0.00000000000E+00 -0.00000000000E+00 -0.45593999997E+02  0.45594000000E+02  0.51100000000E-03 0.  1.
         23    2    1    2    0    0  0.00000000000E+00  0.00000000000E+00 -0.71054273576E-14  0.91188000000E+02  0.91188000000E+02 0.  0.
    9900012    2    3    3    0    0  0.99706083691E+01 -0.21999663768E+02 -0.32707308102E+02  0.50528852930E+02  0.29999978967E+02 0.  0.
         12    1    3    3    0    0 -0.99706083691E+01  0.21999663768E+02  0.32707308102E+02  0.40659147070E+02  0.00000000000E+00 0. -1.
         11    1    4    4    0    0 -0.43619310706E+01 -0.12915659930E+02 -0.10734945217E+02  0.17351650157E+02  0.51100000000E-03 0. -1.
        -11    1    4    4    0    0  0.43329629302E+01 -0.13203285089E+02 -0.10549086727E+02  0.17446619613E+02  0.51100000000E-03 0.  1.
         12    1    4    4    0    0  0.99995765094E+01  0.41192812505E+01 -0.11423276158E+02  0.15730583161E+02  0.00000000000E+00 0. -1.
</event>
<event>
 8    1  0.7977359E-012  0.9118800E+02  0.7816164E-02  0.1184000E+00
        -11   -1    0    0    0    0  0.00000000000E+00  0.00000000000E+00  0.45593999997E+02  0.45594000000E+02  0.51100000000E-03 0. -1.
         11   -1    0    0    0    0 -0.00000000000E+00 -0.00000000000E+00 -0.45593999997E+02  0.45594000000E+02  0.51100000000E-03 0.  1.
         23    2    1    2    0    0  0.00000000000E+00 -0.88817841970E-15  0.35527136788E-14  0.91188000000E+02  0.91188000000E+02 0.  0.
    9900012    2    3    3    0    0  0.29190228369E+02 -0.41797522694E+01 -0.27993306502E+02  0.50528868551E+02  0.30000026449E+02 0.  0.
         12    1    3    3    0    0 -0.29190228369E+02  0.41797522694E+01  0.27993306502E+02  0.40659131449E+02  0.00000000000E+00 0. -1.
         11    1    4    4    0    0  0.70065003706E+01  0.88272266291E+01 -0.46370226284E+01  0.12186589208E+02  0.51100000000E-03 0. -1.
        -11    1    4    4    0    0  0.69203896068E+01 -0.14793732733E+01  0.12395153947E+01  0.71844788445E+01  0.51100000000E-03 0.  1.
        -12    1    4    4    0    0  0.15263338392E+02 -0.11527605625E+02 -0.24595799268E+02  0.31157800499E+02  0.00000000000E+00 0.  1.
</event>
<event>
 8    1  0.7977359E-012  0.9118800E+02  0.7816164E-02  0.1184000E+00
        -11   -1    0    0    0    0  0.00000000000E+00  0.00000000000E+00  0.45593999997E+02  0.45594000000E+02  0.51100000000E-03 0. -1.
         11   -1    0    0    0    0 -0.00000000000E+00 -0.00000000000E+00 -0.45593999997E+02  0.45594000000E+02  0.51100000000E-03 0.  1.
         23    2    1    2    0    0 -0.17763568394E-14  0.00000000000E+00  0.00000000000E+00  0.91188000000E+02  0.91188000000E+02 0.  0.
    9900012    2    3    3    0    0 -0.12652643320E+02 -0.28362793664E+02  0.26241732641E+02  0.50528856140E+02  0.29999988723E+02 0.  0.
        -12    1    3    3    0    0  0.12652643320E+02  0.28362793664E+02 -0.26241732641E+02  0.40659143860E+02  0.00000000000E+00 0.  1.
         11    1    4    4    0    0 -0.43900769982E+01 -0.15133247717E+01  0.13368424086E+02  0.14151950068E+02  0.51100000000E-03 0. -1.
        -11    1    4    4    0    0  0.54754796013E+01 -0.24393907765E+01  0.18209081462E+01  0.62647594497E+01  0.51100000000E-03 0.  1.
        -12    1    4    4    0    0 -0.13738045924E+02 -0.24410078116E+02  0.11052400409E+02  0.30112146622E+02  0.00000000000E+00 0.  1.
</event>
<event>
 8    1  0.7977359E-012  0.9118800E+02  0.7816164E-02  0.1184000E+00
        -11   -1    0    0    0    0  0.00000000000E+00  0.00000000000E+00  0.45593999997E+02  0.45594000000E+02  0.51100000000E-03 0. -1.
         11   -1    0    0    0    0 -0.00000000000E+00 -0.00000000000E+00 -0.45593999997E+02  0.45594000000E+02  0.51100000000E-03 0.  1.
         23    2    1    2    0    0 -0.17763568394E-14  0.00000000000E+00  0.00000000000E+00  0.91188000000E+02  0.91188000000E+02 0.  0.
    9900012    2    3    3    0    0  0.10804624775E+02  0.10453842535E+02 -0.37777549063E+02  0.50528856460E+02  0.29999989694E+02 0.  0.
         12    1    3    3    0    0 -0.10804624775E+02 -0.10453842535E+02  0.37777549063E+02  0.40659143540E+02  0.00000000000E+00 0. -1.
         11    1    4    4    0    0  0.34452925659E+00  0.35974390175E+01  0.23050462922E+01  0.42864328484E+01  0.51100000000E-03 0. -1.
        -11    1    4    4    0    0 -0.33428101509E+01  0.84446677848E+01 -0.17796357764E+02  0.19979918509E+02  0.51100000000E-03 0.  1.
        -12    1    4    4    0    0  0.13802905669E+02 -0.15882642674E+01 -0.22286237591E+02  0.26262505102E+02  0.00000000000E+00 0.  1.
</event>
<event>
 8    1  0.7977359E-012  0.9118800E+02  0.7816164E-02  0.1184000E+00
        -11   -1    0    0    0    0  0.00000000000E+00  0.00000000000E+00  0.45593999997E+02  0.45594000000E+02  0.51100000000E-03 0. -1.
         11   -1    0    0    0    0 -0.00000000000E+00 -0.00000000000E+00 -0.45593999997E+02  0.45594000000E+02  0.51100000000E-03 0.  1.
         23    2    1    2    0    0  0.88817841970E-15 -0.88817841970E-15  0.00000000000E+00  0.91188000000E+02  0.91188000000E+02 0.  0.
    9900012    2    3    3    0    0 -0.75358519277E+01  0.64475071851E+01  0.39431031014E+02  0.50528860560E+02  0.30000002159E+02 0.  0.
        -12    1    3    3    0    0  0.75358519277E+01 -0.64475071851E+01 -0.39431031014E+02  0.40659139440E+02  0.00000000000E+00 0.  1.
         11    1    4    4    0    0 -0.28850199254E+00  0.86060537800E+00 -0.31530778865E+01  0.32811241116E+01  0.51100000000E-03 0. -1.
        -11    1    4    4    0    0 -0.60246935219E+01  0.10144354434E+02  0.14144470904E+02  0.18419308248E+02  0.51100000000E-03 0.  1.
         12    1    4    4    0    0 -0.12226564132E+01 -0.45574526272E+01  0.28439637996E+02  0.28828428201E+02  0.00000000000E+00 0. -1.
</event>
<event>
 8    1  0.7977359E-012  0.9118800E+02  0.7816164E-02  0.1184000E+00
        -11   -1    0    0    0    0  0.00000000000E+00  0.00000000000E+00  0.45593999997E+02  0.45594000000E+02  0.51100000000E-03 0. -1.
         11   -1    0    0    0    0 -0.00000000000E+00 -0.00000000000E+00 -0.45593999997E+02  0.45594000000E+02  0.51100000000E-03 0.  1.
         23    2    1    2    0    0  0.00000000000E+00  0.71054273576E-14  0.00000000000E+00  0.91188000000E+02  0.91188000000E+02 0.  0.
    9900012    2    3    3    0    0 -0.40697396082E+01  0.37762524625E+02  0.14511855894E+02  0.50528868086E+02  0.30000025034E+02 0.  0.
        -12    1    3    3    0    0  0.40697396082E+01 -0.37762524625E+02 -0.14511855894E+02  0.40659131914E+02  0.00000000000E+00 0.  1.
         11    1    4    4    0    0 -0.85050450187E+01  0.10626490671E+02  0.20661974441E+01  0.13766890240E+02  0.51100000000E-03 0. -1.
        -11    1    4    4    0    0  0.85154944502E+01  0.17561905716E+02 -0.12537285659E+01  0.19557760958E+02  0.51100000000E-03 0.  1.
         12    1    4    4    0    0 -0.40801890396E+01  0.95741282379E+01  0.13699387016E+02  0.17204216888E+02  0.00000000000E+00 0. -1.
</event>
<event>
 8    1  0.7977359E-012  0.9118800E+02  0.7816164E-02  0.1184000E+00
        -11   -1    0    0    0    0  0.00000000000E+00  0.00000000000E+00  0.45593999997E+02  0.45594000000E+02  0.51100000000E-03 0. -1.
         11   -1    0    0    0    0 -0.00000000000E+00 -0.00000000000E+00 -0.45593999997E+02  0.45594000000E+02  0.51100000000E-03 0.  1.
         23    2    1    2    0    0 -0.17763568394E-14  0.00000000000E+00  0.00000000000E+00  0.91188000000E+02  0.91188000000E+02 0.  0.
    9900012    2    3    3    0    0  0.11824704182E+02  0.31721580126E+02  0.22518515053E+02  0.50528858410E+02  0.29999995623E+02 0.  0.
        -12    1    3    3    0    0 -0.11824704182E+02 -0.31721580126E+02 -0.22518515053E+02  0.40659141590E+02  0.00000000000E+00 0.  1.
         11    1    4    4    0    0 -0.92444209237E+01  0.16907000139E+02  0.10933662736E+02  0.22155156353E+02  0.51100000000E-03 0. -1.
        -11    1    4    4    0    0  0.10709484626E+00 -0.14460598831E-01 -0.11411433208E+00  0.15716474453E+00  0.51100000000E-03 0.  1.
         12    1    4    4    0    0  0.20962030260E+02  0.14829040585E+02  0.11698966648E+02  0.28216537313E+02  0.00000000000E+00 0. -1.
</event>
<event>
 8    1  0.7977359E-012  0.9118800E+02  0.7816164E-02  0.1184000E+00
        -11   -1    0    0    0    0  0.00000000000E+00  0.00000000000E+00  0.45593999997E+02  0.45594000000E+02  0.51100000000E-03 0. -1.
         11   -1    0    0    0    0 -0.00000000000E+00 -0.00000000000E+00 -0.45593999997E+02  0.45594000000E+02  0.51100000000E-03 0.  1.
         23    2    1    2    0    0  0.88817841970E-15  0.35527136788E-14 -0.35527136788E-14  0.91188000000E+02  0.91188000000E+02 0.  0.
    9900012    2    3    3    0    0 -0.58844350680E+01  0.31232098802E+02 -0.25359363035E+02  0.50528832950E+02  0.29999918234E+02 0.  0.
         12    1    3    3    0    0  0.58844350680E+01 -0.31232098802E+02  0.25359363035E+02  0.40659167050E+02  0.00000000000E+00 0. -1.
         11    1    4    4    0    0 -0.64275038781E+01  0.50161534736E+01 -0.15325993294E+02  0.17359742869E+02  0.51100000000E-03 0.  1.
        -11    1    4    4    0    0 -0.44682977639E+01  0.81304399339E+00 -0.50671913235E+01  0.68046420635E+01  0.51100000000E-03 0. -1.
         12    1    4    4    0    0  0.50113665739E+01  0.25402901335E+02 -0.49661784177E+01  0.26364448017E+02  0.00000000000E+00 0. -1.
</event>
<event>
 8    1  0.7977359E-012  0.9118800E+02  0.7816164E-02  0.1184000E+00
        -11   -1    0    0    0    0  0.00000000000E+00  0.00000000000E+00  0.45593999997E+02  0.45594000000E+02  0.51100000000E-03 0. -1.
         11   -1    0    0    0    0 -0.00000000000E+00 -0.00000000000E+00 -0.45593999997E+02  0.45594000000E+02  0.51100000000E-03 0.  1.
         23    2    1    2    0    0 -0.35527136788E-14  0.00000000000E+00  0.00000000000E+00  0.91188000000E+02  0.91188000000E+02 0.  0.
    9900012    2    3    3    0    0 -0.30489569622E+02 -0.62477203903E+01 -0.26163298489E+02  0.50528855227E+02  0.29999985949E+02 0.  0.
         12    1    3    3    0    0  0.30489569622E+02  0.62477203903E+01  0.26163298489E+02  0.40659144773E+02  0.00000000000E+00 0. -1.
         11    1    4    4    0    0 -0.97127934668E+01 -0.72799901078E+01 -0.90315243207E+01  0.15129608214E+02  0.51100000000E-03 0. -1.
        -11    1    4    4    0    0 -0.23400770243E+02  0.49333509033E+01 -0.81576761620E+01  0.25268195023E+02  0.51100000000E-03 0.  1.
         12    1    4    4    0    0  0.26239940877E+01 -0.39010811858E+01 -0.89740980065E+01  0.10131051990E+02  0.00000000000E+00 0. -1.
</event>
<event>
 8    1  0.7977359E-012  0.9118800E+02  0.7816164E-02  0.1184000E+00
        -11   -1    0    0    0    0  0.00000000000E+00  0.00000000000E+00  0.45593999997E+02  0.45594000000E+02  0.51100000000E-03 0.  1.
         11   -1    0    0    0    0 -0.00000000000E+00 -0.00000000000E+00 -0.45593999997E+02  0.45594000000E+02  0.51100000000E-03 0. -1.
         23    2    1    2    0    0  0.00000000000E+00 -0.71054273576E-14  0.88817841970E-15  0.91188000000E+02  0.91188000000E+02 0.  0.
    9900012    2    3    3    0    0  0.23372228751E+02  0.32843808147E+02 -0.53093039893E+01  0.50528861799E+02  0.30000005925E+02 0.  0.
         12    1    3    3    0    0 -0.23372228751E+02 -0.32843808147E+02  0.53093039893E+01  0.40659138201E+02  0.00000000000E+00 0. -1.
         11    1    4    4    0    0 -0.17616589379E+01  0.24287393507E+00 -0.29233238648E+01  0.34217324035E+01  0.51100000000E-03 0. -1.
        -11    1    4    4    0    0 -0.26140057206E+01  0.15292908627E+00 -0.35326241287E+01  0.43972544512E+01  0.51100000000E-03 0.  1.
        -12    1    4    4    0    0  0.27747893409E+02  0.32448005126E+02  0.11466440042E+01  0.42709874944E+02  0.00000000000E+00 0.  1.
</event>
<event>
 8    1  0.7977359E-012  0.9118800E+02  0.7816164E-02  0.1184000E+00
        -11   -1    0    0    0    0  0.00000000000E+00  0.00000000000E+00  0.45593999997E+02  0.45594000000E+02  0.51100000000E-03 0. -1.
         11   -1    0    0    0    0 -0.00000000000E+00 -0.00000000000E+00 -0.45593999997E+02  0.45594000000E+02  0.51100000000E-03 0.  1.
         23    2    1    2    0    0  0.71054273576E-14 -0.17763568394E-14  0.00000000000E+00  0.91188000000E+02  0.91188000000E+02 0.  0.
    9900012    2    3    3    0    0  0.35616877045E+02  0.12624166510E+02 -0.15007806787E+02  0.50528858653E+02  0.29999996362E+02 0.  0.
         12    1    3    3    0    0 -0.35616877045E+02 -0.12624166510E+02  0.15007806787E+02  0.40659141347E+02  0.00000000000E+00 0. -1.
         11    1    4    4    0    0  0.11111480504E+02  0.80727587541E+01 -0.71721800398E+01  0.15494340892E+02  0.51100000000E-03 0. -1.
        -11    1    4    4    0    0  0.27507203327E+02  0.36292797146E+01 -0.11651388940E+02  0.30092736177E+02  0.51100000000E-03 0.  1.
         12    1    4    4    0    0 -0.30018067868E+01  0.92212804167E+00  0.38157621927E+01  0.49417815838E+01  0.00000000000E+00 0. -1.
</event>
<event>
 8    1  0.7977359E-012  0.9118800E+02  0.7816164E-02  0.1184000E+00
        -11   -1    0    0    0    0  0.00000000000E+00  0.00000000000E+00  0.45593999997E+02  0.45594000000E+02  0.51100000000E-03 0. -1.
         11   -1    0    0    0    0 -0.00000000000E+00 -0.00000000000E+00 -0.45593999997E+02  0.45594000000E+02  0.51100000000E-03 0.  1.
         23    2    1    2    0    0 -0.35527136788E-14 -0.35527136788E-14  0.00000000000E+00  0.91188000000E+02  0.91188000000E+02 0.  0.
    9900012    2    3    3    0    0 -0.24918910969E+02 -0.16288798745E+02 -0.27692756389E+02  0.50528857795E+02  0.29999993755E+02 0.  0.
         12    1    3    3    0    0  0.24918910969E+02  0.16288798745E+02  0.27692756389E+02  0.40659142205E+02  0.00000000000E+00 0. -1.
         11    1    4    4    0    0 -0.47668203404E+01  0.35839355110E+01 -0.44959960826E+01  0.74686779915E+01  0.51100000000E-03 0. -1.
        -11    1    4    4    0    0  0.12740159243E+01  0.19637237996E+01  0.22656074578E+01  0.32576533195E+01  0.51100000000E-03 0.  1.
        -12    1    4    4    0    0 -0.21426106553E+02 -0.21836458055E+02 -0.25462367764E+02  0.39802526484E+02  0.00000000000E+00 0.  1.
</event>
<event>
 8    1  0.7977359E-012  0.9118800E+02  0.7816164E-02  0.1184000E+00
        -11   -1    0    0    0    0  0.00000000000E+00  0.00000000000E+00  0.45593999997E+02  0.45594000000E+02  0.51100000000E-03 0. -1.
         11   -1    0    0    0    0 -0.00000000000E+00 -0.00000000000E+00 -0.45593999997E+02  0.45594000000E+02  0.51100000000E-03 0.  1.
         23    2    1    2    0    0  0.00000000000E+00  0.00000000000E+00  0.00000000000E+00  0.91188000000E+02  0.91188000000E+02 0.  0.
    9900012    2    3    3    0    0 -0.52156514817E+01  0.67950838740E+01  0.39746590083E+02  0.50528836108E+02  0.29999927833E+02 0.  0.
        -12    1    3    3    0    0  0.52156514817E+01 -0.67950838740E+01 -0.39746590083E+02  0.40659163892E+02  0.00000000000E+00 0.  1.
         11    1    4    4    0    0 -0.56020171237E+00 -0.36130137712E+01  0.27948444989E+01  0.46020485117E+01  0.51100000000E-03 0. -1.
        -11    1    4    4    0    0 -0.39628707181E+01 -0.31315644532E+01 -0.14066181133E+01  0.52430539793E+01  0.51100000000E-03 0.  1.
         12    1    4    4    0    0 -0.69257905129E+00  0.13539662098E+02  0.38358363697E+02  0.40683733617E+02  0.00000000000E+00 0. -1.
</event>
<event>
 8    1  0.7977359E-012  0.9118800E+02  0.7816164E-02  0.1184000E+00
        -11   -1    0    0    0    0  0.00000000000E+00  0.00000000000E+00  0.45593999997E+02  0.45594000000E+02  0.51100000000E-03 0. -1.
         11   -1    0    0    0    0 -0.00000000000E+00 -0.00000000000E+00 -0.45593999997E+02  0.45594000000E+02  0.51100000000E-03 0.  1.
         23    2    1    2    0    0  0.71054273576E-14  0.00000000000E+00 -0.88817841970E-15  0.91188000000E+02  0.91188000000E+02 0.  0.
    9900012    2    3    3    0    0  0.36481168422E+02 -0.16970875424E+02  0.58548514746E+01  0.50528861447E+02  0.30000004853E+02 0.  0.
        -12    1    3    3    0    0 -0.36481168422E+02  0.16970875424E+02 -0.58548514746E+01  0.40659138553E+02  0.00000000000E+00 0.  1.
         11    1    4    4    0    0 -0.39936073674E+01 -0.27406118510E+01  0.56605344571E+00  0.48765018084E+01  0.51100000000E-03 0. -1.
        -11    1    4    4    0    0  0.40852068416E+01  0.28472757318E+00  0.50139626357E+01  0.64737783638E+01  0.51100000000E-03 0.  1.
        -12    1    4    4    0    0  0.36389568948E+02 -0.14514991146E+02  0.27483539315E+00  0.39178581275E+02  0.00000000000E+00 0.  1.
</event>
<event>
 8    1  0.7977359E-012  0.9118800E+02  0.7816164E-02  0.1184000E+00
        -11   -1    0    0    0    0  0.00000000000E+00  0.00000000000E+00  0.45593999997E+02  0.45594000000E+02  0.51100000000E-03 0.  1.
         11   -1    0    0    0    0 -0.00000000000E+00 -0.00000000000E+00 -0.45593999997E+02  0.45594000000E+02  0.51100000000E-03 0. -1.
         23    2    1    2    0    0 -0.44408920985E-15  0.00000000000E+00  0.17763568394E-14  0.91188000000E+02  0.91188000000E+02 0.  0.
    9900012    2    3    3    0    0  0.32984375869E+01 -0.37954792717E+02 -0.14202621997E+02  0.50528924109E+02  0.30000195321E+02 0.  0.
         12    1    3    3    0    0 -0.32984375869E+01  0.37954792717E+02  0.14202621997E+02  0.40659075891E+02  0.00000000000E+00 0. -1.
         11    1    4    4    0    0  0.84766588924E+01 -0.16403974353E+02 -0.13789675055E+02  0.23045590879E+02  0.51100000000E-03 0. -1.
        -11    1    4    4    0    0 -0.18483088733E+01 -0.40995923201E+01 -0.71800658221E+01  0.84720864226E+01  0.51100000000E-03 0.  1.
        -12    1    4    4    0    0 -0.33299124322E+01 -0.17451226044E+02  0.67671188802E+01  0.19011246807E+02  0.00000000000E+00 0.  1.
</event>
<event>
 8    1  0.7977359E-012  0.9118800E+02  0.7816164E-02  0.1184000E+00
        -11   -1    0    0    0    0  0.00000000000E+00  0.00000000000E+00  0.45593999997E+02  0.45594000000E+02  0.51100000000E-03 0. -1.
         11   -1    0    0    0    0 -0.00000000000E+00 -0.00000000000E+00 -0.45593999997E+02  0.45594000000E+02  0.51100000000E-03 0.  1.
         23    2    1    2    0    0  0.00000000000E+00  0.88817841970E-15  0.00000000000E+00  0.91188000000E+02  0.91188000000E+02 0.  0.
    9900012    2    3    3    0    0 -0.10167736685E+02 -0.79168977901E+01  0.38563018537E+02  0.50528849263E+02  0.29999967821E+02 0.  0.
        -12    1    3    3    0    0  0.10167736685E+02  0.79168977901E+01 -0.38563018537E+02  0.40659150737E+02  0.00000000000E+00 0.  1.
         11    1    4    4    0    0 -0.26372311189E+01  0.30817621108E+01 -0.21326691386E+01  0.45826328238E+01  0.51100000000E-03 0. -1.
        -11    1    4    4    0    0 -0.97665886850E+01 -0.43567450385E+00  0.25461335029E+02  0.27273717175E+02  0.51100000000E-03 0.  1.
         12    1    4    4    0    0  0.22360831189E+01 -0.10562985397E+02  0.15234352647E+02  0.18672499264E+02  0.00000000000E+00 0. -1.
</event>
<event>
 8    1  0.7977359E-012  0.9118800E+02  0.7816164E-02  0.1184000E+00
        -11   -1    0    0    0    0  0.00000000000E+00  0.00000000000E+00  0.45593999997E+02  0.45594000000E+02  0.51100000000E-03 0. -1.
         11   -1    0    0    0    0 -0.00000000000E+00 -0.00000000000E+00 -0.45593999997E+02  0.45594000000E+02  0.51100000000E-03 0.  1.
         23    2    1    2    0    0  0.00000000000E+00  0.00000000000E+00  0.00000000000E+00  0.91188000000E+02  0.91188000000E+02 0.  0.
    9900012    2    3    3    0    0  0.17409838266E+02  0.22501028846E+02 -0.29047664578E+02  0.50528860990E+02  0.30000003466E+02 0.  0.
         12    1    3    3    0    0 -0.17409838266E+02 -0.22501028846E+02  0.29047664578E+02  0.40659139010E+02  0.00000000000E+00 0. -1.
         11    1    4    4    0    0 -0.50708315578E+01  0.64688965256E+01 -0.56876590555E+01  0.99954700109E+01  0.51100000000E-03 0. -1.
        -11    1    4    4    0    0 -0.24237483870E+01  0.22599119547E+01 -0.69069765939E+01  0.76608148533E+01  0.51100000000E-03 0.  1.
        -12    1    4    4    0    0  0.24904418211E+02  0.13772220366E+02 -0.16453028929E+02  0.32872576126E+02  0.00000000000E+00 0.  1.
</event>
<event>
 8    1  0.7977359E-012  0.9118800E+02  0.7816164E-02  0.1184000E+00
        -11   -1    0    0    0    0  0.00000000000E+00  0.00000000000E+00  0.45593999997E+02  0.45594000000E+02  0.51100000000E-03 0. -1.
         11   -1    0    0    0    0 -0.00000000000E+00 -0.00000000000E+00 -0.45593999997E+02  0.45594000000E+02  0.51100000000E-03 0.  1.
         23    2    1    2    0    0 -0.71054273576E-14 -0.17763568394E-14 -0.35527136788E-14  0.91188000000E+02  0.91188000000E+02 0.  0.
    9900012    2    3    3    0    0 -0.34761708442E+02  0.12919340343E+02 -0.16669626121E+02  0.50528903064E+02  0.30000131352E+02 0.  0.
         12    1    3    3    0    0  0.34761708442E+02 -0.12919340343E+02  0.16669626121E+02  0.40659096936E+02  0.00000000000E+00 0. -1.
         11    1    4    4    0    0 -0.32735151512E+01  0.67405336425E+00 -0.12802694354E+01  0.35790137568E+01  0.51100000000E-03 0.  1.
        -11    1    4    4    0    0 -0.23170108666E+02 -0.60556339461E+01 -0.11095470532E+02  0.26393827018E+02  0.51100000000E-03 0. -1.
         12    1    4    4    0    0 -0.83180846242E+01  0.18300920925E+02 -0.42938861537E+01  0.20556062288E+02  0.00000000000E+00 0. -1.
</event>
<event>
 8    1  0.7977359E-012  0.9118800E+02  0.7816164E-02  0.1184000E+00
        -11   -1    0    0    0    0  0.00000000000E+00  0.00000000000E+00  0.45593999997E+02  0.45594000000E+02  0.51100000000E-03 0. -1.
         11   -1    0    0    0    0 -0.00000000000E+00 -0.00000000000E+00 -0.45593999997E+02  0.45594000000E+02  0.51100000000E-03 0.  1.
         23    2    1    2    0    0  0.00000000000E+00  0.17763568394E-14 -0.13322676296E-14  0.91188000000E+02  0.91188000000E+02 0.  0.
    9900012    2    3    3    0    0 -0.40567100811E+02 -0.11055153838E+01 -0.25008731384E+01  0.50528853440E+02  0.29999980518E+02 0.  0.
        -12    1    3    3    0    0  0.40567100811E+02  0.11055153838E+01  0.25008731384E+01  0.40659146560E+02  0.00000000000E+00 0.  1.
         11    1    4    4    0    0 -0.10159621155E+02 -0.82747941166E+01  0.53140375705E+01  0.14139629247E+02  0.51100000000E-03 0. -1.
        -11    1    4    4    0    0  0.90994653022E+00 -0.20544750827E+01  0.11625546037E+01  0.25299019785E+01  0.51100000000E-03 0.  1.
         12    1    4    4    0    0 -0.31317426187E+02  0.92237538155E+01 -0.89774653126E+01  0.33859322215E+02  0.00000000000E+00 0. -1.
</event>
<event>
 8    1  0.7977359E-012  0.9118800E+02  0.7816164E-02  0.1184000E+00
        -11   -1    0    0    0    0  0.00000000000E+00  0.00000000000E+00  0.45593999997E+02  0.45594000000E+02  0.51100000000E-03 0.  1.
         11   -1    0    0    0    0 -0.00000000000E+00 -0.00000000000E+00 -0.45593999997E+02  0.45594000000E+02  0.51100000000E-03 0. -1.
         23    2    1    2    0    0  0.35527136788E-14  0.00000000000E+00  0.00000000000E+00  0.91188000000E+02  0.91188000000E+02 0.  0.
    9900012    2    3    3    0    0 -0.24001911928E+02  0.28789268256E+02  0.15756008968E+02  0.50528861279E+02  0.30000004345E+02 0.  0.
        -12    1    3    3    0    0  0.24001911928E+02 -0.28789268256E+02 -0.15756008968E+02  0.40659138721E+02  0.00000000000E+00 0.  1.
         11    1    4    4    0    0 -0.88987902757E+01  0.61338506129E+01 -0.36957321852E+01  0.11422391534E+02  0.51100000000E-03 0. -1.
        -11    1    4    4    0    0  0.68121333853E+00  0.13920500297E+02  0.21341461528E+01  0.14099608512E+02  0.51100000000E-03 0.  1.
        -12    1    4    4    0    0 -0.15784334991E+02  0.87349173462E+01  0.17317595001E+02  0.25006861233E+02  0.00000000000E+00 0.  1.
</event>
<event>
 8    1  0.7977359E-012  0.9118800E+02  0.7816164E-02  0.1184000E+00
        -11   -1    0    0    0    0  0.00000000000E+00  0.00000000000E+00  0.45593999997E+02  0.45594000000E+02  0.51100000000E-03 0. -1.
         11   -1    0    0    0    0 -0.00000000000E+00 -0.00000000000E+00 -0.45593999997E+02  0.45594000000E+02  0.51100000000E-03 0.  1.
         23    2    1    2    0    0 -0.88817841970E-15  0.17763568394E-14 -0.71054273576E-14  0.91188000000E+02  0.91188000000E+02 0.  0.
    9900012    2    3    3    0    0 -0.56453489603E+01  0.12834749487E+02 -0.38164974684E+02  0.50528855249E+02  0.29999986015E+02 0.  0.
         12    1    3    3    0    0  0.56453489603E+01 -0.12834749487E+02  0.38164974684E+02  0.40659144751E+02  0.00000000000E+00 0. -1.
         11    1    4    4    0    0 -0.53322292295E+01  0.14271109471E+02 -0.30703025453E+02  0.34274961799E+02  0.51100000000E-03 0.  1.
        -11    1    4    4    0    0  0.26438428411E+01  0.51906439107E+01 -0.68194932437E+01  0.89687333296E+01  0.51100000000E-03 0. -1.
         12    1    4    4    0    0 -0.29569625719E+01 -0.66270038955E+01 -0.64245598705E+00  0.72851601203E+01  0.00000000000E+00 0. -1.
</event>
<event>
 8    1  0.7977359E-012  0.9118800E+02  0.7816164E-02  0.1184000E+00
        -11   -1    0    0    0    0  0.00000000000E+00  0.00000000000E+00  0.45593999997E+02  0.45594000000E+02  0.51100000000E-03 0. -1.
         11   -1    0    0    0    0 -0.00000000000E+00 -0.00000000000E+00 -0.45593999997E+02  0.45594000000E+02  0.51100000000E-03 0.  1.
         23    2    1    2    0    0 -0.88817841970E-15  0.00000000000E+00 -0.17763568394E-14  0.91188000000E+02  0.91188000000E+02 0.  0.
    9900012    2    3    3    0    0 -0.78695677007E+01 -0.37360883791E+02 -0.13978546875E+02  0.50528861959E+02  0.30000006412E+02 0.  0.
         12    1    3    3    0    0  0.78695677007E+01  0.37360883791E+02  0.13978546875E+02  0.40659138041E+02  0.00000000000E+00 0. -1.
         11    1    4    4    0    0  0.10453895543E+01 -0.41384224504E+01  0.39899727426E+01  0.58428813479E+01  0.51100000000E-03 0. -1.
        -11    1    4    4    0    0  0.46831165982E+00 -0.14007242155E+02  0.34358864947E+01  0.14430088872E+02  0.51100000000E-03 0.  1.
        -12    1    4    4    0    0 -0.93832689149E+01 -0.19215219186E+02 -0.21404406113E+02  0.30255891739E+02  0.00000000000E+00 0.  1.
</event>
<event>
 8    1  0.7977359E-012  0.9118800E+02  0.7816164E-02  0.1184000E+00
        -11   -1    0    0    0    0  0.00000000000E+00  0.00000000000E+00  0.45593999997E+02  0.45594000000E+02  0.51100000000E-03 0. -1.
         11   -1    0    0    0    0 -0.00000000000E+00 -0.00000000000E+00 -0.45593999997E+02  0.45594000000E+02  0.51100000000E-03 0.  1.
         23    2    1    2    0    0  0.00000000000E+00  0.00000000000E+00 -0.35527136788E-14  0.91188000000E+02  0.91188000000E+02 0.  0.
    9900012    2    3    3    0    0  0.14598207744E+02 -0.23902905138E+02  0.29473777125E+02  0.50528928671E+02  0.30000209187E+02 0.  0.
        -12    1    3    3    0    0 -0.14598207744E+02  0.23902905138E+02 -0.29473777125E+02  0.40659071329E+02  0.00000000000E+00 0.  1.
         11    1    4    4    0    0  0.64096225261E+01 -0.11251613095E+01 -0.15098305738E+01  0.66804818331E+01  0.51100000000E-03 0.  1.
        -11    1    4    4    0    0 -0.60099223196E+01 -0.70307654157E+01  0.57567059583E+01  0.10894516619E+02  0.51100000000E-03 0. -1.
        -12    1    4    4    0    0  0.14198507538E+02 -0.15746978412E+02  0.25226901740E+02  0.32953930218E+02  0.00000000000E+00 0.  1.
</event>
<event>
 8    1  0.7977359E-012  0.9118800E+02  0.7816164E-02  0.1184000E+00
        -11   -1    0    0    0    0  0.00000000000E+00  0.00000000000E+00  0.45593999997E+02  0.45594000000E+02  0.51100000000E-03 0. -1.
         11   -1    0    0    0    0 -0.00000000000E+00 -0.00000000000E+00 -0.45593999997E+02  0.45594000000E+02  0.51100000000E-03 0.  1.
         23    2    1    2    0    0 -0.17763568394E-14 -0.17763568394E-14  0.00000000000E+00  0.91188000000E+02  0.91188000000E+02 0.  0.
    9900012    2    3    3    0    0  0.93274714771E+01  0.10011983201E+02  0.38287397208E+02  0.50528851992E+02  0.29999976115E+02 0.  0.
        -12    1    3    3    0    0 -0.93274714771E+01 -0.10011983201E+02 -0.38287397208E+02  0.40659148008E+02  0.00000000000E+00 0.  1.
         11    1    4    4    0    0  0.48304751123E+01  0.39130378629E+01  0.21485286169E+00  0.62202505689E+01  0.51100000000E-03 0. -1.
        -11    1    4    4    0    0 -0.57585714010E+01  0.10095251911E+02  0.18290626489E+02  0.21670770022E+02  0.51100000000E-03 0.  1.
         12    1    4    4    0    0  0.10255567766E+02 -0.39963065735E+01  0.19781917857E+02  0.22637831401E+02  0.00000000000E+00 0. -1.
</event>
<event>
 8    1  0.7977359E-012  0.9118800E+02  0.7816164E-02  0.1184000E+00
        -11   -1    0    0    0    0  0.00000000000E+00  0.00000000000E+00  0.45593999997E+02  0.45594000000E+02  0.51100000000E-03 0. -1.
         11   -1    0    0    0    0 -0.00000000000E+00 -0.00000000000E+00 -0.45593999997E+02  0.45594000000E+02  0.51100000000E-03 0.  1.
         23    2    1    2    0    0  0.00000000000E+00 -0.17763568394E-14  0.00000000000E+00  0.91188000000E+02  0.91188000000E+02 0.  0.
    9900012    2    3    3    0    0 -0.33141036931E+02 -0.81137875460E+01  0.22113424264E+02  0.50528863144E+02  0.30000010011E+02 0.  0.
        -12    1    3    3    0    0  0.33141036931E+02  0.81137875460E+01 -0.22113424264E+02  0.40659136856E+02  0.00000000000E+00 0.  1.
         11    1    4    4    0    0 -0.79007909883E+01 -0.47507263907E+01  0.17876210379E+02  0.20113448170E+02  0.51100000000E-03 0. -1.
        -11    1    4    4    0    0 -0.13442820346E+02 -0.96475164652E+01  0.41043702888E+01  0.17047869325E+02  0.51100000000E-03 0.  1.
         12    1    4    4    0    0 -0.11797425597E+02  0.62844553099E+01  0.13284359616E+00  0.13367545649E+02  0.00000000000E+00 0. -1.
</event>
<event>
 8    1  0.7977359E-012  0.9118800E+02  0.7816164E-02  0.1184000E+00
        -11   -1    0    0    0    0  0.00000000000E+00  0.00000000000E+00  0.45593999997E+02  0.45594000000E+02  0.51100000000E-03 0. -1.
         11   -1    0    0    0    0 -0.00000000000E+00 -0.00000000000E+00 -0.45593999997E+02  0.45594000000E+02  0.51100000000E-03 0.  1.
         23    2    1    2    0    0  0.35527136788E-14  0.00000000000E+00  0.35527136788E-14  0.91188000000E+02  0.91188000000E+02 0.  0.
    9900012    2    3    3    0    0  0.31951893338E+02 -0.20549294779E+01  0.25060318136E+02  0.50528858739E+02  0.29999996623E+02 0.  0.
        -12    1    3    3    0    0 -0.31951893338E+02  0.20549294779E+01 -0.25060318136E+02  0.40659141261E+02  0.00000000000E+00 0.  1.
         11    1    4    4    0    0  0.69828875758E+01 -0.31517150513E+01  0.11426987989E+02  0.13757546344E+02  0.51100000000E-03 0. -1.
        -11    1    4    4    0    0  0.18798952039E+02 -0.94238882743E+01  0.12638087418E+02  0.24534292772E+02  0.51100000000E-03 0.  1.
        -12    1    4    4    0    0  0.61700537228E+01  0.10520673848E+02  0.99524272886E+00  0.12237019622E+02  0.00000000000E+00 0.  1.
</event>
<event>
 8    1  0.7977359E-012  0.9118800E+02  0.7816164E-02  0.1184000E+00
        -11   -1    0    0    0    0  0.00000000000E+00  0.00000000000E+00  0.45593999997E+02  0.45594000000E+02  0.51100000000E-03 0. -1.
         11   -1    0    0    0    0 -0.00000000000E+00 -0.00000000000E+00 -0.45593999997E+02  0.45594000000E+02  0.51100000000E-03 0.  1.
         23    2    1    2    0    0  0.00000000000E+00 -0.17763568394E-14  0.00000000000E+00  0.91188000000E+02  0.91188000000E+02 0.  0.
    9900012    2    3    3    0    0  0.18069660470E+02 -0.92603507457E+01 -0.35226392445E+02  0.50528862649E+02  0.30000008509E+02 0.  0.
         12    1    3    3    0    0 -0.18069660470E+02  0.92603507457E+01  0.35226392445E+02  0.40659137351E+02  0.00000000000E+00 0. -1.
         11    1    4    4    0    0  0.23818624656E+01  0.74014905574E+01 -0.31992962360E+01  0.84077837712E+01  0.51100000000E-03 0. -1.
        -11    1    4    4    0    0  0.76176125072E+01 -0.10494979801E+02 -0.62107621581E+01  0.14378671294E+02  0.51100000000E-03 0.  1.
        -12    1    4    4    0    0  0.80701854973E+01 -0.61668615021E+01 -0.25816334051E+02  0.27742407584E+02  0.00000000000E+00 0.  1.
</event>
<event>
 8    1  0.7977359E-012  0.9118800E+02  0.7816164E-02  0.1184000E+00
        -11   -1    0    0    0    0  0.00000000000E+00  0.00000000000E+00  0.45593999997E+02  0.45594000000E+02  0.51100000000E-03 0. -1.
         11   -1    0    0    0    0 -0.00000000000E+00 -0.00000000000E+00 -0.45593999997E+02  0.45594000000E+02  0.51100000000E-03 0.  1.
         23    2    1    2    0    0  0.17763568394E-14  0.00000000000E+00  0.00000000000E+00  0.91188000000E+02  0.91188000000E+02 0.  0.
    9900012    2    3    3    0    0 -0.15384533772E+02  0.13354987705E+02 -0.35186995124E+02  0.50528878000E+02  0.30000055169E+02 0.  0.
         12    1    3    3    0    0  0.15384533772E+02 -0.13354987705E+02  0.35186995124E+02  0.40659122000E+02  0.00000000000E+00 0. -1.
         11    1    4    4    0    0 -0.49464587652E+00  0.29144204564E+01  0.22033394129E+01  0.36868992350E+01  0.51100000000E-03 0. -1.
        -11    1    4    4    0    0  0.98807248073E-01  0.11663662160E+02 -0.90665180428E+01  0.14773372246E+02  0.51100000000E-03 0.  1.
        -12    1    4    4    0    0 -0.14988695144E+02 -0.12230949113E+01 -0.28323816494E+02  0.32068606519E+02  0.00000000000E+00 0.  1.
</event>
<event>
 8    1  0.7977359E-012  0.9118800E+02  0.7816164E-02  0.1184000E+00
        -11   -1    0    0    0    0  0.00000000000E+00  0.00000000000E+00  0.45593999997E+02  0.45594000000E+02  0.51100000000E-03 0. -1.
         11   -1    0    0    0    0 -0.00000000000E+00 -0.00000000000E+00 -0.45593999997E+02  0.45594000000E+02  0.51100000000E-03 0.  1.
         23    2    1    2    0    0  0.00000000000E+00  0.00000000000E+00  0.00000000000E+00  0.91188000000E+02  0.91188000000E+02 0.  0.
    9900012    2    3    3    0    0  0.16957879923E+02  0.35549643738E+02 -0.10090526073E+02  0.50528861079E+02  0.30000003736E+02 0.  0.
         12    1    3    3    0    0 -0.16957879923E+02 -0.35549643738E+02  0.10090526073E+02  0.40659138921E+02  0.00000000000E+00 0. -1.
         11    1    4    4    0    0  0.55089013909E-01  0.12487113309E+01 -0.86461203794E+01  0.87360009537E+01  0.51100000000E-03 0. -1.
        -11    1    4    4    0    0  0.10062313425E+02  0.10756365514E+02  0.63869822038E+01  0.16054379230E+02  0.51100000000E-03 0.  1.
        -12    1    4    4    0    0  0.68404774836E+01  0.23544566893E+02 -0.78313878974E+01  0.25738480895E+02  0.00000000000E+00 0.  1.
</event>
<event>
 8    1  0.7977359E-012  0.9118800E+02  0.7816164E-02  0.1184000E+00
        -11   -1    0    0    0    0  0.00000000000E+00  0.00000000000E+00  0.45593999997E+02  0.45594000000E+02  0.51100000000E-03 0.  1.
         11   -1    0    0    0    0 -0.00000000000E+00 -0.00000000000E+00 -0.45593999997E+02  0.45594000000E+02  0.51100000000E-03 0. -1.
         23    2    1    2    0    0 -0.35527136788E-14  0.71054273576E-14  0.00000000000E+00  0.91188000000E+02  0.91188000000E+02 0.  0.
    9900012    2    3    3    0    0 -0.18659494581E+02  0.32354710950E+02  0.16067405420E+02  0.50528861106E+02  0.30000003819E+02 0.  0.
        -12    1    3    3    0    0  0.18659494581E+02 -0.32354710950E+02 -0.16067405420E+02  0.40659138894E+02  0.00000000000E+00 0.  1.
         11    1    4    4    0    0  0.11119056803E+00  0.15577290824E+02 -0.19789599008E+00  0.15578944632E+02  0.51100000000E-03 0. -1.
        -11    1    4    4    0    0 -0.64685475999E+01  0.69509472566E+01 -0.31029712749E+01  0.99893046209E+01  0.51100000000E-03 0.  1.
        -12    1    4    4    0    0 -0.12302137549E+02  0.98264728695E+01  0.19368272684E+02  0.24960611854E+02  0.00000000000E+00 0.  1.
</event>
<event>
 8    1  0.7977359E-012  0.9118800E+02  0.7816164E-02  0.1184000E+00
        -11   -1    0    0    0    0  0.00000000000E+00  0.00000000000E+00  0.45593999997E+02  0.45594000000E+02  0.51100000000E-03 0. -1.
         11   -1    0    0    0    0 -0.00000000000E+00 -0.00000000000E+00 -0.45593999997E+02  0.45594000000E+02  0.51100000000E-03 0.  1.
         23    2    1    2    0    0  0.00000000000E+00  0.00000000000E+00  0.00000000000E+00  0.91188000000E+02  0.91188000000E+02 0.  0.
    9900012    2    3    3    0    0  0.55699989853E+01 -0.13490090862E+02 -0.37949405414E+02  0.50528870503E+02  0.30000032382E+02 0.  0.
         12    1    3    3    0    0 -0.55699989853E+01  0.13490090862E+02  0.37949405414E+02  0.40659129497E+02  0.00000000000E+00 0. -1.
         11    1    4    4    0    0 -0.30448161591E+01 -0.91001109844E+00 -0.64471684416E+01  0.71878374229E+01  0.51100000000E-03 0. -1.
        -11    1    4    4    0    0 -0.85668688180E+01 -0.19527636245E+01 -0.53241985442E+01  0.10273831686E+02  0.51100000000E-03 0.  1.
         12    1    4    4    0    0  0.17181683962E+02 -0.10627316139E+02 -0.26178038428E+02  0.33067201394E+02  0.00000000000E+00 0. -1.
</event>
<event>
 8    1  0.7977359E-012  0.9118800E+02  0.7816164E-02  0.1184000E+00
        -11   -1    0    0    0    0  0.00000000000E+00  0.00000000000E+00  0.45593999997E+02  0.45594000000E+02  0.51100000000E-03 0. -1.
         11   -1    0    0    0    0 -0.00000000000E+00 -0.00000000000E+00 -0.45593999997E+02  0.45594000000E+02  0.51100000000E-03 0.  1.
         23    2    1    2    0    0  0.35527136788E-14  0.00000000000E+00 -0.71054273576E-14  0.91188000000E+02  0.91188000000E+02 0.  0.
    9900012    2    3    3    0    0 -0.17041584524E+02  0.95196978462E+01  0.35666863228E+02  0.50528863478E+02  0.30000011029E+02 0.  0.
        -12    1    3    3    0    0  0.17041584524E+02 -0.95196978462E+01 -0.35666863228E+02  0.40659136522E+02  0.00000000000E+00 0.  1.
         11    1    4    4    0    0 -0.42017750345E+01 -0.41834359712E+01  0.78644629480E+01  0.98491536534E+01  0.51100000000E-03 0.  1.
        -11    1    4    4    0    0  0.64855817680E-02  0.10286684004E+02  0.25084631862E+02  0.27111891594E+02  0.51100000000E-03 0. -1.
         12    1    4    4    0    0 -0.12846295071E+02  0.34164498134E+01  0.27177684176E+01  0.13567818231E+02  0.00000000000E+00 0. -1.
</event>
<event>
 8    1  0.7977359E-012  0.9118800E+02  0.7816164E-02  0.1184000E+00
        -11   -1    0    0    0    0  0.00000000000E+00  0.00000000000E+00  0.45593999997E+02  0.45594000000E+02  0.51100000000E-03 0. -1.
         11   -1    0    0    0    0 -0.00000000000E+00 -0.00000000000E+00 -0.45593999997E+02  0.45594000000E+02  0.51100000000E-03 0.  1.
         23    2    1    2    0    0  0.00000000000E+00  0.35527136788E-14  0.00000000000E+00  0.91188000000E+02  0.91188000000E+02 0.  0.
    9900012    2    3    3    0    0 -0.20081725868E+02  0.30708024368E+02  0.17518727674E+02  0.50528876870E+02  0.30000051733E+02 0.  0.
        -12    1    3    3    0    0  0.20081725868E+02 -0.30708024368E+02 -0.17518727674E+02  0.40659123130E+02  0.00000000000E+00 0.  1.
         11    1    4    4    0    0 -0.39480748507E+01  0.10290435508E+02  0.28461045567E+01  0.11383350534E+02  0.51100000000E-03 0. -1.
        -11    1    4    4    0    0 -0.16619605413E+02  0.18059634510E+02  0.21046983576E+02  0.32331674881E+02  0.51100000000E-03 0.  1.
        -12    1    4    4    0    0  0.48595439528E+00  0.23579543494E+01 -0.63743604583E+01  0.68138514543E+01  0.00000000000E+00 0.  1.
</event>
<event>
 8    1  0.7977359E-012  0.9118800E+02  0.7816164E-02  0.1184000E+00
        -11   -1    0    0    0    0  0.00000000000E+00  0.00000000000E+00  0.45593999997E+02  0.45594000000E+02  0.51100000000E-03 0. -1.
         11   -1    0    0    0    0 -0.00000000000E+00 -0.00000000000E+00 -0.45593999997E+02  0.45594000000E+02  0.51100000000E-03 0.  1.
         23    2    1    2    0    0 -0.35527136788E-14  0.00000000000E+00  0.00000000000E+00  0.91188000000E+02  0.91188000000E+02 0.  0.
    9900012    2    3    3    0    0  0.19286167995E+02 -0.83011513837E+01 -0.34818112913E+02  0.50528851250E+02  0.29999973859E+02 0.  0.
         12    1    3    3    0    0 -0.19286167995E+02  0.83011513837E+01  0.34818112913E+02  0.40659148750E+02  0.00000000000E+00 0. -1.
         11    1    4    4    0    0  0.25077206871E+02 -0.30024283616E+01 -0.29421555193E+02  0.38775105297E+02  0.51100000000E-03 0. -1.
        -11    1    4    4    0    0 -0.28992342013E+01  0.10076359154E+01 -0.18190739440E+00  0.30747324524E+01  0.51100000000E-03 0.  1.
        -12    1    4    4    0    0 -0.28918046748E+01 -0.63063589375E+01 -0.52146503260E+01  0.86790135009E+01  0.00000000000E+00 0.  1.
</event>
<event>
 8    1  0.7977359E-012  0.9118800E+02  0.7816164E-02  0.1184000E+00
        -11   -1    0    0    0    0  0.00000000000E+00  0.00000000000E+00  0.45593999997E+02  0.45594000000E+02  0.51100000000E-03 0. -1.
         11   -1    0    0    0    0 -0.00000000000E+00 -0.00000000000E+00 -0.45593999997E+02  0.45594000000E+02  0.51100000000E-03 0.  1.
         23    2    1    2    0    0  0.88817841970E-15 -0.35527136788E-14  0.00000000000E+00  0.91188000000E+02  0.91188000000E+02 0.  0.
    9900012    2    3    3    0    0 -0.40174376509E+01 -0.29627549626E+02 -0.27554207684E+02  0.50528857569E+02  0.29999993067E+02 0.  0.
         12    1    3    3    0    0  0.40174376509E+01  0.29627549626E+02  0.27554207684E+02  0.40659142431E+02  0.00000000000E+00 0. -1.
         11    1    4    4    0    0  0.30648022489E+01  0.23372754616E+01 -0.85678551247E+01  0.93948928204E+01  0.51100000000E-03 0. -1.
        -11    1    4    4    0    0 -0.21498175160E+00  0.68255030022E+00 -0.48470420253E+01  0.48995825049E+01  0.51100000000E-03 0.  1.
         12    1    4    4    0    0 -0.68672581482E+01 -0.32647375388E+02 -0.14139310534E+02  0.36234382244E+02  0.00000000000E+00 0. -1.
</event>
<event>
 8    1  0.7977359E-012  0.9118800E+02  0.7816164E-02  0.1184000E+00
        -11   -1    0    0    0    0  0.00000000000E+00  0.00000000000E+00  0.45593999997E+02  0.45594000000E+02  0.51100000000E-03 0. -1.
         11   -1    0    0    0    0 -0.00000000000E+00 -0.00000000000E+00 -0.45593999997E+02  0.45594000000E+02  0.51100000000E-03 0.  1.
         23    2    1    2    0    0  0.00000000000E+00  0.44408920985E-15  0.00000000000E+00  0.91188000000E+02  0.91188000000E+02 0.  0.
    9900012    2    3    3    0    0  0.24914842228E+01  0.32741934651E+01  0.40450453249E+02  0.50528843534E+02  0.29999950406E+02 0.  0.
        -12    1    3    3    0    0 -0.24914842228E+01 -0.32741934651E+01 -0.40450453249E+02  0.40659156466E+02  0.00000000000E+00 0.  1.
         11    1    4    4    0    0  0.92589146774E-01  0.15090198867E+00 -0.90679816308E+00  0.92391954735E+00  0.51100000000E-03 0. -1.
        -11    1    4    4    0    0  0.23477971196E+01  0.28865960503E+01 -0.32841383455E+01  0.49628774925E+01  0.51100000000E-03 0.  1.
         12    1    4    4    0    0  0.51097956417E-01  0.23669542617E+00  0.44641389757E+02  0.44642046494E+02  0.00000000000E+00 0. -1.
</event>
<event>
 8    1  0.7977359E-012  0.9118800E+02  0.7816164E-02  0.1184000E+00
        -11   -1    0    0    0    0  0.00000000000E+00  0.00000000000E+00  0.45593999997E+02  0.45594000000E+02  0.51100000000E-03 0. -1.
         11   -1    0    0    0    0 -0.00000000000E+00 -0.00000000000E+00 -0.45593999997E+02  0.45594000000E+02  0.51100000000E-03 0.  1.
         23    2    1    2    0    0 -0.35527136788E-14  0.17763568394E-14  0.00000000000E+00  0.91188000000E+02  0.91188000000E+02 0.  0.
    9900012    2    3    3    0    0 -0.19763929680E+02  0.98350456676E+01  0.34144179215E+02  0.50528855716E+02  0.29999987434E+02 0.  0.
        -12    1    3    3    0    0  0.19763929680E+02 -0.98350456676E+01 -0.34144179215E+02  0.40659144284E+02  0.00000000000E+00 0.  1.
         11    1    4    4    0    0 -0.78901426831E+00  0.87663455684E+01  0.18992989256E+02  0.20933346586E+02  0.51100000000E-03 0. -1.
        -11    1    4    4    0    0 -0.62383821768E+00  0.44022587380E+01  0.88575790561E+01  0.99108911362E+01  0.51100000000E-03 0.  1.
        -12    1    4    4    0    0 -0.18351077194E+02 -0.33335586388E+01  0.62936109028E+01  0.19684617994E+02  0.00000000000E+00 0.  1.
</event>
<event>
 8    1  0.7977359E-012  0.9118800E+02  0.7816164E-02  0.1184000E+00
        -11   -1    0    0    0    0  0.00000000000E+00  0.00000000000E+00  0.45593999997E+02  0.45594000000E+02  0.51100000000E-03 0. -1.
         11   -1    0    0    0    0 -0.00000000000E+00 -0.00000000000E+00 -0.45593999997E+02  0.45594000000E+02  0.51100000000E-03 0.  1.
         23    2    1    2    0    0  0.17763568394E-14  0.00000000000E+00  0.00000000000E+00  0.91188000000E+02  0.91188000000E+02 0.  0.
    9900012    2    3    3    0    0 -0.13372543964E+02  0.25038144233E+02 -0.29110680316E+02  0.50528864406E+02  0.30000013850E+02 0.  0.
         12    1    3    3    0    0  0.13372543964E+02 -0.25038144233E+02  0.29110680316E+02  0.40659135594E+02  0.00000000000E+00 0. -1.
         11    1    4    4    0    0 -0.30545625662E+01 -0.70569279470E+00  0.22113456245E+01  0.38364572881E+01  0.51100000000E-03 0. -1.
        -11    1    4    4    0    0  0.63011150905E+01  0.74070875102E+01 -0.10893100245E+02  0.14602350153E+02  0.51100000000E-03 0.  1.
        -12    1    4    4    0    0 -0.16619096489E+02  0.18336749518E+02 -0.20428925696E+02  0.32090056966E+02  0.00000000000E+00 0.  1.
</event>
<event>
 8    1  0.7977359E-012  0.9118800E+02  0.7816164E-02  0.1184000E+00
        -11   -1    0    0    0    0  0.00000000000E+00  0.00000000000E+00  0.45593999997E+02  0.45594000000E+02  0.51100000000E-03 0. -1.
         11   -1    0    0    0    0 -0.00000000000E+00 -0.00000000000E+00 -0.45593999997E+02  0.45594000000E+02  0.51100000000E-03 0.  1.
         23    2    1    2    0    0  0.00000000000E+00  0.00000000000E+00  0.71054273576E-14  0.91188000000E+02  0.91188000000E+02 0.  0.
    9900012    2    3    3    0    0 -0.11502829652E+02  0.10630484111E+02  0.37521159010E+02  0.50528933903E+02  0.30000225089E+02 0.  0.
        -12    1    3    3    0    0  0.11502829652E+02 -0.10630484111E+02 -0.37521159010E+02  0.40659066097E+02  0.00000000000E+00 0.  1.
         11    1    4    4    0    0 -0.54164962261E+01  0.17768429116E+02  0.32220964842E+02  0.37192016350E+02  0.51100000000E-03 0. -1.
        -11    1    4    4    0    0  0.16537958821E+01 -0.16970175253E+01 -0.22559086674E+00  0.23802942678E+01  0.51100000000E-03 0.  1.
        -12    1    4    4    0    0 -0.77401293080E+01 -0.54409274796E+01  0.55257850355E+01  0.10956623285E+02  0.00000000000E+00 0.  1.
</event>
<event>
 8    1  0.7977359E-012  0.9118800E+02  0.7816164E-02  0.1184000E+00
        -11   -1    0    0    0    0  0.00000000000E+00  0.00000000000E+00  0.45593999997E+02  0.45594000000E+02  0.51100000000E-03 0. -1.
         11   -1    0    0    0    0 -0.00000000000E+00 -0.00000000000E+00 -0.45593999997E+02  0.45594000000E+02  0.51100000000E-03 0.  1.
         23    2    1    2    0    0 -0.17763568394E-14 -0.35527136788E-14  0.00000000000E+00  0.91188000000E+02  0.91188000000E+02 0.  0.
    9900012    2    3    3    0    0  0.10163187143E+02  0.28504774714E+02  0.27154247285E+02  0.50528859576E+02  0.29999999168E+02 0.  0.
        -12    1    3    3    0    0 -0.10163187143E+02 -0.28504774714E+02 -0.27154247285E+02  0.40659140424E+02  0.00000000000E+00 0.  1.
         11    1    4    4    0    0 -0.57144589235E+01  0.16812152084E+02  0.14655077920E+02  0.23023353526E+02  0.51100000000E-03 0.  1.
        -11    1    4    4    0    0  0.14577883150E+01  0.98571951787E+01  0.51989461435E+01  0.11239149649E+02  0.51100000000E-03 0. -1.
        -12    1    4    4    0    0  0.14419857751E+02  0.18354274511E+01  0.73002232219E+01  0.16266356402E+02  0.00000000000E+00 0.  1.
</event>
<event>
 8    1  0.7977359E-012  0.9118800E+02  0.7816164E-02  0.1184000E+00
        -11   -1    0    0    0    0  0.00000000000E+00  0.00000000000E+00  0.45593999997E+02  0.45594000000E+02  0.51100000000E-03 0. -1.
         11   -1    0    0    0    0 -0.00000000000E+00 -0.00000000000E+00 -0.45593999997E+02  0.45594000000E+02  0.51100000000E-03 0.  1.
         23    2    1    2    0    0 -0.77715611724E-15  0.00000000000E+00  0.00000000000E+00  0.91188000000E+02  0.91188000000E+02 0.  0.
    9900012    2    3    3    0    0  0.66839900573E+00  0.11042633660E+02  0.39125168804E+02  0.50528863889E+02  0.30000012276E+02 0.  0.
        -12    1    3    3    0    0 -0.66839900573E+00 -0.11042633660E+02 -0.39125168804E+02  0.40659136111E+02  0.00000000000E+00 0.  1.
         11    1    4    4    0    0 -0.87793459199E+01 -0.50531093306E+01  0.65825649807E+01  0.12080603904E+02  0.51100000000E-03 0. -1.
        -11    1    4    4    0    0  0.17164742752E+01  0.12936386333E+01  0.34400945369E+00  0.21767240561E+01  0.51100000000E-03 0.  1.
         12    1    4    4    0    0  0.77312706504E+01  0.14802104358E+02  0.32198594369E+02  0.36271535929E+02  0.00000000000E+00 0. -1.
</event>
<event>
 8    1  0.7977359E-012  0.9118800E+02  0.7816164E-02  0.1184000E+00
        -11   -1    0    0    0    0  0.00000000000E+00  0.00000000000E+00  0.45593999997E+02  0.45594000000E+02  0.51100000000E-03 0. -1.
         11   -1    0    0    0    0 -0.00000000000E+00 -0.00000000000E+00 -0.45593999997E+02  0.45594000000E+02  0.51100000000E-03 0.  1.
         23    2    1    2    0    0  0.00000000000E+00  0.00000000000E+00  0.00000000000E+00  0.91188000000E+02  0.91188000000E+02 0.  0.
    9900012    2    3    3    0    0 -0.11683843327E+02 -0.16693790524E+02  0.35184809464E+02  0.50528860142E+02  0.30000000888E+02 0.  0.
        -12    1    3    3    0    0  0.11683843327E+02  0.16693790524E+02 -0.35184809464E+02  0.40659139858E+02  0.00000000000E+00 0.  1.
         11    1    4    4    0    0  0.54639977769E+01 -0.38428937704E+01  0.21701604253E+02  0.22706446918E+02  0.51100000000E-03 0. -1.
        -11    1    4    4    0    0 -0.72108173875E+00 -0.16656411922E+01  0.65146378137E+01  0.67627528093E+01  0.51100000000E-03 0.  1.
        -12    1    4    4    0    0 -0.16426759365E+02 -0.11185255561E+02  0.69685673976E+01  0.21059660415E+02  0.00000000000E+00 0.  1.
</event>
<event>
 8    1  0.7977359E-012  0.9118800E+02  0.7816164E-02  0.1184000E+00
        -11   -1    0    0    0    0  0.00000000000E+00  0.00000000000E+00  0.45593999997E+02  0.45594000000E+02  0.51100000000E-03 0. -1.
         11   -1    0    0    0    0 -0.00000000000E+00 -0.00000000000E+00 -0.45593999997E+02  0.45594000000E+02  0.51100000000E-03 0.  1.
         23    2    1    2    0    0  0.17763568394E-14  0.00000000000E+00  0.00000000000E+00  0.91188000000E+02  0.91188000000E+02 0.  0.
    9900012    2    3    3    0    0 -0.40692622138E+01  0.21668594113E+02 -0.34162488934E+02  0.50528898731E+02  0.30000118183E+02 0.  0.
         12    1    3    3    0    0  0.40692622138E+01 -0.21668594113E+02  0.34162488934E+02  0.40659101269E+02  0.00000000000E+00 0. -1.
         11    1    4    4    0    0  0.26563802174E+01  0.25536123673E+01 -0.21360853722E+02  0.21676331885E+02  0.51100000000E-03 0. -1.
        -11    1    4    4    0    0  0.41083575166E+01  0.11951994278E+02 -0.82383658570E+01  0.15086399205E+02  0.51100000000E-03 0.  1.
         12    1    4    4    0    0 -0.10833999948E+02  0.71629874675E+01 -0.45632693554E+01  0.13766167642E+02  0.00000000000E+00 0. -1.
</event>
<event>
 8    1  0.7977359E-012  0.9118800E+02  0.7816164E-02  0.1184000E+00
        -11   -1    0    0    0    0  0.00000000000E+00  0.00000000000E+00  0.45593999997E+02  0.45594000000E+02  0.51100000000E-03 0. -1.
         11   -1    0    0    0    0 -0.00000000000E+00 -0.00000000000E+00 -0.45593999997E+02  0.45594000000E+02  0.51100000000E-03 0.  1.
         23    2    1    2    0    0 -0.35527136788E-14 -0.99920072216E-15  0.00000000000E+00  0.91188000000E+02  0.91188000000E+02 0.  0.
    9900012    2    3    3    0    0 -0.29314475297E+02 -0.30039223144E+00 -0.28173336678E+02  0.50528860843E+02  0.30000003018E+02 0.  0.
         12    1    3    3    0    0  0.29314475297E+02  0.30039223144E+00  0.28173336678E+02  0.40659139157E+02  0.00000000000E+00 0. -1.
         11    1    4    4    0    0 -0.77259107190E+01  0.65249300615E+01 -0.95987129094E+00  0.10158039274E+02  0.51100000000E-03 0.  1.
        -11    1    4    4    0    0 -0.18961426041E+02  0.26219991453E+01 -0.22345050479E+02  0.29422981464E+02  0.51100000000E-03 0. -1.
         12    1    4    4    0    0 -0.26271385361E+01 -0.94473214382E+01 -0.48684149084E+01  0.10947840105E+02  0.00000000000E+00 0. -1.
</event>
<event>
 8    1  0.7977359E-012  0.9118800E+02  0.7816164E-02  0.1184000E+00
        -11   -1    0    0    0    0  0.00000000000E+00  0.00000000000E+00  0.45593999997E+02  0.45594000000E+02  0.51100000000E-03 0. -1.
         11   -1    0    0    0    0 -0.00000000000E+00 -0.00000000000E+00 -0.45593999997E+02  0.45594000000E+02  0.51100000000E-03 0.  1.
         23    2    1    2    0    0  0.00000000000E+00  0.00000000000E+00  0.00000000000E+00  0.91188000000E+02  0.91188000000E+02 0.  0.
    9900012    2    3    3    0    0 -0.29219640851E+02 -0.90817514175E+01 -0.26775030934E+02  0.50528832500E+02  0.29999916866E+02 0.  0.
         12    1    3    3    0    0  0.29219640851E+02  0.90817514175E+01  0.26775030934E+02  0.40659167500E+02  0.00000000000E+00 0. -1.
         11    1    4    4    0    0 -0.16773468533E+02 -0.30996208599E+00 -0.56711823393E+01  0.17708970397E+02  0.51100000000E-03 0. -1.
        -11    1    4    4    0    0 -0.16791002459E+02 -0.19031928109E+01 -0.15649425664E+02  0.23031813440E+02  0.51100000000E-03 0.  1.
        -12    1    4    4    0    0  0.43448301410E+01 -0.68685965206E+01 -0.54544229307E+01  0.97880486627E+01  0.00000000000E+00 0.  1.
</event>
<event>
 8    1  0.7977359E-012  0.9118800E+02  0.7816164E-02  0.1184000E+00
        -11   -1    0    0    0    0  0.00000000000E+00  0.00000000000E+00  0.45593999997E+02  0.45594000000E+02  0.51100000000E-03 0. -1.
         11   -1    0    0    0    0 -0.00000000000E+00 -0.00000000000E+00 -0.45593999997E+02  0.45594000000E+02  0.51100000000E-03 0.  1.
         23    2    1    2    0    0 -0.17763568394E-14  0.00000000000E+00  0.35527136788E-14  0.91188000000E+02  0.91188000000E+02 0.  0.
    9900012    2    3    3    0    0 -0.93502459675E+01  0.33412452335E+02  0.21197787039E+02  0.50528865159E+02  0.30000016137E+02 0.  0.
        -12    1    3    3    0    0  0.93502459675E+01 -0.33412452335E+02 -0.21197787039E+02  0.40659134841E+02  0.00000000000E+00 0.  1.
         11    1    4    4    0    0 -0.38960069206E+01  0.13754559864E+02 -0.14305976127E+01  0.14367094236E+02  0.51100000000E-03 0. -1.
        -11    1    4    4    0    0 -0.94819482056E+01  0.16007166143E+01  0.63928974024E+01  0.11547240922E+02  0.51100000000E-03 0.  1.
         12    1    4    4    0    0  0.40277091587E+01  0.18057175856E+02  0.16235487249E+02  0.24614530001E+02  0.00000000000E+00 0. -1.
</event>
<event>
 8    1  0.7977359E-012  0.9118800E+02  0.7816164E-02  0.1184000E+00
        -11   -1    0    0    0    0  0.00000000000E+00  0.00000000000E+00  0.45593999997E+02  0.45594000000E+02  0.51100000000E-03 0. -1.
         11   -1    0    0    0    0 -0.00000000000E+00 -0.00000000000E+00 -0.45593999997E+02  0.45594000000E+02  0.51100000000E-03 0.  1.
         23    2    1    2    0    0  0.00000000000E+00  0.00000000000E+00  0.35527136788E-14  0.91188000000E+02  0.91188000000E+02 0.  0.
    9900012    2    3    3    0    0 -0.31362637242E+02 -0.51797541871E+01 -0.25351968028E+02  0.50528841732E+02  0.29999944927E+02 0.  0.
         12    1    3    3    0    0  0.31362637242E+02  0.51797541871E+01  0.25351968028E+02  0.40659158268E+02  0.00000000000E+00 0. -1.
         11    1    4    4    0    0 -0.42268309802E+00  0.40995205425E+00 -0.14970890684E+02  0.14982466079E+02  0.51100000000E-03 0. -1.
        -11    1    4    4    0    0 -0.42959299982E+01  0.32961056626E+01  0.47303884748E+00  0.54353558394E+01  0.51100000000E-03 0.  1.
         12    1    4    4    0    0 -0.26644024146E+02 -0.88858119039E+01 -0.10854116192E+02  0.30111019813E+02  0.00000000000E+00 0. -1.
</event>
<event>
 8    1  0.7977359E-012  0.9118800E+02  0.7816164E-02  0.1184000E+00
        -11   -1    0    0    0    0  0.00000000000E+00  0.00000000000E+00  0.45593999997E+02  0.45594000000E+02  0.51100000000E-03 0. -1.
         11   -1    0    0    0    0 -0.00000000000E+00 -0.00000000000E+00 -0.45593999997E+02  0.45594000000E+02  0.51100000000E-03 0.  1.
         23    2    1    2    0    0 -0.71054273576E-14  0.00000000000E+00  0.35527136788E-14  0.91188000000E+02  0.91188000000E+02 0.  0.
    9900012    2    3    3    0    0  0.34725143260E+02 -0.10928380052E+02 -0.18107980913E+02  0.50528880017E+02  0.30000061301E+02 0.  0.
         12    1    3    3    0    0 -0.34725143260E+02  0.10928380052E+02  0.18107980913E+02  0.40659119983E+02  0.00000000000E+00 0. -1.
         11    1    4    4    0    0  0.13226790117E+02 -0.28211269205E+01 -0.16172255303E+02  0.21081949050E+02  0.51100000000E-03 0. -1.
        -11    1    4    4    0    0  0.15983716489E+02 -0.45631889114E+01 -0.97314242535E+01  0.19261425287E+02  0.51100000000E-03 0.  1.
         12    1    4    4    0    0  0.55146366544E+01 -0.35440642206E+01  0.77956986433E+01  0.10185505680E+02  0.00000000000E+00 0. -1.
</event>
<event>
 8    1  0.7977359E-012  0.9118800E+02  0.7816164E-02  0.1184000E+00
        -11   -1    0    0    0    0  0.00000000000E+00  0.00000000000E+00  0.45593999997E+02  0.45594000000E+02  0.51100000000E-03 0. -1.
         11   -1    0    0    0    0 -0.00000000000E+00 -0.00000000000E+00 -0.45593999997E+02  0.45594000000E+02  0.51100000000E-03 0.  1.
         23    2    1    2    0    0  0.17763568394E-14  0.00000000000E+00 -0.71054273576E-14  0.91188000000E+02  0.91188000000E+02 0.  0.
    9900012    2    3    3    0    0  0.10966541662E+02  0.17983335982E+02 -0.34777861303E+02  0.50528867621E+02  0.30000023619E+02 0.  0.
         12    1    3    3    0    0 -0.10966541662E+02 -0.17983335982E+02  0.34777861303E+02  0.40659132379E+02  0.00000000000E+00 0. -1.
         11    1    4    4    0    0  0.63138615115E+01 -0.37279966090E+00 -0.47165448013E+01  0.78898429577E+01  0.51100000000E-03 0. -1.
        -11    1    4    4    0    0  0.13243296695E+02  0.89152109763E+01 -0.99259971584E+01  0.18798705113E+02  0.51100000000E-03 0.  1.
        -12    1    4    4    0    0 -0.85906165442E+01  0.94409246668E+01 -0.20135319343E+02  0.23840319549E+02  0.00000000000E+00 0.  1.
</event>
<event>
 8    1  0.7977359E-012  0.9118800E+02  0.7816164E-02  0.1184000E+00
        -11   -1    0    0    0    0  0.00000000000E+00  0.00000000000E+00  0.45593999997E+02  0.45594000000E+02  0.51100000000E-03 0. -1.
         11   -1    0    0    0    0 -0.00000000000E+00 -0.00000000000E+00 -0.45593999997E+02  0.45594000000E+02  0.51100000000E-03 0.  1.
         23    2    1    2    0    0 -0.35527136788E-14  0.35527136788E-14  0.35527136788E-14  0.91188000000E+02  0.91188000000E+02 0.  0.
    9900012    2    3    3    0    0  0.27180115462E+02  0.21812622877E+02 -0.20943169677E+02  0.50528861428E+02  0.30000004795E+02 0.  0.
         12    1    3    3    0    0 -0.27180115462E+02 -0.21812622877E+02  0.20943169677E+02  0.40659138572E+02  0.00000000000E+00 0. -1.
         11    1    4    4    0    0  0.17136462375E+02  0.14042911842E+02 -0.55670601448E+00  0.22162392416E+02  0.51100000000E-03 0. -1.
        -11    1    4    4    0    0  0.10990597358E+02  0.91100469961E+01 -0.90290893711E+01  0.16891140923E+02  0.51100000000E-03 0.  1.
        -12    1    4    4    0    0 -0.94694427062E+00 -0.13403359615E+01 -0.11357374291E+02  0.11475328088E+02  0.00000000000E+00 0.  1.
</event>
<event>
 8    1  0.7977359E-012  0.9118800E+02  0.7816164E-02  0.1184000E+00
        -11   -1    0    0    0    0  0.00000000000E+00  0.00000000000E+00  0.45593999997E+02  0.45594000000E+02  0.51100000000E-03 0. -1.
         11   -1    0    0    0    0 -0.00000000000E+00 -0.00000000000E+00 -0.45593999997E+02  0.45594000000E+02  0.51100000000E-03 0.  1.
         23    2    1    2    0    0  0.35527136788E-14  0.35527136788E-14  0.17763568394E-14  0.91188000000E+02  0.91188000000E+02 0.  0.
    9900012    2    3    3    0    0  0.24321132729E+02 -0.28595173275E+02  0.15619308892E+02  0.50528877504E+02  0.30000053662E+02 0.  0.
        -12    1    3    3    0    0 -0.24321132729E+02  0.28595173275E+02 -0.15619308892E+02  0.40659122496E+02  0.00000000000E+00 0.  1.
         11    1    4    4    0    0  0.93322288261E+01 -0.70421424676E+01 -0.66690613340E+01  0.13459518741E+02  0.51100000000E-03 0.  1.
        -11    1    4    4    0    0  0.10549451497E+02 -0.36318273516E+01  0.84846339407E+01  0.14016779593E+02  0.51100000000E-03 0. -1.
         12    1    4    4    0    0  0.44394524063E+01 -0.17921203456E+02  0.13803736285E+02  0.23052579170E+02  0.00000000000E+00 0. -1.
</event>
<event>
 8    1  0.7977359E-012  0.9118800E+02  0.7816164E-02  0.1184000E+00
        -11   -1    0    0    0    0  0.00000000000E+00  0.00000000000E+00  0.45593999997E+02  0.45594000000E+02  0.51100000000E-03 0. -1.
         11   -1    0    0    0    0 -0.00000000000E+00 -0.00000000000E+00 -0.45593999997E+02  0.45594000000E+02  0.51100000000E-03 0.  1.
         23    2    1    2    0    0  0.00000000000E+00 -0.88817841970E-15 -0.88817841970E-15  0.91188000000E+02  0.91188000000E+02 0.  0.
    9900012    2    3    3    0    0  0.39292865043E+02  0.72594406375E+01  0.75191162144E+01  0.50528857974E+02  0.29999994298E+02 0.  0.
        -12    1    3    3    0    0 -0.39292865043E+02 -0.72594406375E+01 -0.75191162144E+01  0.40659142026E+02  0.00000000000E+00 0.  1.
         11    1    4    4    0    0  0.20713277777E+02  0.42224907112E+01  0.30025164271E+01  0.21351449816E+02  0.51100000000E-03 0. -1.
        -11    1    4    4    0    0  0.19228093277E+02 -0.56873671629E+01  0.37101150182E+01  0.20391926589E+02  0.51100000000E-03 0.  1.
        -12    1    4    4    0    0 -0.64850601128E+00  0.87243170892E+01  0.80648476915E+00  0.87854815692E+01  0.00000000000E+00 0.  1.
</event>
<event>
 8    1  0.7977359E-012  0.9118800E+02  0.7816164E-02  0.1184000E+00
        -11   -1    0    0    0    0  0.00000000000E+00  0.00000000000E+00  0.45593999997E+02  0.45594000000E+02  0.51100000000E-03 0. -1.
         11   -1    0    0    0    0 -0.00000000000E+00 -0.00000000000E+00 -0.45593999997E+02  0.45594000000E+02  0.51100000000E-03 0.  1.
         23    2    1    2    0    0 -0.66613381478E-15  0.17763568394E-14  0.71054273576E-14  0.91188000000E+02  0.91188000000E+02 0.  0.
    9900012    2    3    3    0    0 -0.10310865630E+01  0.11630471075E+02 -0.38946426234E+02  0.50528989765E+02  0.30000394886E+02 0.  0.
         12    1    3    3    0    0  0.10310865630E+01 -0.11630471075E+02  0.38946426234E+02  0.40659010235E+02  0.00000000000E+00 0. -1.
         11    1    4    4    0    0 -0.27251820664E+01 -0.36965255561E+01  0.10747635844E+01  0.47165703117E+01  0.51100000000E-03 0. -1.
        -11    1    4    4    0    0 -0.59123984737E+01  0.89581709379E+00 -0.10442767002E+02  0.12033716254E+02  0.51100000000E-03 0.  1.
         12    1    4    4    0    0  0.76064939771E+01  0.14431179538E+02 -0.29578422817E+02  0.33778703199E+02  0.00000000000E+00 0. -1.
</event>
<event>
 8    1  0.7977359E-012  0.9118800E+02  0.7816164E-02  0.1184000E+00
        -11   -1    0    0    0    0  0.00000000000E+00  0.00000000000E+00  0.45593999997E+02  0.45594000000E+02  0.51100000000E-03 0. -1.
         11   -1    0    0    0    0 -0.00000000000E+00 -0.00000000000E+00 -0.45593999997E+02  0.45594000000E+02  0.51100000000E-03 0.  1.
         23    2    1    2    0    0 -0.17763568394E-14  0.00000000000E+00  0.71054273576E-14  0.91188000000E+02  0.91188000000E+02 0.  0.
    9900012    2    3    3    0    0 -0.10314114139E+02  0.69525772193E+01  0.38709772881E+02  0.50528858384E+02  0.29999995544E+02 0.  0.
        -12    1    3    3    0    0  0.10314114139E+02 -0.69525772193E+01 -0.38709772881E+02  0.40659141616E+02  0.00000000000E+00 0.  1.
         11    1    4    4    0    0  0.88325218913E+01  0.51252088117E+01  0.98603235031E+01  0.14195322757E+02  0.51100000000E-03 0.  1.
        -11    1    4    4    0    0 -0.93699717077E+01  0.32137546251E+01  0.22526107007E+02  0.24607927295E+02  0.51100000000E-03 0. -1.
        -12    1    4    4    0    0 -0.97766643227E+01 -0.13863862176E+01  0.63233423704E+01  0.11725608332E+02  0.00000000000E+00 0.  1.
</event>
<event>
 8    1  0.7977359E-012  0.9118800E+02  0.7816164E-02  0.1184000E+00
        -11   -1    0    0    0    0  0.00000000000E+00  0.00000000000E+00  0.45593999997E+02  0.45594000000E+02  0.51100000000E-03 0. -1.
         11   -1    0    0    0    0 -0.00000000000E+00 -0.00000000000E+00 -0.45593999997E+02  0.45594000000E+02  0.51100000000E-03 0.  1.
         23    2    1    2    0    0  0.00000000000E+00  0.00000000000E+00  0.00000000000E+00  0.91188000000E+02  0.91188000000E+02 0.  0.
    9900012    2    3    3    0    0  0.20294935707E+02  0.92897883819E+01 -0.33984994443E+02  0.50528875184E+02  0.30000046610E+02 0.  0.
         12    1    3    3    0    0 -0.20294935707E+02 -0.92897883819E+01  0.33984994443E+02  0.40659124816E+02  0.00000000000E+00 0. -1.
         11    1    4    4    0    0  0.63754009873E+01  0.39484396315E+01  0.49916084473E+00  0.75156553329E+01  0.51100000000E-03 0. -1.
        -11    1    4    4    0    0  0.14244626091E+02  0.79995977926E+01 -0.11754596355E+02  0.20126437168E+02  0.51100000000E-03 0.  1.
         12    1    4    4    0    0 -0.32509137178E+00 -0.26582490423E+01 -0.22729558932E+02  0.22886782684E+02  0.00000000000E+00 0. -1.
</event>
<event>
 8    1  0.7977359E-012  0.9118800E+02  0.7816164E-02  0.1184000E+00
        -11   -1    0    0    0    0  0.00000000000E+00  0.00000000000E+00  0.45593999997E+02  0.45594000000E+02  0.51100000000E-03 0. -1.
         11   -1    0    0    0    0 -0.00000000000E+00 -0.00000000000E+00 -0.45593999997E+02  0.45594000000E+02  0.51100000000E-03 0.  1.
         23    2    1    2    0    0  0.00000000000E+00  0.88817841970E-15  0.00000000000E+00  0.91188000000E+02  0.91188000000E+02 0.  0.
    9900012    2    3    3    0    0  0.21131555269E+02  0.69635717434E+01  0.34031339151E+02  0.50528855838E+02  0.29999987806E+02 0.  0.
        -12    1    3    3    0    0 -0.21131555269E+02 -0.69635717434E+01 -0.34031339151E+02  0.40659144162E+02  0.00000000000E+00 0.  1.
         11    1    4    4    0    0  0.14305234076E+02 -0.29913267824E+01  0.12510203566E+02  0.19237800067E+02  0.51100000000E-03 0. -1.
        -11    1    4    4    0    0  0.29955662212E+01 -0.47081894573E+01  0.82755200772E+00  0.56413923403E+01  0.51100000000E-03 0.  1.
        -12    1    4    4    0    0  0.38307549722E+01  0.14663087983E+02  0.20693583577E+02  0.25649663431E+02  0.00000000000E+00 0.  1.
</event>
<event>
 8    1  0.7977359E-012  0.9118800E+02  0.7816164E-02  0.1184000E+00
        -11   -1    0    0    0    0  0.00000000000E+00  0.00000000000E+00  0.45593999997E+02  0.45594000000E+02  0.51100000000E-03 0. -1.
         11   -1    0    0    0    0 -0.00000000000E+00 -0.00000000000E+00 -0.45593999997E+02  0.45594000000E+02  0.51100000000E-03 0.  1.
         23    2    1    2    0    0  0.00000000000E+00  0.00000000000E+00  0.00000000000E+00  0.91188000000E+02  0.91188000000E+02 0.  0.
    9900012    2    3    3    0    0  0.16440297349E+02  0.71412149584E+01  0.36495005527E+02  0.50528858882E+02  0.29999997058E+02 0.  0.
        -12    1    3    3    0    0 -0.16440297349E+02 -0.71412149584E+01 -0.36495005527E+02  0.40659141118E+02  0.00000000000E+00 0.  1.
         11    1    4    4    0    0  0.35098697798E+01  0.38450539941E+01  0.31104261025E+01  0.60645178612E+01  0.51100000000E-03 0. -1.
        -11    1    4    4    0    0  0.11843337763E+02  0.12737057675E+02  0.29400496409E+02  0.34159720095E+02  0.51100000000E-03 0.  1.
        -12    1    4    4    0    0  0.10870898067E+01 -0.94408967110E+01  0.39840830154E+01  0.10304620926E+02  0.00000000000E+00 0.  1.
</event>
<event>
 8    1  0.7977359E-012  0.9118800E+02  0.7816164E-02  0.1184000E+00
        -11   -1    0    0    0    0  0.00000000000E+00  0.00000000000E+00  0.45593999997E+02  0.45594000000E+02  0.51100000000E-03 0. -1.
         11   -1    0    0    0    0 -0.00000000000E+00 -0.00000000000E+00 -0.45593999997E+02  0.45594000000E+02  0.51100000000E-03 0.  1.
         23    2    1    2    0    0  0.11102230246E-15  0.00000000000E+00  0.17763568394E-14  0.91188000000E+02  0.91188000000E+02 0.  0.
    9900012    2    3    3    0    0 -0.92895454982E+00  0.37556322033E+02  0.15550715486E+02  0.50528867774E+02  0.30000024087E+02 0.  0.
        -12    1    3    3    0    0  0.92895454982E+00 -0.37556322033E+02 -0.15550715486E+02  0.40659132226E+02  0.00000000000E+00 0.  1.
         11    1    4    4    0    0  0.29887874286E+01  0.12382187707E+02 -0.37064890200E+01  0.13266102812E+02  0.51100000000E-03 0. -1.
        -11    1    4    4    0    0  0.13655781648E+01  0.10817549065E+02 -0.19877739540E+01  0.11083114050E+02  0.51100000000E-03 0.  1.
         12    1    4    4    0    0 -0.52833201432E+01  0.14356585261E+02  0.21244978460E+02  0.26179650912E+02  0.00000000000E+00 0. -1.
</event>
<event>
 8    1  0.7977359E-012  0.9118800E+02  0.7816164E-02  0.1184000E+00
        -11   -1    0    0    0    0  0.00000000000E+00  0.00000000000E+00  0.45593999997E+02  0.45594000000E+02  0.51100000000E-03 0. -1.
         11   -1    0    0    0    0 -0.00000000000E+00 -0.00000000000E+00 -0.45593999997E+02  0.45594000000E+02  0.51100000000E-03 0.  1.
         23    2    1    2    0    0  0.00000000000E+00  0.00000000000E+00  0.71054273576E-14  0.91188000000E+02  0.91188000000E+02 0.  0.
    9900012    2    3    3    0    0 -0.16130913985E+02  0.21037574432E+02  0.30828229702E+02  0.50528859939E+02  0.30000000270E+02 0.  0.
        -12    1    3    3    0    0  0.16130913985E+02 -0.21037574432E+02 -0.30828229702E+02  0.40659140061E+02  0.00000000000E+00 0.  1.
         11    1    4    4    0    0 -0.40913699842E+01  0.20124118423E+01  0.17116968017E+02  0.17713828048E+02  0.51100000000E-03 0. -1.
        -11    1    4    4    0    0 -0.91427030942E+01  0.61032298651E+01  0.15963459217E+02  0.19382220334E+02  0.51100000000E-03 0.  1.
        -12    1    4    4    0    0 -0.28968409070E+01  0.12921932725E+02 -0.22521975320E+01  0.13432811556E+02  0.00000000000E+00 0.  1.
</event>
<event>
 8    1  0.7977359E-012  0.9118800E+02  0.7816164E-02  0.1184000E+00
        -11   -1    0    0    0    0  0.00000000000E+00  0.00000000000E+00  0.45593999997E+02  0.45594000000E+02  0.51100000000E-03 0. -1.
         11   -1    0    0    0    0 -0.00000000000E+00 -0.00000000000E+00 -0.45593999997E+02  0.45594000000E+02  0.51100000000E-03 0.  1.
         23    2    1    2    0    0 -0.14432899320E-14  0.35527136788E-14  0.00000000000E+00  0.91188000000E+02  0.91188000000E+02 0.  0.
    9900012    2    3    3    0    0  0.38701122738E+00 -0.28150282398E+02 -0.29335609773E+02  0.50528853703E+02  0.29999981317E+02 0.  0.
         12    1    3    3    0    0 -0.38701122738E+00  0.28150282398E+02  0.29335609773E+02  0.40659146297E+02  0.00000000000E+00 0. -1.
         11    1    4    4    0    0  0.26785555852E+01 -0.15743475525E+01 -0.18738387954E+01  0.36282919303E+01  0.51100000000E-03 0. -1.
        -11    1    4    4    0    0  0.58643466623E+01 -0.13001332295E+02  0.10338271312E+01  0.14300139930E+02  0.51100000000E-03 0.  1.
        -12    1    4    4    0    0 -0.81558910201E+01 -0.13574602550E+02 -0.28495598109E+02  0.32600421843E+02  0.00000000000E+00 0.  1.
</event>
<event>
 8    1  0.7977359E-012  0.9118800E+02  0.7816164E-02  0.1184000E+00
        -11   -1    0    0    0    0  0.00000000000E+00  0.00000000000E+00  0.45593999997E+02  0.45594000000E+02  0.51100000000E-03 0. -1.
         11   -1    0    0    0    0 -0.00000000000E+00 -0.00000000000E+00 -0.45593999997E+02  0.45594000000E+02  0.51100000000E-03 0.  1.
         23    2    1    2    0    0  0.00000000000E+00  0.17763568394E-14  0.71054273576E-14  0.91188000000E+02  0.91188000000E+02 0.  0.
    9900012    2    3    3    0    0 -0.21243040328E+02  0.12942750863E+02  0.32161945764E+02  0.50528778197E+02  0.29999751807E+02 0.  0.
        -12    1    3    3    0    0  0.21243040328E+02 -0.12942750863E+02 -0.32161945764E+02  0.40659221803E+02  0.00000000000E+00 0.  1.
         11    1    4    4    0    0 -0.61734251427E+01 -0.63675356569E+01  0.14961512282E+02  0.17392628851E+02  0.51100000000E-03 0. -1.
        -11    1    4    4    0    0 -0.74205810047E+00  0.76225041603E+01  0.11444986231E+02  0.13771017754E+02  0.51100000000E-03 0.  1.
         12    1    4    4    0    0 -0.14327557085E+02  0.11687782359E+02  0.57554472513E+01  0.19365131592E+02  0.00000000000E+00 0. -1.
</event>
<event>
 8    1  0.7977359E-012  0.9118800E+02  0.7816164E-02  0.1184000E+00
        -11   -1    0    0    0    0  0.00000000000E+00  0.00000000000E+00  0.45593999997E+02  0.45594000000E+02  0.51100000000E-03 0. -1.
         11   -1    0    0    0    0 -0.00000000000E+00 -0.00000000000E+00 -0.45593999997E+02  0.45594000000E+02  0.51100000000E-03 0.  1.
         23    2    1    2    0    0  0.00000000000E+00  0.00000000000E+00  0.00000000000E+00  0.91188000000E+02  0.91188000000E+02 0.  0.
    9900012    2    3    3    0    0 -0.33618497518E+02  0.94856692184E+01 -0.20808264414E+02  0.50528866170E+02  0.30000019210E+02 0.  0.
         12    1    3    3    0    0  0.33618497518E+02 -0.94856692184E+01  0.20808264414E+02  0.40659133830E+02  0.00000000000E+00 0. -1.
         11    1    4    4    0    0  0.32608727900E+01  0.44374684955E+01 -0.18893655350E+01  0.58218657136E+01  0.51100000000E-03 0. -1.
        -11    1    4    4    0    0  0.52433036060E+00 -0.14555769381E+01 -0.33192052218E+01  0.36620691031E+01  0.51100000000E-03 0.  1.
        -12    1    4    4    0    0 -0.37403700669E+02  0.65037776610E+01 -0.15599693657E+02  0.41044931353E+02  0.00000000000E+00 0.  1.
</event>
<event>
 8    1  0.7977359E-012  0.9118800E+02  0.7816164E-02  0.1184000E+00
        -11   -1    0    0    0    0  0.00000000000E+00  0.00000000000E+00  0.45593999997E+02  0.45594000000E+02  0.51100000000E-03 0. -1.
         11   -1    0    0    0    0 -0.00000000000E+00 -0.00000000000E+00 -0.45593999997E+02  0.45594000000E+02  0.51100000000E-03 0.  1.
         23    2    1    2    0    0 -0.17763568394E-14  0.00000000000E+00  0.00000000000E+00  0.91188000000E+02  0.91188000000E+02 0.  0.
    9900012    2    3    3    0    0  0.13901504265E+02 -0.21090600540E+02  0.31860634609E+02  0.50528864622E+02  0.30000014505E+02 0.  0.
        -12    1    3    3    0    0 -0.13901504265E+02  0.21090600540E+02 -0.31860634609E+02  0.40659135378E+02  0.00000000000E+00 0.  1.
         11    1    4    4    0    0  0.72677338820E+01 -0.10225448197E+02  0.97748796096E+01  0.15903710833E+02  0.51100000000E-03 0. -1.
        -11    1    4    4    0    0  0.64826213355E+01 -0.12788700822E+02  0.20347831843E+01  0.14481560377E+02  0.51100000000E-03 0.  1.
         12    1    4    4    0    0  0.15114904795E+00  0.19235484795E+01  0.20050971815E+02  0.20143593412E+02  0.00000000000E+00 0. -1.
</event>
<event>
 8    1  0.7977359E-012  0.9118800E+02  0.7816164E-02  0.1184000E+00
        -11   -1    0    0    0    0  0.00000000000E+00  0.00000000000E+00  0.45593999997E+02  0.45594000000E+02  0.51100000000E-03 0. -1.
         11   -1    0    0    0    0 -0.00000000000E+00 -0.00000000000E+00 -0.45593999997E+02  0.45594000000E+02  0.51100000000E-03 0.  1.
         23    2    1    2    0    0  0.00000000000E+00  0.13322676296E-14  0.00000000000E+00  0.91188000000E+02  0.91188000000E+02 0.  0.
    9900012    2    3    3    0    0 -0.40446034415E+02 -0.23444757054E+01  0.34333378800E+01  0.50528854962E+02  0.29999985143E+02 0.  0.
         12    1    3    3    0    0  0.40446034415E+02  0.23444757054E+01 -0.34333378800E+01  0.40659145038E+02  0.00000000000E+00 0. -1.
         11    1    4    4    0    0 -0.76775967894E+01 -0.52415456130E+01 -0.35704038415E+01  0.99582667531E+01  0.51100000000E-03 0. -1.
        -11    1    4    4    0    0 -0.95289055482E+01 -0.60204711877E+01  0.10536609776E+02  0.15429395973E+02  0.51100000000E-03 0.  1.
         12    1    4    4    0    0 -0.23239532077E+02  0.89175410953E+01 -0.35328680541E+01  0.25141192236E+02  0.00000000000E+00 0. -1.
</event>
<event>
 8    1  0.7977359E-012  0.9118800E+02  0.7816164E-02  0.1184000E+00
        -11   -1    0    0    0    0  0.00000000000E+00  0.00000000000E+00  0.45593999997E+02  0.45594000000E+02  0.51100000000E-03 0.  1.
         11   -1    0    0    0    0 -0.00000000000E+00 -0.00000000000E+00 -0.45593999997E+02  0.45594000000E+02  0.51100000000E-03 0. -1.
         23    2    1    2    0    0  0.00000000000E+00  0.44408920985E-15  0.17763568394E-14  0.91188000000E+02  0.91188000000E+02 0.  0.
    9900012    2    3    3    0    0 -0.38594225594E+02 -0.38773283324E+01  0.12190880961E+02  0.50528862001E+02  0.30000006539E+02 0.  0.
        -12    1    3    3    0    0  0.38594225594E+02  0.38773283324E+01 -0.12190880961E+02  0.40659137999E+02  0.00000000000E+00 0.  1.
         11    1    4    4    0    0 -0.78613864254E+01 -0.13006889936E+01 -0.53722807938E+01  0.96101295296E+01  0.51100000000E-03 0. -1.
        -11    1    4    4    0    0 -0.99539910606E+01  0.25346134684E+01 -0.35404335874E+01  0.10864661694E+02  0.51100000000E-03 0.  1.
        -12    1    4    4    0    0 -0.20778848108E+02 -0.51112528073E+01  0.21103595342E+02  0.30054070778E+02  0.00000000000E+00 0.  1.
</event>
<event>
 8    1  0.7977359E-012  0.9118800E+02  0.7816164E-02  0.1184000E+00
        -11   -1    0    0    0    0  0.00000000000E+00  0.00000000000E+00  0.45593999997E+02  0.45594000000E+02  0.51100000000E-03 0. -1.
         11   -1    0    0    0    0 -0.00000000000E+00 -0.00000000000E+00 -0.45593999997E+02  0.45594000000E+02  0.51100000000E-03 0.  1.
         23    2    1    2    0    0 -0.13322676296E-14  0.00000000000E+00  0.71054273576E-14  0.91188000000E+02  0.91188000000E+02 0.  0.
    9900012    2    3    3    0    0 -0.22032121872E+01  0.90173124819E+01  0.39585348898E+02  0.50528856924E+02  0.29999991106E+02 0.  0.
        -12    1    3    3    0    0  0.22032121872E+01 -0.90173124819E+01 -0.39585348898E+02  0.40659143076E+02  0.00000000000E+00 0.  1.
         11    1    4    4    0    0 -0.77469414851E+01  0.79252260398E+01  0.16672219043E+02  0.20019670283E+02  0.51100000000E-03 0. -1.
        -11    1    4    4    0    0 -0.53173289853E+01  0.52567716457E+01  0.44916338525E+01  0.87225231785E+01  0.51100000000E-03 0.  1.
        -12    1    4    4    0    0  0.10861058283E+02 -0.41646852035E+01  0.18421496002E+02  0.21786663462E+02  0.00000000000E+00 0.  1.
</event>
<event>
 8    1  0.7977359E-012  0.9118800E+02  0.7816164E-02  0.1184000E+00
        -11   -1    0    0    0    0  0.00000000000E+00  0.00000000000E+00  0.45593999997E+02  0.45594000000E+02  0.51100000000E-03 0. -1.
         11   -1    0    0    0    0 -0.00000000000E+00 -0.00000000000E+00 -0.45593999997E+02  0.45594000000E+02  0.51100000000E-03 0.  1.
         23    2    1    2    0    0  0.00000000000E+00  0.00000000000E+00  0.00000000000E+00  0.91188000000E+02  0.91188000000E+02 0.  0.
    9900012    2    3    3    0    0  0.29301088667E+02  0.23024666453E+02 -0.16262697109E+02  0.50528875813E+02  0.30000048523E+02 0.  0.
         12    1    3    3    0    0 -0.29301088667E+02 -0.23024666453E+02  0.16262697109E+02  0.40659124187E+02  0.00000000000E+00 0. -1.
         11    1    4    4    0    0  0.85777101227E+00 -0.37721129903E+00  0.45859445061E+01  0.46806993866E+01  0.51100000000E-03 0. -1.
        -11    1    4    4    0    0 -0.20487699751E+00  0.78505724662E+01 -0.16735686314E+01  0.80295887103E+01  0.51100000000E-03 0.  1.
        -12    1    4    4    0    0  0.28648194653E+02  0.15551305286E+02 -0.19175072984E+02  0.37818587717E+02  0.00000000000E+00 0.  1.
</event>
<event>
 8    1  0.7977359E-012  0.9118800E+02  0.7816164E-02  0.1184000E+00
        -11   -1    0    0    0    0  0.00000000000E+00  0.00000000000E+00  0.45593999997E+02  0.45594000000E+02  0.51100000000E-03 0. -1.
         11   -1    0    0    0    0 -0.00000000000E+00 -0.00000000000E+00 -0.45593999997E+02  0.45594000000E+02  0.51100000000E-03 0.  1.
         23    2    1    2    0    0  0.88817841970E-15  0.00000000000E+00  0.00000000000E+00  0.91188000000E+02  0.91188000000E+02 0.  0.
    9900012    2    3    3    0    0 -0.67226598579E+01  0.85244337422E+01  0.39182957949E+02  0.50528876549E+02  0.30000050758E+02 0.  0.
        -12    1    3    3    0    0  0.67226598579E+01 -0.85244337422E+01 -0.39182957949E+02  0.40659123451E+02  0.00000000000E+00 0.  1.
         11    1    4    4    0    0 -0.57956966648E+01  0.16164725923E+01  0.14292536682E+01  0.61843229040E+01  0.51100000000E-03 0. -1.
        -11    1    4    4    0    0 -0.54467607615E+01  0.52797045398E+01  0.14483308929E+01  0.77227032481E+01  0.51100000000E-03 0.  1.
         12    1    4    4    0    0  0.45197975684E+01  0.16282566100E+01  0.36305373388E+02  0.36621850397E+02  0.00000000000E+00 0. -1.
</event>
<event>
 8    1  0.7977359E-012  0.9118800E+02  0.7816164E-02  0.1184000E+00
        -11   -1    0    0    0    0  0.00000000000E+00  0.00000000000E+00  0.45593999997E+02  0.45594000000E+02  0.51100000000E-03 0.  1.
         11   -1    0    0    0    0 -0.00000000000E+00 -0.00000000000E+00 -0.45593999997E+02  0.45594000000E+02  0.51100000000E-03 0. -1.
         23    2    1    2    0    0  0.00000000000E+00 -0.35527136788E-14  0.88817841970E-15  0.91188000000E+02  0.91188000000E+02 0.  0.
    9900012    2    3    3    0    0 -0.27761087084E+02 -0.29016070669E+02 -0.63684101787E+01  0.50528844065E+02  0.29999952019E+02 0.  0.
         12    1    3    3    0    0  0.27761087084E+02  0.29016070669E+02  0.63684101787E+01  0.40659155935E+02  0.00000000000E+00 0. -1.
         11    1    4    4    0    0 -0.86251110263E+01 -0.18338101124E+00  0.40712078284E+01  0.95394393050E+01  0.51100000000E-03 0. -1.
        -11    1    4    4    0    0 -0.13674160808E+02 -0.77066233924E+01  0.20779265645E+01  0.15833271834E+02  0.51100000000E-03 0.  1.
         12    1    4    4    0    0 -0.54618152505E+01 -0.21126066265E+02 -0.12517544572E+02  0.25156132926E+02  0.00000000000E+00 0. -1.
</event>
<event>
 8    1  0.7977359E-012  0.9118800E+02  0.7816164E-02  0.1184000E+00
        -11   -1    0    0    0    0  0.00000000000E+00  0.00000000000E+00  0.45593999997E+02  0.45594000000E+02  0.51100000000E-03 0. -1.
         11   -1    0    0    0    0 -0.00000000000E+00 -0.00000000000E+00 -0.45593999997E+02  0.45594000000E+02  0.51100000000E-03 0.  1.
         23    2    1    2    0    0  0.26645352591E-14  0.00000000000E+00 -0.71054273576E-14  0.91188000000E+02  0.91188000000E+02 0.  0.
    9900012    2    3    3    0    0  0.50309151764E+01 -0.45983279398E+00  0.40344070113E+02  0.50528861457E+02  0.30000004886E+02 0.  0.
        -12    1    3    3    0    0 -0.50309151764E+01  0.45983279398E+00 -0.40344070113E+02  0.40659138543E+02  0.00000000000E+00 0.  1.
         11    1    4    4    0    0  0.35284757196E+01  0.28514219229E+01  0.15090055014E+01  0.47809879472E+01  0.51100000000E-03 0. -1.
        -11    1    4    4    0    0  0.97087786535E+01 -0.45729318284E+01  0.69175019734E+01  0.12768082169E+02  0.51100000000E-03 0.  1.
         12    1    4    4    0    0 -0.82063391967E+01  0.12616771115E+01  0.31917562639E+02  0.32979791342E+02  0.00000000000E+00 0. -1.
</event>
<event>
 8    1  0.7977359E-012  0.9118800E+02  0.7816164E-02  0.1184000E+00
        -11   -1    0    0    0    0  0.00000000000E+00  0.00000000000E+00  0.45593999997E+02  0.45594000000E+02  0.51100000000E-03 0.  1.
         11   -1    0    0    0    0 -0.00000000000E+00 -0.00000000000E+00 -0.45593999997E+02  0.45594000000E+02  0.51100000000E-03 0. -1.
         23    2    1    2    0    0  0.35527136788E-14  0.00000000000E+00  0.00000000000E+00  0.91188000000E+02  0.91188000000E+02 0.  0.
    9900012    2    3    3    0    0  0.30703217060E+02 -0.10816582013E+02  0.24361436471E+02  0.50528861160E+02  0.30000003983E+02 0.  0.
        -12    1    3    3    0    0 -0.30703217060E+02  0.10816582013E+02 -0.24361436471E+02  0.40659138840E+02  0.00000000000E+00 0.  1.
         11    1    4    4    0    0  0.23644366003E+02 -0.33067690762E+01  0.16526153038E+02  0.29036261810E+02  0.51100000000E-03 0. -1.
        -11    1    4    4    0    0  0.12766741303E+02 -0.60170575426E+01  0.55336744872E+01  0.15159690583E+02  0.51100000000E-03 0.  1.
         12    1    4    4    0    0 -0.57078902457E+01 -0.14927553940E+01  0.23016089452E+01  0.63329087677E+01  0.00000000000E+00 0. -1.
</event>
<event>
 8    1  0.7977359E-012  0.9118800E+02  0.7816164E-02  0.1184000E+00
        -11   -1    0    0    0    0  0.00000000000E+00  0.00000000000E+00  0.45593999997E+02  0.45594000000E+02  0.51100000000E-03 0. -1.
         11   -1    0    0    0    0 -0.00000000000E+00 -0.00000000000E+00 -0.45593999997E+02  0.45594000000E+02  0.51100000000E-03 0.  1.
         23    2    1    2    0    0  0.00000000000E+00  0.00000000000E+00  0.00000000000E+00  0.91188000000E+02  0.91188000000E+02 0.  0.
    9900012    2    3    3    0    0  0.29263333843E+02  0.22900023762E+02 -0.16504873370E+02  0.50528872601E+02  0.30000038758E+02 0.  0.
         12    1    3    3    0    0 -0.29263333843E+02 -0.22900023762E+02  0.16504873370E+02  0.40659127399E+02  0.00000000000E+00 0. -1.
         11    1    4    4    0    0  0.98141147350E+01  0.78788427442E+01  0.70972828205E+01  0.14448682802E+02  0.51100000000E-03 0. -1.
        -11    1    4    4    0    0  0.16465424879E+02  0.11242186376E+02 -0.11409300112E+02  0.22971049177E+02  0.51100000000E-03 0.  1.
        -12    1    4    4    0    0  0.29837942281E+01  0.37789946415E+01 -0.12192856079E+02  0.13109140622E+02  0.00000000000E+00 0.  1.
</event>
<event>
 8    1  0.7977359E-012  0.9118800E+02  0.7816164E-02  0.1184000E+00
        -11   -1    0    0    0    0  0.00000000000E+00  0.00000000000E+00  0.45593999997E+02  0.45594000000E+02  0.51100000000E-03 0. -1.
         11   -1    0    0    0    0 -0.00000000000E+00 -0.00000000000E+00 -0.45593999997E+02  0.45594000000E+02  0.51100000000E-03 0.  1.
         23    2    1    2    0    0  0.00000000000E+00 -0.17763568394E-14 -0.35527136788E-14  0.91188000000E+02  0.91188000000E+02 0.  0.
    9900012    2    3    3    0    0 -0.33975391745E+02 -0.69858764484E+01 -0.21214056096E+02  0.50528857239E+02  0.29999992064E+02 0.  0.
         12    1    3    3    0    0  0.33975391745E+02  0.69858764484E+01  0.21214056096E+02  0.40659142761E+02  0.00000000000E+00 0. -1.
         11    1    4    4    0    0 -0.10198887653E+02 -0.51428993141E+01 -0.12946163346E+02  0.17264700065E+02  0.51100000000E-03 0.  1.
        -11    1    4    4    0    0 -0.33820984279E+01 -0.94462719607E+01 -0.51448126667E+01  0.11275625986E+02  0.51100000000E-03 0. -1.
        -12    1    4    4    0    0 -0.20394405664E+02  0.76032948264E+01 -0.31230800842E+01  0.21988531188E+02  0.00000000000E+00 0.  1.
</event>
<event>
 8    1  0.7977359E-012  0.9118800E+02  0.7816164E-02  0.1184000E+00
        -11   -1    0    0    0    0  0.00000000000E+00  0.00000000000E+00  0.45593999997E+02  0.45594000000E+02  0.51100000000E-03 0. -1.
         11   -1    0    0    0    0 -0.00000000000E+00 -0.00000000000E+00 -0.45593999997E+02  0.45594000000E+02  0.51100000000E-03 0.  1.
         23    2    1    2    0    0 -0.33306690739E-15  0.00000000000E+00  0.00000000000E+00  0.91188000000E+02  0.91188000000E+02 0.  0.
    9900012    2    3    3    0    0 -0.56929228775E+00  0.12306095069E+02  0.38747926900E+02  0.50528857011E+02  0.29999991371E+02 0.  0.
        -12    1    3    3    0    0  0.56929228775E+00 -0.12306095069E+02 -0.38747926900E+02  0.40659142989E+02  0.00000000000E+00 0.  1.
         11    1    4    4    0    0  0.63431044580E+01 -0.11929631853E+00  0.62522487121E+01  0.89072902723E+01  0.51100000000E-03 0. -1.
        -11    1    4    4    0    0 -0.10117303814E+02 -0.39264079102E+00  0.23636454596E+02  0.25713731534E+02  0.51100000000E-03 0.  1.
         12    1    4    4    0    0  0.32049070688E+01  0.12818032179E+02  0.88592235914E+01  0.15907835205E+02  0.00000000000E+00 0. -1.
</event>
<event>
 8    1  0.7977359E-012  0.9118800E+02  0.7816164E-02  0.1184000E+00
        -11   -1    0    0    0    0  0.00000000000E+00  0.00000000000E+00  0.45593999997E+02  0.45594000000E+02  0.51100000000E-03 0. -1.
         11   -1    0    0    0    0 -0.00000000000E+00 -0.00000000000E+00 -0.45593999997E+02  0.45594000000E+02  0.51100000000E-03 0.  1.
         23    2    1    2    0    0  0.00000000000E+00  0.35527136788E-14  0.88817841970E-15  0.91188000000E+02  0.91188000000E+02 0.  0.
    9900012    2    3    3    0    0  0.31789138815E+02  0.24809126100E+02  0.52079849939E+01  0.50528865822E+02  0.30000018153E+02 0.  0.
         12    1    3    3    0    0 -0.31789138815E+02 -0.24809126100E+02 -0.52079849939E+01  0.40659134178E+02  0.00000000000E+00 0. -1.
         11    1    4    4    0    0  0.85590411131E+01  0.20054927783E+02 -0.25673056908E+01  0.21955600013E+02  0.51100000000E-03 0. -1.
        -11    1    4    4    0    0  0.12995126879E+00  0.79508613421E+00 -0.27615342292E+01  0.28766509787E+01  0.51100000000E-03 0.  1.
         12    1    4    4    0    0  0.23100146433E+02  0.39591121828E+01  0.10536824914E+02  0.25696614831E+02  0.00000000000E+00 0. -1.
</event>
<event>
 8    1  0.7977359E-012  0.9118800E+02  0.7816164E-02  0.1184000E+00
        -11   -1    0    0    0    0  0.00000000000E+00  0.00000000000E+00  0.45593999997E+02  0.45594000000E+02  0.51100000000E-03 0.  1.
         11   -1    0    0    0    0 -0.00000000000E+00 -0.00000000000E+00 -0.45593999997E+02  0.45594000000E+02  0.51100000000E-03 0. -1.
         23    2    1    2    0    0  0.35527136788E-14 -0.71054273576E-14 -0.35527136788E-14  0.91188000000E+02  0.91188000000E+02 0.  0.
    9900012    2    3    3    0    0 -0.17187378092E+02  0.34387665094E+02  0.13238094848E+02  0.50528872715E+02  0.30000039106E+02 0.  0.
        -12    1    3    3    0    0  0.17187378092E+02 -0.34387665094E+02 -0.13238094848E+02  0.40659127285E+02  0.00000000000E+00 0.  1.
         11    1    4    4    0    0  0.66762031971E+00  0.23294430293E+02  0.38449238394E+01  0.23619052461E+02  0.51100000000E-03 0. -1.
        -11    1    4    4    0    0 -0.30003775646E+01  0.61851693532E+01  0.89154762939E+01  0.11258077246E+02  0.51100000000E-03 0.  1.
         12    1    4    4    0    0 -0.14854620847E+02  0.49080654480E+01  0.47769471498E+00  0.15651743009E+02  0.00000000000E+00 0. -1.
</event>
<event>
 8    1  0.7977359E-012  0.9118800E+02  0.7816164E-02  0.1184000E+00
        -11   -1    0    0    0    0  0.00000000000E+00  0.00000000000E+00  0.45593999997E+02  0.45594000000E+02  0.51100000000E-03 0. -1.
         11   -1    0    0    0    0 -0.00000000000E+00 -0.00000000000E+00 -0.45593999997E+02  0.45594000000E+02  0.51100000000E-03 0.  1.
         23    2    1    2    0    0  0.00000000000E+00  0.00000000000E+00 -0.35527136788E-14  0.91188000000E+02  0.91188000000E+02 0.  0.
    9900012    2    3    3    0    0  0.29117831307E+02 -0.19120343798E+02  0.20969750208E+02  0.50528855017E+02  0.29999985308E+02 0.  0.
        -12    1    3    3    0    0 -0.29117831307E+02  0.19120343798E+02 -0.20969750208E+02  0.40659144983E+02  0.00000000000E+00 0.  1.
         11    1    4    4    0    0 -0.61089888866E+00 -0.16838353491E+01  0.66645304840E+01  0.69010481645E+01  0.51100000000E-03 0. -1.
        -11    1    4    4    0    0  0.12373587717E+02 -0.99704356770E+01 -0.49578270748E+01  0.16646180046E+02  0.51100000000E-03 0.  1.
         12    1    4    4    0    0  0.17355142479E+02 -0.74660727718E+01  0.19263046799E+02  0.26981626806E+02  0.00000000000E+00 0. -1.
</event>
<event>
 8    1  0.7977359E-012  0.9118800E+02  0.7816164E-02  0.1184000E+00
        -11   -1    0    0    0    0  0.00000000000E+00  0.00000000000E+00  0.45593999997E+02  0.45594000000E+02  0.51100000000E-03 0. -1.
         11   -1    0    0    0    0 -0.00000000000E+00 -0.00000000000E+00 -0.45593999997E+02  0.45594000000E+02  0.51100000000E-03 0.  1.
         23    2    1    2    0    0 -0.33306690739E-15 -0.35527136788E-14  0.71054273576E-14  0.91188000000E+02  0.91188000000E+02 0.  0.
    9900012    2    3    3    0    0 -0.87476576908E+00 -0.16567520636E+02  0.37120300672E+02  0.50528872154E+02  0.30000037400E+02 0.  0.
        -12    1    3    3    0    0  0.87476576908E+00  0.16567520636E+02 -0.37120300672E+02  0.40659127846E+02  0.00000000000E+00 0.  1.
         11    1    4    4    0    0  0.49876113043E+01 -0.40137683400E+01  0.13018846948E+02  0.14507824749E+02  0.51100000000E-03 0. -1.
        -11    1    4    4    0    0  0.39703699224E+01  0.21768719989E+01  0.15846779174E+02  0.16480989639E+02  0.51100000000E-03 0.  1.
         12    1    4    4    0    0 -0.98327469958E+01 -0.14730624295E+02  0.82546745496E+01  0.19540057767E+02  0.00000000000E+00 0. -1.
</event>
<event>
 8    1  0.7977359E-012  0.9118800E+02  0.7816164E-02  0.1184000E+00
        -11   -1    0    0    0    0  0.00000000000E+00  0.00000000000E+00  0.45593999997E+02  0.45594000000E+02  0.51100000000E-03 0. -1.
         11   -1    0    0    0    0 -0.00000000000E+00 -0.00000000000E+00 -0.45593999997E+02  0.45594000000E+02  0.51100000000E-03 0.  1.
         23    2    1    2    0    0  0.88817841970E-15 -0.55511151231E-15 -0.71054273576E-14  0.91188000000E+02  0.91188000000E+02 0.  0.
    9900012    2    3    3    0    0  0.73033740298E+01 -0.87654717941E+00 -0.39988217194E+02  0.50528866690E+02  0.30000020790E+02 0.  0.
         12    1    3    3    0    0 -0.73033740298E+01  0.87654717941E+00  0.39988217194E+02  0.40659133310E+02  0.00000000000E+00 0. -1.
         11    1    4    4    0    0  0.66978548477E+01  0.96153629452E+01 -0.35158744626E+02  0.37060137454E+02  0.51100000000E-03 0. -1.
        -11    1    4    4    0    0  0.13136737794E+01 -0.24343158510E+01 -0.46110596889E+01  0.53771278743E+01  0.51100000000E-03 0.  1.
         12    1    4    4    0    0 -0.70815459733E+00 -0.80575942737E+01 -0.21841287879E+00  0.80916013618E+01  0.00000000000E+00 0. -1.
</event>
<event>
 8    1  0.7977359E-012  0.9118800E+02  0.7816164E-02  0.1184000E+00
        -11   -1    0    0    0    0  0.00000000000E+00  0.00000000000E+00  0.45593999997E+02  0.45594000000E+02  0.51100000000E-03 0. -1.
         11   -1    0    0    0    0 -0.00000000000E+00 -0.00000000000E+00 -0.45593999997E+02  0.45594000000E+02  0.51100000000E-03 0.  1.
         23    2    1    2    0    0 -0.88817841970E-15  0.00000000000E+00  0.00000000000E+00  0.91188000000E+02  0.91188000000E+02 0.  0.
    9900012    2    3    3    0    0  0.68567232252E+01 -0.30579792547E+02 -0.25904188727E+02  0.50528863767E+02  0.30000011907E+02 0.  0.
         12    1    3    3    0    0 -0.68567232252E+01  0.30579792547E+02  0.25904188727E+02  0.40659136233E+02  0.00000000000E+00 0. -1.
         11    1    4    4    0    0  0.28156255264E+01 -0.12139383561E+02 -0.14616898827E+02  0.19207970010E+02  0.51100000000E-03 0. -1.
        -11    1    4    4    0    0 -0.17944541331E+01 -0.20074353748E+02 -0.14143129930E+02  0.24621695078E+02  0.51100000000E-03 0.  1.
         12    1    4    4    0    0  0.58355518319E+01  0.16339447623E+01  0.28558400296E+01  0.66991986792E+01  0.00000000000E+00 0. -1.
</event>
<event>
 8    1  0.7977359E-012  0.9118800E+02  0.7816164E-02  0.1184000E+00
        -11   -1    0    0    0    0  0.00000000000E+00  0.00000000000E+00  0.45593999997E+02  0.45594000000E+02  0.51100000000E-03 0. -1.
         11   -1    0    0    0    0 -0.00000000000E+00 -0.00000000000E+00 -0.45593999997E+02  0.45594000000E+02  0.51100000000E-03 0.  1.
         23    2    1    2    0    0  0.00000000000E+00  0.00000000000E+00  0.00000000000E+00  0.91188000000E+02  0.91188000000E+02 0.  0.
    9900012    2    3    3    0    0 -0.17424367572E+02  0.64304696325E+01  0.36169144660E+02  0.50528849118E+02  0.29999967380E+02 0.  0.
        -12    1    3    3    0    0  0.17424367572E+02 -0.64304696325E+01 -0.36169144660E+02  0.40659150882E+02  0.00000000000E+00 0.  1.
         11    1    4    4    0    0 -0.16364060688E+02  0.74992949255E+01  0.26630895543E+02  0.32143840845E+02  0.51100000000E-03 0. -1.
        -11    1    4    4    0    0 -0.27810837250E+01  0.65480631364E+01  0.16867001794E+01  0.73113962606E+01  0.51100000000E-03 0.  1.
         12    1    4    4    0    0  0.17207768418E+01 -0.76168884293E+01  0.78515489376E+01  0.11073612012E+02  0.00000000000E+00 0. -1.
</event>
<event>
 8    1  0.7977359E-012  0.9118800E+02  0.7816164E-02  0.1184000E+00
        -11   -1    0    0    0    0  0.00000000000E+00  0.00000000000E+00  0.45593999997E+02  0.45594000000E+02  0.51100000000E-03 0. -1.
         11   -1    0    0    0    0 -0.00000000000E+00 -0.00000000000E+00 -0.45593999997E+02  0.45594000000E+02  0.51100000000E-03 0.  1.
         23    2    1    2    0    0 -0.66613381478E-15  0.00000000000E+00  0.00000000000E+00  0.91188000000E+02  0.91188000000E+02 0.  0.
    9900012    2    3    3    0    0  0.10420860691E+01 -0.21075461073E+02 -0.34754906631E+02  0.50528873869E+02  0.30000042611E+02 0.  0.
         12    1    3    3    0    0 -0.10420860691E+01  0.21075461073E+02  0.34754906631E+02  0.40659126131E+02  0.00000000000E+00 0. -1.
         11    1    4    4    0    0  0.63492414257E+01 -0.39913813876E+01 -0.12085389666E+02  0.14223242799E+02  0.51100000000E-03 0. -1.
        -11    1    4    4    0    0  0.52846560009E+01 -0.14142269090E+02 -0.19882858875E+02  0.24965164557E+02  0.51100000000E-03 0.  1.
         12    1    4    4    0    0 -0.10591811358E+02 -0.29418105958E+01 -0.27866580897E+01  0.11340466513E+02  0.00000000000E+00 0. -1.
</event>
<event>
 8    1  0.7977359E-012  0.9118800E+02  0.7816164E-02  0.1184000E+00
        -11   -1    0    0    0    0  0.00000000000E+00  0.00000000000E+00  0.45593999997E+02  0.45594000000E+02  0.51100000000E-03 0. -1.
         11   -1    0    0    0    0 -0.00000000000E+00 -0.00000000000E+00 -0.45593999997E+02  0.45594000000E+02  0.51100000000E-03 0.  1.
         23    2    1    2    0    0  0.00000000000E+00  0.00000000000E+00  0.00000000000E+00  0.91188000000E+02  0.91188000000E+02 0.  0.
    9900012    2    3    3    0    0 -0.20137276907E+02  0.25781999222E+02 -0.24144248982E+02  0.50528853870E+02  0.29999981823E+02 0.  0.
         12    1    3    3    0    0  0.20137276907E+02 -0.25781999222E+02  0.24144248982E+02  0.40659146130E+02  0.00000000000E+00 0. -1.
         11    1    4    4    0    0 -0.34532685549E+01 -0.27082619785E+01 -0.43111429498E+01  0.61518859264E+01  0.51100000000E-03 0. -1.
        -11    1    4    4    0    0 -0.14656164223E+02  0.40960865272E+01 -0.73711957503E+01  0.16909039050E+02  0.51100000000E-03 0.  1.
        -12    1    4    4    0    0 -0.20278441298E+01  0.24394174673E+02 -0.12461910282E+02  0.27467928893E+02  0.00000000000E+00 0.  1.
</event>
<event>
 8    1  0.7977359E-012  0.9118800E+02  0.7816164E-02  0.1184000E+00
        -11   -1    0    0    0    0  0.00000000000E+00  0.00000000000E+00  0.45593999997E+02  0.45594000000E+02  0.51100000000E-03 0.  1.
         11   -1    0    0    0    0 -0.00000000000E+00 -0.00000000000E+00 -0.45593999997E+02  0.45594000000E+02  0.51100000000E-03 0. -1.
         23    2    1    2    0    0 -0.35527136788E-14  0.00000000000E+00 -0.35527136788E-14  0.91188000000E+02  0.91188000000E+02 0.  0.
    9900012    2    3    3    0    0  0.30426752283E+02  0.16078460167E+02  0.21653207946E+02  0.50528861419E+02  0.30000004768E+02 0.  0.
        -12    1    3    3    0    0 -0.30426752283E+02 -0.16078460167E+02 -0.21653207946E+02  0.40659138581E+02  0.00000000000E+00 0.  1.
         11    1    4    4    0    0  0.55448310458E+01  0.15876103505E+01  0.58509250728E+01  0.82157764344E+01  0.51100000000E-03 0. -1.
        -11    1    4    4    0    0  0.22038141459E+02 -0.10868199789E+01  0.14546141380E+02  0.26428225176E+02  0.51100000000E-03 0.  1.
         12    1    4    4    0    0  0.28437797777E+01  0.15577669796E+02  0.12561414933E+01  0.15884859809E+02  0.00000000000E+00 0. -1.
</event>
<event>
 8    1  0.7977359E-012  0.9118800E+02  0.7816164E-02  0.1184000E+00
        -11   -1    0    0    0    0  0.00000000000E+00  0.00000000000E+00  0.45593999997E+02  0.45594000000E+02  0.51100000000E-03 0. -1.
         11   -1    0    0    0    0 -0.00000000000E+00 -0.00000000000E+00 -0.45593999997E+02  0.45594000000E+02  0.51100000000E-03 0.  1.
         23    2    1    2    0    0  0.88817841970E-15  0.88817841970E-15  0.00000000000E+00  0.91188000000E+02  0.91188000000E+02 0.  0.
    9900012    2    3    3    0    0 -0.62759289789E+01  0.56312365408E+01 -0.39775220156E+02  0.50528852838E+02  0.29999978685E+02 0.  0.
         12    1    3    3    0    0  0.62759289789E+01 -0.56312365408E+01  0.39775220156E+02  0.40659147162E+02  0.00000000000E+00 0. -1.
         11    1    4    4    0    0 -0.22355768189E+01  0.18309743872E+01 -0.45319310493E+01  0.53748181566E+01  0.51100000000E-03 0. -1.
        -11    1    4    4    0    0 -0.11692069848E+02  0.71415598912E+01 -0.63909678518E+01  0.15117898179E+02  0.51100000000E-03 0.  1.
         12    1    4    4    0    0  0.76517176883E+01 -0.33412977377E+01 -0.28852321255E+02  0.30036136502E+02  0.00000000000E+00 0. -1.
</event>
<event>
 8    1  0.7977359E-012  0.9118800E+02  0.7816164E-02  0.1184000E+00
        -11   -1    0    0    0    0  0.00000000000E+00  0.00000000000E+00  0.45593999997E+02  0.45594000000E+02  0.51100000000E-03 0. -1.
         11   -1    0    0    0    0 -0.00000000000E+00 -0.00000000000E+00 -0.45593999997E+02  0.45594000000E+02  0.51100000000E-03 0.  1.
         23    2    1    2    0    0  0.71054273576E-14  0.00000000000E+00  0.00000000000E+00  0.91188000000E+02  0.91188000000E+02 0.  0.
    9900012    2    3    3    0    0 -0.34006576234E+02 -0.18340774120E+02  0.12662329203E+02  0.50528858306E+02  0.29999995306E+02 0.  0.
        -12    1    3    3    0    0  0.34006576234E+02  0.18340774120E+02 -0.12662329203E+02  0.40659141694E+02  0.00000000000E+00 0.  1.
         11    1    4    4    0    0 -0.21907573570E+02 -0.14063069678E+02  0.30246377172E+01  0.26208016752E+02  0.51100000000E-03 0. -1.
        -11    1    4    4    0    0 -0.64844772675E+01 -0.52473292381E+01  0.14567345662E+02  0.16786615783E+02  0.51100000000E-03 0.  1.
        -12    1    4    4    0    0 -0.56145253965E+01  0.96962479575E+00 -0.49296541756E+01  0.75342257706E+01  0.00000000000E+00 0.  1.
</event>
<event>
 8    1  0.7977359E-012  0.9118800E+02  0.7816164E-02  0.1184000E+00
        -11   -1    0    0    0    0  0.00000000000E+00  0.00000000000E+00  0.45593999997E+02  0.45594000000E+02  0.51100000000E-03 0. -1.
         11   -1    0    0    0    0 -0.00000000000E+00 -0.00000000000E+00 -0.45593999997E+02  0.45594000000E+02  0.51100000000E-03 0.  1.
         23    2    1    2    0    0  0.00000000000E+00  0.00000000000E+00  0.00000000000E+00  0.91188000000E+02  0.91188000000E+02 0.  0.
    9900012    2    3    3    0    0  0.14586335730E+02  0.11074805853E+02 -0.36300871073E+02  0.50528858896E+02  0.29999997100E+02 0.  0.
         12    1    3    3    0    0 -0.14586335730E+02 -0.11074805853E+02  0.36300871073E+02  0.40659141104E+02  0.00000000000E+00 0. -1.
         11    1    4    4    0    0  0.12855725257E+01  0.52949273841E+01 -0.85875815056E+01  0.10170324926E+02  0.51100000000E-03 0. -1.
        -11    1    4    4    0    0 -0.41383612374E+01  0.35933029954E+01 -0.20736841933E+02  0.21448880478E+02  0.51100000000E-03 0.  1.
         12    1    4    4    0    0  0.17439124441E+02  0.21865754732E+01 -0.69764476338E+01  0.18909653491E+02  0.00000000000E+00 0. -1.
</event>
<event>
 8    1  0.7977359E-012  0.9118800E+02  0.7816164E-02  0.1184000E+00
        -11   -1    0    0    0    0  0.00000000000E+00  0.00000000000E+00  0.45593999997E+02  0.45594000000E+02  0.51100000000E-03 0. -1.
         11   -1    0    0    0    0 -0.00000000000E+00 -0.00000000000E+00 -0.45593999997E+02  0.45594000000E+02  0.51100000000E-03 0.  1.
         23    2    1    2    0    0  0.17763568394E-14 -0.71054273576E-14  0.00000000000E+00  0.91188000000E+02  0.91188000000E+02 0.  0.
    9900012    2    3    3    0    0 -0.99845044123E+01  0.35235666964E+02 -0.17661346438E+02  0.50528859419E+02  0.29999998689E+02 0.  0.
         12    1    3    3    0    0  0.99845044123E+01 -0.35235666964E+02  0.17661346438E+02  0.40659140581E+02  0.00000000000E+00 0. -1.
         11    1    4    4    0    0  0.52266227060E+01  0.98670990774E+01 -0.65195210649E+01  0.12929864048E+02  0.51100000000E-03 0. -1.
        -11    1    4    4    0    0  0.29267489366E+01  0.75291530743E+00  0.26842115699E+01  0.40419961419E+01  0.51100000000E-03 0.  1.
        -12    1    4    4    0    0 -0.18137876055E+02  0.24615652580E+02 -0.13826036943E+02  0.33556999229E+02  0.00000000000E+00 0.  1.
</event>
<event>
 8    1  0.7977359E-012  0.9118800E+02  0.7816164E-02  0.1184000E+00
        -11   -1    0    0    0    0  0.00000000000E+00  0.00000000000E+00  0.45593999997E+02  0.45594000000E+02  0.51100000000E-03 0. -1.
         11   -1    0    0    0    0 -0.00000000000E+00 -0.00000000000E+00 -0.45593999997E+02  0.45594000000E+02  0.51100000000E-03 0.  1.
         23    2    1    2    0    0  0.00000000000E+00  0.00000000000E+00  0.00000000000E+00  0.91188000000E+02  0.91188000000E+02 0.  0.
    9900012    2    3    3    0    0 -0.13349010110E+01  0.25314830847E+02  0.31789061605E+02  0.50528842861E+02  0.29999948360E+02 0.  0.
        -12    1    3    3    0    0  0.13349010110E+01 -0.25314830847E+02 -0.31789061605E+02  0.40659157139E+02  0.00000000000E+00 0.  1.
         11    1    4    4    0    0  0.18961472105E+01  0.39832584366E+01  0.81305744448E+00  0.44858426951E+01  0.51100000000E-03 0. -1.
        -11    1    4    4    0    0  0.13495699259E+01  0.26847465456E+02  0.24985726556E+02  0.36700058204E+02  0.51100000000E-03 0.  1.
         12    1    4    4    0    0 -0.45806181473E+01 -0.55158930463E+01  0.59902776051E+01  0.93429419615E+01  0.00000000000E+00 0. -1.
</event>
<event>
 8    1  0.7977359E-012  0.9118800E+02  0.7816164E-02  0.1184000E+00
        -11   -1    0    0    0    0  0.00000000000E+00  0.00000000000E+00  0.45593999997E+02  0.45594000000E+02  0.51100000000E-03 0. -1.
         11   -1    0    0    0    0 -0.00000000000E+00 -0.00000000000E+00 -0.45593999997E+02  0.45594000000E+02  0.51100000000E-03 0.  1.
         23    2    1    2    0    0  0.00000000000E+00  0.00000000000E+00  0.35527136788E-14  0.91188000000E+02  0.91188000000E+02 0.  0.
    9900012    2    3    3    0    0  0.26478651490E+01  0.29252549175E+02  0.28114831533E+02  0.50528848813E+02  0.29999966452E+02 0.  0.
        -12    1    3    3    0    0 -0.26478651490E+01 -0.29252549175E+02 -0.28114831533E+02  0.40659151187E+02  0.00000000000E+00 0.  1.
         11    1    4    4    0    0  0.38534901089E+01  0.65728728312E+01  0.18896931678E+02  0.20375133629E+02  0.51100000000E-03 0. -1.
        -11    1    4    4    0    0 -0.32984315778E+01  0.63910706232E+01  0.11509794559E+02  0.13572059742E+02  0.51100000000E-03 0.  1.
        -12    1    4    4    0    0  0.20928066178E+01  0.16288605721E+02 -0.22918947044E+01  0.16581655442E+02  0.00000000000E+00 0.  1.
</event>
<event>
 8    1  0.7977359E-012  0.9118800E+02  0.7816164E-02  0.1184000E+00
        -11   -1    0    0    0    0  0.00000000000E+00  0.00000000000E+00  0.45593999997E+02  0.45594000000E+02  0.51100000000E-03 0. -1.
         11   -1    0    0    0    0 -0.00000000000E+00 -0.00000000000E+00 -0.45593999997E+02  0.45594000000E+02  0.51100000000E-03 0.  1.
         23    2    1    2    0    0  0.00000000000E+00  0.88817841970E-15  0.00000000000E+00  0.91188000000E+02  0.91188000000E+02 0.  0.
    9900012    2    3    3    0    0 -0.27466832513E+02  0.73389167842E+01 -0.29066903943E+02  0.50528788342E+02  0.29999782644E+02 0.  0.
         12    1    3    3    0    0  0.27466832513E+02 -0.73389167842E+01  0.29066903943E+02  0.40659211658E+02  0.00000000000E+00 0. -1.
         11    1    4    4    0    0 -0.13285190261E+01 -0.17108166806E+01 -0.27751685846E+01  0.35204285892E+01  0.51100000000E-03 0. -1.
        -11    1    4    4    0    0 -0.27100178538E+02  0.56458855116E+00 -0.27225088876E+02  0.38418015326E+02  0.51100000000E-03 0.  1.
         12    1    4    4    0    0  0.96186505120E+00  0.84851449136E+01  0.93335351848E+00  0.85903444268E+01  0.00000000000E+00 0. -1.
</event>
<event>
 8    1  0.7977359E-012  0.9118800E+02  0.7816164E-02  0.1184000E+00
        -11   -1    0    0    0    0  0.00000000000E+00  0.00000000000E+00  0.45593999997E+02  0.45594000000E+02  0.51100000000E-03 0. -1.
         11   -1    0    0    0    0 -0.00000000000E+00 -0.00000000000E+00 -0.45593999997E+02  0.45594000000E+02  0.51100000000E-03 0.  1.
         23    2    1    2    0    0  0.00000000000E+00 -0.17763568394E-14  0.00000000000E+00  0.91188000000E+02  0.91188000000E+02 0.  0.
    9900012    2    3    3    0    0 -0.10197356100E+02 -0.12489624532E+02 -0.37325448215E+02  0.50528857402E+02  0.29999992558E+02 0.  0.
         12    1    3    3    0    0  0.10197356100E+02  0.12489624532E+02  0.37325448215E+02  0.40659142598E+02  0.00000000000E+00 0. -1.
         11    1    4    4    0    0 -0.32007332139E+01 -0.10005052877E+02 -0.70356477309E+01  0.12643026355E+02  0.51100000000E-03 0. -1.
        -11    1    4    4    0    0 -0.30721713907E+01 -0.10736487353E+02 -0.24869059450E+02  0.27261337383E+02  0.51100000000E-03 0.  1.
         12    1    4    4    0    0 -0.39244514959E+01  0.82519156983E+01 -0.54207410345E+01  0.10624493663E+02  0.00000000000E+00 0. -1.
</event>
<event>
 8    1  0.7977359E-012  0.9118800E+02  0.7816164E-02  0.1184000E+00
        -11   -1    0    0    0    0  0.00000000000E+00  0.00000000000E+00  0.45593999997E+02  0.45594000000E+02  0.51100000000E-03 0. -1.
         11   -1    0    0    0    0 -0.00000000000E+00 -0.00000000000E+00 -0.45593999997E+02  0.45594000000E+02  0.51100000000E-03 0.  1.
         23    2    1    2    0    0  0.35527136788E-14  0.00000000000E+00  0.71054273576E-14  0.91188000000E+02  0.91188000000E+02 0.  0.
    9900012    2    3    3    0    0  0.20728654494E+02 -0.91246698186E+01  0.33767280039E+02  0.50528856900E+02  0.29999991033E+02 0.  0.
        -12    1    3    3    0    0 -0.20728654494E+02  0.91246698186E+01 -0.33767280039E+02  0.40659143100E+02  0.00000000000E+00 0.  1.
         11    1    4    4    0    0  0.91355614355E+01  0.49370037256E+01  0.18551119220E+02  0.21259739253E+02  0.51100000000E-03 0. -1.
        -11    1    4    4    0    0  0.15754064874E+02 -0.94045155332E+01  0.89202901530E+01  0.20401153133E+02  0.51100000000E-03 0.  1.
         12    1    4    4    0    0 -0.41609718153E+01 -0.46571580110E+01  0.62958706656E+01  0.88679645142E+01  0.00000000000E+00 0. -1.
</event>
<event>
 8    1  0.7977359E-012  0.9118800E+02  0.7816164E-02  0.1184000E+00
        -11   -1    0    0    0    0  0.00000000000E+00  0.00000000000E+00  0.45593999997E+02  0.45594000000E+02  0.51100000000E-03 0. -1.
         11   -1    0    0    0    0 -0.00000000000E+00 -0.00000000000E+00 -0.45593999997E+02  0.45594000000E+02  0.51100000000E-03 0.  1.
         23    2    1    2    0    0 -0.88817841970E-15  0.00000000000E+00  0.00000000000E+00  0.91188000000E+02  0.91188000000E+02 0.  0.
    9900012    2    3    3    0    0  0.73072936644E+01  0.57289002406E+01 -0.39584712431E+02  0.50528852236E+02  0.29999976856E+02 0.  0.
         12    1    3    3    0    0 -0.73072936644E+01 -0.57289002406E+01  0.39584712431E+02  0.40659147764E+02  0.00000000000E+00 0. -1.
         11    1    4    4    0    0 -0.69570111801E+01 -0.45219849413E+01 -0.68482331232E+01  0.10758561685E+02  0.51100000000E-03 0. -1.
        -11    1    4    4    0    0 -0.54601087611E-01  0.79829418804E+01 -0.13481264011E+02  0.15667636132E+02  0.51100000000E-03 0.  1.
         12    1    4    4    0    0  0.14318905932E+02  0.22679433015E+01 -0.19255215296E+02  0.24102654419E+02  0.00000000000E+00 0. -1.
</event>
<event>
 8    1  0.7977359E-012  0.9118800E+02  0.7816164E-02  0.1184000E+00
        -11   -1    0    0    0    0  0.00000000000E+00  0.00000000000E+00  0.45593999997E+02  0.45594000000E+02  0.51100000000E-03 0. -1.
         11   -1    0    0    0    0 -0.00000000000E+00 -0.00000000000E+00 -0.45593999997E+02  0.45594000000E+02  0.51100000000E-03 0.  1.
         23    2    1    2    0    0  0.00000000000E+00  0.17763568394E-14  0.00000000000E+00  0.91188000000E+02  0.91188000000E+02 0.  0.
    9900012    2    3    3    0    0 -0.10795321034E+02  0.11244082010E+02 -0.37552581213E+02  0.50528871969E+02  0.30000036838E+02 0.  0.
         12    1    3    3    0    0  0.10795321034E+02 -0.11244082010E+02  0.37552581213E+02  0.40659128031E+02  0.00000000000E+00 0. -1.
         11    1    4    4    0    0  0.20598955286E+01  0.10940762484E+02 -0.22824617296E+01  0.11364553891E+02  0.51100000000E-03 0. -1.
        -11    1    4    4    0    0 -0.86631414415E+01  0.54766634893E+01 -0.23574911240E+02  0.25706425322E+02  0.51100000000E-03 0.  1.
        -12    1    4    4    0    0 -0.41920751211E+01 -0.51733439638E+01 -0.11695208243E+02  0.13457892757E+02  0.00000000000E+00 0.  1.
</event>
<event>
 8    1  0.7977359E-012  0.9118800E+02  0.7816164E-02  0.1184000E+00
        -11   -1    0    0    0    0  0.00000000000E+00  0.00000000000E+00  0.45593999997E+02  0.45594000000E+02  0.51100000000E-03 0. -1.
         11   -1    0    0    0    0 -0.00000000000E+00 -0.00000000000E+00 -0.45593999997E+02  0.45594000000E+02  0.51100000000E-03 0.  1.
         23    2    1    2    0    0  0.00000000000E+00  0.13322676296E-14  0.00000000000E+00  0.91188000000E+02  0.91188000000E+02 0.  0.
    9900012    2    3    3    0    0  0.19289276807E+02 -0.39121858435E+01 -0.35577846335E+02  0.50528873747E+02  0.30000042242E+02 0.  0.
         12    1    3    3    0    0 -0.19289276807E+02  0.39121858435E+01  0.35577846335E+02  0.40659126253E+02  0.00000000000E+00 0. -1.
         11    1    4    4    0    0  0.69025021832E+01  0.30636462854E+01 -0.11322397459E+02  0.13609818126E+02  0.51100000000E-03 0. -1.
        -11    1    4    4    0    0 -0.59355642623E+01  0.21607992756E+01 -0.10499164838E+02  0.12252854328E+02  0.51100000000E-03 0.  1.
         12    1    4    4    0    0  0.18322338887E+02 -0.91366314045E+01 -0.13756284038E+02  0.24666201293E+02  0.00000000000E+00 0. -1.
</event>
<event>
 8    1  0.7977359E-012  0.9118800E+02  0.7816164E-02  0.1184000E+00
        -11   -1    0    0    0    0  0.00000000000E+00  0.00000000000E+00  0.45593999997E+02  0.45594000000E+02  0.51100000000E-03 0. -1.
         11   -1    0    0    0    0 -0.00000000000E+00 -0.00000000000E+00 -0.45593999997E+02  0.45594000000E+02  0.51100000000E-03 0.  1.
         23    2    1    2    0    0  0.88817841970E-15  0.00000000000E+00  0.00000000000E+00  0.91188000000E+02  0.91188000000E+02 0.  0.
    9900012    2    3    3    0    0 -0.75089380332E+01 -0.18192850034E+01 -0.39918324427E+02  0.50528848836E+02  0.29999966521E+02 0.  0.
         12    1    3    3    0    0  0.75089380332E+01  0.18192850034E+01  0.39918324427E+02  0.40659151164E+02  0.00000000000E+00 0. -1.
         11    1    4    4    0    0 -0.32661158912E+01 -0.75641314016E+01 -0.14978767122E+02  0.17095235057E+02  0.51100000000E-03 0. -1.
        -11    1    4    4    0    0 -0.55522329298E+01  0.12281694950E+02 -0.22701558824E+02  0.26401289640E+02  0.51100000000E-03 0.  1.
         12    1    4    4    0    0  0.13094107877E+01 -0.65368485515E+01 -0.22379984806E+01  0.70323241389E+01  0.00000000000E+00 0. -1.
</event>
<event>
 8    1  0.7977359E-012  0.9118800E+02  0.7816164E-02  0.1184000E+00
        -11   -1    0    0    0    0  0.00000000000E+00  0.00000000000E+00  0.45593999997E+02  0.45594000000E+02  0.51100000000E-03 0. -1.
         11   -1    0    0    0    0 -0.00000000000E+00 -0.00000000000E+00 -0.45593999997E+02  0.45594000000E+02  0.51100000000E-03 0.  1.
         23    2    1    2    0    0  0.00000000000E+00  0.00000000000E+00  0.00000000000E+00  0.91188000000E+02  0.91188000000E+02 0.  0.
    9900012    2    3    3    0    0 -0.10526651899E+01  0.14947635769E+02  0.37797124411E+02  0.50528898524E+02  0.30000117554E+02 0.  0.
        -12    1    3    3    0    0  0.10526651899E+01 -0.14947635769E+02 -0.37797124411E+02  0.40659101476E+02  0.00000000000E+00 0.  1.
         11    1    4    4    0    0 -0.20821981607E+01 -0.47863941730E+01 -0.69964739326E+00  0.52663673529E+01  0.51100000000E-03 0. -1.
        -11    1    4    4    0    0  0.24636430561E+00 -0.16813084701E+01  0.67453766865E+01  0.69561196400E+01  0.51100000000E-03 0.  1.
         12    1    4    4    0    0  0.78316866516E+00  0.21415338412E+02  0.31751395118E+02  0.38306411531E+02  0.00000000000E+00 0. -1.
</event>
<event>
 8    1  0.7977359E-012  0.9118800E+02  0.7816164E-02  0.1184000E+00
        -11   -1    0    0    0    0  0.00000000000E+00  0.00000000000E+00  0.45593999997E+02  0.45594000000E+02  0.51100000000E-03 0. -1.
         11   -1    0    0    0    0 -0.00000000000E+00 -0.00000000000E+00 -0.45593999997E+02  0.45594000000E+02  0.51100000000E-03 0.  1.
         23    2    1    2    0    0  0.00000000000E+00 -0.71054273576E-14 -0.35527136788E-14  0.91188000000E+02  0.91188000000E+02 0.  0.
    9900012    2    3    3    0    0 -0.87098638601E+01  0.28226514781E+02 -0.27938649116E+02  0.50528856138E+02  0.29999988719E+02 0.  0.
         12    1    3    3    0    0  0.87098638601E+01 -0.28226514781E+02  0.27938649116E+02  0.40659143862E+02  0.00000000000E+00 0. -1.
         11    1    4    4    0    0 -0.46835811796E-01  0.21605614660E+01 -0.46207572681E+01  0.51011388369E+01  0.51100000000E-03 0. -1.
        -11    1    4    4    0    0 -0.14114248724E+02  0.24599651332E+02 -0.26612280740E+02  0.38891751685E+02  0.51100000000E-03 0.  1.
         12    1    4    4    0    0  0.54512206759E+01  0.14663019828E+01  0.32943888923E+01  0.65359656162E+01  0.00000000000E+00 0. -1.
</event>
<event>
 8    1  0.7977359E-012  0.9118800E+02  0.7816164E-02  0.1184000E+00
        -11   -1    0    0    0    0  0.00000000000E+00  0.00000000000E+00  0.45593999997E+02  0.45594000000E+02  0.51100000000E-03 0. -1.
         11   -1    0    0    0    0 -0.00000000000E+00 -0.00000000000E+00 -0.45593999997E+02  0.45594000000E+02  0.51100000000E-03 0.  1.
         23    2    1    2    0    0  0.22204460493E-15  0.00000000000E+00  0.00000000000E+00  0.91188000000E+02  0.91188000000E+02 0.  0.
    9900012    2    3    3    0    0  0.77019383593E+00 -0.21227588061E+02 -0.34669349858E+02  0.50528837281E+02  0.29999931399E+02 0.  0.
         12    1    3    3    0    0 -0.77019383593E+00  0.21227588061E+02  0.34669349858E+02  0.40659162719E+02  0.00000000000E+00 0. -1.
         11    1    4    4    0    0  0.75937786293E+01 -0.41443602297E+01 -0.14900851461E+01  0.87784708001E+01  0.51100000000E-03 0. -1.
        -11    1    4    4    0    0 -0.55674638354E+01  0.21066322746E+01 -0.99380729571E+01  0.11584465782E+02  0.51100000000E-03 0.  1.
        -12    1    4    4    0    0 -0.12561209579E+01 -0.19189860106E+02 -0.23241191755E+02  0.30165900698E+02  0.00000000000E+00 0.  1.
</event>
<event>
 8    1  0.7977359E-012  0.9118800E+02  0.7816164E-02  0.1184000E+00
        -11   -1    0    0    0    0  0.00000000000E+00  0.00000000000E+00  0.45593999997E+02  0.45594000000E+02  0.51100000000E-03 0. -1.
         11   -1    0    0    0    0 -0.00000000000E+00 -0.00000000000E+00 -0.45593999997E+02  0.45594000000E+02  0.51100000000E-03 0.  1.
         23    2    1    2    0    0 -0.17763568394E-14  0.71054273576E-14 -0.35527136788E-14  0.91188000000E+02  0.91188000000E+02 0.  0.
    9900012    2    3    3    0    0 -0.12591067783E+02  0.24768524520E+02 -0.29684181606E+02  0.50528862866E+02  0.30000009169E+02 0.  0.
         12    1    3    3    0    0  0.12591067783E+02 -0.24768524520E+02  0.29684181606E+02  0.40659137134E+02  0.00000000000E+00 0. -1.
         11    1    4    4    0    0 -0.56213594176E+01  0.54940873528E+01 -0.86439877191E+01  0.11683458456E+02  0.51100000000E-03 0. -1.
        -11    1    4    4    0    0 -0.64982587617E+01 -0.48880440921E+01 -0.78994295962E+01  0.11336724844E+02  0.51100000000E-03 0.  1.
        -12    1    4    4    0    0 -0.47144960372E+00  0.24162481259E+02 -0.13140764291E+02  0.27508679566E+02  0.00000000000E+00 0.  1.
</event>
<event>
 8    1  0.7977359E-012  0.9118800E+02  0.7816164E-02  0.1184000E+00
        -11   -1    0    0    0    0  0.00000000000E+00  0.00000000000E+00  0.45593999997E+02  0.45594000000E+02  0.51100000000E-03 0. -1.
         11   -1    0    0    0    0 -0.00000000000E+00 -0.00000000000E+00 -0.45593999997E+02  0.45594000000E+02  0.51100000000E-03 0.  1.
         23    2    1    2    0    0  0.35527136788E-14  0.88817841970E-15  0.35527136788E-14  0.91188000000E+02  0.91188000000E+02 0.  0.
    9900012    2    3    3    0    0  0.28263861394E+02  0.71612354468E+01  0.28337898053E+02  0.50528860559E+02  0.30000002157E+02 0.  0.
        -12    1    3    3    0    0 -0.28263861394E+02 -0.71612354468E+01 -0.28337898053E+02  0.40659139441E+02  0.00000000000E+00 0.  1.
         11    1    4    4    0    0  0.59548463393E+00 -0.39423906345E+01  0.13387567498E+02  0.13968679596E+02  0.51100000000E-03 0. -1.
        -11    1    4    4    0    0 -0.17654266490E+01  0.15957939081E+01  0.55756226347E+00  0.24442105860E+01  0.51100000000E-03 0.  1.
         12    1    4    4    0    0  0.29433803409E+02  0.95078321733E+01  0.14392768291E+02  0.34115970378E+02  0.00000000000E+00 0. -1.
</event>
<event>
 8    1  0.7977359E-012  0.9118800E+02  0.7816164E-02  0.1184000E+00
        -11   -1    0    0    0    0  0.00000000000E+00  0.00000000000E+00  0.45593999997E+02  0.45594000000E+02  0.51100000000E-03 0. -1.
         11   -1    0    0    0    0 -0.00000000000E+00 -0.00000000000E+00 -0.45593999997E+02  0.45594000000E+02  0.51100000000E-03 0.  1.
         23    2    1    2    0    0  0.00000000000E+00  0.00000000000E+00  0.00000000000E+00  0.91188000000E+02  0.91188000000E+02 0.  0.
    9900012    2    3    3    0    0  0.80854773080E+01  0.32521811820E+02 -0.23024396903E+02  0.50528855394E+02  0.29999986455E+02 0.  0.
         12    1    3    3    0    0 -0.80854773080E+01 -0.32521811820E+02  0.23024396903E+02  0.40659144606E+02  0.00000000000E+00 0. -1.
         11    1    4    4    0    0  0.81788203528E+00  0.17329182968E+02 -0.17851053713E+02  0.24892360922E+02  0.51100000000E-03 0. -1.
        -11    1    4    4    0    0 -0.56894967581E+01  0.66034690645E+01 -0.50841480458E+01  0.10090824479E+02  0.51100000000E-03 0.  1.
         12    1    4    4    0    0  0.12957092031E+02  0.85891597876E+01 -0.89195144151E-01  0.15545669993E+02  0.00000000000E+00 0. -1.
</event>
<event>
 8    1  0.7977359E-012  0.9118800E+02  0.7816164E-02  0.1184000E+00
        -11   -1    0    0    0    0  0.00000000000E+00  0.00000000000E+00  0.45593999997E+02  0.45594000000E+02  0.51100000000E-03 0. -1.
         11   -1    0    0    0    0 -0.00000000000E+00 -0.00000000000E+00 -0.45593999997E+02  0.45594000000E+02  0.51100000000E-03 0.  1.
         23    2    1    2    0    0  0.00000000000E+00  0.00000000000E+00 -0.10658141036E-13  0.91188000000E+02  0.91188000000E+02 0.  0.
    9900012    2    3    3    0    0 -0.21854315759E+02 -0.28686726036E+02  0.18778351265E+02  0.50528857803E+02  0.29999993777E+02 0.  0.
        -12    1    3    3    0    0  0.21854315759E+02  0.28686726036E+02 -0.18778351265E+02  0.40659142197E+02  0.00000000000E+00 0.  1.
         11    1    4    4    0    0 -0.91512696005E+01 -0.19186543796E+02  0.18926355235E+02  0.28461836218E+02  0.51100000000E-03 0. -1.
        -11    1    4    4    0    0 -0.10462884513E+01 -0.87150802593E+01  0.40309203627E+01  0.96589679926E+01  0.51100000000E-03 0.  1.
         12    1    4    4    0    0 -0.11656757708E+02 -0.78510198137E+00 -0.41789243332E+01  0.12408053593E+02  0.00000000000E+00 0. -1.
</event>
<event>
 8    1  0.7977359E-012  0.9118800E+02  0.7816164E-02  0.1184000E+00
        -11   -1    0    0    0    0  0.00000000000E+00  0.00000000000E+00  0.45593999997E+02  0.45594000000E+02  0.51100000000E-03 0. -1.
         11   -1    0    0    0    0 -0.00000000000E+00 -0.00000000000E+00 -0.45593999997E+02  0.45594000000E+02  0.51100000000E-03 0.  1.
         23    2    1    2    0    0 -0.35527136788E-14 -0.88817841970E-15  0.00000000000E+00  0.91188000000E+02  0.91188000000E+02 0.  0.
    9900012    2    3    3    0    0  0.28528569211E+02  0.52173271938E+01 -0.28496794891E+02  0.50528842565E+02  0.29999947460E+02 0.  0.
         12    1    3    3    0    0 -0.28528569211E+02 -0.52173271938E+01  0.28496794891E+02  0.40659157435E+02  0.00000000000E+00 0. -1.
         11    1    4    4    0    0 -0.17608541694E+01  0.32649792503E+01 -0.63894841043E+01  0.73882477145E+01  0.51100000000E-03 0. -1.
        -11    1    4    4    0    0  0.97536976629E+00 -0.23782418720E+01 -0.11316481648E+02  0.11604746345E+02  0.51100000000E-03 0.  1.
        -12    1    4    4    0    0  0.29314053614E+02  0.43305898155E+01 -0.10790829139E+02  0.31535848505E+02  0.00000000000E+00 0.  1.
</event>
<event>
 8    1  0.7977359E-012  0.9118800E+02  0.7816164E-02  0.1184000E+00
        -11   -1    0    0    0    0  0.00000000000E+00  0.00000000000E+00  0.45593999997E+02  0.45594000000E+02  0.51100000000E-03 0. -1.
         11   -1    0    0    0    0 -0.00000000000E+00 -0.00000000000E+00 -0.45593999997E+02  0.45594000000E+02  0.51100000000E-03 0.  1.
         23    2    1    2    0    0 -0.17763568394E-14  0.00000000000E+00  0.00000000000E+00  0.91188000000E+02  0.91188000000E+02 0.  0.
    9900012    2    3    3    0    0  0.10060590721E+02  0.14424763312E+02  0.36658922419E+02  0.50528857422E+02  0.29999992620E+02 0.  0.
        -12    1    3    3    0    0 -0.10060590721E+02 -0.14424763312E+02 -0.36658922419E+02  0.40659142578E+02  0.00000000000E+00 0.  1.
         11    1    4    4    0    0 -0.69041230987E+01 -0.23120111260E+01  0.13223385799E+02  0.15095371591E+02  0.51100000000E-03 0. -1.
        -11    1    4    4    0    0 -0.23642384365E+00  0.44256459393E+01  0.83470749308E+01  0.94507088822E+01  0.51100000000E-03 0.  1.
        -12    1    4    4    0    0  0.17201137664E+02  0.12311128499E+02  0.15088461689E+02  0.25982776949E+02  0.00000000000E+00 0.  1.
</event>
<event>
 8    1  0.7977359E-012  0.9118800E+02  0.7816164E-02  0.1184000E+00
        -11   -1    0    0    0    0  0.00000000000E+00  0.00000000000E+00  0.45593999997E+02  0.45594000000E+02  0.51100000000E-03 0. -1.
         11   -1    0    0    0    0 -0.00000000000E+00 -0.00000000000E+00 -0.45593999997E+02  0.45594000000E+02  0.51100000000E-03 0.  1.
         23    2    1    2    0    0  0.00000000000E+00  0.00000000000E+00  0.00000000000E+00  0.91188000000E+02  0.91188000000E+02 0.  0.
    9900012    2    3    3    0    0 -0.24699207378E+02 -0.98786047554E+01  0.30749434519E+02  0.50528863263E+02  0.30000010373E+02 0.  0.
        -12    1    3    3    0    0  0.24699207378E+02  0.98786047554E+01 -0.30749434519E+02  0.40659136737E+02  0.00000000000E+00 0.  1.
         11    1    4    4    0    0  0.14755272104E+01 -0.38043795450E+01  0.10028029529E+02  0.10826442664E+02  0.51100000000E-03 0. -1.
        -11    1    4    4    0    0 -0.23867691618E+01  0.54468937576E+01  0.90036591295E+01  0.10790328847E+02  0.51100000000E-03 0.  1.
         12    1    4    4    0    0 -0.23787965426E+02 -0.11521118968E+02  0.11717745861E+02  0.28912091751E+02  0.00000000000E+00 0. -1.
</event>
<event>
 8    1  0.7977359E-012  0.9118800E+02  0.7816164E-02  0.1184000E+00
        -11   -1    0    0    0    0  0.00000000000E+00  0.00000000000E+00  0.45593999997E+02  0.45594000000E+02  0.51100000000E-03 0. -1.
         11   -1    0    0    0    0 -0.00000000000E+00 -0.00000000000E+00 -0.45593999997E+02  0.45594000000E+02  0.51100000000E-03 0.  1.
         23    2    1    2    0    0 -0.11102230246E-15  0.00000000000E+00  0.00000000000E+00  0.91188000000E+02  0.91188000000E+02 0.  0.
    9900012    2    3    3    0    0 -0.39017850695E+00 -0.21541742190E+02 -0.34481367235E+02  0.50528885619E+02  0.30000078329E+02 0.  0.
         12    1    3    3    0    0  0.39017850695E+00  0.21541742190E+02  0.34481367235E+02  0.40659114381E+02  0.00000000000E+00 0. -1.
         11    1    4    4    0    0 -0.42650710562E+01 -0.41923879890E+01 -0.53386019184E+01  0.80167087305E+01  0.51100000000E-03 0. -1.
        -11    1    4    4    0    0 -0.20883445765E+01 -0.88268540582E+01 -0.30684376490E+02  0.31996960738E+02  0.51100000000E-03 0.  1.
        -12    1    4    4    0    0  0.59632371258E+01 -0.85225001426E+01  0.15416111733E+01  0.10515216151E+02  0.00000000000E+00 0.  1.
</event>
<event>
 8    1  0.7977359E-012  0.9118800E+02  0.7816164E-02  0.1184000E+00
        -11   -1    0    0    0    0  0.00000000000E+00  0.00000000000E+00  0.45593999997E+02  0.45594000000E+02  0.51100000000E-03 0. -1.
         11   -1    0    0    0    0 -0.00000000000E+00 -0.00000000000E+00 -0.45593999997E+02  0.45594000000E+02  0.51100000000E-03 0.  1.
         23    2    1    2    0    0 -0.17763568394E-14 -0.35527136788E-14 -0.71054273576E-14  0.91188000000E+02  0.91188000000E+02 0.  0.
    9900012    2    3    3    0    0  0.99988078123E+01 -0.16015976703E+02  0.36009418854E+02  0.50528856949E+02  0.29999991183E+02 0.  0.
        -12    1    3    3    0    0 -0.99988078123E+01  0.16015976703E+02 -0.36009418854E+02  0.40659143051E+02  0.00000000000E+00 0.  1.
         11    1    4    4    0    0 -0.73816980623E+00 -0.23962871479E+01  0.71690694447E+01  0.75949090661E+01  0.51100000000E-03 0. -1.
        -11    1    4    4    0    0 -0.69617945088E+01 -0.10264447037E+02  0.18161993548E+02  0.21992804861E+02  0.51100000000E-03 0.  1.
         12    1    4    4    0    0  0.17698772127E+02 -0.33552425184E+01  0.10678355861E+02  0.20941143022E+02  0.00000000000E+00 0. -1.
</event>
<event>
 8    1  0.7977359E-012  0.9118800E+02  0.7816164E-02  0.1184000E+00
        -11   -1    0    0    0    0  0.00000000000E+00  0.00000000000E+00  0.45593999997E+02  0.45594000000E+02  0.51100000000E-03 0. -1.
         11   -1    0    0    0    0 -0.00000000000E+00 -0.00000000000E+00 -0.45593999997E+02  0.45594000000E+02  0.51100000000E-03 0.  1.
         23    2    1    2    0    0  0.00000000000E+00 -0.88817841970E-15  0.00000000000E+00  0.91188000000E+02  0.91188000000E+02 0.  0.
    9900012    2    3    3    0    0  0.16560931689E+02 -0.79001863608E+01 -0.36283441056E+02  0.50528862063E+02  0.30000006727E+02 0.  0.
         12    1    3    3    0    0 -0.16560931689E+02  0.79001863608E+01  0.36283441056E+02  0.40659137937E+02  0.00000000000E+00 0. -1.
         11    1    4    4    0    0  0.39342763185E+01 -0.64685195232E+00  0.20480107083E+01  0.44823315050E+01  0.51100000000E-03 0. -1.
        -11    1    4    4    0    0 -0.49013631455E+01  0.20379274185E+00 -0.25931862113E+01  0.55488293498E+01  0.51100000000E-03 0.  1.
        -12    1    4    4    0    0  0.17528018516E+02 -0.74571271504E+01 -0.35738265553E+02  0.40497701208E+02  0.00000000000E+00 0.  1.
</event>
<event>
 8    1  0.7977359E-012  0.9118800E+02  0.7816164E-02  0.1184000E+00
        -11   -1    0    0    0    0  0.00000000000E+00  0.00000000000E+00  0.45593999997E+02  0.45594000000E+02  0.51100000000E-03 0. -1.
         11   -1    0    0    0    0 -0.00000000000E+00 -0.00000000000E+00 -0.45593999997E+02  0.45594000000E+02  0.51100000000E-03 0.  1.
         23    2    1    2    0    0  0.00000000000E+00 -0.26645352591E-14  0.00000000000E+00  0.91188000000E+02  0.91188000000E+02 0.  0.
    9900012    2    3    3    0    0 -0.14459923563E+02  0.47895815608E+01  0.37697955187E+02  0.50528864418E+02  0.30000013886E+02 0.  0.
        -12    1    3    3    0    0  0.14459923563E+02 -0.47895815608E+01 -0.37697955187E+02  0.40659135582E+02  0.00000000000E+00 0.  1.
         11    1    4    4    0    0 -0.15684226827E+02  0.94362379785E+01  0.17900952562E+02  0.25602376086E+02  0.51100000000E-03 0.  1.
        -11    1    4    4    0    0  0.28333281183E+01  0.38141202406E+01  0.19999998691E+01  0.51551198990E+01  0.51100000000E-03 0. -1.
         12    1    4    4    0    0 -0.16090248540E+01 -0.84607766583E+01  0.17797002756E+02  0.19771368433E+02  0.00000000000E+00 0. -1.
</event>
<event>
 8    1  0.7977359E-012  0.9118800E+02  0.7816164E-02  0.1184000E+00
        -11   -1    0    0    0    0  0.00000000000E+00  0.00000000000E+00  0.45593999997E+02  0.45594000000E+02  0.51100000000E-03 0. -1.
         11   -1    0    0    0    0 -0.00000000000E+00 -0.00000000000E+00 -0.45593999997E+02  0.45594000000E+02  0.51100000000E-03 0.  1.
         23    2    1    2    0    0  0.88817841970E-15  0.35527136788E-14  0.00000000000E+00  0.91188000000E+02  0.91188000000E+02 0.  0.
    9900012    2    3    3    0    0  0.59438880669E+01 -0.27935229509E+02 -0.28939007015E+02  0.50528770050E+02  0.29999727044E+02 0.  0.
         12    1    3    3    0    0 -0.59438880669E+01  0.27935229509E+02  0.28939007015E+02  0.40659229950E+02  0.00000000000E+00 0. -1.
         11    1    4    4    0    0  0.38373571316E+01 -0.11267537083E+02 -0.19566874898E-01  0.11903070394E+02  0.51100000000E-03 0. -1.
        -11    1    4    4    0    0 -0.84944474026E+01 -0.92727011586E+01 -0.12522810148E+02  0.17747095473E+02  0.51100000000E-03 0.  1.
        -12    1    4    4    0    0  0.10600978338E+02 -0.73949912673E+01 -0.16396629992E+02  0.20878604184E+02  0.00000000000E+00 0.  1.
</event>
<event>
 8    1  0.7977359E-012  0.9118800E+02  0.7816164E-02  0.1184000E+00
        -11   -1    0    0    0    0  0.00000000000E+00  0.00000000000E+00  0.45593999997E+02  0.45594000000E+02  0.51100000000E-03 0. -1.
         11   -1    0    0    0    0 -0.00000000000E+00 -0.00000000000E+00 -0.45593999997E+02  0.45594000000E+02  0.51100000000E-03 0.  1.
         23    2    1    2    0    0  0.00000000000E+00 -0.11102230246E-15  0.00000000000E+00  0.91188000000E+02  0.91188000000E+02 0.  0.
    9900012    2    3    3    0    0  0.22038930624E+02  0.72284888884E+00  0.34160334689E+02  0.50528862778E+02  0.30000008900E+02 0.  0.
        -12    1    3    3    0    0 -0.22038930624E+02 -0.72284888884E+00 -0.34160334689E+02  0.40659137222E+02  0.00000000000E+00 0.  1.
         11    1    4    4    0    0  0.20745174663E+02 -0.10400175519E+01  0.20676008807E+02  0.29307699479E+02  0.51100000000E-03 0. -1.
        -11    1    4    4    0    0  0.16526887718E+01  0.76101821083E+01  0.13236688883E+02  0.15357609994E+02  0.51100000000E-03 0.  1.
         12    1    4    4    0    0 -0.35893281035E+00 -0.58473156675E+01  0.24763699931E+00  0.58635533051E+01  0.00000000000E+00 0. -1.
</event>
<event>
 8    1  0.7977359E-012  0.9118800E+02  0.7816164E-02  0.1184000E+00
        -11   -1    0    0    0    0  0.00000000000E+00  0.00000000000E+00  0.45593999997E+02  0.45594000000E+02  0.51100000000E-03 0. -1.
         11   -1    0    0    0    0 -0.00000000000E+00 -0.00000000000E+00 -0.45593999997E+02  0.45594000000E+02  0.51100000000E-03 0.  1.
         23    2    1    2    0    0  0.00000000000E+00  0.44408920985E-15  0.71054273576E-14  0.91188000000E+02  0.91188000000E+02 0.  0.
    9900012    2    3    3    0    0 -0.22938720295E+02  0.20425475522E+01 -0.33508344901E+02  0.50528855060E+02  0.29999985439E+02 0.  0.
         12    1    3    3    0    0  0.22938720295E+02 -0.20425475522E+01  0.33508344901E+02  0.40659144940E+02  0.00000000000E+00 0. -1.
         11    1    4    4    0    0 -0.47594839776E+01 -0.68361781180E+00  0.23973571151E+01  0.53728337443E+01  0.51100000000E-03 0. -1.
        -11    1    4    4    0    0 -0.53135975504E+01 -0.25821084951E+01  0.74234276473E+00  0.59542149986E+01  0.51100000000E-03 0.  1.
        -12    1    4    4    0    0 -0.12865638767E+02  0.53082738591E+01 -0.36648044781E+02  0.39201806317E+02  0.00000000000E+00 0.  1.
</event>
<event>
 8    1  0.7977359E-012  0.9118800E+02  0.7816164E-02  0.1184000E+00
        -11   -1    0    0    0    0  0.00000000000E+00  0.00000000000E+00  0.45593999997E+02  0.45594000000E+02  0.51100000000E-03 0.  1.
         11   -1    0    0    0    0 -0.00000000000E+00 -0.00000000000E+00 -0.45593999997E+02  0.45594000000E+02  0.51100000000E-03 0. -1.
         23    2    1    2    0    0  0.00000000000E+00 -0.17763568394E-14  0.71054273576E-14  0.91188000000E+02  0.91188000000E+02 0.  0.
    9900012    2    3    3    0    0 -0.25045574936E+02  0.14044473132E+02 -0.28786060738E+02  0.50528863976E+02  0.30000012541E+02 0.  0.
         12    1    3    3    0    0  0.25045574936E+02 -0.14044473132E+02  0.28786060738E+02  0.40659136024E+02  0.00000000000E+00 0. -1.
         11    1    4    4    0    0  0.20760028490E+01  0.40476289647E+01 -0.48766010840E+01  0.66689074411E+01  0.51100000000E-03 0. -1.
        -11    1    4    4    0    0 -0.19397718012E+01  0.93447081693E+01 -0.13661304939E+02  0.16664859384E+02  0.51100000000E-03 0.  1.
        -12    1    4    4    0    0 -0.25181805984E+02  0.65213599758E+00 -0.10248154715E+02  0.27195097150E+02  0.00000000000E+00 0.  1.
</event>
<event>
 8    1  0.7977359E-012  0.9118800E+02  0.7816164E-02  0.1184000E+00
        -11   -1    0    0    0    0  0.00000000000E+00  0.00000000000E+00  0.45593999997E+02  0.45594000000E+02  0.51100000000E-03 0. -1.
         11   -1    0    0    0    0 -0.00000000000E+00 -0.00000000000E+00 -0.45593999997E+02  0.45594000000E+02  0.51100000000E-03 0.  1.
         23    2    1    2    0    0  0.17763568394E-14  0.00000000000E+00  0.71054273576E-14  0.91188000000E+02  0.91188000000E+02 0.  0.
    9900012    2    3    3    0    0 -0.13180430941E+02  0.17402515031E+02  0.34301522708E+02  0.50528858970E+02  0.29999997326E+02 0.  0.
        -12    1    3    3    0    0  0.13180430941E+02 -0.17402515031E+02 -0.34301522708E+02  0.40659141030E+02  0.00000000000E+00 0.  1.
         11    1    4    4    0    0 -0.75336889377E+01  0.73729804404E+00 -0.25976858463E+01  0.80030025261E+01  0.51100000000E-03 0.  1.
        -11    1    4    4    0    0 -0.59862403669E+01  0.93383398693E+01  0.11053298148E+02  0.15659344350E+02  0.51100000000E-03 0. -1.
        -12    1    4    4    0    0  0.33949836325E+00  0.73268771175E+01  0.25845910406E+02  0.26866512095E+02  0.00000000000E+00 0.  1.
</event>
<event>
 8    1  0.7977359E-012  0.9118800E+02  0.7816164E-02  0.1184000E+00
        -11   -1    0    0    0    0  0.00000000000E+00  0.00000000000E+00  0.45593999997E+02  0.45594000000E+02  0.51100000000E-03 0. -1.
         11   -1    0    0    0    0 -0.00000000000E+00 -0.00000000000E+00 -0.45593999997E+02  0.45594000000E+02  0.51100000000E-03 0.  1.
         23    2    1    2    0    0 -0.22204460493E-15  0.00000000000E+00  0.00000000000E+00  0.91188000000E+02  0.91188000000E+02 0.  0.
    9900012    2    3    3    0    0  0.11513502555E+01  0.10846765986E+02  0.39168708871E+02  0.50528859645E+02  0.29999999378E+02 0.  0.
        -12    1    3    3    0    0 -0.11513502555E+01 -0.10846765986E+02 -0.39168708871E+02  0.40659140355E+02  0.00000000000E+00 0.  1.
         11    1    4    4    0    0 -0.17123241870E+01  0.94180764508E+01  0.86189795264E+01  0.12880955962E+02  0.51100000000E-03 0. -1.
        -11    1    4    4    0    0  0.17896556040E+01  0.91177432066E+01  0.42341519322E+01  0.10210981892E+02  0.51100000000E-03 0.  1.
        -12    1    4    4    0    0  0.10740188385E+01 -0.76890536717E+01  0.26315577412E+02  0.27436921791E+02  0.00000000000E+00 0.  1.
</event>
<event>
 8    1  0.7977359E-012  0.9118800E+02  0.7816164E-02  0.1184000E+00
        -11   -1    0    0    0    0  0.00000000000E+00  0.00000000000E+00  0.45593999997E+02  0.45594000000E+02  0.51100000000E-03 0. -1.
         11   -1    0    0    0    0 -0.00000000000E+00 -0.00000000000E+00 -0.45593999997E+02  0.45594000000E+02  0.51100000000E-03 0.  1.
         23    2    1    2    0    0  0.00000000000E+00  0.00000000000E+00  0.00000000000E+00  0.91188000000E+02  0.91188000000E+02 0.  0.
    9900012    2    3    3    0    0  0.85985842571E+01  0.41350778259E+01  0.39523803450E+02  0.50528861310E+02  0.30000004439E+02 0.  0.
        -12    1    3    3    0    0 -0.85985842571E+01 -0.41350778259E+01 -0.39523803450E+02  0.40659138690E+02  0.00000000000E+00 0.  1.
         11    1    4    4    0    0 -0.14562829948E+01 -0.11873172899E+00  0.52407828404E+01  0.54406490813E+01  0.51100000000E-03 0. -1.
        -11    1    4    4    0    0  0.27072077723E+01 -0.42520060837E+01  0.33438786459E+02  0.33816578328E+02  0.51100000000E-03 0.  1.
        -12    1    4    4    0    0  0.73476594796E+01  0.85058156386E+01  0.84423415000E+00  0.11271633901E+02  0.00000000000E+00 0.  1.
</event>
<event>
 8    1  0.7977359E-012  0.9118800E+02  0.7816164E-02  0.1184000E+00
        -11   -1    0    0    0    0  0.00000000000E+00  0.00000000000E+00  0.45593999997E+02  0.45594000000E+02  0.51100000000E-03 0.  1.
         11   -1    0    0    0    0 -0.00000000000E+00 -0.00000000000E+00 -0.45593999997E+02  0.45594000000E+02  0.51100000000E-03 0. -1.
         23    2    1    2    0    0  0.00000000000E+00 -0.17763568394E-14  0.15265566589E-15  0.91188000000E+02  0.91188000000E+02 0.  0.
    9900012    2    3    3    0    0  0.39657527906E+02 -0.89689971714E+01  0.58566432949E-01  0.50528857610E+02  0.29999993192E+02 0.  0.
        -12    1    3    3    0    0 -0.39657527906E+02  0.89689971714E+01 -0.58566432949E-01  0.40659142390E+02  0.00000000000E+00 0.  1.
         11    1    4    4    0    0  0.13815448171E+02 -0.34412677206E+01  0.62229643088E+01  0.15538153582E+02  0.51100000000E-03 0. -1.
        -11    1    4    4    0    0  0.49444307906E+01 -0.11654691612E+02 -0.19524187774E+01  0.12809807639E+02  0.51100000000E-03 0.  1.
        -12    1    4    4    0    0  0.20897648944E+02  0.61269621608E+01 -0.42119790985E+01  0.22180896390E+02  0.00000000000E+00 0.  1.
</event>
<event>
 8    1  0.9718926E-012  0.9118800E+02  0.7816164E-02  0.1184000E+00
        -11   -1    0    0    0    0  0.00000000000E+00  0.00000000000E+00  0.45593999997E+02  0.45594000000E+02  0.51100000000E-03 0. -1.
         11   -1    0    0    0    0 -0.00000000000E+00 -0.00000000000E+00 -0.45593999997E+02  0.45594000000E+02  0.51100000000E-03 0.  1.
         23    2    1    2    0    0  0.00000000000E+00 -0.17763568394E-14  0.71054273576E-14  0.91188000000E+02  0.91188000000E+02 0.  0.
    9900012    2    3    3    0    0 -0.40095141095E+01 -0.15224223166E+02  0.37487495470E+02  0.50528862146E+02  0.30000006979E+02 0.  0.
        -12    1    3    3    0    0  0.40095141095E+01  0.15224223166E+02 -0.37487495470E+02  0.40659137854E+02  0.00000000000E+00 0.  1.
         11    1    4    4    0    0 -0.93697223872E+01 -0.70269703826E+01  0.24538422194E+02  0.27190148481E+02  0.51100000000E-03 0. -1.
        -11    1    4    4    0    0  0.44857145203E+01 -0.46969158379E+01  0.16830035536E+02  0.18039754698E+02  0.51100000000E-03 0.  1.
        -12    1    4    4    0    0  0.87449375736E+00 -0.35003369458E+01 -0.38809622606E+01  0.52989589670E+01  0.00000000000E+00 0.  1.
</event>
<event>
 8    1  0.7977359E-012  0.9118800E+02  0.7816164E-02  0.1184000E+00
        -11   -1    0    0    0    0  0.00000000000E+00  0.00000000000E+00  0.45593999997E+02  0.45594000000E+02  0.51100000000E-03 0. -1.
         11   -1    0    0    0    0 -0.00000000000E+00 -0.00000000000E+00 -0.45593999997E+02  0.45594000000E+02  0.51100000000E-03 0.  1.
         23    2    1    2    0    0 -0.17763568394E-14  0.00000000000E+00  0.00000000000E+00  0.91188000000E+02  0.91188000000E+02 0.  0.
    9900012    2    3    3    0    0 -0.12965474548E+02 -0.31732214214E+02  0.21866159457E+02  0.50528857381E+02  0.29999992494E+02 0.  0.
        -12    1    3    3    0    0  0.12965474548E+02  0.31732214214E+02 -0.21866159457E+02  0.40659142619E+02  0.00000000000E+00 0.  1.
         11    1    4    4    0    0 -0.64579227846E+01 -0.55889310773E+01  0.29644524052E+01  0.90404035089E+01  0.51100000000E-03 0. -1.
        -11    1    4    4    0    0 -0.82318598426E+01  0.22059818318E+01  0.47429998599E+01  0.97532517779E+01  0.51100000000E-03 0.  1.
         12    1    4    4    0    0  0.17243080795E+01 -0.28349264968E+02  0.14158707192E+02  0.31735202094E+02  0.00000000000E+00 0. -1.
</event>
<event>
 8    1  0.7977359E-012  0.9118800E+02  0.7816164E-02  0.1184000E+00
        -11   -1    0    0    0    0  0.00000000000E+00  0.00000000000E+00  0.45593999997E+02  0.45594000000E+02  0.51100000000E-03 0. -1.
         11   -1    0    0    0    0 -0.00000000000E+00 -0.00000000000E+00 -0.45593999997E+02  0.45594000000E+02  0.51100000000E-03 0.  1.
         23    2    1    2    0    0 -0.17763568394E-14  0.00000000000E+00  0.00000000000E+00  0.91188000000E+02  0.91188000000E+02 0.  0.
    9900012    2    3    3    0    0 -0.14244396002E+02  0.34533553601E+02 -0.16052935506E+02  0.50528857361E+02  0.29999992435E+02 0.  0.
         12    1    3    3    0    0  0.14244396002E+02 -0.34533553601E+02  0.16052935506E+02  0.40659142639E+02  0.00000000000E+00 0. -1.
         11    1    4    4    0    0 -0.10607784994E+02  0.11919177402E+02  0.38282072631E+01  0.16408749603E+02  0.51100000000E-03 0. -1.
        -11    1    4    4    0    0 -0.12107773802E+01 -0.19017755202E+01  0.29890248365E+00  0.22742196353E+01  0.51100000000E-03 0.  1.
        -12    1    4    4    0    0 -0.24258336269E+01  0.24516151719E+02 -0.20180045253E+02  0.31845888122E+02  0.00000000000E+00 0.  1.
</event>
<event>
 8    1  0.7977359E-012  0.9118800E+02  0.7816164E-02  0.1184000E+00
        -11   -1    0    0    0    0  0.00000000000E+00  0.00000000000E+00  0.45593999997E+02  0.45594000000E+02  0.51100000000E-03 0.  1.
         11   -1    0    0    0    0 -0.00000000000E+00 -0.00000000000E+00 -0.45593999997E+02  0.45594000000E+02  0.51100000000E-03 0. -1.
         23    2    1    2    0    0 -0.35527136788E-14  0.00000000000E+00 -0.88817841970E-15  0.91188000000E+02  0.91188000000E+02 0.  0.
    9900012    2    3    3    0    0  0.21019628794E+02 -0.33927236697E+02 -0.77642240606E+01  0.50528863760E+02  0.30000011885E+02 0.  0.
         12    1    3    3    0    0 -0.21019628794E+02  0.33927236697E+02  0.77642240606E+01  0.40659136240E+02  0.00000000000E+00 0. -1.
         11    1    4    4    0    0 -0.39385641101E+01 -0.53376684388E+01  0.17964489837E+01  0.68724246685E+01  0.51100000000E-03 0. -1.
        -11    1    4    4    0    0 -0.72041522957E+00  0.47653257281E+00  0.28157060623E+01  0.29452134534E+01  0.51100000000E-03 0.  1.
         12    1    4    4    0    0  0.25678608133E+02 -0.29066100831E+02 -0.12376379107E+02  0.40711225638E+02  0.00000000000E+00 0. -1.
</event>
<event>
 8    1  0.7977359E-012  0.9118800E+02  0.7816164E-02  0.1184000E+00
        -11   -1    0    0    0    0  0.00000000000E+00  0.00000000000E+00  0.45593999997E+02  0.45594000000E+02  0.51100000000E-03 0. -1.
         11   -1    0    0    0    0 -0.00000000000E+00 -0.00000000000E+00 -0.45593999997E+02  0.45594000000E+02  0.51100000000E-03 0.  1.
         23    2    1    2    0    0 -0.88817841970E-15 -0.17763568394E-14  0.71054273576E-14  0.91188000000E+02  0.91188000000E+02 0.  0.
    9900012    2    3    3    0    0  0.61749822454E+01  0.14390441810E+02 -0.37522665667E+02  0.50528860069E+02  0.30000000665E+02 0.  0.
         12    1    3    3    0    0 -0.61749822454E+01 -0.14390441810E+02  0.37522665667E+02  0.40659139931E+02  0.00000000000E+00 0. -1.
         11    1    4    4    0    0 -0.10066593913E+01 -0.60824114225E+01 -0.10964270529E+02  0.12578724909E+02  0.51100000000E-03 0. -1.
        -11    1    4    4    0    0  0.16865705242E+01 -0.50256766913E+00  0.16218888131E+01  0.23932442371E+01  0.51100000000E-03 0.  1.
        -12    1    4    4    0    0  0.54950711125E+01  0.20975420901E+02 -0.28180283951E+02  0.35556890923E+02  0.00000000000E+00 0.  1.
</event>
<event>
 8    1  0.7977359E-012  0.9118800E+02  0.7816164E-02  0.1184000E+00
        -11   -1    0    0    0    0  0.00000000000E+00  0.00000000000E+00  0.45593999997E+02  0.45594000000E+02  0.51100000000E-03 0.  1.
         11   -1    0    0    0    0 -0.00000000000E+00 -0.00000000000E+00 -0.45593999997E+02  0.45594000000E+02  0.51100000000E-03 0. -1.
         23    2    1    2    0    0 -0.71054273576E-14  0.00000000000E+00  0.88817841970E-15  0.91188000000E+02  0.91188000000E+02 0.  0.
    9900012    2    3    3    0    0 -0.37047533314E+02  0.16534609801E+02  0.26929182058E+01  0.50528869975E+02  0.30000030776E+02 0.  0.
        -12    1    3    3    0    0  0.37047533314E+02 -0.16534609801E+02 -0.26929182058E+01  0.40659130025E+02  0.00000000000E+00 0.  1.
         11    1    4    4    0    0 -0.30292017633E+02  0.50598305421E+01  0.91640370444E+00  0.30725364333E+02  0.51100000000E-03 0. -1.
        -11    1    4    4    0    0 -0.10179570724E+02  0.55841535354E+01  0.45186538276E+01  0.12458919034E+02  0.51100000000E-03 0.  1.
         12    1    4    4    0    0  0.34240550428E+01  0.58906257239E+01 -0.27421393262E+01  0.73445866078E+01  0.00000000000E+00 0. -1.
</event>
<event>
 8    1  0.7977359E-012  0.9118800E+02  0.7816164E-02  0.1184000E+00
        -11   -1    0    0    0    0  0.00000000000E+00  0.00000000000E+00  0.45593999997E+02  0.45594000000E+02  0.51100000000E-03 0.  1.
         11   -1    0    0    0    0 -0.00000000000E+00 -0.00000000000E+00 -0.45593999997E+02  0.45594000000E+02  0.51100000000E-03 0. -1.
         23    2    1    2    0    0  0.00000000000E+00  0.00000000000E+00 -0.71054273576E-14  0.91188000000E+02  0.91188000000E+02 0.  0.
    9900012    2    3    3    0    0  0.26724489946E+02 -0.63249277413E+01 -0.29982702215E+02  0.50528861963E+02  0.30000006423E+02 0.  0.
         12    1    3    3    0    0 -0.26724489946E+02  0.63249277413E+01  0.29982702215E+02  0.40659138037E+02  0.00000000000E+00 0. -1.
         11    1    4    4    0    0  0.62383671560E+01 -0.64501832167E+01 -0.13732836122E+02  0.16404660208E+02  0.51100000000E-03 0. -1.
        -11    1    4    4    0    0  0.91048810013E+01  0.98775838887E+00 -0.20092144234E+02  0.22080959781E+02  0.51100000000E-03 0.  1.
        -12    1    4    4    0    0  0.11381241789E+02 -0.86250291346E+00  0.38422781417E+01  0.12043241974E+02  0.00000000000E+00 0.  1.
</event>
<event>
 8    1  0.7977359E-012  0.9118800E+02  0.7816164E-02  0.1184000E+00
        -11   -1    0    0    0    0  0.00000000000E+00  0.00000000000E+00  0.45593999997E+02  0.45594000000E+02  0.51100000000E-03 0. -1.
         11   -1    0    0    0    0 -0.00000000000E+00 -0.00000000000E+00 -0.45593999997E+02  0.45594000000E+02  0.51100000000E-03 0.  1.
         23    2    1    2    0    0  0.17763568394E-14  0.00000000000E+00  0.35527136788E-14  0.91188000000E+02  0.91188000000E+02 0.  0.
    9900012    2    3    3    0    0 -0.10671578479E+02 -0.24543026856E+02  0.30609190229E+02  0.50528864729E+02  0.30000014831E+02 0.  0.
        -12    1    3    3    0    0  0.10671578479E+02  0.24543026856E+02 -0.30609190229E+02  0.40659135271E+02  0.00000000000E+00 0.  1.
         11    1    4    4    0    0 -0.51356937476E+01 -0.11390644888E+02  0.96971571509E+01  0.15816352244E+02  0.51100000000E-03 0. -1.
        -11    1    4    4    0    0 -0.97488107452E+01 -0.10985727578E+02  0.15382560017E+01  0.14767929887E+02  0.51100000000E-03 0.  1.
        -12    1    4    4    0    0  0.42129260138E+01 -0.21666543910E+01  0.19373777076E+02  0.19944582599E+02  0.00000000000E+00 0.  1.
</event>
<event>
 8    1  0.7977359E-012  0.9118800E+02  0.7816164E-02  0.1184000E+00
        -11   -1    0    0    0    0  0.00000000000E+00  0.00000000000E+00  0.45593999997E+02  0.45594000000E+02  0.51100000000E-03 0. -1.
         11   -1    0    0    0    0 -0.00000000000E+00 -0.00000000000E+00 -0.45593999997E+02  0.45594000000E+02  0.51100000000E-03 0.  1.
         23    2    1    2    0    0 -0.58286708793E-15  0.35527136788E-14  0.00000000000E+00  0.91188000000E+02  0.91188000000E+02 0.  0.
    9900012    2    3    3    0    0 -0.14910029308E+00 -0.28495844685E+02 -0.29002246070E+02  0.50528859917E+02  0.30000000203E+02 0.  0.
         12    1    3    3    0    0  0.14910029308E+00  0.28495844685E+02  0.29002246070E+02  0.40659140083E+02  0.00000000000E+00 0. -1.
         11    1    4    4    0    0 -0.41512402797E+01 -0.13191794684E+02 -0.19065271318E+02  0.23552936410E+02  0.51100000000E-03 0.  1.
        -11    1    4    4    0    0 -0.78139176020E+01 -0.52756052884E+01 -0.23305098081E+01  0.97118791013E+01  0.51100000000E-03 0. -1.
        -12    1    4    4    0    0  0.11816057589E+02 -0.10028444713E+02 -0.76064649444E+01  0.17264044406E+02  0.00000000000E+00 0.  1.
</event>
<event>
 8    1  0.7977359E-012  0.9118800E+02  0.7816164E-02  0.1184000E+00
        -11   -1    0    0    0    0  0.00000000000E+00  0.00000000000E+00  0.45593999997E+02  0.45594000000E+02  0.51100000000E-03 0. -1.
         11   -1    0    0    0    0 -0.00000000000E+00 -0.00000000000E+00 -0.45593999997E+02  0.45594000000E+02  0.51100000000E-03 0.  1.
         23    2    1    2    0    0 -0.35527136788E-14  0.00000000000E+00 -0.17763568394E-14  0.91188000000E+02  0.91188000000E+02 0.  0.
    9900012    2    3    3    0    0  0.29476965411E+02  0.23367154157E+02  0.15435521454E+02  0.50528798018E+02  0.29999812054E+02 0.  0.
        -12    1    3    3    0    0 -0.29476965411E+02 -0.23367154157E+02 -0.15435521454E+02  0.40659201982E+02  0.00000000000E+00 0.  1.
         11    1    4    4    0    0  0.16369130445E+02  0.12384585662E+02  0.17858479092E+02  0.27207566397E+02  0.51100000000E-03 0. -1.
        -11    1    4    4    0    0  0.50622823931E+01  0.80914997905E+01  0.60371634339E+01  0.11293644871E+02  0.51100000000E-03 0.  1.
        -12    1    4    4    0    0  0.80455525735E+01  0.28910687046E+01 -0.84601210714E+01  0.12027586749E+02  0.00000000000E+00 0.  1.
</event>
<event>
 8    1  0.7977359E-012  0.9118800E+02  0.7816164E-02  0.1184000E+00
        -11   -1    0    0    0    0  0.00000000000E+00  0.00000000000E+00  0.45593999997E+02  0.45594000000E+02  0.51100000000E-03 0. -1.
         11   -1    0    0    0    0 -0.00000000000E+00 -0.00000000000E+00 -0.45593999997E+02  0.45594000000E+02  0.51100000000E-03 0.  1.
         23    2    1    2    0    0 -0.35527136788E-14 -0.35527136788E-14 -0.35527136788E-14  0.91188000000E+02  0.91188000000E+02 0.  0.
    9900012    2    3    3    0    0 -0.25279620120E+02 -0.22046840859E+02 -0.22979218845E+02  0.50528845016E+02  0.29999954910E+02 0.  0.
         12    1    3    3    0    0  0.25279620120E+02  0.22046840859E+02  0.22979218845E+02  0.40659154984E+02  0.00000000000E+00 0. -1.
         11    1    4    4    0    0 -0.65710230370E+01 -0.16892907985E+02 -0.52685760494E+01  0.18876084811E+02  0.51100000000E-03 0. -1.
        -11    1    4    4    0    0  0.49455236501E+00 -0.50407083531E+01  0.62274864143E+00  0.51030519176E+01  0.51100000000E-03 0.  1.
        -12    1    4    4    0    0 -0.19203149448E+02 -0.11322452030E+00 -0.18333391437E+02  0.26549708287E+02  0.00000000000E+00 0.  1.
</event>
<event>
 8    1  0.7977359E-012  0.9118800E+02  0.7816164E-02  0.1184000E+00
        -11   -1    0    0    0    0  0.00000000000E+00  0.00000000000E+00  0.45593999997E+02  0.45594000000E+02  0.51100000000E-03 0. -1.
         11   -1    0    0    0    0 -0.00000000000E+00 -0.00000000000E+00 -0.45593999997E+02  0.45594000000E+02  0.51100000000E-03 0.  1.
         23    2    1    2    0    0  0.00000000000E+00 -0.17763568394E-14  0.00000000000E+00  0.91188000000E+02  0.91188000000E+02 0.  0.
    9900012    2    3    3    0    0  0.16619043509E+02  0.13054202504E+02  0.34735586016E+02  0.50528859010E+02  0.29999997446E+02 0.  0.
        -12    1    3    3    0    0 -0.16619043509E+02 -0.13054202504E+02 -0.34735586016E+02  0.40659140990E+02  0.00000000000E+00 0.  1.
         11    1    4    4    0    0  0.12582135834E+02  0.67705185576E+01  0.10667000338E+02  0.17830730780E+02  0.51100000000E-03 0. -1.
        -11    1    4    4    0    0  0.90352880478E+01  0.11310575999E+02  0.12479924880E+02  0.19113191382E+02  0.51100000000E-03 0.  1.
        -12    1    4    4    0    0 -0.49983803730E+01 -0.50268920525E+01  0.11588660798E+02  0.13584936848E+02  0.00000000000E+00 0.  1.
</event>
<event>
 8    1  0.7977359E-012  0.9118800E+02  0.7816164E-02  0.1184000E+00
        -11   -1    0    0    0    0  0.00000000000E+00  0.00000000000E+00  0.45593999997E+02  0.45594000000E+02  0.51100000000E-03 0. -1.
         11   -1    0    0    0    0 -0.00000000000E+00 -0.00000000000E+00 -0.45593999997E+02  0.45594000000E+02  0.51100000000E-03 0.  1.
         23    2    1    2    0    0  0.35527136788E-14  0.00000000000E+00  0.00000000000E+00  0.91188000000E+02  0.91188000000E+02 0.  0.
    9900012    2    3    3    0    0  0.26565557168E+02 -0.10993820917E+01 -0.30760844350E+02  0.50528843420E+02  0.29999950060E+02 0.  0.
         12    1    3    3    0    0 -0.26565557168E+02  0.10993820917E+01  0.30760844350E+02  0.40659156580E+02  0.00000000000E+00 0. -1.
         11    1    4    4    0    0  0.90486618457E+01  0.10778132875E+01 -0.35504710471E+01  0.97798674632E+01  0.51100000000E-03 0.  1.
        -11    1    4    4    0    0  0.14891094239E+02 -0.32108397171E+01 -0.19802102021E+01  0.15361491205E+02  0.51100000000E-03 0. -1.
         12    1    4    4    0    0  0.26258010834E+01  0.10336443379E+01 -0.25230163101E+02  0.25387484752E+02  0.00000000000E+00 0. -1.
</event>
<event>
 8    1  0.7977359E-012  0.9118800E+02  0.7816164E-02  0.1184000E+00
        -11   -1    0    0    0    0  0.00000000000E+00  0.00000000000E+00  0.45593999997E+02  0.45594000000E+02  0.51100000000E-03 0. -1.
         11   -1    0    0    0    0 -0.00000000000E+00 -0.00000000000E+00 -0.45593999997E+02  0.45594000000E+02  0.51100000000E-03 0.  1.
         23    2    1    2    0    0 -0.35527136788E-14  0.88817841970E-15 -0.35527136788E-14  0.91188000000E+02  0.91188000000E+02 0.  0.
    9900012    2    3    3    0    0  0.31716359953E+02 -0.22925541710E+01 -0.25337371556E+02  0.50528859691E+02  0.29999999517E+02 0.  0.
         12    1    3    3    0    0 -0.31716359953E+02  0.22925541710E+01  0.25337371556E+02  0.40659140309E+02  0.00000000000E+00 0. -1.
         11    1    4    4    0    0  0.11694712403E+02 -0.16880645934E+00 -0.26189736635E+01  0.11985567034E+02  0.51100000000E-03 0. -1.
        -11    1    4    4    0    0  0.19429566035E+02 -0.82932627542E+01 -0.24247685910E+02  0.32159547814E+02  0.51100000000E-03 0.  1.
        -12    1    4    4    0    0  0.59208151471E+00  0.61695150425E+01  0.15292880167E+01  0.63837448428E+01  0.00000000000E+00 0.  1.
</event>
<event>
 8    1  0.7977359E-012  0.9118800E+02  0.7816164E-02  0.1184000E+00
        -11   -1    0    0    0    0  0.00000000000E+00  0.00000000000E+00  0.45593999997E+02  0.45594000000E+02  0.51100000000E-03 0. -1.
         11   -1    0    0    0    0 -0.00000000000E+00 -0.00000000000E+00 -0.45593999997E+02  0.45594000000E+02  0.51100000000E-03 0.  1.
         23    2    1    2    0    0 -0.88817841970E-15  0.17763568394E-14  0.71054273576E-14  0.91188000000E+02  0.91188000000E+02 0.  0.
    9900012    2    3    3    0    0 -0.79810273830E+01  0.84915388181E+01  0.38953335523E+02  0.50528863537E+02  0.30000011206E+02 0.  0.
        -12    1    3    3    0    0  0.79810273830E+01 -0.84915388181E+01 -0.38953335523E+02  0.40659136463E+02  0.00000000000E+00 0.  1.
         11    1    4    4    0    0 -0.27984253253E+01 -0.25647687062E+01 -0.61085242663E+00  0.38447839687E+01  0.51100000000E-03 0. -1.
        -11    1    4    4    0    0  0.54607108942E+01 -0.14645304381E+01  0.21642118638E+02  0.22368404330E+02  0.51100000000E-03 0.  1.
         12    1    4    4    0    0 -0.10643312952E+02  0.12520837962E+02  0.17922069311E+02  0.24315675238E+02  0.00000000000E+00 0. -1.
</event>
<event>
 8    1  0.7977359E-012  0.9118800E+02  0.7816164E-02  0.1184000E+00
        -11   -1    0    0    0    0  0.00000000000E+00  0.00000000000E+00  0.45593999997E+02  0.45594000000E+02  0.51100000000E-03 0.  1.
         11   -1    0    0    0    0 -0.00000000000E+00 -0.00000000000E+00 -0.45593999997E+02  0.45594000000E+02  0.51100000000E-03 0. -1.
         23    2    1    2    0    0  0.71054273576E-14 -0.55511151231E-16  0.00000000000E+00  0.91188000000E+02  0.91188000000E+02 0.  0.
    9900012    2    3    3    0    0 -0.40592332458E+02  0.44322058678E+00 -0.22875598825E+01  0.50528845692E+02  0.29999956964E+02 0.  0.
         12    1    3    3    0    0  0.40592332458E+02 -0.44322058678E+00  0.22875598825E+01  0.40659154308E+02  0.00000000000E+00 0. -1.
         11    1    4    4    0    0 -0.21220795626E+02  0.65373159448E+01 -0.81534071049E+01  0.23654528413E+02  0.51100000000E-03 0. -1.
        -11    1    4    4    0    0  0.29587699253E+01 -0.11196948746E+01 -0.30728090902E+00  0.31784363925E+01  0.51100000000E-03 0.  1.
        -12    1    4    4    0    0 -0.22330306757E+02 -0.49744004835E+01  0.61731281315E+01  0.23695880886E+02  0.00000000000E+00 0.  1.
</event>
<event>
 8    1  0.7977359E-012  0.9118800E+02  0.7816164E-02  0.1184000E+00
        -11   -1    0    0    0    0  0.00000000000E+00  0.00000000000E+00  0.45593999997E+02  0.45594000000E+02  0.51100000000E-03 0. -1.
         11   -1    0    0    0    0 -0.00000000000E+00 -0.00000000000E+00 -0.45593999997E+02  0.45594000000E+02  0.51100000000E-03 0.  1.
         23    2    1    2    0    0  0.88817841970E-15 -0.44408920985E-15  0.00000000000E+00  0.91188000000E+02  0.91188000000E+02 0.  0.
    9900012    2    3    3    0    0  0.49723244292E+01  0.38264267331E+01  0.40172127518E+02  0.50528863498E+02  0.30000011088E+02 0.  0.
        -12    1    3    3    0    0 -0.49723244292E+01 -0.38264267331E+01 -0.40172127518E+02  0.40659136502E+02  0.00000000000E+00 0.  1.
         11    1    4    4    0    0 -0.48629712374E+01 -0.33615955742E+01  0.16010278663E+02  0.17066863719E+02  0.51100000000E-03 0. -1.
        -11    1    4    4    0    0  0.12341743708E+02  0.89884955981E+01  0.25791633513E+02  0.29971987761E+02  0.51100000000E-03 0.  1.
         12    1    4    4    0    0 -0.25064480413E+01 -0.18004732908E+01 -0.16297846574E+01  0.34900120177E+01  0.00000000000E+00 0. -1.
</event>
<event>
 8    1  0.7977359E-012  0.9118800E+02  0.7816164E-02  0.1184000E+00
        -11   -1    0    0    0    0  0.00000000000E+00  0.00000000000E+00  0.45593999997E+02  0.45594000000E+02  0.51100000000E-03 0. -1.
         11   -1    0    0    0    0 -0.00000000000E+00 -0.00000000000E+00 -0.45593999997E+02  0.45594000000E+02  0.51100000000E-03 0.  1.
         23    2    1    2    0    0  0.00000000000E+00 -0.35527136788E-14  0.35527136788E-14  0.91188000000E+02  0.91188000000E+02 0.  0.
    9900012    2    3    3    0    0  0.19032933282E+02  0.27588536724E+02 -0.23017078080E+02  0.50528858454E+02  0.29999995757E+02 0.  0.
         12    1    3    3    0    0 -0.19032933282E+02 -0.27588536724E+02  0.23017078080E+02  0.40659141546E+02  0.00000000000E+00 0. -1.
         11    1    4    4    0    0  0.60438009259E+00  0.14678989989E+01  0.67505292247E+00  0.17250215873E+01  0.51100000000E-03 0. -1.
        -11    1    4    4    0    0  0.23303478952E+01  0.19396639340E+02 -0.19365294307E+00  0.19537083732E+02  0.51100000000E-03 0.  1.
         12    1    4    4    0    0  0.16098205294E+02  0.67239983850E+01 -0.23498478060E+02  0.29266753135E+02  0.00000000000E+00 0. -1.
</event>
<event>
 8    1  0.7977359E-012  0.9118800E+02  0.7816164E-02  0.1184000E+00
        -11   -1    0    0    0    0  0.00000000000E+00  0.00000000000E+00  0.45593999997E+02  0.45594000000E+02  0.51100000000E-03 0. -1.
         11   -1    0    0    0    0 -0.00000000000E+00 -0.00000000000E+00 -0.45593999997E+02  0.45594000000E+02  0.51100000000E-03 0.  1.
         23    2    1    2    0    0 -0.88817841970E-15 -0.44408920985E-15  0.00000000000E+00  0.91188000000E+02  0.91188000000E+02 0.  0.
    9900012    2    3    3    0    0  0.51719483260E+01 -0.19550295842E+01 -0.40281442213E+02  0.50528858630E+02  0.29999996293E+02 0.  0.
         12    1    3    3    0    0 -0.51719483260E+01  0.19550295842E+01  0.40281442213E+02  0.40659141370E+02  0.00000000000E+00 0. -1.
         11    1    4    4    0    0  0.70063681049E+00 -0.32035995334E+01  0.22890020532E+01  0.39991839882E+01  0.51100000000E-03 0. -1.
        -11    1    4    4    0    0 -0.47810343586E+01 -0.27623127588E+01 -0.29546394396E+02  0.30057912159E+02  0.51100000000E-03 0.  1.
         12    1    4    4    0    0  0.92523458742E+01  0.40108827079E+01 -0.13024049870E+02  0.16471762483E+02  0.00000000000E+00 0. -1.
</event>
<event>
 8    1  0.7977359E-012  0.9118800E+02  0.7816164E-02  0.1184000E+00
        -11   -1    0    0    0    0  0.00000000000E+00  0.00000000000E+00  0.45593999997E+02  0.45594000000E+02  0.51100000000E-03 0. -1.
         11   -1    0    0    0    0 -0.00000000000E+00 -0.00000000000E+00 -0.45593999997E+02  0.45594000000E+02  0.51100000000E-03 0.  1.
         23    2    1    2    0    0 -0.88817841970E-15  0.00000000000E+00 -0.71054273576E-14  0.91188000000E+02  0.91188000000E+02 0.  0.
    9900012    2    3    3    0    0 -0.74591085227E+01  0.12731949181E+02 -0.37886990092E+02  0.50528870052E+02  0.30000031011E+02 0.  0.
         12    1    3    3    0    0  0.74591085227E+01 -0.12731949181E+02  0.37886990092E+02  0.40659129948E+02  0.00000000000E+00 0. -1.
         11    1    4    4    0    0 -0.41004821894E+01  0.98799093328E+01 -0.35441767193E+01  0.11268884217E+02  0.51100000000E-03 0. -1.
        -11    1    4    4    0    0 -0.99593591559E+01  0.60534846648E+01 -0.19933150320E+02  0.23090344157E+02  0.51100000000E-03 0.  1.
         12    1    4    4    0    0  0.66007328226E+01 -0.32014448162E+01 -0.14409663053E+02  0.16169641678E+02  0.00000000000E+00 0. -1.
</event>
<event>
 8    1  0.7977359E-012  0.9118800E+02  0.7816164E-02  0.1184000E+00
        -11   -1    0    0    0    0  0.00000000000E+00  0.00000000000E+00  0.45593999997E+02  0.45594000000E+02  0.51100000000E-03 0. -1.
         11   -1    0    0    0    0 -0.00000000000E+00 -0.00000000000E+00 -0.45593999997E+02  0.45594000000E+02  0.51100000000E-03 0.  1.
         23    2    1    2    0    0 -0.35527136788E-14  0.00000000000E+00  0.00000000000E+00  0.91188000000E+02  0.91188000000E+02 0.  0.
    9900012    2    3    3    0    0  0.27446594842E+02  0.13381366523E+02 -0.26847576276E+02  0.50528820343E+02  0.29999879915E+02 0.  0.
         12    1    3    3    0    0 -0.27446594842E+02 -0.13381366523E+02  0.26847576276E+02  0.40659179657E+02  0.00000000000E+00 0. -1.
         11    1    4    4    0    0  0.11091573739E+02  0.40998083269E+01  0.45391607464E+01  0.12666310310E+02  0.51100000000E-03 0. -1.
        -11    1    4    4    0    0  0.51479306422E+01  0.25132817806E+01 -0.27076097619E+01  0.63363180230E+01  0.51100000000E-03 0.  1.
        -12    1    4    4    0    0  0.11207090461E+02  0.67682764157E+01 -0.28679127261E+02  0.31526192010E+02  0.00000000000E+00 0.  1.
</event>
<event>
 8    1  0.7977359E-012  0.9118800E+02  0.7816164E-02  0.1184000E+00
        -11   -1    0    0    0    0  0.00000000000E+00  0.00000000000E+00  0.45593999997E+02  0.45594000000E+02  0.51100000000E-03 0.  1.
         11   -1    0    0    0    0 -0.00000000000E+00 -0.00000000000E+00 -0.45593999997E+02  0.45594000000E+02  0.51100000000E-03 0. -1.
         23    2    1    2    0    0 -0.35527136788E-14  0.00000000000E+00  0.00000000000E+00  0.91188000000E+02  0.91188000000E+02 0.  0.
    9900012    2    3    3    0    0 -0.25019413450E+02  0.19423630433E+02 -0.25493472556E+02  0.50528860664E+02  0.30000002474E+02 0.  0.
         12    1    3    3    0    0  0.25019413450E+02 -0.19423630433E+02  0.25493472556E+02  0.40659139336E+02  0.00000000000E+00 0. -1.
         11    1    4    4    0    0 -0.14725873243E+02  0.77483474649E+01 -0.46506279566E+01  0.17277632125E+02  0.51100000000E-03 0. -1.
        -11    1    4    4    0    0 -0.13768259805E+02  0.42494103597E+01 -0.47181243384E+01  0.15161898430E+02  0.51100000000E-03 0.  1.
         12    1    4    4    0    0  0.34747195979E+01  0.74258726088E+01 -0.16124720261E+02  0.18089330109E+02  0.00000000000E+00 0. -1.
</event>
<event>
 8    1  0.7977359E-012  0.9118800E+02  0.7816164E-02  0.1184000E+00
        -11   -1    0    0    0    0  0.00000000000E+00  0.00000000000E+00  0.45593999997E+02  0.45594000000E+02  0.51100000000E-03 0.  1.
         11   -1    0    0    0    0 -0.00000000000E+00 -0.00000000000E+00 -0.45593999997E+02  0.45594000000E+02  0.51100000000E-03 0. -1.
         23    2    1    2    0    0 -0.71054273576E-14  0.00000000000E+00  0.88817841970E-15  0.91188000000E+02  0.91188000000E+02 0.  0.
    9900012    2    3    3    0    0 -0.36384198862E+02 -0.18131798720E+02 -0.77038987019E+00  0.50528861394E+02  0.30000004693E+02 0.  0.
         12    1    3    3    0    0  0.36384198862E+02  0.18131798720E+02  0.77038987019E+00  0.40659138606E+02  0.00000000000E+00 0. -1.
         11    1    4    4    0    0 -0.79515876360E+01 -0.19635095695E+01 -0.34142614993E+00  0.81975415729E+01  0.51100000000E-03 0. -1.
        -11    1    4    4    0    0 -0.27572075682E+02 -0.12857573501E+02 -0.10114124752E+02  0.32059820235E+02  0.51100000000E-03 0.  1.
        -12    1    4    4    0    0 -0.86053554378E+00 -0.33107156495E+01  0.96851610315E+01  0.10271499586E+02  0.00000000000E+00 0.  1.
</event>
<event>
 8    1  0.7977359E-012  0.9118800E+02  0.7816164E-02  0.1184000E+00
        -11   -1    0    0    0    0  0.00000000000E+00  0.00000000000E+00  0.45593999997E+02  0.45594000000E+02  0.51100000000E-03 0.  1.
         11   -1    0    0    0    0 -0.00000000000E+00 -0.00000000000E+00 -0.45593999997E+02  0.45594000000E+02  0.51100000000E-03 0. -1.
         23    2    1    2    0    0 -0.17763568394E-14  0.00000000000E+00  0.00000000000E+00  0.91188000000E+02  0.91188000000E+02 0.  0.
    9900012    2    3    3    0    0 -0.10048832248E+02  0.26020743058E+02  0.29582203193E+02  0.50528870095E+02  0.30000031141E+02 0.  0.
        -12    1    3    3    0    0  0.10048832248E+02 -0.26020743058E+02 -0.29582203193E+02  0.40659129905E+02  0.00000000000E+00 0.  1.
         11    1    4    4    0    0 -0.36057134594E+01 -0.35730279559E+01  0.22958608044E+01  0.55712364354E+01  0.51100000000E-03 0. -1.
        -11    1    4    4    0    0  0.55746432432E+01  0.17054214181E+02  0.17293188228E+02  0.24919414679E+02  0.51100000000E-03 0.  1.
         12    1    4    4    0    0 -0.12017762032E+02  0.12539556833E+02  0.99931541610E+01  0.20038218980E+02  0.00000000000E+00 0. -1.
</event>
<event>
 8    1  0.7977359E-012  0.9118800E+02  0.7816164E-02  0.1184000E+00
        -11   -1    0    0    0    0  0.00000000000E+00  0.00000000000E+00  0.45593999997E+02  0.45594000000E+02  0.51100000000E-03 0. -1.
         11   -1    0    0    0    0 -0.00000000000E+00 -0.00000000000E+00 -0.45593999997E+02  0.45594000000E+02  0.51100000000E-03 0.  1.
         23    2    1    2    0    0  0.00000000000E+00  0.00000000000E+00  0.35527136788E-14  0.91188000000E+02  0.91188000000E+02 0.  0.
    9900012    2    3    3    0    0 -0.46597634649E+01 -0.34430443528E+02 -0.21118684347E+02  0.50528835404E+02  0.29999925695E+02 0.  0.
         12    1    3    3    0    0  0.46597634649E+01  0.34430443528E+02  0.21118684347E+02  0.40659164596E+02  0.00000000000E+00 0. -1.
         11    1    4    4    0    0 -0.72787319340E+01 -0.16961058912E+02 -0.13299821008E+02  0.22749564767E+02  0.51100000000E-03 0. -1.
        -11    1    4    4    0    0 -0.36676155464E+01  0.13043413651E+01 -0.69451778956E+01  0.79616710844E+01  0.51100000000E-03 0.  1.
         12    1    4    4    0    0  0.62865840155E+01 -0.18773725981E+02 -0.87368544342E+00  0.19817599553E+02  0.00000000000E+00 0. -1.
</event>
<event>
 8    1  0.7977359E-012  0.9118800E+02  0.7816164E-02  0.1184000E+00
        -11   -1    0    0    0    0  0.00000000000E+00  0.00000000000E+00  0.45593999997E+02  0.45594000000E+02  0.51100000000E-03 0. -1.
         11   -1    0    0    0    0 -0.00000000000E+00 -0.00000000000E+00 -0.45593999997E+02  0.45594000000E+02  0.51100000000E-03 0.  1.
         23    2    1    2    0    0  0.00000000000E+00  0.00000000000E+00 -0.14210854715E-13  0.91188000000E+02  0.91188000000E+02 0.  0.
    9900012    2    3    3    0    0 -0.51511987595E+01 -0.15109915625E+02  0.37394120617E+02  0.50528872420E+02  0.30000038207E+02 0.  0.
        -12    1    3    3    0    0  0.51511987595E+01  0.15109915625E+02 -0.37394120617E+02  0.40659127580E+02  0.00000000000E+00 0.  1.
         11    1    4    4    0    0  0.28341018458E+01 -0.10508526135E+02  0.37191203640E+02  0.38751088801E+02  0.51100000000E-03 0. -1.
        -11    1    4    4    0    0 -0.37764981798E+00  0.10726877283E+01  0.18242482175E+01  0.21496883884E+01  0.51100000000E-03 0.  1.
        -12    1    4    4    0    0 -0.76076507873E+01 -0.56740772183E+01 -0.16213312401E+01  0.96280952307E+01  0.00000000000E+00 0.  1.
</event>
<event>
 8    1  0.7977359E-012  0.9118800E+02  0.7816164E-02  0.1184000E+00
        -11   -1    0    0    0    0  0.00000000000E+00  0.00000000000E+00  0.45593999997E+02  0.45594000000E+02  0.51100000000E-03 0. -1.
         11   -1    0    0    0    0 -0.00000000000E+00 -0.00000000000E+00 -0.45593999997E+02  0.45594000000E+02  0.51100000000E-03 0.  1.
         23    2    1    2    0    0  0.00000000000E+00  0.00000000000E+00 -0.35527136788E-14  0.91188000000E+02  0.91188000000E+02 0.  0.
    9900012    2    3    3    0    0 -0.97655593537E+01 -0.30306013546E+02  0.25285400042E+02  0.50528781342E+02  0.29999761367E+02 0.  0.
        -12    1    3    3    0    0  0.97655593537E+01  0.30306013546E+02 -0.25285400042E+02  0.40659218658E+02  0.00000000000E+00 0.  1.
         11    1    4    4    0    0  0.79886653037E+01 -0.38343182038E+01  0.65862381629E+01  0.11040801729E+02  0.51100000000E-03 0.  1.
        -11    1    4    4    0    0 -0.43589555196E+01 -0.13817817913E+02  0.14683397526E+02  0.20628493601E+02  0.51100000000E-03 0. -1.
         12    1    4    4    0    0 -0.13395269138E+02 -0.12653877430E+02  0.40157643530E+01  0.18859486012E+02  0.00000000000E+00 0. -1.
</event>
<event>
 8    1  0.7977359E-012  0.9118800E+02  0.7816164E-02  0.1184000E+00
        -11   -1    0    0    0    0  0.00000000000E+00  0.00000000000E+00  0.45593999997E+02  0.45594000000E+02  0.51100000000E-03 0. -1.
         11   -1    0    0    0    0 -0.00000000000E+00 -0.00000000000E+00 -0.45593999997E+02  0.45594000000E+02  0.51100000000E-03 0.  1.
         23    2    1    2    0    0  0.66613381478E-15  0.00000000000E+00  0.00000000000E+00  0.91188000000E+02  0.91188000000E+02 0.  0.
    9900012    2    3    3    0    0  0.18084991210E+01 -0.13371068728E+02 -0.38355044155E+02  0.50528861296E+02  0.30000004396E+02 0.  0.
         12    1    3    3    0    0 -0.18084991210E+01  0.13371068728E+02  0.38355044155E+02  0.40659138704E+02  0.00000000000E+00 0. -1.
         11    1    4    4    0    0  0.44435382918E+01 -0.57327764771E+01 -0.57734049331E+01  0.92704888474E+01  0.51100000000E-03 0. -1.
        -11    1    4    4    0    0 -0.68897424323E+01 -0.70229379395E+01 -0.34978938130E+02  0.36336157213E+02  0.51100000000E-03 0.  1.
         12    1    4    4    0    0  0.42547032615E+01 -0.61535431179E+00  0.23972989079E+01  0.49222152357E+01  0.00000000000E+00 0. -1.
</event>
<event>
 8    1  0.7977359E-012  0.9118800E+02  0.7816164E-02  0.1184000E+00
        -11   -1    0    0    0    0  0.00000000000E+00  0.00000000000E+00  0.45593999997E+02  0.45594000000E+02  0.51100000000E-03 0. -1.
         11   -1    0    0    0    0 -0.00000000000E+00 -0.00000000000E+00 -0.45593999997E+02  0.45594000000E+02  0.51100000000E-03 0.  1.
         23    2    1    2    0    0  0.00000000000E+00  0.00000000000E+00  0.00000000000E+00  0.91188000000E+02  0.91188000000E+02 0.  0.
    9900012    2    3    3    0    0  0.20654327447E+02  0.24935760960E+02 -0.24592116053E+02  0.50528860942E+02  0.30000003320E+02 0.  0.
         12    1    3    3    0    0 -0.20654327447E+02 -0.24935760960E+02  0.24592116053E+02  0.40659139058E+02  0.00000000000E+00 0. -1.
         11    1    4    4    0    0  0.50356885874E+01 -0.11593329722E+01  0.35529183103E+01  0.62710000215E+01  0.51100000000E-03 0. -1.
        -11    1    4    4    0    0  0.53559680924E+01  0.15353546611E+02 -0.54830508713E+01  0.17160467210E+02  0.51100000000E-03 0.  1.
         12    1    4    4    0    0  0.10262670767E+02  0.10741547321E+02 -0.22661983492E+02  0.27097393711E+02  0.00000000000E+00 0. -1.
</event>
<event>
 8    1  0.7977359E-012  0.9118800E+02  0.7816164E-02  0.1184000E+00
        -11   -1    0    0    0    0  0.00000000000E+00  0.00000000000E+00  0.45593999997E+02  0.45594000000E+02  0.51100000000E-03 0. -1.
         11   -1    0    0    0    0 -0.00000000000E+00 -0.00000000000E+00 -0.45593999997E+02  0.45594000000E+02  0.51100000000E-03 0.  1.
         23    2    1    2    0    0  0.00000000000E+00 -0.88817841970E-15 -0.71054273576E-14  0.91188000000E+02  0.91188000000E+02 0.  0.
    9900012    2    3    3    0    0  0.63920298960E+01 -0.69827605493E+01 -0.39541735336E+02  0.50528858046E+02  0.29999994516E+02 0.  0.
         12    1    3    3    0    0 -0.63920298960E+01  0.69827605493E+01  0.39541735336E+02  0.40659141954E+02  0.00000000000E+00 0. -1.
         11    1    4    4    0    0  0.67866486135E+01  0.33407366008E+01 -0.20908907373E+02  0.22235141741E+02  0.51100000000E-03 0. -1.
        -11    1    4    4    0    0  0.83021044267E+01 -0.17214401649E+01 -0.10949971214E+02  0.13848832586E+02  0.51100000000E-03 0.  1.
        -12    1    4    4    0    0 -0.86967231442E+01 -0.86020569851E+01 -0.76828567486E+01  0.14444883719E+02  0.00000000000E+00 0.  1.
</event>
<event>
 8    1  0.7977359E-012  0.9118800E+02  0.7816164E-02  0.1184000E+00
        -11   -1    0    0    0    0  0.00000000000E+00  0.00000000000E+00  0.45593999997E+02  0.45594000000E+02  0.51100000000E-03 0. -1.
         11   -1    0    0    0    0 -0.00000000000E+00 -0.00000000000E+00 -0.45593999997E+02  0.45594000000E+02  0.51100000000E-03 0.  1.
         23    2    1    2    0    0  0.00000000000E+00  0.00000000000E+00  0.00000000000E+00  0.91188000000E+02  0.91188000000E+02 0.  0.
    9900012    2    3    3    0    0 -0.10032272365E+02 -0.11101081399E+02 -0.37805887424E+02  0.50528860548E+02  0.30000002123E+02 0.  0.
         12    1    3    3    0    0  0.10032272365E+02  0.11101081399E+02  0.37805887424E+02  0.40659139452E+02  0.00000000000E+00 0. -1.
         11    1    4    4    0    0  0.65449940116E+01 -0.21869043440E+01 -0.17954520019E+02  0.19234975607E+02  0.51100000000E-03 0. -1.
        -11    1    4    4    0    0 -0.78688045579E+01 -0.67322181091E+01 -0.19767546662E+02  0.22315840722E+02  0.51100000000E-03 0.  1.
        -12    1    4    4    0    0 -0.87084618182E+01 -0.21819589463E+01 -0.83820742490E-01  0.89780442191E+01  0.00000000000E+00 0.  1.
</event>
<event>
 8    1  0.7977359E-012  0.9118800E+02  0.7816164E-02  0.1184000E+00
        -11   -1    0    0    0    0  0.00000000000E+00  0.00000000000E+00  0.45593999997E+02  0.45594000000E+02  0.51100000000E-03 0.  1.
         11   -1    0    0    0    0 -0.00000000000E+00 -0.00000000000E+00 -0.45593999997E+02  0.45594000000E+02  0.51100000000E-03 0. -1.
         23    2    1    2    0    0  0.00000000000E+00  0.71054273576E-14 -0.88817841970E-15  0.91188000000E+02  0.91188000000E+02 0.  0.
    9900012    2    3    3    0    0  0.23706280239E+02  0.32577643786E+02  0.54657716783E+01  0.50528865018E+02  0.30000015710E+02 0.  0.
        -12    1    3    3    0    0 -0.23706280239E+02 -0.32577643786E+02 -0.54657716783E+01  0.40659134982E+02  0.00000000000E+00 0.  1.
         11    1    4    4    0    0  0.85525622500E+01  0.19736125114E+01 -0.74580953662E+01  0.11518014331E+02  0.51100000000E-03 0. -1.
        -11    1    4    4    0    0  0.39141076035E+01  0.15690867192E+02 -0.22246605353E+00  0.16173219932E+02  0.51100000000E-03 0.  1.
        -12    1    4    4    0    0  0.11239610386E+02  0.14913164083E+02  0.13146333098E+02  0.22837630755E+02  0.00000000000E+00 0.  1.
</event>
<event>
 8    1  0.7977359E-012  0.9118800E+02  0.7816164E-02  0.1184000E+00
        -11   -1    0    0    0    0  0.00000000000E+00  0.00000000000E+00  0.45593999997E+02  0.45594000000E+02  0.51100000000E-03 0. -1.
         11   -1    0    0    0    0 -0.00000000000E+00 -0.00000000000E+00 -0.45593999997E+02  0.45594000000E+02  0.51100000000E-03 0.  1.
         23    2    1    2    0    0 -0.35527136788E-14  0.35527136788E-14  0.00000000000E+00  0.91188000000E+02  0.91188000000E+02 0.  0.
    9900012    2    3    3    0    0 -0.22423490980E+02  0.17450153917E+02 -0.29083418275E+02  0.50528855419E+02  0.29999986532E+02 0.  0.
         12    1    3    3    0    0  0.22423490980E+02 -0.17450153917E+02  0.29083418275E+02  0.40659144581E+02  0.00000000000E+00 0. -1.
         11    1    4    4    0    0  0.63078197712E+01  0.37170962287E+01 -0.32833746863E+01  0.80240852582E+01  0.51100000000E-03 0.  1.
        -11    1    4    4    0    0 -0.83551873870E+01  0.20345905505E+01 -0.15473958241E+01  0.87374566711E+01  0.51100000000E-03 0. -1.
        -12    1    4    4    0    0 -0.20376123364E+02  0.11698467138E+02 -0.24252647765E+02  0.33767313490E+02  0.00000000000E+00 0.  1.
</event>
<event>
 8    1  0.7977359E-012  0.9118800E+02  0.7816164E-02  0.1184000E+00
        -11   -1    0    0    0    0  0.00000000000E+00  0.00000000000E+00  0.45593999997E+02  0.45594000000E+02  0.51100000000E-03 0. -1.
         11   -1    0    0    0    0 -0.00000000000E+00 -0.00000000000E+00 -0.45593999997E+02  0.45594000000E+02  0.51100000000E-03 0.  1.
         23    2    1    2    0    0  0.17763568394E-14 -0.17763568394E-14  0.00000000000E+00  0.91188000000E+02  0.91188000000E+02 0.  0.
    9900012    2    3    3    0    0  0.11526381772E+02 -0.14236934250E+02  0.36298995385E+02  0.50528870158E+02  0.30000031332E+02 0.  0.
        -12    1    3    3    0    0 -0.11526381772E+02  0.14236934250E+02 -0.36298995385E+02  0.40659129842E+02  0.00000000000E+00 0.  1.
         11    1    4    4    0    0  0.21530513064E+01 -0.14398713164E+02  0.12836853662E+02  0.19409878488E+02  0.51100000000E-03 0. -1.
        -11    1    4    4    0    0 -0.46747775185E+01 -0.35981275794E+01  0.66090450417E+01  0.88588680738E+01  0.51100000000E-03 0.  1.
        -12    1    4    4    0    0  0.14048107984E+02  0.37599064942E+01  0.16853096681E+02  0.22260123596E+02  0.00000000000E+00 0.  1.
</event>
<event>
 8    1  0.7977359E-012  0.9118800E+02  0.7816164E-02  0.1184000E+00
        -11   -1    0    0    0    0  0.00000000000E+00  0.00000000000E+00  0.45593999997E+02  0.45594000000E+02  0.51100000000E-03 0. -1.
         11   -1    0    0    0    0 -0.00000000000E+00 -0.00000000000E+00 -0.45593999997E+02  0.45594000000E+02  0.51100000000E-03 0.  1.
         23    2    1    2    0    0 -0.17763568394E-14  0.00000000000E+00  0.71054273576E-14  0.91188000000E+02  0.91188000000E+02 0.  0.
    9900012    2    3    3    0    0 -0.14494407868E+02  0.17825374388E+02  0.33545994417E+02  0.50528861138E+02  0.30000003916E+02 0.  0.
        -12    1    3    3    0    0  0.14494407868E+02 -0.17825374388E+02 -0.33545994417E+02  0.40659138862E+02  0.00000000000E+00 0.  1.
         11    1    4    4    0    0  0.76376344025E+00  0.13391653579E+02  0.19294213810E+02  0.23498646918E+02  0.51100000000E-03 0.  1.
        -11    1    4    4    0    0 -0.62027017505E+01  0.48412867793E+01  0.15970932086E+02  0.17803995020E+02  0.51100000000E-03 0. -1.
         12    1    4    4    0    0 -0.90554695580E+01 -0.40756597086E+00 -0.17191514786E+01  0.92262192009E+01  0.00000000000E+00 0. -1.
</event>
<event>
 8    1  0.9525569E-012  0.9118800E+02  0.7816164E-02  0.1184000E+00
        -11   -1    0    0    0    0  0.00000000000E+00  0.00000000000E+00  0.45593999997E+02  0.45594000000E+02  0.51100000000E-03 0. -1.
         11   -1    0    0    0    0 -0.00000000000E+00 -0.00000000000E+00 -0.45593999997E+02  0.45594000000E+02  0.51100000000E-03 0.  1.
         23    2    1    2    0    0 -0.71054273576E-14  0.00000000000E+00  0.00000000000E+00  0.91188000000E+02  0.91188000000E+02 0.  0.
    9900012    2    3    3    0    0 -0.27456031934E+02  0.21783444447E+02  0.20610981984E+02  0.50528871629E+02  0.30000035804E+02 0.  0.
        -12    1    3    3    0    0  0.27456031934E+02 -0.21783444447E+02 -0.20610981984E+02  0.40659128371E+02  0.00000000000E+00 0.  1.
         11    1    4    4    0    0 -0.14658149571E+02  0.93297271342E+01  0.60228418462E+01  0.18389665070E+02  0.51100000000E-03 0. -1.
        -11    1    4    4    0    0 -0.18663988626E+02  0.11519042352E+02  0.14319273744E+02  0.26193022143E+02  0.51100000000E-03 0.  1.
        -12    1    4    4    0    0  0.58661062632E+01  0.93467496107E+00  0.26886639339E+00  0.59461844162E+01  0.00000000000E+00 0.  1.
</event>
<event>
 8    1  0.8547374E-012  0.9118800E+02  0.7816164E-02  0.1184000E+00
        -11   -1    0    0    0    0  0.00000000000E+00  0.00000000000E+00  0.45593999997E+02  0.45594000000E+02  0.51100000000E-03 0. -1.
         11   -1    0    0    0    0 -0.00000000000E+00 -0.00000000000E+00 -0.45593999997E+02  0.45594000000E+02  0.51100000000E-03 0.  1.
         23    2    1    2    0    0  0.00000000000E+00  0.00000000000E+00  0.00000000000E+00  0.91188000000E+02  0.91188000000E+02 0.  0.
    9900012    2    3    3    0    0 -0.37273868858E+02 -0.71385146228E+00  0.16226949351E+02  0.50528871028E+02  0.30000033976E+02 0.  0.
        -12    1    3    3    0    0  0.37273868858E+02  0.71385146228E+00 -0.16226949351E+02  0.40659128972E+02  0.00000000000E+00 0.  1.
         11    1    4    4    0    0 -0.14179843387E+02 -0.56664163058E+01  0.10254250763E+02  0.18393637247E+02  0.51100000000E-03 0. -1.
        -11    1    4    4    0    0 -0.86131451134E+01  0.77341405319E+01  0.11566552462E+02  0.16364239506E+02  0.51100000000E-03 0.  1.
        -12    1    4    4    0    0 -0.14480880357E+02 -0.27815756884E+01 -0.55938538732E+01  0.15770994274E+02  0.00000000000E+00 0.  1.
</event>
<event>
 8    1  0.7977359E-012  0.9118800E+02  0.7816164E-02  0.1184000E+00
        -11   -1    0    0    0    0  0.00000000000E+00  0.00000000000E+00  0.45593999997E+02  0.45594000000E+02  0.51100000000E-03 0. -1.
         11   -1    0    0    0    0 -0.00000000000E+00 -0.00000000000E+00 -0.45593999997E+02  0.45594000000E+02  0.51100000000E-03 0.  1.
         23    2    1    2    0    0  0.00000000000E+00  0.00000000000E+00  0.00000000000E+00  0.91188000000E+02  0.91188000000E+02 0.  0.
    9900012    2    3    3    0    0  0.24198380535E+02  0.30808518866E+02  0.10883183648E+02  0.50528804957E+02  0.29999833146E+02 0.  0.
        -12    1    3    3    0    0 -0.24198380535E+02 -0.30808518866E+02 -0.10883183648E+02  0.40659195043E+02  0.00000000000E+00 0.  1.
         11    1    4    4    0    0  0.51562175233E+01  0.11550101344E+02 -0.39060518930E+01  0.13238151754E+02  0.51100000000E-03 0. -1.
        -11    1    4    4    0    0  0.10013364174E+01 -0.42911522625E+01  0.74682635102E+00  0.44692742387E+01  0.51100000000E-03 0.  1.
         12    1    4    4    0    0  0.18040826594E+02  0.23549569785E+02  0.14042409190E+02  0.32821378964E+02  0.00000000000E+00 0. -1.
</event>
<event>
 8    1  0.7977359E-012  0.9118800E+02  0.7816164E-02  0.1184000E+00
        -11   -1    0    0    0    0  0.00000000000E+00  0.00000000000E+00  0.45593999997E+02  0.45594000000E+02  0.51100000000E-03 0. -1.
         11   -1    0    0    0    0 -0.00000000000E+00 -0.00000000000E+00 -0.45593999997E+02  0.45594000000E+02  0.51100000000E-03 0.  1.
         23    2    1    2    0    0  0.00000000000E+00  0.00000000000E+00  0.00000000000E+00  0.91188000000E+02  0.91188000000E+02 0.  0.
    9900012    2    3    3    0    0 -0.10970142170E+02 -0.91876033534E+01 -0.38057918971E+02  0.50528914041E+02  0.30000164719E+02 0.  0.
         12    1    3    3    0    0  0.10970142170E+02  0.91876033534E+01  0.38057918971E+02  0.40659085959E+02  0.00000000000E+00 0. -1.
         11    1    4    4    0    0 -0.74485486716E+01  0.92376372674E+00 -0.29622160279E+00  0.75114555337E+01  0.51100000000E-03 0. -1.
        -11    1    4    4    0    0  0.77120632026E-01  0.47811624271E+01 -0.13512487027E+02  0.14333623675E+02  0.51100000000E-03 0.  1.
        -12    1    4    4    0    0 -0.35987141300E+01 -0.14892529507E+02 -0.24249210341E+02  0.28683834832E+02  0.00000000000E+00 0.  1.
</event>
<event>
 8    1  0.7977359E-012  0.9118800E+02  0.7816164E-02  0.1184000E+00
        -11   -1    0    0    0    0  0.00000000000E+00  0.00000000000E+00  0.45593999997E+02  0.45594000000E+02  0.51100000000E-03 0. -1.
         11   -1    0    0    0    0 -0.00000000000E+00 -0.00000000000E+00 -0.45593999997E+02  0.45594000000E+02  0.51100000000E-03 0.  1.
         23    2    1    2    0    0 -0.35527136788E-14  0.00000000000E+00  0.00000000000E+00  0.91188000000E+02  0.91188000000E+02 0.  0.
    9900012    2    3    3    0    0 -0.11118776423E+02 -0.11429971740E+02 -0.37401782235E+02  0.50528871167E+02  0.30000034398E+02 0.  0.
         12    1    3    3    0    0  0.11118776423E+02  0.11429971740E+02  0.37401782235E+02  0.40659128833E+02  0.00000000000E+00 0. -1.
         11    1    4    4    0    0 -0.69548659143E+01 -0.11061842073E+02 -0.26498385668E+02  0.29544863398E+02  0.51100000000E-03 0. -1.
        -11    1    4    4    0    0  0.24081756741E+01 -0.67158604363E+01 -0.92771988879E+01  0.11703354688E+02  0.51100000000E-03 0.  1.
         12    1    4    4    0    0 -0.65720861824E+01  0.63477307700E+01 -0.16261976795E+01  0.92806530810E+01  0.00000000000E+00 0. -1.
</event>
<event>
 8    1  0.7977359E-012  0.9118800E+02  0.7816164E-02  0.1184000E+00
        -11   -1    0    0    0    0  0.00000000000E+00  0.00000000000E+00  0.45593999997E+02  0.45594000000E+02  0.51100000000E-03 0. -1.
         11   -1    0    0    0    0 -0.00000000000E+00 -0.00000000000E+00 -0.45593999997E+02  0.45594000000E+02  0.51100000000E-03 0.  1.
         23    2    1    2    0    0  0.00000000000E+00 -0.88817841970E-15  0.71054273576E-14  0.91188000000E+02  0.91188000000E+02 0.  0.
    9900012    2    3    3    0    0  0.18012585518E+02 -0.68959920854E+01  0.35793284098E+02  0.50528841986E+02  0.29999945700E+02 0.  0.
        -12    1    3    3    0    0 -0.18012585518E+02  0.68959920854E+01 -0.35793284098E+02  0.40659158014E+02  0.00000000000E+00 0.  1.
         11    1    4    4    0    0  0.16843626580E+01 -0.23225379571E+01  0.17516967497E+01  0.33615029213E+01  0.51100000000E-03 0. -1.
        -11    1    4    4    0    0 -0.67596270954E+01 -0.36250899374E+01  0.16367798230E+02  0.18075913661E+02  0.51100000000E-03 0.  1.
         12    1    4    4    0    0  0.23087849955E+02 -0.94836419086E+00  0.17673789119E+02  0.29091425404E+02  0.00000000000E+00 0. -1.
</event>
<event>
 8    1  0.7977359E-012  0.9118800E+02  0.7816164E-02  0.1184000E+00
        -11   -1    0    0    0    0  0.00000000000E+00  0.00000000000E+00  0.45593999997E+02  0.45594000000E+02  0.51100000000E-03 0. -1.
         11   -1    0    0    0    0 -0.00000000000E+00 -0.00000000000E+00 -0.45593999997E+02  0.45594000000E+02  0.51100000000E-03 0.  1.
         23    2    1    2    0    0  0.88817841970E-15  0.00000000000E+00  0.00000000000E+00  0.91188000000E+02  0.91188000000E+02 0.  0.
    9900012    2    3    3    0    0  0.43732428128E+01 -0.38581921498E+02 -0.12061299019E+02  0.50528869990E+02  0.30000030821E+02 0.  0.
         12    1    3    3    0    0 -0.43732428128E+01  0.38581921498E+02  0.12061299019E+02  0.40659130010E+02  0.00000000000E+00 0. -1.
         11    1    4    4    0    0  0.34347157086E+01 -0.10525490848E+02 -0.40262541790E+01  0.11781084524E+02  0.51100000000E-03 0. -1.
        -11    1    4    4    0    0 -0.53717841078E+01 -0.30570764861E+02 -0.56547121496E+01  0.31550015823E+02  0.51100000000E-03 0.  1.
         12    1    4    4    0    0  0.63103112120E+01  0.25143342109E+01 -0.23803326902E+01  0.71977696429E+01  0.00000000000E+00 0. -1.
</event>
<event>
 8    1  0.7977359E-012  0.9118800E+02  0.7816164E-02  0.1184000E+00
        -11   -1    0    0    0    0  0.00000000000E+00  0.00000000000E+00  0.45593999997E+02  0.45594000000E+02  0.51100000000E-03 0. -1.
         11   -1    0    0    0    0 -0.00000000000E+00 -0.00000000000E+00 -0.45593999997E+02  0.45594000000E+02  0.51100000000E-03 0.  1.
         23    2    1    2    0    0  0.00000000000E+00  0.35527136788E-14  0.00000000000E+00  0.91188000000E+02  0.91188000000E+02 0.  0.
    9900012    2    3    3    0    0  0.52140184519E+01  0.13187520706E+02 -0.38106009156E+02  0.50528872801E+02  0.30000039367E+02 0.  0.
         12    1    3    3    0    0 -0.52140184519E+01 -0.13187520706E+02  0.38106009156E+02  0.40659127199E+02  0.00000000000E+00 0. -1.
         11    1    4    4    0    0  0.12761589303E+02  0.86851409557E+01 -0.78161380469E+01  0.17302654397E+02  0.51100000000E-03 0. -1.
        -11    1    4    4    0    0  0.85814518505E+00 -0.11251145844E+01 -0.13680240378E+00  0.14216227155E+01  0.51100000000E-03 0.  1.
        -12    1    4    4    0    0 -0.84057160366E+01  0.56274943347E+01 -0.30153068705E+02  0.31804595688E+02  0.00000000000E+00 0.  1.
</event>
<event>
 8    1  0.7977359E-012  0.9118800E+02  0.7816164E-02  0.1184000E+00
        -11   -1    0    0    0    0  0.00000000000E+00  0.00000000000E+00  0.45593999997E+02  0.45594000000E+02  0.51100000000E-03 0. -1.
         11   -1    0    0    0    0 -0.00000000000E+00 -0.00000000000E+00 -0.45593999997E+02  0.45594000000E+02  0.51100000000E-03 0.  1.
         23    2    1    2    0    0  0.00000000000E+00  0.00000000000E+00  0.00000000000E+00  0.91188000000E+02  0.91188000000E+02 0.  0.
    9900012    2    3    3    0    0  0.10194760003E+02  0.10164785875E+02 -0.38025111818E+02  0.50528866558E+02  0.30000020391E+02 0.  0.
         12    1    3    3    0    0 -0.10194760003E+02 -0.10164785875E+02  0.38025111818E+02  0.40659133442E+02  0.00000000000E+00 0. -1.
         11    1    4    4    0    0  0.41654375041E+01 -0.95523505425E+00 -0.78758645135E+01  0.89606130206E+01  0.51100000000E-03 0. -1.
        -11    1    4    4    0    0  0.60869663170E+01  0.32819730800E+01 -0.32623779494E+02  0.33348665565E+02  0.51100000000E-03 0.  1.
         12    1    4    4    0    0 -0.57643817552E-01  0.78380478491E+01  0.24745321886E+01  0.82195879730E+01  0.00000000000E+00 0. -1.
</event>
<event>
 8    1  0.7977359E-012  0.9118800E+02  0.7816164E-02  0.1184000E+00
        -11   -1    0    0    0    0  0.00000000000E+00  0.00000000000E+00  0.45593999997E+02  0.45594000000E+02  0.51100000000E-03 0. -1.
         11   -1    0    0    0    0 -0.00000000000E+00 -0.00000000000E+00 -0.45593999997E+02  0.45594000000E+02  0.51100000000E-03 0.  1.
         23    2    1    2    0    0  0.17763568394E-14  0.00000000000E+00 -0.71054273576E-14  0.91188000000E+02  0.91188000000E+02 0.  0.
    9900012    2    3    3    0    0  0.64794604074E+01 -0.16150062805E+02  0.36747221542E+02  0.50528853097E+02  0.29999979475E+02 0.  0.
        -12    1    3    3    0    0 -0.64794604074E+01  0.16150062805E+02 -0.36747221542E+02  0.40659146903E+02  0.00000000000E+00 0.  1.
         11    1    4    4    0    0  0.31703110932E+01  0.68253191530E+00  0.15932774383E+02  0.16259459464E+02  0.51100000000E-03 0. -1.
        -11    1    4    4    0    0  0.90932776707E+01 -0.64754535542E+01  0.19319392125E+02  0.22312734253E+02  0.51100000000E-03 0.  1.
        -12    1    4    4    0    0 -0.57841283565E+01 -0.10357141166E+02  0.14950550342E+01  0.11956659380E+02  0.00000000000E+00 0.  1.
</event>
<event>
 8    1  0.7977359E-012  0.9118800E+02  0.7816164E-02  0.1184000E+00
        -11   -1    0    0    0    0  0.00000000000E+00  0.00000000000E+00  0.45593999997E+02  0.45594000000E+02  0.51100000000E-03 0.  1.
         11   -1    0    0    0    0 -0.00000000000E+00 -0.00000000000E+00 -0.45593999997E+02  0.45594000000E+02  0.51100000000E-03 0. -1.
         23    2    1    2    0    0  0.71054273576E-14  0.00000000000E+00  0.00000000000E+00  0.91188000000E+02  0.91188000000E+02 0.  0.
    9900012    2    3    3    0    0  0.21906182453E+02 -0.24174443285E+02 -0.24266863740E+02  0.50528865557E+02  0.30000017349E+02 0.  0.
         12    1    3    3    0    0 -0.21906182453E+02  0.24174443285E+02  0.24266863740E+02  0.40659134443E+02  0.00000000000E+00 0. -1.
         11    1    4    4    0    0  0.22242123437E+02 -0.16895283179E+02 -0.26522989298E+02  0.38517938811E+02  0.51100000000E-03 0. -1.
        -11    1    4    4    0    0  0.91873924252E+00 -0.51787197312E+01 -0.31121772079E+01  0.61113719479E+01  0.51100000000E-03 0.  1.
        -12    1    4    4    0    0 -0.12546802261E+01 -0.21004403749E+01  0.53683027657E+01  0.58995547986E+01  0.00000000000E+00 0.  1.
</event>
<event>
 8    1  0.7977359E-012  0.9118800E+02  0.7816164E-02  0.1184000E+00
        -11   -1    0    0    0    0  0.00000000000E+00  0.00000000000E+00  0.45593999997E+02  0.45594000000E+02  0.51100000000E-03 0. -1.
         11   -1    0    0    0    0 -0.00000000000E+00 -0.00000000000E+00 -0.45593999997E+02  0.45594000000E+02  0.51100000000E-03 0.  1.
         23    2    1    2    0    0  0.00000000000E+00  0.00000000000E+00 -0.71054273576E-14  0.91188000000E+02  0.91188000000E+02 0.  0.
    9900012    2    3    3    0    0 -0.55526068223E+01  0.12234219074E+02 -0.38375215906E+02  0.50528871200E+02  0.30000034501E+02 0.  0.
         12    1    3    3    0    0  0.55526068223E+01 -0.12234219074E+02  0.38375215906E+02  0.40659128800E+02  0.00000000000E+00 0. -1.
         11    1    4    4    0    0 -0.30795603735E+01  0.58427415151E+00  0.31932011359E+01  0.44745504952E+01  0.51100000000E-03 0. -1.
        -11    1    4    4    0    0 -0.47642949561E+01 -0.19796921467E+01 -0.61057667140E+01  0.79936271399E+01  0.51100000000E-03 0.  1.
         12    1    4    4    0    0  0.22912485073E+01  0.13629637069E+02 -0.35462650328E+02  0.38060693565E+02  0.00000000000E+00 0. -1.
</event>
<event>
 8    1  0.7977359E-012  0.9118800E+02  0.7816164E-02  0.1184000E+00
        -11   -1    0    0    0    0  0.00000000000E+00  0.00000000000E+00  0.45593999997E+02  0.45594000000E+02  0.51100000000E-03 0. -1.
         11   -1    0    0    0    0 -0.00000000000E+00 -0.00000000000E+00 -0.45593999997E+02  0.45594000000E+02  0.51100000000E-03 0.  1.
         23    2    1    2    0    0  0.00000000000E+00  0.00000000000E+00  0.35527136788E-14  0.91188000000E+02  0.91188000000E+02 0.  0.
    9900012    2    3    3    0    0  0.22537756090E+02  0.16552016975E+02 -0.29516884409E+02  0.50528853665E+02  0.29999981199E+02 0.  0.
         12    1    3    3    0    0 -0.22537756090E+02 -0.16552016975E+02  0.29516884409E+02  0.40659146335E+02  0.00000000000E+00 0. -1.
         11    1    4    4    0    0  0.68311136405E+01  0.32675197527E+00 -0.16327782353E+02  0.17702185098E+02  0.51100000000E-03 0.  1.
        -11    1    4    4    0    0 -0.13981017429E+01 -0.10230655408E+01 -0.77399657626E+01  0.79314829541E+01  0.51100000000E-03 0. -1.
        -12    1    4    4    0    0  0.17104744193E+02  0.17248330540E+02 -0.54491362933E+01  0.24895185612E+02  0.00000000000E+00 0.  1.
</event>
<event>
 8    1  0.7977359E-012  0.9118800E+02  0.7816164E-02  0.1184000E+00
        -11   -1    0    0    0    0  0.00000000000E+00  0.00000000000E+00  0.45593999997E+02  0.45594000000E+02  0.51100000000E-03 0. -1.
         11   -1    0    0    0    0 -0.00000000000E+00 -0.00000000000E+00 -0.45593999997E+02  0.45594000000E+02  0.51100000000E-03 0.  1.
         23    2    1    2    0    0  0.00000000000E+00  0.17763568394E-14  0.35527136788E-14  0.91188000000E+02  0.91188000000E+02 0.  0.
    9900012    2    3    3    0    0 -0.29661933309E+02  0.10206075583E+02  0.25868341236E+02  0.50528863945E+02  0.30000012446E+02 0.  0.
        -12    1    3    3    0    0  0.29661933309E+02 -0.10206075583E+02 -0.25868341236E+02  0.40659136055E+02  0.00000000000E+00 0.  1.
         11    1    4    4    0    0 -0.11767848056E+02  0.60307208346E+01 -0.11472710351E+01  0.13272832130E+02  0.51100000000E-03 0.  1.
        -11    1    4    4    0    0 -0.21701611735E+01  0.33877654907E+01 -0.18097094030E+01  0.44115306780E+01  0.51100000000E-03 0. -1.
         12    1    4    4    0    0 -0.15723924080E+02  0.78758925749E+00  0.28825321674E+02  0.32844501137E+02  0.00000000000E+00 0. -1.
</event>
<event>
 8    1  0.7977359E-012  0.9118800E+02  0.7816164E-02  0.1184000E+00
        -11   -1    0    0    0    0  0.00000000000E+00  0.00000000000E+00  0.45593999997E+02  0.45594000000E+02  0.51100000000E-03 0. -1.
         11   -1    0    0    0    0 -0.00000000000E+00 -0.00000000000E+00 -0.45593999997E+02  0.45594000000E+02  0.51100000000E-03 0.  1.
         23    2    1    2    0    0  0.00000000000E+00  0.00000000000E+00 -0.17763568394E-14  0.91188000000E+02  0.91188000000E+02 0.  0.
    9900012    2    3    3    0    0  0.36527873815E+02  0.15765895047E+02  0.83854547333E+01  0.50528869867E+02  0.30000030446E+02 0.  0.
        -12    1    3    3    0    0 -0.36527873815E+02 -0.15765895047E+02 -0.83854547333E+01  0.40659130133E+02  0.00000000000E+00 0.  1.
         11    1    4    4    0    0  0.19549759626E+01 -0.41776504569E+01  0.50279448983E+01  0.68231169208E+01  0.51100000000E-03 0. -1.
        -11    1    4    4    0    0  0.63835117712E+01  0.12555883654E+02  0.36965620426E+01  0.14562417658E+02  0.51100000000E-03 0.  1.
        -12    1    4    4    0    0  0.28189386082E+02  0.73876618506E+01 -0.33905220755E+00  0.29143335288E+02  0.00000000000E+00 0.  1.
</event>
<event>
 8    1  0.7977359E-012  0.9118800E+02  0.7816164E-02  0.1184000E+00
        -11   -1    0    0    0    0  0.00000000000E+00  0.00000000000E+00  0.45593999997E+02  0.45594000000E+02  0.51100000000E-03 0. -1.
         11   -1    0    0    0    0 -0.00000000000E+00 -0.00000000000E+00 -0.45593999997E+02  0.45594000000E+02  0.51100000000E-03 0.  1.
         23    2    1    2    0    0 -0.88817841970E-15  0.17763568394E-14  0.00000000000E+00  0.91188000000E+02  0.91188000000E+02 0.  0.
    9900012    2    3    3    0    0 -0.54577642569E+01  0.11588831664E+02  0.38588580245E+02  0.50528846844E+02  0.29999960468E+02 0.  0.
        -12    1    3    3    0    0  0.54577642569E+01 -0.11588831664E+02 -0.38588580245E+02  0.40659153156E+02  0.00000000000E+00 0.  1.
         11    1    4    4    0    0  0.69675936958E+01  0.30655343689E+01  0.13256100757E+01  0.77267137394E+01  0.51100000000E-03 0. -1.
        -11    1    4    4    0    0 -0.19167800470E+01 -0.38214321338E+00 -0.95665862697E+00  0.21760687429E+01  0.51100000000E-03 0.  1.
         12    1    4    4    0    0 -0.10508577906E+02  0.89054405080E+01  0.38219628796E+02  0.40626064362E+02  0.00000000000E+00 0. -1.
</event>
<event>
 8    1  0.7977359E-012  0.9118800E+02  0.7816164E-02  0.1184000E+00
        -11   -1    0    0    0    0  0.00000000000E+00  0.00000000000E+00  0.45593999997E+02  0.45594000000E+02  0.51100000000E-03 0. -1.
         11   -1    0    0    0    0 -0.00000000000E+00 -0.00000000000E+00 -0.45593999997E+02  0.45594000000E+02  0.51100000000E-03 0.  1.
         23    2    1    2    0    0  0.26645352591E-14  0.00000000000E+00 -0.71054273576E-14  0.91188000000E+02  0.91188000000E+02 0.  0.
    9900012    2    3    3    0    0  0.57081983303E+01 -0.10828886240E+01  0.40241895256E+02  0.50528852078E+02  0.29999976377E+02 0.  0.
        -12    1    3    3    0    0 -0.57081983303E+01  0.10828886240E+01 -0.40241895256E+02  0.40659147922E+02  0.00000000000E+00 0.  1.
         11    1    4    4    0    0  0.36495137220E+01  0.91251150267E+00 -0.19852302343E+01  0.42535593323E+01  0.51100000000E-03 0. -1.
        -11    1    4    4    0    0  0.93528658112E+01 -0.54834187317E+01  0.24430952611E+02  0.26728550758E+02  0.51100000000E-03 0.  1.
         12    1    4    4    0    0 -0.72941812029E+01  0.34880186050E+01  0.17796172879E+02  0.19546741988E+02  0.00000000000E+00 0. -1.
</event>
<event>
 8    1  0.7977359E-012  0.9118800E+02  0.7816164E-02  0.1184000E+00
        -11   -1    0    0    0    0  0.00000000000E+00  0.00000000000E+00  0.45593999997E+02  0.45594000000E+02  0.51100000000E-03 0. -1.
         11   -1    0    0    0    0 -0.00000000000E+00 -0.00000000000E+00 -0.45593999997E+02  0.45594000000E+02  0.51100000000E-03 0.  1.
         23    2    1    2    0    0  0.00000000000E+00  0.44408920985E-15  0.00000000000E+00  0.91188000000E+02  0.91188000000E+02 0.  0.
    9900012    2    3    3    0    0 -0.14229277471E+02  0.39624140900E+01 -0.37881294350E+02  0.50528861736E+02  0.30000005731E+02 0.  0.
         12    1    3    3    0    0  0.14229277471E+02 -0.39624140900E+01  0.37881294350E+02  0.40659138264E+02  0.00000000000E+00 0. -1.
         11    1    4    4    0    0  0.48932657552E+01  0.12004273988E+01 -0.53345389225E+00  0.50665223780E+01  0.51100000000E-03 0. -1.
        -11    1    4    4    0    0 -0.63515283074E+01 -0.72817253198E+01 -0.14611666435E+02  0.17517597773E+02  0.51100000000E-03 0.  1.
        -12    1    4    4    0    0 -0.12771014919E+02  0.10043712011E+02 -0.22736174023E+02  0.27944741585E+02  0.00000000000E+00 0.  1.
</event>
<event>
 8    1  0.7977359E-012  0.9118800E+02  0.7816164E-02  0.1184000E+00
        -11   -1    0    0    0    0  0.00000000000E+00  0.00000000000E+00  0.45593999997E+02  0.45594000000E+02  0.51100000000E-03 0. -1.
         11   -1    0    0    0    0 -0.00000000000E+00 -0.00000000000E+00 -0.45593999997E+02  0.45594000000E+02  0.51100000000E-03 0.  1.
         23    2    1    2    0    0  0.88817841970E-15  0.00000000000E+00  0.00000000000E+00  0.91188000000E+02  0.91188000000E+02 0.  0.
    9900012    2    3    3    0    0  0.50233117296E+01 -0.35839412995E+02  0.18532904012E+02  0.50528859383E+02  0.29999998581E+02 0.  0.
        -12    1    3    3    0    0 -0.50233117296E+01  0.35839412995E+02 -0.18532904012E+02  0.40659140617E+02  0.00000000000E+00 0.  1.
         11    1    4    4    0    0 -0.69020638562E+01 -0.42229394854E+01  0.85324001602E+01  0.11758977682E+02  0.51100000000E-03 0. -1.
        -11    1    4    4    0    0 -0.32321991168E+01 -0.81363736742E+01  0.58163289427E+01  0.10510821582E+02  0.51100000000E-03 0.  1.
        -12    1    4    4    0    0  0.15157574703E+02 -0.23480099836E+02  0.41841749094E+01  0.28259060119E+02  0.00000000000E+00 0.  1.
</event>
<event>
 8    1  0.7977359E-012  0.9118800E+02  0.7816164E-02  0.1184000E+00
        -11   -1    0    0    0    0  0.00000000000E+00  0.00000000000E+00  0.45593999997E+02  0.45594000000E+02  0.51100000000E-03 0. -1.
         11   -1    0    0    0    0 -0.00000000000E+00 -0.00000000000E+00 -0.45593999997E+02  0.45594000000E+02  0.51100000000E-03 0.  1.
         23    2    1    2    0    0  0.35527136788E-14 -0.35527136788E-14  0.00000000000E+00  0.91188000000E+02  0.91188000000E+02 0.  0.
    9900012    2    3    3    0    0  0.23167765130E+02 -0.23681344740E+02 -0.23571464357E+02  0.50528863736E+02  0.30000011812E+02 0.  0.
         12    1    3    3    0    0 -0.23167765130E+02  0.23681344740E+02  0.23571464357E+02  0.40659136264E+02  0.00000000000E+00 0. -1.
         11    1    4    4    0    0  0.91276589064E+01 -0.35301451147E+00 -0.14852591512E+02  0.17436692669E+02  0.51100000000E-03 0. -1.
        -11    1    4    4    0    0  0.89823318856E+01 -0.10751908164E+01 -0.33638096598E+01  0.96516080050E+01  0.51100000000E-03 0.  1.
         12    1    4    4    0    0  0.50577743384E+01 -0.22253139412E+02 -0.53550631852E+01  0.23440563062E+02  0.00000000000E+00 0. -1.
</event>
<event>
 8    1  0.7977359E-012  0.9118800E+02  0.7816164E-02  0.1184000E+00
        -11   -1    0    0    0    0  0.00000000000E+00  0.00000000000E+00  0.45593999997E+02  0.45594000000E+02  0.51100000000E-03 0. -1.
         11   -1    0    0    0    0 -0.00000000000E+00 -0.00000000000E+00 -0.45593999997E+02  0.45594000000E+02  0.51100000000E-03 0.  1.
         23    2    1    2    0    0  0.00000000000E+00  0.00000000000E+00  0.00000000000E+00  0.91188000000E+02  0.91188000000E+02 0.  0.
    9900012    2    3    3    0    0 -0.28528677623E+02 -0.12058820711E+02 -0.26341319331E+02  0.50528859478E+02  0.29999998870E+02 0.  0.
         12    1    3    3    0    0  0.28528677623E+02  0.12058820711E+02  0.26341319331E+02  0.40659140522E+02  0.00000000000E+00 0. -1.
         11    1    4    4    0    0 -0.56133022306E+01  0.74844963382E+01 -0.78132080126E+01  0.12189055217E+02  0.51100000000E-03 0. -1.
        -11    1    4    4    0    0 -0.43975582448E+01 -0.10098088475E+02 -0.12575336536E+02  0.16716728108E+02  0.51100000000E-03 0.  1.
        -12    1    4    4    0    0 -0.18517817148E+02 -0.94452285745E+01 -0.59527747818E+01  0.21623076154E+02  0.00000000000E+00 0.  1.
</event>
<event>
 8    1  0.7977359E-012  0.9118800E+02  0.7816164E-02  0.1184000E+00
        -11   -1    0    0    0    0  0.00000000000E+00  0.00000000000E+00  0.45593999997E+02  0.45594000000E+02  0.51100000000E-03 0. -1.
         11   -1    0    0    0    0 -0.00000000000E+00 -0.00000000000E+00 -0.45593999997E+02  0.45594000000E+02  0.51100000000E-03 0.  1.
         23    2    1    2    0    0  0.00000000000E+00  0.00000000000E+00  0.00000000000E+00  0.91188000000E+02  0.91188000000E+02 0.  0.
    9900012    2    3    3    0    0 -0.93275976184E+01 -0.38267867540E+02 -0.10086227270E+02  0.50528859036E+02  0.29999997527E+02 0.  0.
         12    1    3    3    0    0  0.93275976184E+01  0.38267867540E+02  0.10086227270E+02  0.40659140964E+02  0.00000000000E+00 0. -1.
         11    1    4    4    0    0  0.46366498239E+01 -0.21001196778E+02 -0.10575546506E+02  0.23966455137E+02  0.51100000000E-03 0. -1.
        -11    1    4    4    0    0 -0.17441461631E+01 -0.68090951710E+01 -0.59776968809E+01  0.92270625416E+01  0.51100000000E-03 0.  1.
        -12    1    4    4    0    0 -0.12220101279E+02 -0.10457575591E+02  0.64670161175E+01  0.17335341358E+02  0.00000000000E+00 0.  1.
</event>
<event>
 8    1  0.7977359E-012  0.9118800E+02  0.7816164E-02  0.1184000E+00
        -11   -1    0    0    0    0  0.00000000000E+00  0.00000000000E+00  0.45593999997E+02  0.45594000000E+02  0.51100000000E-03 0.  1.
         11   -1    0    0    0    0 -0.00000000000E+00 -0.00000000000E+00 -0.45593999997E+02  0.45594000000E+02  0.51100000000E-03 0. -1.
         23    2    1    2    0    0  0.00000000000E+00  0.00000000000E+00  0.00000000000E+00  0.91188000000E+02  0.91188000000E+02 0.  0.
    9900012    2    3    3    0    0  0.20689436460E+02 -0.34998059595E+02  0.49823357979E+00  0.50528865809E+02  0.30000018113E+02 0.  0.
        -12    1    3    3    0    0 -0.20689436460E+02  0.34998059595E+02 -0.49823357979E+00  0.40659134191E+02  0.00000000000E+00 0.  1.
         11    1    4    4    0    0  0.19498392076E+01  0.62662129883E+00  0.34123763275E+00  0.20762876898E+01  0.51100000000E-03 0. -1.
        -11    1    4    4    0    0  0.16596733669E+02 -0.51496742987E+01 -0.33645660829E+01  0.17700028786E+02  0.51100000000E-03 0.  1.
        -12    1    4    4    0    0  0.21428635835E+01 -0.30475006596E+02  0.35215620299E+01  0.30752549333E+02  0.00000000000E+00 0.  1.
</event>
<event>
 8    1  0.7977359E-012  0.9118800E+02  0.7816164E-02  0.1184000E+00
        -11   -1    0    0    0    0  0.00000000000E+00  0.00000000000E+00  0.45593999997E+02  0.45594000000E+02  0.51100000000E-03 0. -1.
         11   -1    0    0    0    0 -0.00000000000E+00 -0.00000000000E+00 -0.45593999997E+02  0.45594000000E+02  0.51100000000E-03 0.  1.
         23    2    1    2    0    0  0.00000000000E+00  0.00000000000E+00  0.00000000000E+00  0.91188000000E+02  0.91188000000E+02 0.  0.
    9900012    2    3    3    0    0  0.13473132263E+02  0.31970349442E+02 -0.21202287726E+02  0.50528861529E+02  0.30000005103E+02 0.  0.
         12    1    3    3    0    0 -0.13473132263E+02 -0.31970349442E+02  0.21202287726E+02  0.40659138471E+02  0.00000000000E+00 0. -1.
         11    1    4    4    0    0  0.16354037616E+02  0.15497230577E+02 -0.73789907850E+01  0.23707977711E+02  0.51100000000E-03 0. -1.
        -11    1    4    4    0    0 -0.30485942437E+01  0.12480938706E+02 -0.44168844784E+00  0.12855459805E+02  0.51100000000E-03 0.  1.
        -12    1    4    4    0    0  0.16768889071E+00  0.39921801584E+01 -0.13381608493E+02  0.13965424012E+02  0.00000000000E+00 0.  1.
</event>
<event>
 8    1  0.7977359E-012  0.9118800E+02  0.7816164E-02  0.1184000E+00
        -11   -1    0    0    0    0  0.00000000000E+00  0.00000000000E+00  0.45593999997E+02  0.45594000000E+02  0.51100000000E-03 0. -1.
         11   -1    0    0    0    0 -0.00000000000E+00 -0.00000000000E+00 -0.45593999997E+02  0.45594000000E+02  0.51100000000E-03 0.  1.
         23    2    1    2    0    0  0.26645352591E-14  0.35527136788E-14  0.00000000000E+00  0.91188000000E+02  0.91188000000E+02 0.  0.
    9900012    2    3    3    0    0 -0.67017910672E+01  0.29626076383E+02  0.27028634768E+02  0.50528862002E+02  0.30000006541E+02 0.  0.
        -12    1    3    3    0    0  0.67017910672E+01 -0.29626076383E+02 -0.27028634768E+02  0.40659137998E+02  0.00000000000E+00 0.  1.
         11    1    4    4    0    0 -0.86094167981E+01  0.18685872982E+02  0.53810854184E+01  0.21265934902E+02  0.51100000000E-03 0. -1.
        -11    1    4    4    0    0 -0.10822006560E+01  0.14781546493E+02  0.16149485249E+02  0.21919652120E+02  0.51100000000E-03 0.  1.
        -12    1    4    4    0    0  0.29898263868E+01 -0.38413430927E+01  0.54980641004E+01  0.73432749800E+01  0.00000000000E+00 0.  1.
</event>
<event>
 8    1  0.7977359E-012  0.9118800E+02  0.7816164E-02  0.1184000E+00
        -11   -1    0    0    0    0  0.00000000000E+00  0.00000000000E+00  0.45593999997E+02  0.45594000000E+02  0.51100000000E-03 0. -1.
         11   -1    0    0    0    0 -0.00000000000E+00 -0.00000000000E+00 -0.45593999997E+02  0.45594000000E+02  0.51100000000E-03 0.  1.
         23    2    1    2    0    0  0.88817841970E-15  0.00000000000E+00 -0.35527136788E-14  0.91188000000E+02  0.91188000000E+02 0.  0.
    9900012    2    3    3    0    0  0.28945214378E+01 -0.25526584136E+02 -0.31514774857E+02  0.50528858515E+02  0.29999995941E+02 0.  0.
         12    1    3    3    0    0 -0.28945214378E+01  0.25526584136E+02  0.31514774857E+02  0.40659141485E+02  0.00000000000E+00 0. -1.
         11    1    4    4    0    0  0.58606575579E+01 -0.17782323016E+01 -0.15468496092E+02  0.16636820271E+02  0.51100000000E-03 0. -1.
        -11    1    4    4    0    0 -0.73101207850E+00  0.29601800520E+01 -0.17512555624E+01  0.35162395972E+01  0.51100000000E-03 0.  1.
         12    1    4    4    0    0 -0.22351240415E+01 -0.26708531887E+02 -0.14295023203E+02  0.30375798646E+02  0.00000000000E+00 0. -1.
</event>
<event>
 8    1  0.7977359E-012  0.9118800E+02  0.7816164E-02  0.1184000E+00
        -11   -1    0    0    0    0  0.00000000000E+00  0.00000000000E+00  0.45593999997E+02  0.45594000000E+02  0.51100000000E-03 0. -1.
         11   -1    0    0    0    0 -0.00000000000E+00 -0.00000000000E+00 -0.45593999997E+02  0.45594000000E+02  0.51100000000E-03 0.  1.
         23    2    1    2    0    0  0.35527136788E-14  0.00000000000E+00  0.35527136788E-14  0.91188000000E+02  0.91188000000E+02 0.  0.
    9900012    2    3    3    0    0 -0.21889737056E+02  0.25878165555E+02 -0.22457209862E+02  0.50528852005E+02  0.29999976155E+02 0.  0.
         12    1    3    3    0    0  0.21889737056E+02 -0.25878165555E+02  0.22457209862E+02  0.40659147995E+02  0.00000000000E+00 0. -1.
         11    1    4    4    0    0 -0.11272468336E+02  0.13527324538E+02 -0.12458560580E+02  0.21570182742E+02  0.51100000000E-03 0. -1.
        -11    1    4    4    0    0 -0.16724581102E+02  0.12699193256E+02 -0.69195732957E+01  0.22110215224E+02  0.51100000000E-03 0.  1.
         12    1    4    4    0    0  0.61073123811E+01 -0.34835223904E+00 -0.30790759858E+01  0.68484540394E+01  0.00000000000E+00 0. -1.
</event>
<event>
 8    1  0.7977359E-012  0.9118800E+02  0.7816164E-02  0.1184000E+00
        -11   -1    0    0    0    0  0.00000000000E+00  0.00000000000E+00  0.45593999997E+02  0.45594000000E+02  0.51100000000E-03 0. -1.
         11   -1    0    0    0    0 -0.00000000000E+00 -0.00000000000E+00 -0.45593999997E+02  0.45594000000E+02  0.51100000000E-03 0.  1.
         23    2    1    2    0    0  0.00000000000E+00  0.35527136788E-14  0.00000000000E+00  0.91188000000E+02  0.91188000000E+02 0.  0.
    9900012    2    3    3    0    0  0.13424658237E+02  0.16934953369E+02 -0.34440540574E+02  0.50528869052E+02  0.30000027971E+02 0.  0.
         12    1    3    3    0    0 -0.13424658237E+02 -0.16934953369E+02  0.34440540574E+02  0.40659130948E+02  0.00000000000E+00 0. -1.
         11    1    4    4    0    0  0.12724807960E+01  0.69836446533E+01 -0.58883432195E+01  0.92229651496E+01  0.51100000000E-03 0. -1.
        -11    1    4    4    0    0  0.15285582095E+01  0.16983410206E+02 -0.15077005353E+02  0.22761564162E+02  0.51100000000E-03 0.  1.
         12    1    4    4    0    0  0.10623619231E+02 -0.70321014900E+01 -0.13475192001E+02  0.18544339740E+02  0.00000000000E+00 0. -1.
</event>
<event>
 8    1  0.7977359E-012  0.9118800E+02  0.7816164E-02  0.1184000E+00
        -11   -1    0    0    0    0  0.00000000000E+00  0.00000000000E+00  0.45593999997E+02  0.45594000000E+02  0.51100000000E-03 0.  1.
         11   -1    0    0    0    0 -0.00000000000E+00 -0.00000000000E+00 -0.45593999997E+02  0.45594000000E+02  0.51100000000E-03 0. -1.
         23    2    1    2    0    0 -0.22204460493E-14  0.00000000000E+00 -0.35527136788E-14  0.91188000000E+02  0.91188000000E+02 0.  0.
    9900012    2    3    3    0    0  0.13484934063E+01 -0.35767441691E+02 -0.19288277004E+02  0.50528856509E+02  0.29999989846E+02 0.  0.
        -12    1    3    3    0    0 -0.13484934063E+01  0.35767441691E+02  0.19288277004E+02  0.40659143491E+02  0.00000000000E+00 0.  1.
         11    1    4    4    0    0  0.94229413578E-01  0.84080035351E+00  0.72493736421E+00  0.11141628517E+01  0.51100000000E-03 0. -1.
        -11    1    4    4    0    0  0.81884936525E+01 -0.70845653071E+00 -0.12355818001E+01  0.83114379982E+01  0.51100000000E-03 0.  1.
         12    1    4    4    0    0 -0.69342296597E+01 -0.35899785514E+02 -0.18777632569E+02  0.41103255659E+02  0.00000000000E+00 0. -1.
</event>
<event>
 8    1  0.7977359E-012  0.9118800E+02  0.7816164E-02  0.1184000E+00
        -11   -1    0    0    0    0  0.00000000000E+00  0.00000000000E+00  0.45593999997E+02  0.45594000000E+02  0.51100000000E-03 0. -1.
         11   -1    0    0    0    0 -0.00000000000E+00 -0.00000000000E+00 -0.45593999997E+02  0.45594000000E+02  0.51100000000E-03 0.  1.
         23    2    1    2    0    0  0.35527136788E-14  0.17763568394E-14  0.71054273576E-14  0.91188000000E+02  0.91188000000E+02 0.  0.
    9900012    2    3    3    0    0 -0.21946404596E+02 -0.10363026121E+02 -0.32620987109E+02  0.50528858531E+02  0.29999995990E+02 0.  0.
         12    1    3    3    0    0  0.21946404596E+02  0.10363026121E+02  0.32620987109E+02  0.40659141469E+02  0.00000000000E+00 0. -1.
         11    1    4    4    0    0 -0.14301430459E+02  0.50353714179E+01 -0.17335938865E+02  0.23030863099E+02  0.51100000000E-03 0. -1.
        -11    1    4    4    0    0  0.96325966596E+00 -0.52238055552E+01 -0.12910493711E+02  0.13960546615E+02  0.51100000000E-03 0.  1.
        -12    1    4    4    0    0 -0.86082338029E+01 -0.10174591984E+02 -0.23745545328E+01  0.13537448817E+02  0.00000000000E+00 0.  1.
</event>
<event>
 8    1  0.7977359E-012  0.9118800E+02  0.7816164E-02  0.1184000E+00
        -11   -1    0    0    0    0  0.00000000000E+00  0.00000000000E+00  0.45593999997E+02  0.45594000000E+02  0.51100000000E-03 0. -1.
         11   -1    0    0    0    0 -0.00000000000E+00 -0.00000000000E+00 -0.45593999997E+02  0.45594000000E+02  0.51100000000E-03 0.  1.
         23    2    1    2    0    0  0.00000000000E+00  0.00000000000E+00  0.00000000000E+00  0.91188000000E+02  0.91188000000E+02 0.  0.
    9900012    2    3    3    0    0 -0.16228192538E+02 -0.78419285980E+01 -0.36446065753E+02  0.50528858518E+02  0.29999995951E+02 0.  0.
         12    1    3    3    0    0  0.16228192538E+02  0.78419285980E+01  0.36446065753E+02  0.40659141482E+02  0.00000000000E+00 0. -1.
         11    1    4    4    0    0  0.24253176577E+01 -0.66581308835E+01 -0.11213225016E+02  0.13264587748E+02  0.51100000000E-03 0. -1.
        -11    1    4    4    0    0 -0.12859302897E+02 -0.40406133524E+01 -0.27329148833E+02  0.30472456473E+02  0.51100000000E-03 0.  1.
        -12    1    4    4    0    0 -0.57942072990E+01  0.28568156378E+01  0.20963080968E+01  0.67918142973E+01  0.00000000000E+00 0.  1.
</event>
<event>
 8    1  0.7977359E-012  0.9118800E+02  0.7816164E-02  0.1184000E+00
        -11   -1    0    0    0    0  0.00000000000E+00  0.00000000000E+00  0.45593999997E+02  0.45594000000E+02  0.51100000000E-03 0.  1.
         11   -1    0    0    0    0 -0.00000000000E+00 -0.00000000000E+00 -0.45593999997E+02  0.45594000000E+02  0.51100000000E-03 0. -1.
         23    2    1    2    0    0  0.00000000000E+00  0.00000000000E+00  0.00000000000E+00  0.91188000000E+02  0.91188000000E+02 0.  0.
    9900012    2    3    3    0    0 -0.14733410489E+02 -0.36473371213E+02 -0.10285186817E+02  0.50528864986E+02  0.30000015610E+02 0.  0.
         12    1    3    3    0    0  0.14733410489E+02  0.36473371213E+02  0.10285186817E+02  0.40659135014E+02  0.00000000000E+00 0. -1.
         11    1    4    4    0    0 -0.34163820146E+01 -0.23183774419E+01 -0.58541376832E+01  0.71636211729E+01  0.51100000000E-03 0. -1.
        -11    1    4    4    0    0  0.20032067248E+01 -0.16281074844E+02 -0.11438785413E+02  0.19998301109E+02  0.51100000000E-03 0.  1.
         12    1    4    4    0    0 -0.13320235199E+02 -0.17873918927E+02  0.70077362791E+01  0.23366942704E+02  0.00000000000E+00 0. -1.
</event>
<event>
 8    1  0.7977359E-012  0.9118800E+02  0.7816164E-02  0.1184000E+00
        -11   -1    0    0    0    0  0.00000000000E+00  0.00000000000E+00  0.45593999997E+02  0.45594000000E+02  0.51100000000E-03 0. -1.
         11   -1    0    0    0    0 -0.00000000000E+00 -0.00000000000E+00 -0.45593999997E+02  0.45594000000E+02  0.51100000000E-03 0.  1.
         23    2    1    2    0    0 -0.17763568394E-14  0.35527136788E-14  0.00000000000E+00  0.91188000000E+02  0.91188000000E+02 0.  0.
    9900012    2    3    3    0    0 -0.14503640922E+02  0.24489171611E+02  0.29036041094E+02  0.50528845943E+02  0.29999957729E+02 0.  0.
        -12    1    3    3    0    0  0.14503640922E+02 -0.24489171611E+02 -0.29036041094E+02  0.40659154057E+02  0.00000000000E+00 0.  1.
         11    1    4    4    0    0 -0.27951994094E+01 -0.32813349290E+01  0.73559748083E+01  0.85258820246E+01  0.51100000000E-03 0. -1.
        -11    1    4    4    0    0 -0.82645512971E+01  0.43384195764E+01  0.14518408852E+02  0.17260037324E+02  0.51100000000E-03 0.  1.
        -12    1    4    4    0    0 -0.34438902151E+01  0.23432086963E+02  0.71616574338E+01  0.24742926595E+02  0.00000000000E+00 0.  1.
</event>
<event>
 8    1  0.1204756E-011  0.9118800E+02  0.7816164E-02  0.1184000E+00
        -11   -1    0    0    0    0  0.00000000000E+00  0.00000000000E+00  0.45593999997E+02  0.45594000000E+02  0.51100000000E-03 0. -1.
         11   -1    0    0    0    0 -0.00000000000E+00 -0.00000000000E+00 -0.45593999997E+02  0.45594000000E+02  0.51100000000E-03 0.  1.
         23    2    1    2    0    0 -0.44408920985E-15  0.35527136788E-14 -0.71054273576E-14  0.91188000000E+02  0.91188000000E+02 0.  0.
    9900012    2    3    3    0    0  0.27935561778E+01 -0.21168993010E+02  0.34601079236E+02  0.50528869347E+02  0.30000028866E+02 0.  0.
        -12    1    3    3    0    0 -0.27935561778E+01  0.21168993010E+02 -0.34601079236E+02  0.40659130653E+02  0.00000000000E+00 0.  1.
         11    1    4    4    0    0  0.25546308498E+01 -0.13727003739E+02  0.12627995368E+02  0.18826126466E+02  0.51100000000E-03 0. -1.
        -11    1    4    4    0    0  0.50097741035E-01 -0.10783366873E+02  0.24977145749E+02  0.27205538424E+02  0.51100000000E-03 0.  1.
        -12    1    4    4    0    0  0.18882758696E+00  0.33413776021E+01 -0.30040618813E+01  0.44972044566E+01  0.00000000000E+00 0.  1.
</event>
<event>
 8    1  0.7977359E-012  0.9118800E+02  0.7816164E-02  0.1184000E+00
        -11   -1    0    0    0    0  0.00000000000E+00  0.00000000000E+00  0.45593999997E+02  0.45594000000E+02  0.51100000000E-03 0. -1.
         11   -1    0    0    0    0 -0.00000000000E+00 -0.00000000000E+00 -0.45593999997E+02  0.45594000000E+02  0.51100000000E-03 0.  1.
         23    2    1    2    0    0 -0.35527136788E-14 -0.17763568394E-14  0.00000000000E+00  0.91188000000E+02  0.91188000000E+02 0.  0.
    9900012    2    3    3    0    0  0.29285885852E+02 -0.11400958308E+02 -0.25797699516E+02  0.50528852680E+02  0.29999978205E+02 0.  0.
         12    1    3    3    0    0 -0.29285885852E+02  0.11400958308E+02  0.25797699516E+02  0.40659147320E+02  0.00000000000E+00 0. -1.
         11    1    4    4    0    0  0.27812456846E+01 -0.10063205990E+02 -0.29262105508E+01  0.10842792574E+02  0.51100000000E-03 0. -1.
        -11    1    4    4    0    0  0.26678120462E+02 -0.20260430095E+01 -0.12923336732E+02  0.29712616751E+02  0.51100000000E-03 0.  1.
         12    1    4    4    0    0 -0.17348029475E+00  0.68829069110E+00 -0.99481522331E+01  0.99734433543E+01  0.00000000000E+00 0. -1.
</event>
<event>
 8    1  0.7977359E-012  0.9118800E+02  0.7816164E-02  0.1184000E+00
        -11   -1    0    0    0    0  0.00000000000E+00  0.00000000000E+00  0.45593999997E+02  0.45594000000E+02  0.51100000000E-03 0. -1.
         11   -1    0    0    0    0 -0.00000000000E+00 -0.00000000000E+00 -0.45593999997E+02  0.45594000000E+02  0.51100000000E-03 0.  1.
         23    2    1    2    0    0  0.00000000000E+00  0.00000000000E+00  0.00000000000E+00  0.91188000000E+02  0.91188000000E+02 0.  0.
    9900012    2    3    3    0    0 -0.30526019967E+02 -0.24749927097E+02 -0.10429201794E+02  0.50528867737E+02  0.30000023973E+02 0.  0.
         12    1    3    3    0    0  0.30526019967E+02  0.24749927097E+02  0.10429201794E+02  0.40659132263E+02  0.00000000000E+00 0. -1.
         11    1    4    4    0    0 -0.18847023111E+02 -0.19189083807E+02 -0.38088488887E+01  0.27165024344E+02  0.51100000000E-03 0. -1.
        -11    1    4    4    0    0 -0.14090787686E+02 -0.98837952501E+01 -0.36615896062E+01  0.17596787913E+02  0.51100000000E-03 0.  1.
         12    1    4    4    0    0  0.24117908290E+01  0.43229519603E+01 -0.29587632989E+01  0.57670554803E+01  0.00000000000E+00 0. -1.
</event>
<event>
 8    1  0.7977359E-012  0.9118800E+02  0.7816164E-02  0.1184000E+00
        -11   -1    0    0    0    0  0.00000000000E+00  0.00000000000E+00  0.45593999997E+02  0.45594000000E+02  0.51100000000E-03 0. -1.
         11   -1    0    0    0    0 -0.00000000000E+00 -0.00000000000E+00 -0.45593999997E+02  0.45594000000E+02  0.51100000000E-03 0.  1.
         23    2    1    2    0    0 -0.17763568394E-14  0.17763568394E-14  0.71054273576E-14  0.91188000000E+02  0.91188000000E+02 0.  0.
    9900012    2    3    3    0    0  0.10130379253E+02 -0.10969376082E+02 -0.37818171044E+02  0.50528857651E+02  0.29999993316E+02 0.  0.
         12    1    3    3    0    0 -0.10130379253E+02  0.10969376082E+02  0.37818171044E+02  0.40659142349E+02  0.00000000000E+00 0. -1.
         11    1    4    4    0    0  0.38237883311E+01  0.56164814514E+01 -0.63169713299E+01  0.92774106376E+01  0.51100000000E-03 0.  1.
        -11    1    4    4    0    0  0.90820169315E+01 -0.16154139127E+02 -0.33161612127E+02  0.37988574092E+02  0.51100000000E-03 0. -1.
         12    1    4    4    0    0 -0.27754260099E+01 -0.43171840642E+00  0.16604124124E+01  0.32628729209E+01  0.00000000000E+00 0. -1.
</event>
<event>
 8    1  0.7977359E-012  0.9118800E+02  0.7816164E-02  0.1184000E+00
        -11   -1    0    0    0    0  0.00000000000E+00  0.00000000000E+00  0.45593999997E+02  0.45594000000E+02  0.51100000000E-03 0. -1.
         11   -1    0    0    0    0 -0.00000000000E+00 -0.00000000000E+00 -0.45593999997E+02  0.45594000000E+02  0.51100000000E-03 0.  1.
         23    2    1    2    0    0  0.71054273576E-14 -0.44408920985E-15  0.71054273576E-14  0.91188000000E+02  0.91188000000E+02 0.  0.
    9900012    2    3    3    0    0 -0.16166417190E+02  0.30175721917E+01 -0.37184768102E+02  0.50528858771E+02  0.29999996720E+02 0.  0.
         12    1    3    3    0    0  0.16166417190E+02 -0.30175721917E+01  0.37184768102E+02  0.40659141229E+02  0.00000000000E+00 0. -1.
         11    1    4    4    0    0 -0.57462384211E+01  0.20093774026E+01  0.22660575001E+01  0.64955269527E+01  0.51100000000E-03 0. -1.
        -11    1    4    4    0    0 -0.11318022050E+02  0.68467056649E+01 -0.22718322376E+02  0.26288727117E+02  0.51100000000E-03 0.  1.
        -12    1    4    4    0    0  0.89784328033E+00 -0.58385108757E+01 -0.16732503226E+02  0.17744604702E+02  0.00000000000E+00 0.  1.
</event>
<event>
 8    1  0.7977359E-012  0.9118800E+02  0.7816164E-02  0.1184000E+00
        -11   -1    0    0    0    0  0.00000000000E+00  0.00000000000E+00  0.45593999997E+02  0.45594000000E+02  0.51100000000E-03 0. -1.
         11   -1    0    0    0    0 -0.00000000000E+00 -0.00000000000E+00 -0.45593999997E+02  0.45594000000E+02  0.51100000000E-03 0.  1.
         23    2    1    2    0    0  0.00000000000E+00  0.00000000000E+00  0.00000000000E+00  0.91188000000E+02  0.91188000000E+02 0.  0.
    9900012    2    3    3    0    0  0.17555828824E+02  0.94198074794E+01 -0.35443273437E+02  0.50528861660E+02  0.30000005501E+02 0.  0.
         12    1    3    3    0    0 -0.17555828824E+02 -0.94198074794E+01  0.35443273437E+02  0.40659138340E+02  0.00000000000E+00 0. -1.
         11    1    4    4    0    0  0.41114810669E+01 -0.40897930664E+01 -0.84255599924E+01  0.10228428293E+02  0.51100000000E-03 0. -1.
        -11    1    4    4    0    0  0.29237256278E+01 -0.55620276955E+01 -0.12886732190E+02  0.14337091422E+02  0.51100000000E-03 0.  1.
        -12    1    4    4    0    0  0.10520622129E+02  0.19071628241E+02 -0.14130981255E+02  0.25963341946E+02  0.00000000000E+00 0.  1.
</event>
<event>
 8    1  0.7977359E-012  0.9118800E+02  0.7816164E-02  0.1184000E+00
        -11   -1    0    0    0    0  0.00000000000E+00  0.00000000000E+00  0.45593999997E+02  0.45594000000E+02  0.51100000000E-03 0. -1.
         11   -1    0    0    0    0 -0.00000000000E+00 -0.00000000000E+00 -0.45593999997E+02  0.45594000000E+02  0.51100000000E-03 0.  1.
         23    2    1    2    0    0  0.00000000000E+00  0.00000000000E+00  0.35527136788E-14  0.91188000000E+02  0.91188000000E+02 0.  0.
    9900012    2    3    3    0    0  0.81629527233E+00 -0.31802723953E+02 -0.25319655444E+02  0.50528873834E+02  0.30000042505E+02 0.  0.
         12    1    3    3    0    0 -0.81629527233E+00  0.31802723953E+02  0.25319655444E+02  0.40659126166E+02  0.00000000000E+00 0. -1.
         11    1    4    4    0    0  0.68499368817E-01 -0.16502369221E+01  0.12741602335E+00  0.16565654731E+01  0.51100000000E-03 0. -1.
        -11    1    4    4    0    0  0.34440676938E+01 -0.34277963730E+02 -0.26928273876E+02  0.43726105864E+02  0.51100000000E-03 0.  1.
         12    1    4    4    0    0 -0.26962717903E+01  0.41254766993E+01  0.14812024090E+01  0.51462024970E+01  0.00000000000E+00 0. -1.
</event>
<event>
 8    1  0.7977359E-012  0.9118800E+02  0.7816164E-02  0.1184000E+00
        -11   -1    0    0    0    0  0.00000000000E+00  0.00000000000E+00  0.45593999997E+02  0.45594000000E+02  0.51100000000E-03 0. -1.
         11   -1    0    0    0    0 -0.00000000000E+00 -0.00000000000E+00 -0.45593999997E+02  0.45594000000E+02  0.51100000000E-03 0.  1.
         23    2    1    2    0    0  0.71054273576E-14 -0.17763568394E-14  0.35527136788E-14  0.91188000000E+02  0.91188000000E+02 0.  0.
    9900012    2    3    3    0    0 -0.35456839181E+02  0.10283811781E+02 -0.17035897448E+02  0.50528855502E+02  0.29999986783E+02 0.  0.
         12    1    3    3    0    0  0.35456839181E+02 -0.10283811781E+02  0.17035897448E+02  0.40659144498E+02  0.00000000000E+00 0. -1.
         11    1    4    4    0    0 -0.10070345185E+02  0.10865153497E+02 -0.15407265519E+02  0.21373985208E+02  0.51100000000E-03 0. -1.
        -11    1    4    4    0    0 -0.11733649867E+02  0.23731331805E+01 -0.73635275050E+01  0.14054602017E+02  0.51100000000E-03 0.  1.
         12    1    4    4    0    0 -0.13652844130E+02 -0.29544748964E+01  0.57348955756E+01  0.15100268276E+02  0.00000000000E+00 0. -1.
</event>
<event>
 8    1  0.7977359E-012  0.9118800E+02  0.7816164E-02  0.1184000E+00
        -11   -1    0    0    0    0  0.00000000000E+00  0.00000000000E+00  0.45593999997E+02  0.45594000000E+02  0.51100000000E-03 0. -1.
         11   -1    0    0    0    0 -0.00000000000E+00 -0.00000000000E+00 -0.45593999997E+02  0.45594000000E+02  0.51100000000E-03 0.  1.
         23    2    1    2    0    0  0.00000000000E+00  0.00000000000E+00  0.17763568394E-14  0.91188000000E+02  0.91188000000E+02 0.  0.
    9900012    2    3    3    0    0 -0.49872971677E+01  0.38050662087E+02  0.13432743412E+02  0.50528872932E+02  0.30000039765E+02 0.  0.
        -12    1    3    3    0    0  0.49872971677E+01 -0.38050662087E+02 -0.13432743412E+02  0.40659127068E+02  0.00000000000E+00 0.  1.
         11    1    4    4    0    0  0.15148447666E+01  0.30721730333E+02  0.19601149604E+02  0.36473614235E+02  0.51100000000E-03 0. -1.
        -11    1    4    4    0    0 -0.45448360794E+01  0.85854083172E+01 -0.30835250720E+01  0.10191805438E+02  0.51100000000E-03 0.  1.
        -12    1    4    4    0    0 -0.19573058549E+01 -0.12564765624E+01 -0.30848811200E+01  0.38634532592E+01  0.00000000000E+00 0.  1.
</event>
<event>
 8    1  0.7977359E-012  0.9118800E+02  0.7816164E-02  0.1184000E+00
        -11   -1    0    0    0    0  0.00000000000E+00  0.00000000000E+00  0.45593999997E+02  0.45594000000E+02  0.51100000000E-03 0. -1.
         11   -1    0    0    0    0 -0.00000000000E+00 -0.00000000000E+00 -0.45593999997E+02  0.45594000000E+02  0.51100000000E-03 0.  1.
         23    2    1    2    0    0 -0.35527136788E-14 -0.35527136788E-14  0.00000000000E+00  0.91188000000E+02  0.91188000000E+02 0.  0.
    9900012    2    3    3    0    0 -0.21057144786E+02 -0.19678046696E+02  0.28679901110E+02  0.50528860856E+02  0.30000003058E+02 0.  0.
        -12    1    3    3    0    0  0.21057144786E+02  0.19678046696E+02 -0.28679901110E+02  0.40659139144E+02  0.00000000000E+00 0.  1.
         11    1    4    4    0    0 -0.44548238533E+01 -0.33680506101E+01 -0.19176917712E+01  0.59048084192E+01  0.51100000000E-03 0. -1.
        -11    1    4    4    0    0 -0.32952518726E+00 -0.10916397116E+02  0.17410624730E+01  0.11059277175E+02  0.51100000000E-03 0.  1.
         12    1    4    4    0    0 -0.16272795745E+02 -0.53935989700E+01  0.28856530408E+02  0.33564775262E+02  0.00000000000E+00 0. -1.
</event>
<event>
 8    1  0.7977359E-012  0.9118800E+02  0.7816164E-02  0.1184000E+00
        -11   -1    0    0    0    0  0.00000000000E+00  0.00000000000E+00  0.45593999997E+02  0.45594000000E+02  0.51100000000E-03 0. -1.
         11   -1    0    0    0    0 -0.00000000000E+00 -0.00000000000E+00 -0.45593999997E+02  0.45594000000E+02  0.51100000000E-03 0.  1.
         23    2    1    2    0    0 -0.88817841970E-15 -0.35527136788E-14  0.71054273576E-14  0.91188000000E+02  0.91188000000E+02 0.  0.
    9900012    2    3    3    0    0 -0.44816619430E+01  0.15134206549E+02 -0.37470480492E+02  0.50528850846E+02  0.29999972631E+02 0.  0.
         12    1    3    3    0    0  0.44816619430E+01 -0.15134206549E+02  0.37470480492E+02  0.40659149154E+02  0.00000000000E+00 0. -1.
         11    1    4    4    0    0  0.56629433290E+01  0.18410204425E+00 -0.16092446418E+01  0.58900330465E+01  0.51100000000E-03 0. -1.
        -11    1    4    4    0    0  0.44343993994E+01  0.81774654138E+01 -0.71466260519E+01  0.11730690637E+02  0.51100000000E-03 0.  1.
         12    1    4    4    0    0 -0.14579004671E+02  0.67726390908E+01 -0.28714609799E+02  0.32908127163E+02  0.00000000000E+00 0. -1.
</event>
<event>
 8    1  0.7977359E-012  0.9118800E+02  0.7816164E-02  0.1184000E+00
        -11   -1    0    0    0    0  0.00000000000E+00  0.00000000000E+00  0.45593999997E+02  0.45594000000E+02  0.51100000000E-03 0. -1.
         11   -1    0    0    0    0 -0.00000000000E+00 -0.00000000000E+00 -0.45593999997E+02  0.45594000000E+02  0.51100000000E-03 0.  1.
         23    2    1    2    0    0  0.00000000000E+00  0.17763568394E-14  0.00000000000E+00  0.91188000000E+02  0.91188000000E+02 0.  0.
    9900012    2    3    3    0    0  0.31831277613E+02  0.64930268184E+01  0.24449452247E+02  0.50528863918E+02  0.30000012366E+02 0.  0.
        -12    1    3    3    0    0 -0.31831277613E+02 -0.64930268184E+01 -0.24449452247E+02  0.40659136082E+02  0.00000000000E+00 0.  1.
         11    1    4    4    0    0 -0.18719555964E+01  0.42365417880E+01  0.68486748835E+01  0.82678202689E+01  0.51100000000E-03 0. -1.
        -11    1    4    4    0    0  0.17048136619E+00  0.41723710277E+01  0.46848894414E+01  0.62758213191E+01  0.51100000000E-03 0.  1.
         12    1    4    4    0    0  0.33532751843E+02 -0.19158859974E+01  0.12915887922E+02  0.35985222330E+02  0.00000000000E+00 0. -1.
</event>
<event>
 8    1  0.7977359E-012  0.9118800E+02  0.7816164E-02  0.1184000E+00
        -11   -1    0    0    0    0  0.00000000000E+00  0.00000000000E+00  0.45593999997E+02  0.45594000000E+02  0.51100000000E-03 0. -1.
         11   -1    0    0    0    0 -0.00000000000E+00 -0.00000000000E+00 -0.45593999997E+02  0.45594000000E+02  0.51100000000E-03 0.  1.
         23    2    1    2    0    0  0.00000000000E+00  0.00000000000E+00  0.00000000000E+00  0.91188000000E+02  0.91188000000E+02 0.  0.
    9900012    2    3    3    0    0 -0.20715388647E+02 -0.15159097955E+02 -0.31531558904E+02  0.50528870834E+02  0.30000033388E+02 0.  0.
         12    1    3    3    0    0  0.20715388647E+02  0.15159097955E+02  0.31531558904E+02  0.40659129166E+02  0.00000000000E+00 0. -1.
         11    1    4    4    0    0  0.33030573765E+01  0.38106092317E+01 -0.75273890740E+01  0.90604921103E+01  0.51100000000E-03 0. -1.
        -11    1    4    4    0    0 -0.15363400642E+02 -0.58267024942E+01 -0.18626399002E+02  0.24838020881E+02  0.51100000000E-03 0.  1.
        -12    1    4    4    0    0 -0.86550453813E+01 -0.13143004693E+02 -0.53777708277E+01  0.16630357843E+02  0.00000000000E+00 0.  1.
</event>
<event>
 8    1  0.7977359E-012  0.9118800E+02  0.7816164E-02  0.1184000E+00
        -11   -1    0    0    0    0  0.00000000000E+00  0.00000000000E+00  0.45593999997E+02  0.45594000000E+02  0.51100000000E-03 0. -1.
         11   -1    0    0    0    0 -0.00000000000E+00 -0.00000000000E+00 -0.45593999997E+02  0.45594000000E+02  0.51100000000E-03 0.  1.
         23    2    1    2    0    0  0.17763568394E-14  0.35527136788E-14  0.35527136788E-14  0.91188000000E+02  0.91188000000E+02 0.  0.
    9900012    2    3    3    0    0 -0.50584874103E+01 -0.29552707258E+02 -0.27462974158E+02  0.50528858952E+02  0.29999997271E+02 0.  0.
         12    1    3    3    0    0  0.50584874103E+01  0.29552707258E+02  0.27462974158E+02  0.40659141048E+02  0.00000000000E+00 0. -1.
         11    1    4    4    0    0  0.38045927422E+01 -0.33412103318E+01 -0.59830789551E+01  0.78381022231E+01  0.51100000000E-03 0. -1.
        -11    1    4    4    0    0  0.57616348451E+01 -0.19811247280E+02 -0.14770788032E+02  0.25374359779E+02  0.51100000000E-03 0.  1.
        -12    1    4    4    0    0 -0.14624714998E+02 -0.64002496462E+01 -0.67091071708E+01  0.17316396950E+02  0.00000000000E+00 0.  1.
</event>
<event>
 8    1  0.7977359E-012  0.9118800E+02  0.7816164E-02  0.1184000E+00
        -11   -1    0    0    0    0  0.00000000000E+00  0.00000000000E+00  0.45593999997E+02  0.45594000000E+02  0.51100000000E-03 0. -1.
         11   -1    0    0    0    0 -0.00000000000E+00 -0.00000000000E+00 -0.45593999997E+02  0.45594000000E+02  0.51100000000E-03 0.  1.
         23    2    1    2    0    0  0.17763568394E-14  0.88817841970E-15  0.71054273576E-14  0.91188000000E+02  0.91188000000E+02 0.  0.
    9900012    2    3    3    0    0 -0.15670167754E+02 -0.58931919188E+01 -0.37052420341E+02  0.50528859311E+02  0.29999998363E+02 0.  0.
         12    1    3    3    0    0  0.15670167754E+02  0.58931919188E+01  0.37052420341E+02  0.40659140689E+02  0.00000000000E+00 0. -1.
         11    1    4    4    0    0 -0.88593384318E+01 -0.11917127007E+01 -0.15329443246E+01  0.90696182485E+01  0.51100000000E-03 0. -1.
        -11    1    4    4    0    0 -0.90930992242E+01  0.49360271639E+01 -0.24763237556E+02  0.26837785903E+02  0.51100000000E-03 0.  1.
         12    1    4    4    0    0  0.22822699022E+01 -0.96375063820E+01 -0.10756238460E+02  0.14621455159E+02  0.00000000000E+00 0. -1.
</event>
<event>
 8    1  0.7977359E-012  0.9118800E+02  0.7816164E-02  0.1184000E+00
        -11   -1    0    0    0    0  0.00000000000E+00  0.00000000000E+00  0.45593999997E+02  0.45594000000E+02  0.51100000000E-03 0. -1.
         11   -1    0    0    0    0 -0.00000000000E+00 -0.00000000000E+00 -0.45593999997E+02  0.45594000000E+02  0.51100000000E-03 0.  1.
         23    2    1    2    0    0  0.31086244690E-14  0.00000000000E+00  0.00000000000E+00  0.91188000000E+02  0.91188000000E+02 0.  0.
    9900012    2    3    3    0    0 -0.32427710620E+01  0.37252342644E+01  0.40358048728E+02  0.50528867795E+02  0.30000024150E+02 0.  0.
        -12    1    3    3    0    0  0.32427710620E+01 -0.37252342644E+01 -0.40358048728E+02  0.40659132205E+02  0.00000000000E+00 0.  1.
         11    1    4    4    0    0 -0.97060890635E+01 -0.23630057517E+01  0.73676661899E+01  0.12412673622E+02  0.51100000000E-03 0. -1.
        -11    1    4    4    0    0 -0.54163400769E+01  0.92267976544E+00  0.14780919036E+02  0.15769072439E+02  0.51100000000E-03 0.  1.
        -12    1    4    4    0    0  0.11879658078E+02  0.51655602506E+01  0.18209463502E+02  0.22347121734E+02  0.00000000000E+00 0.  1.
</event>
<event>
 8    1  0.7977359E-012  0.9118800E+02  0.7816164E-02  0.1184000E+00
        -11   -1    0    0    0    0  0.00000000000E+00  0.00000000000E+00  0.45593999997E+02  0.45594000000E+02  0.51100000000E-03 0. -1.
         11   -1    0    0    0    0 -0.00000000000E+00 -0.00000000000E+00 -0.45593999997E+02  0.45594000000E+02  0.51100000000E-03 0.  1.
         23    2    1    2    0    0 -0.17763568394E-14  0.35527136788E-14  0.00000000000E+00  0.91188000000E+02  0.91188000000E+02 0.  0.
    9900012    2    3    3    0    0 -0.95140585485E+01  0.17470259214E+02 -0.35460380567E+02  0.50528857645E+02  0.29999993298E+02 0.  0.
         12    1    3    3    0    0  0.95140585485E+01 -0.17470259214E+02  0.35460380567E+02  0.40659142355E+02  0.00000000000E+00 0. -1.
         11    1    4    4    0    0 -0.82866843966E+01  0.16716765107E+02 -0.72111738017E+01  0.20003009818E+02  0.51100000000E-03 0. -1.
        -11    1    4    4    0    0  0.61533328165E+00  0.30738357112E+01 -0.12665878994E+01  0.33810273874E+01  0.51100000000E-03 0.  1.
        -12    1    4    4    0    0 -0.18427074335E+01 -0.23203416037E+01 -0.26982618866E+02  0.27144820440E+02  0.00000000000E+00 0.  1.
</event>
<event>
 8    1  0.7977359E-012  0.9118800E+02  0.7816164E-02  0.1184000E+00
        -11   -1    0    0    0    0  0.00000000000E+00  0.00000000000E+00  0.45593999997E+02  0.45594000000E+02  0.51100000000E-03 0. -1.
         11   -1    0    0    0    0 -0.00000000000E+00 -0.00000000000E+00 -0.45593999997E+02  0.45594000000E+02  0.51100000000E-03 0.  1.
         23    2    1    2    0    0  0.00000000000E+00  0.17763568394E-14  0.00000000000E+00  0.91188000000E+02  0.91188000000E+02 0.  0.
    9900012    2    3    3    0    0  0.11939114216E+02 -0.54227190343E+01 -0.38486584927E+02  0.50528861429E+02  0.30000004801E+02 0.  0.
         12    1    3    3    0    0 -0.11939114216E+02  0.54227190343E+01  0.38486584927E+02  0.40659138571E+02  0.00000000000E+00 0. -1.
         11    1    4    4    0    0  0.16248649422E+01  0.17827894089E+00  0.15646687089E+00  0.16420875750E+01  0.51100000000E-03 0. -1.
        -11    1    4    4    0    0  0.16968094257E+02 -0.99525089079E+01 -0.17613846186E+02  0.26404852470E+02  0.51100000000E-03 0.  1.
         12    1    4    4    0    0 -0.66538449827E+01  0.43515109327E+01 -0.21029205612E+02  0.22481921384E+02  0.00000000000E+00 0. -1.
</event>
<event>
 8    1  0.7977359E-012  0.9118800E+02  0.7816164E-02  0.1184000E+00
        -11   -1    0    0    0    0  0.00000000000E+00  0.00000000000E+00  0.45593999997E+02  0.45594000000E+02  0.51100000000E-03 0. -1.
         11   -1    0    0    0    0 -0.00000000000E+00 -0.00000000000E+00 -0.45593999997E+02  0.45594000000E+02  0.51100000000E-03 0.  1.
         23    2    1    2    0    0  0.17763568394E-14  0.35527136788E-14  0.00000000000E+00  0.91188000000E+02  0.91188000000E+02 0.  0.
    9900012    2    3    3    0    0 -0.13053161678E+02 -0.30316194527E+02 -0.23742554303E+02  0.50528861233E+02  0.30000004204E+02 0.  0.
         12    1    3    3    0    0  0.13053161678E+02  0.30316194527E+02  0.23742554303E+02  0.40659138767E+02  0.00000000000E+00 0. -1.
         11    1    4    4    0    0  0.58242996789E+01  0.12451695895E+00  0.16725423257E+01  0.60609709878E+01  0.51100000000E-03 0. -1.
        -11    1    4    4    0    0  0.40381224339E+00 -0.78830227594E+00  0.46034644545E-01  0.88690712918E+00  0.51100000000E-03 0.  1.
        -12    1    4    4    0    0 -0.19281273600E+02 -0.29652409210E+02 -0.25461131274E+02  0.43580983116E+02  0.00000000000E+00 0.  1.
</event>
<event>
 8    1  0.7977359E-012  0.9118800E+02  0.7816164E-02  0.1184000E+00
        -11   -1    0    0    0    0  0.00000000000E+00  0.00000000000E+00  0.45593999997E+02  0.45594000000E+02  0.51100000000E-03 0.  1.
         11   -1    0    0    0    0 -0.00000000000E+00 -0.00000000000E+00 -0.45593999997E+02  0.45594000000E+02  0.51100000000E-03 0. -1.
         23    2    1    2    0    0  0.00000000000E+00  0.00000000000E+00 -0.35527136788E-14  0.91188000000E+02  0.91188000000E+02 0.  0.
    9900012    2    3    3    0    0  0.19834686517E+02  0.30135281100E+02 -0.18751411506E+02  0.50528863392E+02  0.30000010767E+02 0.  0.
         12    1    3    3    0    0 -0.19834686517E+02 -0.30135281100E+02  0.18751411506E+02  0.40659136608E+02  0.00000000000E+00 0. -1.
         11    1    4    4    0    0 -0.61453470116E+01  0.83230088481E+01 -0.51004092141E+01  0.11534814285E+02  0.51100000000E-03 0. -1.
        -11    1    4    4    0    0  0.19717645293E+01  0.10528559602E+01  0.25238337245E+01  0.33713644066E+01  0.51100000000E-03 0.  1.
        -12    1    4    4    0    0  0.24008268999E+02  0.20759416292E+02 -0.16174836017E+02  0.35622684701E+02  0.00000000000E+00 0.  1.
</event>
<event>
 8    1  0.7977359E-012  0.9118800E+02  0.7816164E-02  0.1184000E+00
        -11   -1    0    0    0    0  0.00000000000E+00  0.00000000000E+00  0.45593999997E+02  0.45594000000E+02  0.51100000000E-03 0. -1.
         11   -1    0    0    0    0 -0.00000000000E+00 -0.00000000000E+00 -0.45593999997E+02  0.45594000000E+02  0.51100000000E-03 0.  1.
         23    2    1    2    0    0  0.35527136788E-14  0.71054273576E-14  0.00000000000E+00  0.91188000000E+02  0.91188000000E+02 0.  0.
    9900012    2    3    3    0    0 -0.20753952880E+02 -0.34123574086E+02  0.76171478469E+01  0.50528858225E+02  0.29999995062E+02 0.  0.
         12    1    3    3    0    0  0.20753952880E+02  0.34123574086E+02 -0.76171478469E+01  0.40659141775E+02  0.00000000000E+00 0. -1.
         11    1    4    4    0    0 -0.97083211597E+01 -0.15157172992E+02  0.15807877743E+01  0.18069042119E+02  0.51100000000E-03 0. -1.
        -11    1    4    4    0    0 -0.47815811744E+01 -0.22963638156E+02  0.98914922690E+00  0.23477023072E+02  0.51100000000E-03 0.  1.
         12    1    4    4    0    0 -0.62640505459E+01  0.39972370623E+01  0.50472108457E+01  0.89827930341E+01  0.00000000000E+00 0. -1.
</event>
<event>
 8    1  0.7977359E-012  0.9118800E+02  0.7816164E-02  0.1184000E+00
        -11   -1    0    0    0    0  0.00000000000E+00  0.00000000000E+00  0.45593999997E+02  0.45594000000E+02  0.51100000000E-03 0. -1.
         11   -1    0    0    0    0 -0.00000000000E+00 -0.00000000000E+00 -0.45593999997E+02  0.45594000000E+02  0.51100000000E-03 0.  1.
         23    2    1    2    0    0 -0.44408920985E-15 -0.88817841970E-15  0.00000000000E+00  0.91188000000E+02  0.91188000000E+02 0.  0.
    9900012    2    3    3    0    0 -0.17838470628E+01 -0.44099239229E+01  0.40379902232E+02  0.50528855351E+02  0.29999986325E+02 0.  0.
        -12    1    3    3    0    0  0.17838470628E+01  0.44099239229E+01 -0.40379902232E+02  0.40659144649E+02  0.00000000000E+00 0.  1.
         11    1    4    4    0    0 -0.70927137547E+00  0.89026793709E+00  0.99552648836E+00  0.15121891859E+01  0.51100000000E-03 0. -1.
        -11    1    4    4    0    0 -0.10542797893E+01  0.72044095016E+01 -0.42106702305E+00  0.72933065094E+01  0.51100000000E-03 0.  1.
         12    1    4    4    0    0 -0.20295897955E-01 -0.12504601362E+02  0.39805442766E+02  0.41723359656E+02  0.00000000000E+00 0. -1.
</event>
<event>
 8    1  0.7977359E-012  0.9118800E+02  0.7816164E-02  0.1184000E+00
        -11   -1    0    0    0    0  0.00000000000E+00  0.00000000000E+00  0.45593999997E+02  0.45594000000E+02  0.51100000000E-03 0.  1.
         11   -1    0    0    0    0 -0.00000000000E+00 -0.00000000000E+00 -0.45593999997E+02  0.45594000000E+02  0.51100000000E-03 0. -1.
         23    2    1    2    0    0  0.00000000000E+00  0.35527136788E-14 -0.71054273576E-14  0.91188000000E+02  0.91188000000E+02 0.  0.
    9900012    2    3    3    0    0  0.19348156000E+02 -0.27774858236E+02  0.22524864231E+02  0.50528887870E+02  0.30000085170E+02 0.  0.
        -12    1    3    3    0    0 -0.19348156000E+02  0.27774858236E+02 -0.22524864231E+02  0.40659112130E+02  0.00000000000E+00 0.  1.
         11    1    4    4    0    0  0.59398969646E+01 -0.23731013766E+02  0.21082850572E+02  0.32294426436E+02  0.51100000000E-03 0. -1.
        -11    1    4    4    0    0 -0.18410331742E+00 -0.10733846584E+00  0.38707703802E+01  0.38766324529E+01  0.51100000000E-03 0.  1.
         12    1    4    4    0    0  0.13592362352E+02 -0.39365060033E+01 -0.24287567218E+01  0.14357828981E+02  0.00000000000E+00 0. -1.
</event>
<event>
 8    1  0.7977359E-012  0.9118800E+02  0.7816164E-02  0.1184000E+00
        -11   -1    0    0    0    0  0.00000000000E+00  0.00000000000E+00  0.45593999997E+02  0.45594000000E+02  0.51100000000E-03 0. -1.
         11   -1    0    0    0    0 -0.00000000000E+00 -0.00000000000E+00 -0.45593999997E+02  0.45594000000E+02  0.51100000000E-03 0.  1.
         23    2    1    2    0    0  0.00000000000E+00  0.35527136788E-14  0.00000000000E+00  0.91188000000E+02  0.91188000000E+02 0.  0.
    9900012    2    3    3    0    0  0.73256699674E+01 -0.31065425466E+02 -0.25187962477E+02  0.50528935160E+02  0.30000228912E+02 0.  0.
         12    1    3    3    0    0 -0.73256699674E+01  0.31065425466E+02  0.25187962477E+02  0.40659064840E+02  0.00000000000E+00 0. -1.
         11    1    4    4    0    0  0.23794127514E+01 -0.81645735493E+01 -0.56220143769E+01  0.10194553065E+02  0.51100000000E-03 0. -1.
        -11    1    4    4    0    0  0.10270780806E+02 -0.25468967395E+02 -0.20604646406E+02  0.34332327219E+02  0.51100000000E-03 0.  1.
         12    1    4    4    0    0 -0.53245235896E+01  0.25681154778E+01  0.10386983052E+01  0.60020548759E+01  0.00000000000E+00 0. -1.
</event>
<event>
 8    1  0.7977359E-012  0.9118800E+02  0.7816164E-02  0.1184000E+00
        -11   -1    0    0    0    0  0.00000000000E+00  0.00000000000E+00  0.45593999997E+02  0.45594000000E+02  0.51100000000E-03 0. -1.
         11   -1    0    0    0    0 -0.00000000000E+00 -0.00000000000E+00 -0.45593999997E+02  0.45594000000E+02  0.51100000000E-03 0.  1.
         23    2    1    2    0    0  0.00000000000E+00  0.16375789613E-14 -0.71054273576E-14  0.91188000000E+02  0.91188000000E+02 0.  0.
    9900012    2    3    3    0    0  0.16853826415E+02  0.13469039692E+00 -0.37001251039E+02  0.50528902804E+02  0.30000130564E+02 0.  0.
         12    1    3    3    0    0 -0.16853826415E+02 -0.13469039692E+00  0.37001251039E+02  0.40659097196E+02  0.00000000000E+00 0. -1.
         11    1    4    4    0    0  0.21324460244E+01 -0.82038488492E+01 -0.11718102075E+02  0.14462516327E+02  0.51100000000E-03 0. -1.
        -11    1    4    4    0    0 -0.33193380152E+01 -0.28941492847E+01 -0.34148735929E+01  0.55727432076E+01  0.51100000000E-03 0.  1.
        -12    1    4    4    0    0  0.18040718405E+02  0.11232688531E+02 -0.21868275371E+02  0.30493643270E+02  0.00000000000E+00 0.  1.
</event>
<event>
 8    1  0.7977359E-012  0.9118800E+02  0.7816164E-02  0.1184000E+00
        -11   -1    0    0    0    0  0.00000000000E+00  0.00000000000E+00  0.45593999997E+02  0.45594000000E+02  0.51100000000E-03 0. -1.
         11   -1    0    0    0    0 -0.00000000000E+00 -0.00000000000E+00 -0.45593999997E+02  0.45594000000E+02  0.51100000000E-03 0.  1.
         23    2    1    2    0    0  0.00000000000E+00  0.00000000000E+00  0.00000000000E+00  0.91188000000E+02  0.91188000000E+02 0.  0.
    9900012    2    3    3    0    0  0.33810638815E+02 -0.49246967082E+01 -0.22039844807E+02  0.50528847355E+02  0.29999962019E+02 0.  0.
         12    1    3    3    0    0 -0.33810638815E+02  0.49246967082E+01  0.22039844807E+02  0.40659152645E+02  0.00000000000E+00 0. -1.
         11    1    4    4    0    0  0.88969898395E+01 -0.87893002104E+01 -0.47293362374E+01  0.13370671184E+02  0.51100000000E-03 0.  1.
        -11    1    4    4    0    0  0.29672296781E+01  0.96197920561E+01 -0.68351832658E+01  0.12168179063E+02  0.51100000000E-03 0. -1.
         12    1    4    4    0    0  0.21946419297E+02 -0.57551885539E+01 -0.10475325304E+02  0.24989997108E+02  0.00000000000E+00 0. -1.
</event>
<event>
 8    1  0.7977359E-012  0.9118800E+02  0.7816164E-02  0.1184000E+00
        -11   -1    0    0    0    0  0.00000000000E+00  0.00000000000E+00  0.45593999997E+02  0.45594000000E+02  0.51100000000E-03 0. -1.
         11   -1    0    0    0    0 -0.00000000000E+00 -0.00000000000E+00 -0.45593999997E+02  0.45594000000E+02  0.51100000000E-03 0.  1.
         23    2    1    2    0    0  0.00000000000E+00 -0.44408920985E-15  0.00000000000E+00  0.91188000000E+02  0.91188000000E+02 0.  0.
    9900012    2    3    3    0    0 -0.36952886967E+02 -0.25676576962E+01  0.16764755617E+02  0.50528858935E+02  0.29999997220E+02 0.  0.
        -12    1    3    3    0    0  0.36952886967E+02  0.25676576962E+01 -0.16764755617E+02  0.40659141065E+02  0.00000000000E+00 0.  1.
         11    1    4    4    0    0 -0.15384368776E+02 -0.32655040567E+01  0.13532019394E+02  0.20747478606E+02  0.51100000000E-03 0. -1.
        -11    1    4    4    0    0 -0.90863446409E+01 -0.72469959836E+01  0.81436878587E+01  0.14191556008E+02  0.51100000000E-03 0.  1.
         12    1    4    4    0    0 -0.12482173550E+02  0.79448423440E+01 -0.49109516356E+01  0.15589824321E+02  0.00000000000E+00 0. -1.
</event>
<event>
 8    1  0.7977359E-012  0.9118800E+02  0.7816164E-02  0.1184000E+00
        -11   -1    0    0    0    0  0.00000000000E+00  0.00000000000E+00  0.45593999997E+02  0.45594000000E+02  0.51100000000E-03 0. -1.
         11   -1    0    0    0    0 -0.00000000000E+00 -0.00000000000E+00 -0.45593999997E+02  0.45594000000E+02  0.51100000000E-03 0.  1.
         23    2    1    2    0    0  0.00000000000E+00  0.00000000000E+00  0.00000000000E+00  0.91188000000E+02  0.91188000000E+02 0.  0.
    9900012    2    3    3    0    0 -0.88070408280E+01  0.84163670893E+01 -0.38791324802E+02  0.50528854866E+02  0.29999984850E+02 0.  0.
         12    1    3    3    0    0  0.88070408280E+01 -0.84163670893E+01  0.38791324802E+02  0.40659145134E+02  0.00000000000E+00 0. -1.
         11    1    4    4    0    0 -0.43769973497E+01 -0.60941969621E+01 -0.70240748646E+01  0.10277887447E+02  0.51100000000E-03 0.  1.
        -11    1    4    4    0    0 -0.75590029389E+01 -0.10685719399E+01 -0.50108271705E+01  0.91317446644E+01  0.51100000000E-03 0. -1.
        -12    1    4    4    0    0  0.31289594606E+01  0.15579135991E+02 -0.26756422767E+02  0.31119222754E+02  0.00000000000E+00 0.  1.
</event>
<event>
 8    1  0.7977359E-012  0.9118800E+02  0.7816164E-02  0.1184000E+00
        -11   -1    0    0    0    0  0.00000000000E+00  0.00000000000E+00  0.45593999997E+02  0.45594000000E+02  0.51100000000E-03 0. -1.
         11   -1    0    0    0    0 -0.00000000000E+00 -0.00000000000E+00 -0.45593999997E+02  0.45594000000E+02  0.51100000000E-03 0.  1.
         23    2    1    2    0    0  0.00000000000E+00 -0.35527136788E-14 -0.88817841970E-15  0.91188000000E+02  0.91188000000E+02 0.  0.
    9900012    2    3    3    0    0  0.26985669120E+02  0.29971682561E+02  0.51611788025E+01  0.50528857609E+02  0.29999993188E+02 0.  0.
         12    1    3    3    0    0 -0.26985669120E+02 -0.29971682561E+02 -0.51611788025E+01  0.40659142391E+02  0.00000000000E+00 0. -1.
         11    1    4    4    0    0 -0.42420273397E+01  0.11606393573E+01  0.29796066743E+01  0.53122439574E+01  0.51100000000E-03 0. -1.
        -11    1    4    4    0    0  0.40645372842E+01 -0.10292339209E+01 -0.20059542140E+01  0.46479714251E+01  0.51100000000E-03 0.  1.
        -12    1    4    4    0    0  0.27163159175E+02  0.29840277124E+02  0.41875263423E+01  0.40568642226E+02  0.00000000000E+00 0.  1.
</event>
<event>
 8    1  0.7977359E-012  0.9118800E+02  0.7816164E-02  0.1184000E+00
        -11   -1    0    0    0    0  0.00000000000E+00  0.00000000000E+00  0.45593999997E+02  0.45594000000E+02  0.51100000000E-03 0. -1.
         11   -1    0    0    0    0 -0.00000000000E+00 -0.00000000000E+00 -0.45593999997E+02  0.45594000000E+02  0.51100000000E-03 0.  1.
         23    2    1    2    0    0  0.00000000000E+00  0.00000000000E+00  0.00000000000E+00  0.91188000000E+02  0.91188000000E+02 0.  0.
    9900012    2    3    3    0    0 -0.99270241562E+01 -0.22456071575E+02 -0.32409039236E+02  0.50528846253E+02  0.29999958672E+02 0.  0.
         12    1    3    3    0    0  0.99270241562E+01  0.22456071575E+02  0.32409039236E+02  0.40659153747E+02  0.00000000000E+00 0. -1.
         11    1    4    4    0    0 -0.81983034757E+01 -0.34673891373E+01 -0.15303473700E+02  0.17703990366E+02  0.51100000000E-03 0. -1.
        -11    1    4    4    0    0 -0.82108369943E+01 -0.85967722114E+01 -0.12562447415E+00  0.11888570914E+02  0.51100000000E-03 0.  1.
        -12    1    4    4    0    0  0.64821163137E+01 -0.10391910227E+02 -0.16979941061E+02  0.20936284974E+02  0.00000000000E+00 0.  1.
</event>
<event>
 8    1  0.7977359E-012  0.9118800E+02  0.7816164E-02  0.1184000E+00
        -11   -1    0    0    0    0  0.00000000000E+00  0.00000000000E+00  0.45593999997E+02  0.45594000000E+02  0.51100000000E-03 0.  1.
         11   -1    0    0    0    0 -0.00000000000E+00 -0.00000000000E+00 -0.45593999997E+02  0.45594000000E+02  0.51100000000E-03 0. -1.
         23    2    1    2    0    0  0.00000000000E+00  0.00000000000E+00  0.00000000000E+00  0.91188000000E+02  0.91188000000E+02 0.  0.
    9900012    2    3    3    0    0  0.18183199137E+02  0.35366376735E+02 -0.84708929027E+01  0.50528863748E+02  0.30000011848E+02 0.  0.
        -12    1    3    3    0    0 -0.18183199137E+02 -0.35366376735E+02  0.84708929027E+01  0.40659136252E+02  0.00000000000E+00 0.  1.
         11    1    4    4    0    0  0.10199222818E+02  0.52454807044E+01 -0.38412894830E+01  0.12095235387E+02  0.51100000000E-03 0.  1.
        -11    1    4    4    0    0 -0.64531204492E+00  0.82779361840E+01 -0.11296758320E+02  0.14019893149E+02  0.51100000000E-03 0. -1.
        -12    1    4    4    0    0  0.86292883636E+01  0.21842959847E+02  0.66671549004E+01  0.24413735212E+02  0.00000000000E+00 0.  1.
</event>
<event>
 8    1  0.7977359E-012  0.9118800E+02  0.7816164E-02  0.1184000E+00
        -11   -1    0    0    0    0  0.00000000000E+00  0.00000000000E+00  0.45593999997E+02  0.45594000000E+02  0.51100000000E-03 0. -1.
         11   -1    0    0    0    0 -0.00000000000E+00 -0.00000000000E+00 -0.45593999997E+02  0.45594000000E+02  0.51100000000E-03 0.  1.
         23    2    1    2    0    0  0.00000000000E+00 -0.44408920985E-15 -0.71054273576E-14  0.91188000000E+02  0.91188000000E+02 0.  0.
    9900012    2    3    3    0    0 -0.95676381885E+01  0.14837403278E+01 -0.39489539903E+02  0.50528868829E+02  0.30000027292E+02 0.  0.
         12    1    3    3    0    0  0.95676381885E+01 -0.14837403278E+01  0.39489539903E+02  0.40659131171E+02  0.00000000000E+00 0. -1.
         11    1    4    4    0    0  0.27552212246E+01 -0.44479095581E+01 -0.11191117528E+02  0.12353795175E+02  0.51100000000E-03 0. -1.
        -11    1    4    4    0    0  0.27160713910E+01  0.39876814470E+01 -0.20621674575E+02  0.21178576668E+02  0.51100000000E-03 0.  1.
         12    1    4    4    0    0 -0.15038930804E+02  0.19439684389E+01 -0.76767477994E+01  0.16996496986E+02  0.00000000000E+00 0. -1.
</event>
<event>
 8    1  0.7977359E-012  0.9118800E+02  0.7816164E-02  0.1184000E+00
        -11   -1    0    0    0    0  0.00000000000E+00  0.00000000000E+00  0.45593999997E+02  0.45594000000E+02  0.51100000000E-03 0. -1.
         11   -1    0    0    0    0 -0.00000000000E+00 -0.00000000000E+00 -0.45593999997E+02  0.45594000000E+02  0.51100000000E-03 0.  1.
         23    2    1    2    0    0  0.00000000000E+00  0.00000000000E+00  0.00000000000E+00  0.91188000000E+02  0.91188000000E+02 0.  0.
    9900012    2    3    3    0    0  0.48272075203E+01  0.19936266155E+02  0.35105682673E+02  0.50528860848E+02  0.30000003033E+02 0.  0.
        -12    1    3    3    0    0 -0.48272075203E+01 -0.19936266155E+02 -0.35105682673E+02  0.40659139152E+02  0.00000000000E+00 0.  1.
         11    1    4    4    0    0  0.11057249134E+01  0.37962632351E+00 -0.89035944744E+00  0.14695182668E+01  0.51100000000E-03 0. -1.
        -11    1    4    4    0    0 -0.89690509734E+01  0.18176491774E+02  0.25206935782E+02  0.32345298582E+02  0.51100000000E-03 0.  1.
         12    1    4    4    0    0  0.12690533580E+02  0.13801480572E+01  0.10789106338E+02  0.16714043999E+02  0.00000000000E+00 0. -1.
</event>
<event>
 8    1  0.7977359E-012  0.9118800E+02  0.7816164E-02  0.1184000E+00
        -11   -1    0    0    0    0  0.00000000000E+00  0.00000000000E+00  0.45593999997E+02  0.45594000000E+02  0.51100000000E-03 0. -1.
         11   -1    0    0    0    0 -0.00000000000E+00 -0.00000000000E+00 -0.45593999997E+02  0.45594000000E+02  0.51100000000E-03 0.  1.
         23    2    1    2    0    0  0.00000000000E+00  0.00000000000E+00  0.00000000000E+00  0.91188000000E+02  0.91188000000E+02 0.  0.
    9900012    2    3    3    0    0 -0.20278047953E+02  0.21902424715E+02  0.27608878977E+02  0.50528860369E+02  0.30000001577E+02 0.  0.
        -12    1    3    3    0    0  0.20278047953E+02 -0.21902424715E+02 -0.27608878977E+02  0.40659139631E+02  0.00000000000E+00 0.  1.
         11    1    4    4    0    0 -0.20703977965E+01 -0.76464410103E+00  0.94805641522E+01  0.97340805700E+01  0.51100000000E-03 0. -1.
        -11    1    4    4    0    0 -0.42456396791E+01  0.10514118832E+01  0.14082266526E+02  0.14745886002E+02  0.51100000000E-03 0.  1.
        -12    1    4    4    0    0 -0.13962010477E+02  0.21615656933E+02  0.40460482995E+01  0.26048893797E+02  0.00000000000E+00 0.  1.
</event>
<event>
 8    1  0.7977359E-012  0.9118800E+02  0.7816164E-02  0.1184000E+00
        -11   -1    0    0    0    0  0.00000000000E+00  0.00000000000E+00  0.45593999997E+02  0.45594000000E+02  0.51100000000E-03 0. -1.
         11   -1    0    0    0    0 -0.00000000000E+00 -0.00000000000E+00 -0.45593999997E+02  0.45594000000E+02  0.51100000000E-03 0.  1.
         23    2    1    2    0    0  0.17763568394E-14  0.00000000000E+00  0.00000000000E+00  0.91188000000E+02  0.91188000000E+02 0.  0.
    9900012    2    3    3    0    0 -0.10388128534E+02  0.51966553030E+01 -0.38964692653E+02  0.50528859400E+02  0.29999998632E+02 0.  0.
         12    1    3    3    0    0  0.10388128534E+02 -0.51966553030E+01  0.38964692653E+02  0.40659140600E+02  0.00000000000E+00 0. -1.
         11    1    4    4    0    0  0.17363913361E+01  0.72495720417E+00 -0.35067816101E+01  0.39797154851E+01  0.51100000000E-03 0. -1.
        -11    1    4    4    0    0  0.57582185762E+01  0.25770353837E+01 -0.24920103740E+02  0.25706220322E+02  0.51100000000E-03 0.  1.
         12    1    4    4    0    0 -0.17882738447E+02  0.18946627152E+01 -0.10537807303E+02  0.20842923593E+02  0.00000000000E+00 0. -1.
</event>
<event>
 8    1  0.7977359E-012  0.9118800E+02  0.7816164E-02  0.1184000E+00
        -11   -1    0    0    0    0  0.00000000000E+00  0.00000000000E+00  0.45593999997E+02  0.45594000000E+02  0.51100000000E-03 0. -1.
         11   -1    0    0    0    0 -0.00000000000E+00 -0.00000000000E+00 -0.45593999997E+02  0.45594000000E+02  0.51100000000E-03 0.  1.
         23    2    1    2    0    0 -0.35527136788E-14  0.13322676296E-14  0.00000000000E+00  0.91188000000E+02  0.91188000000E+02 0.  0.
    9900012    2    3    3    0    0  0.17096634722E+02 -0.21122497577E+01 -0.36829460412E+02  0.50528859920E+02  0.30000000211E+02 0.  0.
         12    1    3    3    0    0 -0.17096634722E+02  0.21122497577E+01  0.36829460412E+02  0.40659140080E+02  0.00000000000E+00 0. -1.
         11    1    4    4    0    0  0.10010953587E+02 -0.11520872496E+02 -0.71716440064E+01  0.16863634627E+02  0.51100000000E-03 0. -1.
        -11    1    4    4    0    0  0.38938326404E+01 -0.13256493866E+01 -0.12646778110E+02  0.13298882500E+02  0.51100000000E-03 0.  1.
        -12    1    4    4    0    0  0.31918484948E+01  0.10734272125E+02 -0.17011038295E+02  0.20366342793E+02  0.00000000000E+00 0.  1.
</event>
<event>
 8    1  0.7977359E-012  0.9118800E+02  0.7816164E-02  0.1184000E+00
        -11   -1    0    0    0    0  0.00000000000E+00  0.00000000000E+00  0.45593999997E+02  0.45594000000E+02  0.51100000000E-03 0. -1.
         11   -1    0    0    0    0 -0.00000000000E+00 -0.00000000000E+00 -0.45593999997E+02  0.45594000000E+02  0.51100000000E-03 0.  1.
         23    2    1    2    0    0  0.00000000000E+00  0.17763568394E-14  0.00000000000E+00  0.91188000000E+02  0.91188000000E+02 0.  0.
    9900012    2    3    3    0    0  0.12094743038E+02  0.55876466532E+01 -0.38414348510E+02  0.50528846348E+02  0.29999958959E+02 0.  0.
         12    1    3    3    0    0 -0.12094743038E+02 -0.55876466532E+01  0.38414348510E+02  0.40659153652E+02  0.00000000000E+00 0. -1.
         11    1    4    4    0    0  0.71677619261E+01 -0.15374789216E+01 -0.16533178517E-01  0.73308202863E+01  0.51100000000E-03 0. -1.
        -11    1    4    4    0    0  0.22250215778E+01 -0.55492918558E+01 -0.18588246823E+02  0.19526092321E+02  0.51100000000E-03 0.  1.
         12    1    4    4    0    0  0.27019595343E+01  0.12674417431E+02 -0.19809568508E+02  0.23671933740E+02  0.00000000000E+00 0. -1.
</event>
<event>
 8    1  0.7977359E-012  0.9118800E+02  0.7816164E-02  0.1184000E+00
        -11   -1    0    0    0    0  0.00000000000E+00  0.00000000000E+00  0.45593999997E+02  0.45594000000E+02  0.51100000000E-03 0. -1.
         11   -1    0    0    0    0 -0.00000000000E+00 -0.00000000000E+00 -0.45593999997E+02  0.45594000000E+02  0.51100000000E-03 0.  1.
         23    2    1    2    0    0 -0.35527136788E-14 -0.35527136788E-14  0.35527136788E-14  0.91188000000E+02  0.91188000000E+02 0.  0.
    9900012    2    3    3    0    0  0.26675075178E+02  0.20314417457E+02 -0.22998478845E+02  0.50528865460E+02  0.30000017053E+02 0.  0.
         12    1    3    3    0    0 -0.26675075178E+02 -0.20314417457E+02  0.22998478845E+02  0.40659134540E+02  0.00000000000E+00 0. -1.
         11    1    4    4    0    0 -0.81205397245E+00  0.13853977604E+02 -0.54496917409E+01  0.14909435517E+02  0.51100000000E-03 0. -1.
        -11    1    4    4    0    0  0.66565713721E+00  0.11257737738E+01 -0.56442692161E+01  0.57938105992E+01  0.51100000000E-03 0.  1.
         12    1    4    4    0    0  0.26821472013E+02  0.53346660793E+01 -0.11904517888E+02  0.29825619344E+02  0.00000000000E+00 0. -1.
</event>
<event>
 8    1  0.7977359E-012  0.9118800E+02  0.7816164E-02  0.1184000E+00
        -11   -1    0    0    0    0  0.00000000000E+00  0.00000000000E+00  0.45593999997E+02  0.45594000000E+02  0.51100000000E-03 0. -1.
         11   -1    0    0    0    0 -0.00000000000E+00 -0.00000000000E+00 -0.45593999997E+02  0.45594000000E+02  0.51100000000E-03 0.  1.
         23    2    1    2    0    0  0.00000000000E+00  0.00000000000E+00  0.35527136788E-14  0.91188000000E+02  0.91188000000E+02 0.  0.
    9900012    2    3    3    0    0  0.32163287751E+02 -0.84747460355E+01  0.23385189570E+02  0.50528862152E+02  0.30000006998E+02 0.  0.
        -12    1    3    3    0    0 -0.32163287751E+02  0.84747460355E+01 -0.23385189570E+02  0.40659137848E+02  0.00000000000E+00 0.  1.
         11    1    4    4    0    0  0.11385590820E+02 -0.91672293718E+01  0.18138174266E+02  0.23295131222E+02  0.51100000000E-03 0. -1.
        -11    1    4    4    0    0 -0.22296306235E+01  0.26780816859E+01 -0.25641301076E+00  0.34941554240E+01  0.51100000000E-03 0.  1.
        -12    1    4    4    0    0  0.23007327555E+02 -0.19855983496E+01  0.55034283143E+01  0.23739575506E+02  0.00000000000E+00 0.  1.
</event>
<event>
 8    1  0.7977359E-012  0.9118800E+02  0.7816164E-02  0.1184000E+00
        -11   -1    0    0    0    0  0.00000000000E+00  0.00000000000E+00  0.45593999997E+02  0.45594000000E+02  0.51100000000E-03 0.  1.
         11   -1    0    0    0    0 -0.00000000000E+00 -0.00000000000E+00 -0.45593999997E+02  0.45594000000E+02  0.51100000000E-03 0. -1.
         23    2    1    2    0    0 -0.71054273576E-14  0.44408920985E-15 -0.35527136788E-14  0.91188000000E+02  0.91188000000E+02 0.  0.
    9900012    2    3    3    0    0 -0.35108365756E+02 -0.11283691497E+01 -0.20476701183E+02  0.50528857678E+02  0.29999993399E+02 0.  0.
         12    1    3    3    0    0  0.35108365756E+02  0.11283691497E+01  0.20476701183E+02  0.40659142322E+02  0.00000000000E+00 0. -1.
         11    1    4    4    0    0 -0.39728948712E+01  0.27468687293E+01  0.25176624800E+01  0.54468161432E+01  0.51100000000E-03 0.  1.
        -11    1    4    4    0    0 -0.23683519932E+02  0.97142473267E+00 -0.39030820838E+01  0.24022631671E+02  0.51100000000E-03 0. -1.
         12    1    4    4    0    0 -0.74519509526E+01 -0.48466626117E+01 -0.19091281580E+02  0.21059409864E+02  0.00000000000E+00 0. -1.
</event>
<event>
 8    1  0.7977359E-012  0.9118800E+02  0.7816164E-02  0.1184000E+00
        -11   -1    0    0    0    0  0.00000000000E+00  0.00000000000E+00  0.45593999997E+02  0.45594000000E+02  0.51100000000E-03 0. -1.
         11   -1    0    0    0    0 -0.00000000000E+00 -0.00000000000E+00 -0.45593999997E+02  0.45594000000E+02  0.51100000000E-03 0.  1.
         23    2    1    2    0    0  0.00000000000E+00 -0.88817841970E-15  0.00000000000E+00  0.91188000000E+02  0.91188000000E+02 0.  0.
    9900012    2    3    3    0    0  0.81971314870E+01  0.74477410504E+01  0.39121653386E+02  0.50528861113E+02  0.30000003840E+02 0.  0.
        -12    1    3    3    0    0 -0.81971314870E+01 -0.74477410504E+01 -0.39121653386E+02  0.40659138887E+02  0.00000000000E+00 0.  1.
         11    1    4    4    0    0  0.59555851760E+01  0.62131705882E+01  0.25062971664E+01  0.89640397865E+01  0.51100000000E-03 0. -1.
        -11    1    4    4    0    0  0.36250319239E+01 -0.10335427161E+01 -0.96469404680E+00  0.38909769802E+01  0.51100000000E-03 0.  1.
         12    1    4    4    0    0 -0.13834856129E+01  0.22681131784E+01  0.37580050266E+02  0.37673844347E+02  0.00000000000E+00 0. -1.
</event>
<event>
 8    1  0.7977359E-012  0.9118800E+02  0.7816164E-02  0.1184000E+00
        -11   -1    0    0    0    0  0.00000000000E+00  0.00000000000E+00  0.45593999997E+02  0.45594000000E+02  0.51100000000E-03 0. -1.
         11   -1    0    0    0    0 -0.00000000000E+00 -0.00000000000E+00 -0.45593999997E+02  0.45594000000E+02  0.51100000000E-03 0.  1.
         23    2    1    2    0    0  0.17763568394E-14  0.00000000000E+00  0.00000000000E+00  0.91188000000E+02  0.91188000000E+02 0.  0.
    9900012    2    3    3    0    0  0.97305639993E+01  0.11831566625E+02 -0.37662920140E+02  0.50528863290E+02  0.30000010456E+02 0.  0.
         12    1    3    3    0    0 -0.97305639993E+01 -0.11831566625E+02  0.37662920140E+02  0.40659136710E+02  0.00000000000E+00 0. -1.
         11    1    4    4    0    0  0.97103772740E+00  0.85953032147E+01 -0.29626918833E+01  0.91432868859E+01  0.51100000000E-03 0. -1.
        -11    1    4    4    0    0 -0.53052814879E+01 -0.39781688693E+01 -0.12235175983E+02  0.13916586177E+02  0.51100000000E-03 0.  1.
         12    1    4    4    0    0  0.14064807760E+02  0.72144322797E+01 -0.22465052273E+02  0.27468990227E+02  0.00000000000E+00 0. -1.
</event>
<event>
 8    1  0.7977359E-012  0.9118800E+02  0.7816164E-02  0.1184000E+00
        -11   -1    0    0    0    0  0.00000000000E+00  0.00000000000E+00  0.45593999997E+02  0.45594000000E+02  0.51100000000E-03 0.  1.
         11   -1    0    0    0    0 -0.00000000000E+00 -0.00000000000E+00 -0.45593999997E+02  0.45594000000E+02  0.51100000000E-03 0. -1.
         23    2    1    2    0    0  0.00000000000E+00  0.00000000000E+00  0.00000000000E+00  0.91188000000E+02  0.91188000000E+02 0.  0.
    9900012    2    3    3    0    0 -0.35082906803E+02 -0.20204337157E+02 -0.37604085764E+01  0.50528852661E+02  0.29999978147E+02 0.  0.
         12    1    3    3    0    0  0.35082906803E+02  0.20204337157E+02  0.37604085764E+01  0.40659147339E+02  0.00000000000E+00 0. -1.
         11    1    4    4    0    0 -0.10871234285E+00  0.19682094556E+01 -0.27951390858E+01  0.34203025604E+01  0.51100000000E-03 0. -1.
        -11    1    4    4    0    0 -0.17497632847E+02 -0.50138477208E+00 -0.65932214797E+01  0.18705323084E+02  0.51100000000E-03 0.  1.
         12    1    4    4    0    0 -0.17476561613E+02 -0.21671161841E+02  0.56279519891E+01  0.28403227016E+02  0.00000000000E+00 0. -1.
</event>
<event>
 8    1  0.7977359E-012  0.9118800E+02  0.7816164E-02  0.1184000E+00
        -11   -1    0    0    0    0  0.00000000000E+00  0.00000000000E+00  0.45593999997E+02  0.45594000000E+02  0.51100000000E-03 0.  1.
         11   -1    0    0    0    0 -0.00000000000E+00 -0.00000000000E+00 -0.45593999997E+02  0.45594000000E+02  0.51100000000E-03 0. -1.
         23    2    1    2    0    0 -0.71054273576E-14  0.00000000000E+00  0.17763568394E-14  0.91188000000E+02  0.91188000000E+02 0.  0.
    9900012    2    3    3    0    0 -0.38448695644E+02  0.92696135365E+01  0.94306838223E+01  0.50528859218E+02  0.29999998078E+02 0.  0.
        -12    1    3    3    0    0  0.38448695644E+02 -0.92696135365E+01 -0.94306838223E+01  0.40659140782E+02  0.00000000000E+00 0.  1.
         11    1    4    4    0    0 -0.22722606592E+02 -0.24026066101E+01 -0.56968164224E+01  0.23548738533E+02  0.51100000000E-03 0. -1.
        -11    1    4    4    0    0 -0.45935085640E+01 -0.17366749433E+01  0.31987243542E+01  0.58607336180E+01  0.51100000000E-03 0.  1.
         12    1    4    4    0    0 -0.11132580488E+02  0.13408895090E+02  0.11928775890E+02  0.21119387067E+02  0.00000000000E+00 0. -1.
</event>
<event>
 8    1  0.7977359E-012  0.9118800E+02  0.7816164E-02  0.1184000E+00
        -11   -1    0    0    0    0  0.00000000000E+00  0.00000000000E+00  0.45593999997E+02  0.45594000000E+02  0.51100000000E-03 0.  1.
         11   -1    0    0    0    0 -0.00000000000E+00 -0.00000000000E+00 -0.45593999997E+02  0.45594000000E+02  0.51100000000E-03 0. -1.
         23    2    1    2    0    0  0.00000000000E+00  0.00000000000E+00  0.00000000000E+00  0.91188000000E+02  0.91188000000E+02 0.  0.
    9900012    2    3    3    0    0 -0.18079976779E+02 -0.35675007219E+02 -0.73194800826E+01  0.50528849873E+02  0.29999969674E+02 0.  0.
         12    1    3    3    0    0  0.18079976779E+02  0.35675007219E+02  0.73194800826E+01  0.40659150127E+02  0.00000000000E+00 0. -1.
         11    1    4    4    0    0 -0.42157408908E+01 -0.18056924460E+02  0.25546732701E+01  0.18717674748E+02  0.51100000000E-03 0. -1.
        -11    1    4    4    0    0 -0.14051841200E+02 -0.20151844386E+02 -0.33310119976E+01  0.24792069588E+02  0.51100000000E-03 0.  1.
         12    1    4    4    0    0  0.18760531207E+00  0.25337616273E+01 -0.65431413551E+01  0.70191055363E+01  0.00000000000E+00 0. -1.
</event>
<event>
 8    1  0.7977359E-012  0.9118800E+02  0.7816164E-02  0.1184000E+00
        -11   -1    0    0    0    0  0.00000000000E+00  0.00000000000E+00  0.45593999997E+02  0.45594000000E+02  0.51100000000E-03 0.  1.
         11   -1    0    0    0    0 -0.00000000000E+00 -0.00000000000E+00 -0.45593999997E+02  0.45594000000E+02  0.51100000000E-03 0. -1.
         23    2    1    2    0    0  0.00000000000E+00  0.66613381478E-15  0.00000000000E+00  0.91188000000E+02  0.91188000000E+02 0.  0.
    9900012    2    3    3    0    0  0.35456966979E+02 -0.18803477398E+01 -0.19809954482E+02  0.50528849596E+02  0.29999968833E+02 0.  0.
         12    1    3    3    0    0 -0.35456966979E+02  0.18803477398E+01  0.19809954482E+02  0.40659150404E+02  0.00000000000E+00 0. -1.
         11    1    4    4    0    0  0.36970596507E+01 -0.91186059544E+01 -0.66991113947E+01  0.11903584265E+02  0.51100000000E-03 0. -1.
        -11    1    4    4    0    0 -0.13760012659E+01  0.95550873568E-01 -0.29201959684E+01  0.32295594449E+01  0.51100000000E-03 0.  1.
        -12    1    4    4    0    0  0.33135908594E+02  0.71427073410E+01 -0.10190647119E+02  0.35395705887E+02  0.00000000000E+00 0.  1.
</event>
<event>
 8    1  0.7977359E-012  0.9118800E+02  0.7816164E-02  0.1184000E+00
        -11   -1    0    0    0    0  0.00000000000E+00  0.00000000000E+00  0.45593999997E+02  0.45594000000E+02  0.51100000000E-03 0. -1.
         11   -1    0    0    0    0 -0.00000000000E+00 -0.00000000000E+00 -0.45593999997E+02  0.45594000000E+02  0.51100000000E-03 0.  1.
         23    2    1    2    0    0  0.88817841970E-15  0.17763568394E-14  0.00000000000E+00  0.91188000000E+02  0.91188000000E+02 0.  0.
    9900012    2    3    3    0    0  0.52219014027E+01 -0.10297401774E+02  0.38985391380E+02  0.50528862299E+02  0.30000007444E+02 0.  0.
        -12    1    3    3    0    0 -0.52219014027E+01  0.10297401774E+02 -0.38985391380E+02  0.40659137701E+02  0.00000000000E+00 0.  1.
         11    1    4    4    0    0  0.95595912082E+01  0.16094394259E+01  0.53935726276E+01  0.11093543405E+02  0.51100000000E-03 0. -1.
        -11    1    4    4    0    0  0.47961036317E+01 -0.98906649182E+00  0.31303913249E+01  0.58120747311E+01  0.51100000000E-03 0.  1.
        -12    1    4    4    0    0 -0.91337934372E+01 -0.10917774708E+02  0.30461427427E+02  0.33623244163E+02  0.00000000000E+00 0.  1.
</event>
<event>
 8    1  0.7977359E-012  0.9118800E+02  0.7816164E-02  0.1184000E+00
        -11   -1    0    0    0    0  0.00000000000E+00  0.00000000000E+00  0.45593999997E+02  0.45594000000E+02  0.51100000000E-03 0. -1.
         11   -1    0    0    0    0 -0.00000000000E+00 -0.00000000000E+00 -0.45593999997E+02  0.45594000000E+02  0.51100000000E-03 0.  1.
         23    2    1    2    0    0  0.00000000000E+00 -0.88817841970E-15  0.17763568394E-14  0.91188000000E+02  0.91188000000E+02 0.  0.
    9900012    2    3    3    0    0  0.38228674652E+02 -0.22386275572E+01  0.13664615873E+02  0.50528871308E+02  0.30000034828E+02 0.  0.
        -12    1    3    3    0    0 -0.38228674652E+02  0.22386275572E+01 -0.13664615873E+02  0.40659128692E+02  0.00000000000E+00 0.  1.
         11    1    4    4    0    0  0.82810349979E+00  0.54581290732E+01 -0.48967210797E+00  0.55422655495E+01  0.51100000000E-03 0. -1.
        -11    1    4    4    0    0  0.44194285706E+01  0.45543504292E+01 -0.14320550668E+01  0.65057081627E+01  0.51100000000E-03 0.  1.
         12    1    4    4    0    0  0.32981142582E+02 -0.12251107060E+02  0.15586343048E+02  0.38480897596E+02  0.00000000000E+00 0. -1.
</event>
<event>
 8    1  0.7977359E-012  0.9118800E+02  0.7816164E-02  0.1184000E+00
        -11   -1    0    0    0    0  0.00000000000E+00  0.00000000000E+00  0.45593999997E+02  0.45594000000E+02  0.51100000000E-03 0. -1.
         11   -1    0    0    0    0 -0.00000000000E+00 -0.00000000000E+00 -0.45593999997E+02  0.45594000000E+02  0.51100000000E-03 0.  1.
         23    2    1    2    0    0  0.00000000000E+00  0.00000000000E+00 -0.35527136788E-14  0.91188000000E+02  0.91188000000E+02 0.  0.
    9900012    2    3    3    0    0  0.16863947379E+02 -0.19971820876E+02  0.31143172815E+02  0.50528885852E+02  0.30000079036E+02 0.  0.
        -12    1    3    3    0    0 -0.16863947379E+02  0.19971820876E+02 -0.31143172815E+02  0.40659114148E+02  0.00000000000E+00 0.  1.
         11    1    4    4    0    0 -0.18407627837E+01 -0.27540010069E+01  0.38114222499E+00  0.33343963215E+01  0.51100000000E-03 0. -1.
        -11    1    4    4    0    0  0.16561730088E+01 -0.15346514760E+02  0.49613454689E+01  0.16213370206E+02  0.51100000000E-03 0.  1.
         12    1    4    4    0    0  0.17048537154E+02 -0.18713051095E+01  0.25800685121E+02  0.30981119325E+02  0.00000000000E+00 0. -1.
</event>
<event>
 8    1  0.7977359E-012  0.9118800E+02  0.7816164E-02  0.1184000E+00
        -11   -1    0    0    0    0  0.00000000000E+00  0.00000000000E+00  0.45593999997E+02  0.45594000000E+02  0.51100000000E-03 0. -1.
         11   -1    0    0    0    0 -0.00000000000E+00 -0.00000000000E+00 -0.45593999997E+02  0.45594000000E+02  0.51100000000E-03 0.  1.
         23    2    1    2    0    0  0.00000000000E+00  0.00000000000E+00  0.00000000000E+00  0.91188000000E+02  0.91188000000E+02 0.  0.
    9900012    2    3    3    0    0  0.38131715863E+02  0.55338289123E+01 -0.12981325510E+02  0.50528857989E+02  0.29999994344E+02 0.  0.
         12    1    3    3    0    0 -0.38131715863E+02 -0.55338289123E+01  0.12981325510E+02  0.40659142011E+02  0.00000000000E+00 0. -1.
         11    1    4    4    0    0  0.24858851035E+02 -0.21172750179E+01 -0.37959672836E+01  0.25235980191E+02  0.51100000000E-03 0. -1.
        -11    1    4    4    0    0  0.13891232558E+02 -0.17562516700E+01 -0.68126830577E+01  0.15571236708E+02  0.51100000000E-03 0.  1.
         12    1    4    4    0    0 -0.61836773071E+00  0.94073556002E+01 -0.23726751690E+01  0.97216410907E+01  0.00000000000E+00 0. -1.
</event>
<event>
 8    1  0.7977359E-012  0.9118800E+02  0.7816164E-02  0.1184000E+00
        -11   -1    0    0    0    0  0.00000000000E+00  0.00000000000E+00  0.45593999997E+02  0.45594000000E+02  0.51100000000E-03 0. -1.
         11   -1    0    0    0    0 -0.00000000000E+00 -0.00000000000E+00 -0.45593999997E+02  0.45594000000E+02  0.51100000000E-03 0.  1.
         23    2    1    2    0    0  0.71054273576E-14  0.17763568394E-14  0.00000000000E+00  0.91188000000E+02  0.91188000000E+02 0.  0.
    9900012    2    3    3    0    0  0.33094066171E+02 -0.12701375151E+02 -0.19915403777E+02  0.50528862601E+02  0.30000008361E+02 0.  0.
         12    1    3    3    0    0 -0.33094066171E+02  0.12701375151E+02  0.19915403777E+02  0.40659137399E+02  0.00000000000E+00 0. -1.
         11    1    4    4    0    0  0.26157873532E+02 -0.16236081649E+02 -0.14213774434E+02  0.33909822750E+02  0.51100000000E-03 0. -1.
        -11    1    4    4    0    0  0.10148474460E+02 -0.82679310127E+00 -0.34166640192E+01  0.10740051861E+02  0.51100000000E-03 0.  1.
        -12    1    4    4    0    0 -0.32122818202E+01  0.43614995998E+01 -0.22849653244E+01  0.58789879899E+01  0.00000000000E+00 0.  1.
</event>
<event>
 8    1  0.7977359E-012  0.9118800E+02  0.7816164E-02  0.1184000E+00
        -11   -1    0    0    0    0  0.00000000000E+00  0.00000000000E+00  0.45593999997E+02  0.45594000000E+02  0.51100000000E-03 0. -1.
         11   -1    0    0    0    0 -0.00000000000E+00 -0.00000000000E+00 -0.45593999997E+02  0.45594000000E+02  0.51100000000E-03 0.  1.
         23    2    1    2    0    0  0.17763568394E-14  0.35527136788E-14  0.00000000000E+00  0.91188000000E+02  0.91188000000E+02 0.  0.
    9900012    2    3    3    0    0 -0.69330348346E+01 -0.21280835366E+02  0.33944438855E+02  0.50528857669E+02  0.29999993372E+02 0.  0.
        -12    1    3    3    0    0  0.69330348346E+01  0.21280835366E+02 -0.33944438855E+02  0.40659142331E+02  0.00000000000E+00 0.  1.
         11    1    4    4    0    0 -0.11925739827E+02 -0.17495831030E+02  0.19966938555E+02  0.29103367664E+02  0.51100000000E-03 0. -1.
        -11    1    4    4    0    0 -0.33990002964E+01 -0.50599010722E+01  0.10723994770E+02  0.12335309723E+02  0.51100000000E-03 0.  1.
        -12    1    4    4    0    0  0.83917052890E+01  0.12748967359E+01  0.32535055303E+01  0.90901802832E+01  0.00000000000E+00 0.  1.
</event>
<event>
 8    1  0.7977359E-012  0.9118800E+02  0.7816164E-02  0.1184000E+00
        -11   -1    0    0    0    0  0.00000000000E+00  0.00000000000E+00  0.45593999997E+02  0.45594000000E+02  0.51100000000E-03 0. -1.
         11   -1    0    0    0    0 -0.00000000000E+00 -0.00000000000E+00 -0.45593999997E+02  0.45594000000E+02  0.51100000000E-03 0.  1.
         23    2    1    2    0    0 -0.66613381478E-15 -0.17763568394E-14  0.00000000000E+00  0.91188000000E+02  0.91188000000E+02 0.  0.
    9900012    2    3    3    0    0 -0.17775641012E+01  0.15220766478E+02  0.37660817807E+02  0.50528823124E+02  0.29999888368E+02 0.  0.
        -12    1    3    3    0    0  0.17775641012E+01 -0.15220766478E+02 -0.37660817807E+02  0.40659176876E+02  0.00000000000E+00 0.  1.
         11    1    4    4    0    0  0.43712426178E+01  0.18425983184E+02  0.26700836207E+02  0.32734679970E+02  0.51100000000E-03 0. -1.
        -11    1    4    4    0    0  0.17353240667E+01  0.32112059984E+01  0.43057669625E+01  0.56447163770E+01  0.51100000000E-03 0.  1.
        -12    1    4    4    0    0 -0.78841307858E+01 -0.64164227044E+01  0.66542146379E+01  0.12149426777E+02  0.00000000000E+00 0.  1.
</event>
<event>
 8    1  0.7977359E-012  0.9118800E+02  0.7816164E-02  0.1184000E+00
        -11   -1    0    0    0    0  0.00000000000E+00  0.00000000000E+00  0.45593999997E+02  0.45594000000E+02  0.51100000000E-03 0. -1.
         11   -1    0    0    0    0 -0.00000000000E+00 -0.00000000000E+00 -0.45593999997E+02  0.45594000000E+02  0.51100000000E-03 0.  1.
         23    2    1    2    0    0 -0.71054273576E-14 -0.71054273576E-14 -0.35527136788E-14  0.91188000000E+02  0.91188000000E+02 0.  0.
    9900012    2    3    3    0    0 -0.30718004176E+02 -0.16394479762E+02 -0.20995031981E+02  0.50528854471E+02  0.29999983650E+02 0.  0.
         12    1    3    3    0    0  0.30718004176E+02  0.16394479762E+02  0.20995031981E+02  0.40659145529E+02  0.00000000000E+00 0. -1.
         11    1    4    4    0    0 -0.33444718612E+01 -0.15845696370E+02 -0.86456347476E+01  0.18358065964E+02  0.51100000000E-03 0. -1.
        -11    1    4    4    0    0 -0.75674440764E+01 -0.40507247872E+01 -0.27931967529E-01  0.85834353033E+01  0.51100000000E-03 0.  1.
        -12    1    4    4    0    0 -0.19806088239E+02  0.35019413951E+01 -0.12321465266E+02  0.23587353204E+02  0.00000000000E+00 0.  1.
</event>
<event>
 8    1  0.7977359E-012  0.9118800E+02  0.7816164E-02  0.1184000E+00
        -11   -1    0    0    0    0  0.00000000000E+00  0.00000000000E+00  0.45593999997E+02  0.45594000000E+02  0.51100000000E-03 0. -1.
         11   -1    0    0    0    0 -0.00000000000E+00 -0.00000000000E+00 -0.45593999997E+02  0.45594000000E+02  0.51100000000E-03 0.  1.
         23    2    1    2    0    0 -0.17763568394E-14 -0.35527136788E-14  0.00000000000E+00  0.91188000000E+02  0.91188000000E+02 0.  0.
    9900012    2    3    3    0    0  0.92481686614E+01 -0.11775274846E+02 -0.37801850785E+02  0.50528860264E+02  0.30000001260E+02 0.  0.
         12    1    3    3    0    0 -0.92481686614E+01  0.11775274846E+02  0.37801850785E+02  0.40659139736E+02  0.00000000000E+00 0. -1.
         11    1    4    4    0    0  0.48715204441E+01 -0.38138522834E+01 -0.82836577359E+01  0.10339060229E+02  0.51100000000E-03 0. -1.
        -11    1    4    4    0    0  0.54779115732E+01 -0.17064363465E+02 -0.21665252667E+02  0.28117311199E+02  0.51100000000E-03 0.  1.
        -12    1    4    4    0    0 -0.11012633559E+01  0.91029409028E+01 -0.78529403819E+01  0.12072488836E+02  0.00000000000E+00 0.  1.
</event>
<event>
 8    1  0.7977359E-012  0.9118800E+02  0.7816164E-02  0.1184000E+00
        -11   -1    0    0    0    0  0.00000000000E+00  0.00000000000E+00  0.45593999997E+02  0.45594000000E+02  0.51100000000E-03 0. -1.
         11   -1    0    0    0    0 -0.00000000000E+00 -0.00000000000E+00 -0.45593999997E+02  0.45594000000E+02  0.51100000000E-03 0.  1.
         23    2    1    2    0    0  0.00000000000E+00 -0.35527136788E-14  0.00000000000E+00  0.91188000000E+02  0.91188000000E+02 0.  0.
    9900012    2    3    3    0    0 -0.19470311219E+02 -0.23297601956E+02 -0.27042463208E+02  0.50528854753E+02  0.29999984507E+02 0.  0.
         12    1    3    3    0    0  0.19470311219E+02  0.23297601956E+02  0.27042463208E+02  0.40659145247E+02  0.00000000000E+00 0. -1.
         11    1    4    4    0    0 -0.12955973909E+01 -0.23451936440E+01 -0.45252341498E+00  0.27172198161E+01  0.51100000000E-03 0. -1.
        -11    1    4    4    0    0  0.70486775569E+01 -0.96915672604E+01 -0.98490135361E+01  0.15511718124E+02  0.51100000000E-03 0.  1.
        -12    1    4    4    0    0 -0.25223391385E+02 -0.11260841051E+02 -0.16740926257E+02  0.32299916813E+02  0.00000000000E+00 0.  1.
</event>
<event>
 8    1  0.7977359E-012  0.9118800E+02  0.7816164E-02  0.1184000E+00
        -11   -1    0    0    0    0  0.00000000000E+00  0.00000000000E+00  0.45593999997E+02  0.45594000000E+02  0.51100000000E-03 0. -1.
         11   -1    0    0    0    0 -0.00000000000E+00 -0.00000000000E+00 -0.45593999997E+02  0.45594000000E+02  0.51100000000E-03 0.  1.
         23    2    1    2    0    0  0.00000000000E+00  0.00000000000E+00  0.00000000000E+00  0.91188000000E+02  0.91188000000E+02 0.  0.
    9900012    2    3    3    0    0  0.14557440911E+02  0.11967522737E+02  0.36028115722E+02  0.50528858238E+02  0.29999995100E+02 0.  0.
        -12    1    3    3    0    0 -0.14557440911E+02 -0.11967522737E+02 -0.36028115722E+02  0.40659141762E+02  0.00000000000E+00 0.  1.
         11    1    4    4    0    0  0.77265058632E+00 -0.33530742609E+01  0.11965604265E+02  0.12450533386E+02  0.51100000000E-03 0. -1.
        -11    1    4    4    0    0  0.67364869934E+01 -0.37020661972E+01  0.12649273104E+02  0.14801677657E+02  0.51100000000E-03 0.  1.
        -12    1    4    4    0    0  0.70483033317E+01  0.19022663195E+02  0.11413238353E+02  0.23276647194E+02  0.00000000000E+00 0.  1.
</event>
<event>
 8    1  0.7977359E-012  0.9118800E+02  0.7816164E-02  0.1184000E+00
        -11   -1    0    0    0    0  0.00000000000E+00  0.00000000000E+00  0.45593999997E+02  0.45594000000E+02  0.51100000000E-03 0. -1.
         11   -1    0    0    0    0 -0.00000000000E+00 -0.00000000000E+00 -0.45593999997E+02  0.45594000000E+02  0.51100000000E-03 0.  1.
         23    2    1    2    0    0  0.00000000000E+00  0.35527136788E-14  0.00000000000E+00  0.91188000000E+02  0.91188000000E+02 0.  0.
    9900012    2    3    3    0    0 -0.17019055584E+02  0.88294003138E+01  0.35854690919E+02  0.50528862973E+02  0.30000009492E+02 0.  0.
        -12    1    3    3    0    0  0.17019055584E+02 -0.88294003138E+01 -0.35854690919E+02  0.40659137027E+02  0.00000000000E+00 0.  1.
         11    1    4    4    0    0 -0.86456933787E+00  0.12293680853E+02  0.14906377833E+02  0.19341203929E+02  0.51100000000E-03 0. -1.
        -11    1    4    4    0    0  0.55105612328E+00  0.30853383302E+01 -0.55310628487E+00  0.31825936414E+01  0.51100000000E-03 0.  1.
         12    1    4    4    0    0 -0.16705542370E+02 -0.65496188699E+01  0.21501419372E+02  0.28005065403E+02  0.00000000000E+00 0. -1.
</event>
<event>
 8    1  0.7977359E-012  0.9118800E+02  0.7816164E-02  0.1184000E+00
        -11   -1    0    0    0    0  0.00000000000E+00  0.00000000000E+00  0.45593999997E+02  0.45594000000E+02  0.51100000000E-03 0. -1.
         11   -1    0    0    0    0 -0.00000000000E+00 -0.00000000000E+00 -0.45593999997E+02  0.45594000000E+02  0.51100000000E-03 0.  1.
         23    2    1    2    0    0  0.71054273576E-14  0.88817841970E-15  0.71054273576E-14  0.91188000000E+02  0.91188000000E+02 0.  0.
    9900012    2    3    3    0    0 -0.34947927246E+02 -0.39344521205E+01 -0.20404115011E+02  0.50528862753E+02  0.30000008824E+02 0.  0.
         12    1    3    3    0    0  0.34947927246E+02  0.39344521205E+01  0.20404115011E+02  0.40659137247E+02  0.00000000000E+00 0. -1.
         11    1    4    4    0    0  0.92987163312E+00 -0.57692837780E+01  0.96923303194E+00  0.59235723594E+01  0.51100000000E-03 0. -1.
        -11    1    4    4    0    0 -0.98546008949E+01 -0.58221013169E+01 -0.29686268178E+01  0.11824667775E+02  0.51100000000E-03 0.  1.
        -12    1    4    4    0    0 -0.26023197984E+02  0.76569329744E+01 -0.18404721225E+02  0.32780622619E+02  0.00000000000E+00 0.  1.
</event>
<event>
 8    1  0.7977359E-012  0.9118800E+02  0.7816164E-02  0.1184000E+00
        -11   -1    0    0    0    0  0.00000000000E+00  0.00000000000E+00  0.45593999997E+02  0.45594000000E+02  0.51100000000E-03 0. -1.
         11   -1    0    0    0    0 -0.00000000000E+00 -0.00000000000E+00 -0.45593999997E+02  0.45594000000E+02  0.51100000000E-03 0.  1.
         23    2    1    2    0    0  0.00000000000E+00  0.00000000000E+00  0.00000000000E+00  0.91188000000E+02  0.91188000000E+02 0.  0.
    9900012    2    3    3    0    0 -0.85429824815E+01  0.17469239365E+02  0.35707264626E+02  0.50528860550E+02  0.30000002129E+02 0.  0.
        -12    1    3    3    0    0  0.85429824815E+01 -0.17469239365E+02 -0.35707264626E+02  0.40659139450E+02  0.00000000000E+00 0.  1.
         11    1    4    4    0    0 -0.53700568677E+01  0.20887571927E+02  0.20717233424E+02  0.29905383007E+02  0.51100000000E-03 0. -1.
        -11    1    4    4    0    0  0.20695498647E+01  0.15880701483E+01  0.12782291339E+02  0.13045764661E+02  0.51100000000E-03 0.  1.
        -12    1    4    4    0    0 -0.52424754785E+01 -0.50064027098E+01  0.22077398632E+01  0.75777128831E+01  0.00000000000E+00 0.  1.
</event>
<event>
 8    1  0.7977359E-012  0.9118800E+02  0.7816164E-02  0.1184000E+00
        -11   -1    0    0    0    0  0.00000000000E+00  0.00000000000E+00  0.45593999997E+02  0.45594000000E+02  0.51100000000E-03 0. -1.
         11   -1    0    0    0    0 -0.00000000000E+00 -0.00000000000E+00 -0.45593999997E+02  0.45594000000E+02  0.51100000000E-03 0.  1.
         23    2    1    2    0    0 -0.17763568394E-14  0.00000000000E+00 -0.71054273576E-14  0.91188000000E+02  0.91188000000E+02 0.  0.
    9900012    2    3    3    0    0 -0.11492432216E+02 -0.61782503466E+01 -0.38508685039E+02  0.50528860818E+02  0.30000002942E+02 0.  0.
         12    1    3    3    0    0  0.11492432216E+02  0.61782503466E+01  0.38508685039E+02  0.40659139182E+02  0.00000000000E+00 0. -1.
         11    1    4    4    0    0 -0.53217169872E+01  0.81784714830E+01 -0.43662387120E+01  0.10689813293E+02  0.51100000000E-03 0. -1.
        -11    1    4    4    0    0 -0.31188737916E+01  0.15889928327E+01 -0.25886952124E+01  0.43535749809E+01  0.51100000000E-03 0.  1.
        -12    1    4    4    0    0 -0.30518414371E+01 -0.15945714662E+02 -0.31553751115E+02  0.35485472544E+02  0.00000000000E+00 0.  1.
</event>
<event>
 8    1  0.7977359E-012  0.9118800E+02  0.7816164E-02  0.1184000E+00
        -11   -1    0    0    0    0  0.00000000000E+00  0.00000000000E+00  0.45593999997E+02  0.45594000000E+02  0.51100000000E-03 0. -1.
         11   -1    0    0    0    0 -0.00000000000E+00 -0.00000000000E+00 -0.45593999997E+02  0.45594000000E+02  0.51100000000E-03 0.  1.
         23    2    1    2    0    0 -0.88817841970E-15  0.00000000000E+00  0.00000000000E+00  0.91188000000E+02  0.91188000000E+02 0.  0.
    9900012    2    3    3    0    0  0.63117898396E+01  0.11808008607E+02 -0.38391411972E+02  0.50528827954E+02  0.29999903049E+02 0.  0.
         12    1    3    3    0    0 -0.63117898396E+01 -0.11808008607E+02  0.38391411972E+02  0.40659172046E+02  0.00000000000E+00 0. -1.
         11    1    4    4    0    0 -0.25862186528E+01 -0.61623577311E+01 -0.39818072210E+01  0.77793295812E+01  0.51100000000E-03 0. -1.
        -11    1    4    4    0    0 -0.18803321621E+01  0.12601090954E+02 -0.13105721716E+02  0.18277939825E+02  0.51100000000E-03 0.  1.
         12    1    4    4    0    0  0.10778340654E+02  0.53692753840E+01 -0.21303883035E+02  0.24471558548E+02  0.00000000000E+00 0. -1.
</event>
<event>
 8    1  0.7977359E-012  0.9118800E+02  0.7816164E-02  0.1184000E+00
        -11   -1    0    0    0    0  0.00000000000E+00  0.00000000000E+00  0.45593999997E+02  0.45594000000E+02  0.51100000000E-03 0. -1.
         11   -1    0    0    0    0 -0.00000000000E+00 -0.00000000000E+00 -0.45593999997E+02  0.45594000000E+02  0.51100000000E-03 0.  1.
         23    2    1    2    0    0 -0.35527136788E-14  0.00000000000E+00  0.00000000000E+00  0.91188000000E+02  0.91188000000E+02 0.  0.
    9900012    2    3    3    0    0 -0.18111056578E+02  0.64877255230E+01  0.35819955805E+02  0.50528804402E+02  0.29999831459E+02 0.  0.
        -12    1    3    3    0    0  0.18111056578E+02 -0.64877255230E+01 -0.35819955805E+02  0.40659195598E+02  0.00000000000E+00 0.  1.
         11    1    4    4    0    0 -0.65227316885E+01  0.19425662428E+00  0.30739078944E+01  0.72133677517E+01  0.51100000000E-03 0. -1.
        -11    1    4    4    0    0 -0.15300072047E+02  0.21472094886E+01  0.69769525207E+01  0.16952303087E+02  0.51100000000E-03 0.  1.
         12    1    4    4    0    0  0.37117471573E+01  0.41462594101E+01  0.25769095389E+02  0.26363133563E+02  0.00000000000E+00 0. -1.
</event>
<event>
 8    1  0.7977359E-012  0.9118800E+02  0.7816164E-02  0.1184000E+00
        -11   -1    0    0    0    0  0.00000000000E+00  0.00000000000E+00  0.45593999997E+02  0.45594000000E+02  0.51100000000E-03 0.  1.
         11   -1    0    0    0    0 -0.00000000000E+00 -0.00000000000E+00 -0.45593999997E+02  0.45594000000E+02  0.51100000000E-03 0. -1.
         23    2    1    2    0    0 -0.35527136788E-14  0.00000000000E+00 -0.35527136788E-14  0.91188000000E+02  0.91188000000E+02 0.  0.
    9900012    2    3    3    0    0  0.23724854915E+02 -0.12797920413E+02  0.30438635810E+02  0.50528855178E+02  0.29999985800E+02 0.  0.
        -12    1    3    3    0    0 -0.23724854915E+02  0.12797920413E+02 -0.30438635810E+02  0.40659144822E+02  0.00000000000E+00 0.  1.
         11    1    4    4    0    0  0.26035691982E+02 -0.11280269828E+02  0.29660314298E+02  0.41046753695E+02  0.51100000000E-03 0. -1.
        -11    1    4    4    0    0  0.18685027321E+01 -0.30390213440E+01 -0.21422529471E+01  0.41612739804E+01  0.51100000000E-03 0.  1.
        -12    1    4    4    0    0 -0.41793397990E+01  0.15213707597E+01  0.29205744591E+01  0.53208275028E+01  0.00000000000E+00 0.  1.
</event>
<event>
 8    1  0.7977359E-012  0.9118800E+02  0.7816164E-02  0.1184000E+00
        -11   -1    0    0    0    0  0.00000000000E+00  0.00000000000E+00  0.45593999997E+02  0.45594000000E+02  0.51100000000E-03 0. -1.
         11   -1    0    0    0    0 -0.00000000000E+00 -0.00000000000E+00 -0.45593999997E+02  0.45594000000E+02  0.51100000000E-03 0.  1.
         23    2    1    2    0    0  0.00000000000E+00  0.44408920985E-15  0.00000000000E+00  0.91188000000E+02  0.91188000000E+02 0.  0.
    9900012    2    3    3    0    0  0.21285028610E+02 -0.31282058687E+01 -0.34501121195E+02  0.50528862299E+02  0.30000007445E+02 0.  0.
         12    1    3    3    0    0 -0.21285028610E+02  0.31282058687E+01  0.34501121195E+02  0.40659137701E+02  0.00000000000E+00 0. -1.
         11    1    4    4    0    0 -0.25384596033E+01  0.57088251132E+01 -0.13002996460E+02  0.14426100601E+02  0.51100000000E-03 0. -1.
        -11    1    4    4    0    0  0.21255563997E+01 -0.48431084952E+00 -0.98682505443E+01  0.10106182072E+02  0.51100000000E-03 0.  1.
         12    1    4    4    0    0  0.21697931814E+02 -0.83527201324E+01 -0.11629874190E+02  0.25996579627E+02  0.00000000000E+00 0. -1.
</event>
<event>
 8    1  0.7977359E-012  0.9118800E+02  0.7816164E-02  0.1184000E+00
        -11   -1    0    0    0    0  0.00000000000E+00  0.00000000000E+00  0.45593999997E+02  0.45594000000E+02  0.51100000000E-03 0. -1.
         11   -1    0    0    0    0 -0.00000000000E+00 -0.00000000000E+00 -0.45593999997E+02  0.45594000000E+02  0.51100000000E-03 0.  1.
         23    2    1    2    0    0  0.00000000000E+00  0.00000000000E+00  0.00000000000E+00  0.91188000000E+02  0.91188000000E+02 0.  0.
    9900012    2    3    3    0    0  0.24782875688E+02 -0.30667525995E+02  0.99235075125E+01  0.50528879506E+02  0.30000059746E+02 0.  0.
         12    1    3    3    0    0 -0.24782875688E+02  0.30667525995E+02 -0.99235075125E+01  0.40659120494E+02  0.00000000000E+00 0. -1.
         11    1    4    4    0    0  0.86385821069E+00  0.29657603771E+01  0.41339560469E+01  0.51605792778E+01  0.51100000000E-03 0. -1.
        -11    1    4    4    0    0  0.41119009095E+01  0.77067844994E+00  0.37491019369E+01  0.56176009076E+01  0.51100000000E-03 0.  1.
        -12    1    4    4    0    0  0.19807116568E+02 -0.34403964822E+02  0.20404495286E+01  0.39750699321E+02  0.00000000000E+00 0.  1.
</event>
<event>
 8    1  0.7977359E-012  0.9118800E+02  0.7816164E-02  0.1184000E+00
        -11   -1    0    0    0    0  0.00000000000E+00  0.00000000000E+00  0.45593999997E+02  0.45594000000E+02  0.51100000000E-03 0. -1.
         11   -1    0    0    0    0 -0.00000000000E+00 -0.00000000000E+00 -0.45593999997E+02  0.45594000000E+02  0.51100000000E-03 0.  1.
         23    2    1    2    0    0  0.00000000000E+00  0.44408920985E-15  0.00000000000E+00  0.91188000000E+02  0.91188000000E+02 0.  0.
    9900012    2    3    3    0    0  0.10674504822E+02  0.30857180277E+01 -0.39111369823E+02  0.50528856399E+02  0.29999989511E+02 0.  0.
         12    1    3    3    0    0 -0.10674504822E+02 -0.30857180277E+01  0.39111369823E+02  0.40659143601E+02  0.00000000000E+00 0. -1.
         11    1    4    4    0    0  0.28371684740E+00  0.57036631778E+01 -0.94283862194E+01  0.11023009383E+02  0.51100000000E-03 0. -1.
        -11    1    4    4    0    0 -0.32372875713E+01 -0.94279544146E+00 -0.24653564633E+02  0.24883069414E+02  0.51100000000E-03 0.  1.
        -12    1    4    4    0    0  0.13628075546E+02 -0.16751497086E+01 -0.50294189701E+01  0.14622777603E+02  0.00000000000E+00 0.  1.
</event>
<event>
 8    1  0.7977359E-012  0.9118800E+02  0.7816164E-02  0.1184000E+00
        -11   -1    0    0    0    0  0.00000000000E+00  0.00000000000E+00  0.45593999997E+02  0.45594000000E+02  0.51100000000E-03 0. -1.
         11   -1    0    0    0    0 -0.00000000000E+00 -0.00000000000E+00 -0.45593999997E+02  0.45594000000E+02  0.51100000000E-03 0.  1.
         23    2    1    2    0    0  0.00000000000E+00 -0.17763568394E-14  0.00000000000E+00  0.91188000000E+02  0.91188000000E+02 0.  0.
    9900012    2    3    3    0    0  0.34612374803E+02 -0.11968041753E+02  0.17661092195E+02  0.50528871991E+02  0.30000036905E+02 0.  0.
        -12    1    3    3    0    0 -0.34612374803E+02  0.11968041753E+02 -0.17661092195E+02  0.40659128009E+02  0.00000000000E+00 0.  1.
         11    1    4    4    0    0  0.78525098876E+01 -0.51719289868E+01 -0.10246195935E+01  0.94583617266E+01  0.51100000000E-03 0. -1.
        -11    1    4    4    0    0  0.11141401378E+01 -0.11876358506E+01 -0.52794855540E+01  0.55249212787E+01  0.51100000000E-03 0.  1.
         12    1    4    4    0    0  0.25645724778E+02 -0.56084769155E+01  0.23965197343E+02  0.35545588986E+02  0.00000000000E+00 0. -1.
</event>
<event>
 8    1  0.7977359E-012  0.9118800E+02  0.7816164E-02  0.1184000E+00
        -11   -1    0    0    0    0  0.00000000000E+00  0.00000000000E+00  0.45593999997E+02  0.45594000000E+02  0.51100000000E-03 0. -1.
         11   -1    0    0    0    0 -0.00000000000E+00 -0.00000000000E+00 -0.45593999997E+02  0.45594000000E+02  0.51100000000E-03 0.  1.
         23    2    1    2    0    0 -0.88817841970E-15  0.71054273576E-14  0.35527136788E-14  0.91188000000E+02  0.91188000000E+02 0.  0.
    9900012    2    3    3    0    0 -0.60237704034E+01  0.34328448563E+02 -0.20938875960E+02  0.50528871663E+02  0.30000035908E+02 0.  0.
         12    1    3    3    0    0  0.60237704034E+01 -0.34328448563E+02  0.20938875960E+02  0.40659128337E+02  0.00000000000E+00 0. -1.
         11    1    4    4    0    0 -0.69342424308E+01  0.19840149699E+02 -0.16558666725E+02  0.26756395537E+02  0.51100000000E-03 0. -1.
        -11    1    4    4    0    0 -0.69220327730E+01  0.56876694227E+01 -0.73890544277E+01  0.11613020570E+02  0.51100000000E-03 0.  1.
         12    1    4    4    0    0  0.78325048004E+01  0.88006294418E+01  0.30088451929E+01  0.12159455556E+02  0.00000000000E+00 0. -1.
</event>
<event>
 8    1  0.7977359E-012  0.9118800E+02  0.7816164E-02  0.1184000E+00
        -11   -1    0    0    0    0  0.00000000000E+00  0.00000000000E+00  0.45593999997E+02  0.45594000000E+02  0.51100000000E-03 0. -1.
         11   -1    0    0    0    0 -0.00000000000E+00 -0.00000000000E+00 -0.45593999997E+02  0.45594000000E+02  0.51100000000E-03 0.  1.
         23    2    1    2    0    0  0.88817841970E-15 -0.35527136788E-14  0.00000000000E+00  0.91188000000E+02  0.91188000000E+02 0.  0.
    9900012    2    3    3    0    0 -0.43100345614E+01  0.14980903668E+02 -0.37552119543E+02  0.50528861362E+02  0.30000004595E+02 0.  0.
         12    1    3    3    0    0  0.43100345614E+01 -0.14980903668E+02  0.37552119543E+02  0.40659138638E+02  0.00000000000E+00 0. -1.
         11    1    4    4    0    0 -0.21480848307E+01  0.18045292049E+02 -0.36787399159E+02  0.41031202404E+02  0.51100000000E-03 0.  1.
        -11    1    4    4    0    0 -0.40576193565E+01  0.15815619675E+01  0.31026642362E+00  0.43659911376E+01  0.51100000000E-03 0. -1.
        -12    1    4    4    0    0  0.18956696258E+01 -0.46459503493E+01 -0.10749868083E+01  0.51316678201E+01  0.00000000000E+00 0.  1.
</event>
<event>
 8    1  0.7977359E-012  0.9118800E+02  0.7816164E-02  0.1184000E+00
        -11   -1    0    0    0    0  0.00000000000E+00  0.00000000000E+00  0.45593999997E+02  0.45594000000E+02  0.51100000000E-03 0. -1.
         11   -1    0    0    0    0 -0.00000000000E+00 -0.00000000000E+00 -0.45593999997E+02  0.45594000000E+02  0.51100000000E-03 0.  1.
         23    2    1    2    0    0  0.00000000000E+00  0.35527136788E-14 -0.17763568394E-14  0.91188000000E+02  0.91188000000E+02 0.  0.
    9900012    2    3    3    0    0  0.25907350749E+02  0.28751654371E+02 -0.12462588608E+02  0.50528873513E+02  0.30000041531E+02 0.  0.
         12    1    3    3    0    0 -0.25907350749E+02 -0.28751654371E+02  0.12462588608E+02  0.40659126487E+02  0.00000000000E+00 0. -1.
         11    1    4    4    0    0  0.24113492927E+02  0.27817529009E+02 -0.66292715876E+01  0.37406185362E+02  0.51100000000E-03 0. -1.
        -11    1    4    4    0    0  0.41851178118E+01  0.51800544103E+01 -0.46072112798E+01  0.80978127189E+01  0.51100000000E-03 0.  1.
         12    1    4    4    0    0 -0.23912599898E+01 -0.42459290487E+01 -0.12261057404E+01  0.50248754325E+01  0.00000000000E+00 0. -1.
</event>
<event>
 8    1  0.7977359E-012  0.9118800E+02  0.7816164E-02  0.1184000E+00
        -11   -1    0    0    0    0  0.00000000000E+00  0.00000000000E+00  0.45593999997E+02  0.45594000000E+02  0.51100000000E-03 0. -1.
         11   -1    0    0    0    0 -0.00000000000E+00 -0.00000000000E+00 -0.45593999997E+02  0.45594000000E+02  0.51100000000E-03 0.  1.
         23    2    1    2    0    0  0.35527136788E-14 -0.35527136788E-14  0.00000000000E+00  0.91188000000E+02  0.91188000000E+02 0.  0.
    9900012    2    3    3    0    0  0.20525813561E+02 -0.30719571292E+02  0.16975302128E+02  0.50528905506E+02  0.30000138777E+02 0.  0.
        -12    1    3    3    0    0 -0.20525813561E+02  0.30719571292E+02 -0.16975302128E+02  0.40659094494E+02  0.00000000000E+00 0.  1.
         11    1    4    4    0    0  0.88536444082E+01 -0.39083837904E+01  0.66907336998E+01  0.11765559947E+02  0.51100000000E-03 0. -1.
        -11    1    4    4    0    0  0.13417767386E+02 -0.47472322030E+01 -0.28619819469E+00  0.14235680696E+02  0.51100000000E-03 0.  1.
        -12    1    4    4    0    0 -0.17455982341E+01 -0.22063955299E+02  0.10570766623E+02  0.24527664863E+02  0.00000000000E+00 0.  1.
</event>
<event>
 8    1  0.7977359E-012  0.9118800E+02  0.7816164E-02  0.1184000E+00
        -11   -1    0    0    0    0  0.00000000000E+00  0.00000000000E+00  0.45593999997E+02  0.45594000000E+02  0.51100000000E-03 0. -1.
         11   -1    0    0    0    0 -0.00000000000E+00 -0.00000000000E+00 -0.45593999997E+02  0.45594000000E+02  0.51100000000E-03 0.  1.
         23    2    1    2    0    0  0.00000000000E+00  0.00000000000E+00 -0.35527136788E-14  0.91188000000E+02  0.91188000000E+02 0.  0.
    9900012    2    3    3    0    0  0.12697930806E+02 -0.23438760866E+02 -0.30701087362E+02  0.50528810105E+02  0.29999848794E+02 0.  0.
         12    1    3    3    0    0 -0.12697930806E+02  0.23438760866E+02  0.30701087362E+02  0.40659189895E+02  0.00000000000E+00 0. -1.
         11    1    4    4    0    0 -0.70205350611E+01 -0.71199315880E+01 -0.73878548275E+01  0.12432286096E+02  0.51100000000E-03 0. -1.
        -11    1    4    4    0    0  0.79793688884E+01 -0.10621539987E-02 -0.96433429768E+00  0.80374293082E+01  0.51100000000E-03 0.  1.
        -12    1    4    4    0    0  0.11739096979E+02 -0.16317767124E+02 -0.22348898237E+02  0.30059094701E+02  0.00000000000E+00 0.  1.
</event>
<event>
 8    1  0.7977359E-012  0.9118800E+02  0.7816164E-02  0.1184000E+00
        -11   -1    0    0    0    0  0.00000000000E+00  0.00000000000E+00  0.45593999997E+02  0.45594000000E+02  0.51100000000E-03 0.  1.
         11   -1    0    0    0    0 -0.00000000000E+00 -0.00000000000E+00 -0.45593999997E+02  0.45594000000E+02  0.51100000000E-03 0. -1.
         23    2    1    2    0    0  0.00000000000E+00 -0.35527136788E-14  0.22204460493E-15  0.91188000000E+02  0.91188000000E+02 0.  0.
    9900012    2    3    3    0    0  0.37003761855E+02 -0.16788442593E+02 -0.14280139234E+01  0.50528813831E+02  0.29999860121E+02 0.  0.
        -12    1    3    3    0    0 -0.37003761855E+02  0.16788442593E+02  0.14280139234E+01  0.40659186169E+02  0.00000000000E+00 0.  1.
         11    1    4    4    0    0  0.10139108838E+02  0.66051787282E+00 -0.49442973091E+01  0.11299729555E+02  0.51100000000E-03 0. -1.
        -11    1    4    4    0    0  0.63054554096E+01  0.49397229073E+01 -0.21852341705E+01  0.83027031119E+01  0.51100000000E-03 0.  1.
         12    1    4    4    0    0  0.20559197608E+02 -0.22388683373E+02  0.57015175561E+01  0.30926381164E+02  0.00000000000E+00 0. -1.
</event>
<event>
 8    1  0.7977359E-012  0.9118800E+02  0.7816164E-02  0.1184000E+00
        -11   -1    0    0    0    0  0.00000000000E+00  0.00000000000E+00  0.45593999997E+02  0.45594000000E+02  0.51100000000E-03 0. -1.
         11   -1    0    0    0    0 -0.00000000000E+00 -0.00000000000E+00 -0.45593999997E+02  0.45594000000E+02  0.51100000000E-03 0.  1.
         23    2    1    2    0    0 -0.17763568394E-14  0.35527136788E-14 -0.35527136788E-14  0.91188000000E+02  0.91188000000E+02 0.  0.
    9900012    2    3    3    0    0  0.28848584885E+01  0.29633909326E+02  0.27688866217E+02  0.50528876758E+02  0.30000051393E+02 0.  0.
        -12    1    3    3    0    0 -0.28848584885E+01 -0.29633909326E+02 -0.27688866217E+02  0.40659123242E+02  0.00000000000E+00 0.  1.
         11    1    4    4    0    0 -0.69185275602E+00  0.10329086950E+01  0.68023391628E+01  0.69150111320E+01  0.51100000000E-03 0. -1.
        -11    1    4    4    0    0 -0.81944593972E+01  0.25764943814E+01  0.96524568889E+01  0.12921200113E+02  0.51100000000E-03 0.  1.
         12    1    4    4    0    0  0.11771170642E+02  0.26024506249E+02  0.11234070165E+02  0.30692665513E+02  0.00000000000E+00 0. -1.
</event>
<event>
 8    1  0.7977359E-012  0.9118800E+02  0.7816164E-02  0.1184000E+00
        -11   -1    0    0    0    0  0.00000000000E+00  0.00000000000E+00  0.45593999997E+02  0.45594000000E+02  0.51100000000E-03 0. -1.
         11   -1    0    0    0    0 -0.00000000000E+00 -0.00000000000E+00 -0.45593999997E+02  0.45594000000E+02  0.51100000000E-03 0.  1.
         23    2    1    2    0    0 -0.35527136788E-14  0.00000000000E+00 -0.71054273576E-14  0.91188000000E+02  0.91188000000E+02 0.  0.
    9900012    2    3    3    0    0 -0.19210217793E+02  0.25806854371E+02 -0.24862387474E+02  0.50528874196E+02  0.30000043607E+02 0.  0.
         12    1    3    3    0    0  0.19210217793E+02 -0.25806854371E+02  0.24862387474E+02  0.40659125804E+02  0.00000000000E+00 0. -1.
         11    1    4    4    0    0 -0.10914276989E+02  0.56959592587E+01 -0.25975291337E+01  0.12582231596E+02  0.51100000000E-03 0. -1.
        -11    1    4    4    0    0 -0.15709190827E+02  0.14160722486E+02 -0.16548840623E+02  0.26854587392E+02  0.51100000000E-03 0.  1.
         12    1    4    4    0    0  0.74132500235E+01  0.59501726267E+01 -0.57160177172E+01  0.11092055208E+02  0.00000000000E+00 0. -1.
</event>
<event>
 8    1  0.7977359E-012  0.9118800E+02  0.7816164E-02  0.1184000E+00
        -11   -1    0    0    0    0  0.00000000000E+00  0.00000000000E+00  0.45593999997E+02  0.45594000000E+02  0.51100000000E-03 0. -1.
         11   -1    0    0    0    0 -0.00000000000E+00 -0.00000000000E+00 -0.45593999997E+02  0.45594000000E+02  0.51100000000E-03 0.  1.
         23    2    1    2    0    0  0.00000000000E+00  0.88817841970E-15  0.71054273576E-14  0.91188000000E+02  0.91188000000E+02 0.  0.
    9900012    2    3    3    0    0  0.37244796318E+02 -0.30388137282E+01 -0.16023584803E+02  0.50528874190E+02  0.30000043588E+02 0.  0.
         12    1    3    3    0    0 -0.37244796318E+02  0.30388137282E+01  0.16023584803E+02  0.40659125810E+02  0.00000000000E+00 0. -1.
         11    1    4    4    0    0  0.92400370643E+01  0.92940491252E+00 -0.15914648005E+02  0.18426016928E+02  0.51100000000E-03 0. -1.
        -11    1    4    4    0    0  0.37764444667E+01  0.45710657473E+01 -0.22105251467E+01  0.63279219781E+01  0.51100000000E-03 0.  1.
        -12    1    4    4    0    0  0.24228314788E+02 -0.85392843880E+01  0.21015883487E+01  0.25774935284E+02  0.00000000000E+00 0.  1.
</event>
<event>
 8    1  0.7977359E-012  0.9118800E+02  0.7816164E-02  0.1184000E+00
        -11   -1    0    0    0    0  0.00000000000E+00  0.00000000000E+00  0.45593999997E+02  0.45594000000E+02  0.51100000000E-03 0. -1.
         11   -1    0    0    0    0 -0.00000000000E+00 -0.00000000000E+00 -0.45593999997E+02  0.45594000000E+02  0.51100000000E-03 0.  1.
         23    2    1    2    0    0  0.00000000000E+00  0.00000000000E+00  0.00000000000E+00  0.91188000000E+02  0.91188000000E+02 0.  0.
    9900012    2    3    3    0    0 -0.24785298431E+02 -0.32125779220E+02  0.26056671131E+01  0.50528853306E+02  0.29999980109E+02 0.  0.
        -12    1    3    3    0    0  0.24785298431E+02  0.32125779220E+02 -0.26056671131E+01  0.40659146694E+02  0.00000000000E+00 0.  1.
         11    1    4    4    0    0  0.36483996822E+01 -0.10540753101E+02  0.23553815895E+01  0.11400268368E+02  0.51100000000E-03 0. -1.
        -11    1    4    4    0    0 -0.23605023025E+01  0.26370026572E+01  0.75561044409E-01  0.35399807721E+01  0.51100000000E-03 0.  1.
         12    1    4    4    0    0 -0.26073195811E+02 -0.24222028776E+02  0.17472447926E+00  0.35588604166E+02  0.00000000000E+00 0. -1.
</event>
<event>
 8    1  0.7977359E-012  0.9118800E+02  0.7816164E-02  0.1184000E+00
        -11   -1    0    0    0    0  0.00000000000E+00  0.00000000000E+00  0.45593999997E+02  0.45594000000E+02  0.51100000000E-03 0. -1.
         11   -1    0    0    0    0 -0.00000000000E+00 -0.00000000000E+00 -0.45593999997E+02  0.45594000000E+02  0.51100000000E-03 0.  1.
         23    2    1    2    0    0  0.00000000000E+00 -0.35527136788E-14  0.35527136788E-14  0.91188000000E+02  0.91188000000E+02 0.  0.
    9900012    2    3    3    0    0 -0.84064370607E+01 -0.31035724507E+02  0.24885365798E+02  0.50528858215E+02  0.29999995031E+02 0.  0.
        -12    1    3    3    0    0  0.84064370607E+01  0.31035724507E+02 -0.24885365798E+02  0.40659141785E+02  0.00000000000E+00 0.  1.
         11    1    4    4    0    0 -0.61201859320E+01 -0.13835667059E+01  0.10330403888E+02  0.12086694230E+02  0.51100000000E-03 0. -1.
        -11    1    4    4    0    0 -0.83997751961E+01 -0.48579369704E+01  0.64439582334E+01  0.11648191831E+02  0.51100000000E-03 0.  1.
        -12    1    4    4    0    0  0.61135240674E+01 -0.24794220831E+02  0.81110036770E+01  0.26793972154E+02  0.00000000000E+00 0.  1.
</event>
<event>
 8    1  0.7977359E-012  0.9118800E+02  0.7816164E-02  0.1184000E+00
        -11   -1    0    0    0    0  0.00000000000E+00  0.00000000000E+00  0.45593999997E+02  0.45594000000E+02  0.51100000000E-03 0. -1.
         11   -1    0    0    0    0 -0.00000000000E+00 -0.00000000000E+00 -0.45593999997E+02  0.45594000000E+02  0.51100000000E-03 0.  1.
         23    2    1    2    0    0 -0.35527136788E-14  0.00000000000E+00  0.35527136788E-14  0.91188000000E+02  0.91188000000E+02 0.  0.
    9900012    2    3    3    0    0 -0.23232741874E+02  0.18516176286E+02  0.27758895178E+02  0.50528863994E+02  0.30000012597E+02 0.  0.
        -12    1    3    3    0    0  0.23232741874E+02 -0.18516176286E+02 -0.27758895178E+02  0.40659136006E+02  0.00000000000E+00 0.  1.
         11    1    4    4    0    0  0.23197020652E+01 -0.44116030446E+01  0.57512263112E+01  0.76105100643E+01  0.51100000000E-03 0. -1.
        -11    1    4    4    0    0 -0.93169932827E+00 -0.86431474242E+00  0.40744733803E+01  0.42680718363E+01  0.51100000000E-03 0.  1.
         12    1    4    4    0    0 -0.24620744611E+02  0.23792094073E+02  0.17933195486E+02  0.38650282094E+02  0.00000000000E+00 0. -1.
</event>
<event>
 8    1  0.7977359E-012  0.9118800E+02  0.7816164E-02  0.1184000E+00
        -11   -1    0    0    0    0  0.00000000000E+00  0.00000000000E+00  0.45593999997E+02  0.45594000000E+02  0.51100000000E-03 0. -1.
         11   -1    0    0    0    0 -0.00000000000E+00 -0.00000000000E+00 -0.45593999997E+02  0.45594000000E+02  0.51100000000E-03 0.  1.
         23    2    1    2    0    0  0.00000000000E+00  0.00000000000E+00  0.00000000000E+00  0.91188000000E+02  0.91188000000E+02 0.  0.
    9900012    2    3    3    0    0 -0.18838302013E+02  0.23094867493E+02 -0.27657048508E+02  0.50528845318E+02  0.29999955830E+02 0.  0.
         12    1    3    3    0    0  0.18838302013E+02 -0.23094867493E+02  0.27657048508E+02  0.40659154682E+02  0.00000000000E+00 0. -1.
         11    1    4    4    0    0 -0.24863644091E+02  0.12790342535E+02 -0.14841234125E+02  0.31655266391E+02  0.51100000000E-03 0. -1.
        -11    1    4    4    0    0 -0.13199387785E+01  0.32756221123E+01 -0.21300665512E+01  0.41242117277E+01  0.51100000000E-03 0.  1.
         12    1    4    4    0    0  0.73452808568E+01  0.70289028462E+01 -0.10685747831E+02  0.14749367200E+02  0.00000000000E+00 0. -1.
</event>
<event>
 8    1  0.7977359E-012  0.9118800E+02  0.7816164E-02  0.1184000E+00
        -11   -1    0    0    0    0  0.00000000000E+00  0.00000000000E+00  0.45593999997E+02  0.45594000000E+02  0.51100000000E-03 0. -1.
         11   -1    0    0    0    0 -0.00000000000E+00 -0.00000000000E+00 -0.45593999997E+02  0.45594000000E+02  0.51100000000E-03 0.  1.
         23    2    1    2    0    0  0.00000000000E+00  0.00000000000E+00  0.00000000000E+00  0.91188000000E+02  0.91188000000E+02 0.  0.
    9900012    2    3    3    0    0 -0.20503489375E+02 -0.34619415791E+02 -0.58539808257E+01  0.50528854439E+02  0.29999983553E+02 0.  0.
         12    1    3    3    0    0  0.20503489375E+02  0.34619415791E+02  0.58539808257E+01  0.40659145561E+02  0.00000000000E+00 0. -1.
         11    1    4    4    0    0 -0.55184334444E+01 -0.76659494407E+01 -0.14151389738E+02  0.17014162345E+02  0.51100000000E-03 0. -1.
        -11    1    4    4    0    0 -0.49345954629E+01 -0.50890968256E+01 -0.19620728200E+01  0.73551933282E+01  0.51100000000E-03 0.  1.
        -12    1    4    4    0    0 -0.10050460467E+02 -0.21864369524E+02  0.10259481732E+02  0.26159498767E+02  0.00000000000E+00 0.  1.
</event>
<event>
 8    1  0.7977359E-012  0.9118800E+02  0.7816164E-02  0.1184000E+00
        -11   -1    0    0    0    0  0.00000000000E+00  0.00000000000E+00  0.45593999997E+02  0.45594000000E+02  0.51100000000E-03 0. -1.
         11   -1    0    0    0    0 -0.00000000000E+00 -0.00000000000E+00 -0.45593999997E+02  0.45594000000E+02  0.51100000000E-03 0.  1.
         23    2    1    2    0    0 -0.17763568394E-14  0.88817841970E-15  0.71054273576E-14  0.91188000000E+02  0.91188000000E+02 0.  0.
    9900012    2    3    3    0    0  0.14846459203E+02 -0.65025347095E+01 -0.37288865347E+02  0.50528932286E+02  0.30000220174E+02 0.  0.
         12    1    3    3    0    0 -0.14846459203E+02  0.65025347095E+01  0.37288865347E+02  0.40659067714E+02  0.00000000000E+00 0. -1.
         11    1    4    4    0    0 -0.13150600642E+01 -0.12019379538E+01 -0.10012579128E+02  0.10169846551E+02  0.51100000000E-03 0. -1.
        -11    1    4    4    0    0  0.38569904339E+00 -0.97845408370E+01 -0.20296074330E+02  0.22534787255E+02  0.51100000000E-03 0.  1.
        -12    1    4    4    0    0  0.15775820224E+02  0.44839440813E+01 -0.69802118888E+01  0.17824298479E+02  0.00000000000E+00 0.  1.
</event>
<event>
 8    1  0.7977359E-012  0.9118800E+02  0.7816164E-02  0.1184000E+00
        -11   -1    0    0    0    0  0.00000000000E+00  0.00000000000E+00  0.45593999997E+02  0.45594000000E+02  0.51100000000E-03 0.  1.
         11   -1    0    0    0    0 -0.00000000000E+00 -0.00000000000E+00 -0.45593999997E+02  0.45594000000E+02  0.51100000000E-03 0. -1.
         23    2    1    2    0    0  0.00000000000E+00 -0.35527136788E-14 -0.35527136788E-14  0.91188000000E+02  0.91188000000E+02 0.  0.
    9900012    2    3    3    0    0  0.13622154446E+02 -0.29301023559E+02 -0.24678986185E+02  0.50528862866E+02  0.30000009166E+02 0.  0.
         12    1    3    3    0    0 -0.13622154446E+02  0.29301023559E+02  0.24678986185E+02  0.40659137134E+02  0.00000000000E+00 0. -1.
         11    1    4    4    0    0  0.66121411293E+01 -0.16623215136E+02 -0.22667735298E+02  0.28876944360E+02  0.51100000000E-03 0. -1.
        -11    1    4    4    0    0 -0.16224632916E+01 -0.55184004492E+01 -0.72657852094E+01  0.92669717611E+01  0.51100000000E-03 0.  1.
         12    1    4    4    0    0  0.86324766080E+01 -0.71594079747E+01  0.52545343219E+01  0.12384946745E+02  0.00000000000E+00 0. -1.
</event>
<event>
 8    1  0.7977359E-012  0.9118800E+02  0.7816164E-02  0.1184000E+00
        -11   -1    0    0    0    0  0.00000000000E+00  0.00000000000E+00  0.45593999997E+02  0.45594000000E+02  0.51100000000E-03 0. -1.
         11   -1    0    0    0    0 -0.00000000000E+00 -0.00000000000E+00 -0.45593999997E+02  0.45594000000E+02  0.51100000000E-03 0.  1.
         23    2    1    2    0    0 -0.71054273576E-14  0.88817841970E-15  0.00000000000E+00  0.91188000000E+02  0.91188000000E+02 0.  0.
    9900012    2    3    3    0    0  0.33400093420E+02  0.59250671620E+00  0.23178626944E+02  0.50528855252E+02  0.29999986022E+02 0.  0.
        -12    1    3    3    0    0 -0.33400093420E+02 -0.59250671620E+00 -0.23178626944E+02  0.40659144748E+02  0.00000000000E+00 0.  1.
         11    1    4    4    0    0  0.16621933825E+02  0.70890652845E+01 -0.56479837206E-01  0.18070603778E+02  0.51100000000E-03 0. -1.
        -11    1    4    4    0    0  0.12055393125E+02  0.26498170187E+01  0.11873134005E+02  0.17126743561E+02  0.51100000000E-03 0.  1.
        -12    1    4    4    0    0  0.47227664704E+01 -0.91463755870E+01  0.11361972775E+02  0.15331507912E+02  0.00000000000E+00 0.  1.
</event>
<event>
 8    1  0.7977359E-012  0.9118800E+02  0.7816164E-02  0.1184000E+00
        -11   -1    0    0    0    0  0.00000000000E+00  0.00000000000E+00  0.45593999997E+02  0.45594000000E+02  0.51100000000E-03 0. -1.
         11   -1    0    0    0    0 -0.00000000000E+00 -0.00000000000E+00 -0.45593999997E+02  0.45594000000E+02  0.51100000000E-03 0.  1.
         23    2    1    2    0    0  0.17763568394E-14 -0.35527136788E-14  0.00000000000E+00  0.91188000000E+02  0.91188000000E+02 0.  0.
    9900012    2    3    3    0    0 -0.15142122929E+02  0.21617389051E+02  0.30928459404E+02  0.50528868217E+02  0.30000025434E+02 0.  0.
        -12    1    3    3    0    0  0.15142122929E+02 -0.21617389051E+02 -0.30928459404E+02  0.40659131783E+02  0.00000000000E+00 0.  1.
         11    1    4    4    0    0 -0.66053340713E+01  0.18971984448E+02  0.66239431448E+01  0.21152854539E+02  0.51100000000E-03 0. -1.
        -11    1    4    4    0    0  0.24136195870E+01 -0.77239670367E-01 -0.17484259791E+00  0.24211765059E+01  0.51100000000E-03 0.  1.
         12    1    4    4    0    0 -0.10950408445E+02  0.27226442732E+01  0.24479358858E+02  0.26954837173E+02  0.00000000000E+00 0. -1.
</event>
<event>
 8    1  0.7977359E-012  0.9118800E+02  0.7816164E-02  0.1184000E+00
        -11   -1    0    0    0    0  0.00000000000E+00  0.00000000000E+00  0.45593999997E+02  0.45594000000E+02  0.51100000000E-03 0. -1.
         11   -1    0    0    0    0 -0.00000000000E+00 -0.00000000000E+00 -0.45593999997E+02  0.45594000000E+02  0.51100000000E-03 0.  1.
         23    2    1    2    0    0 -0.88817841970E-15  0.00000000000E+00 -0.17763568394E-14  0.91188000000E+02  0.91188000000E+02 0.  0.
    9900012    2    3    3    0    0  0.78362009051E+01 -0.36881787772E+02  0.15214906089E+02  0.50528859808E+02  0.29999999873E+02 0.  0.
        -12    1    3    3    0    0 -0.78362009051E+01  0.36881787772E+02 -0.15214906089E+02  0.40659140192E+02  0.00000000000E+00 0.  1.
         11    1    4    4    0    0  0.20778297139E+01 -0.33511999232E+02  0.10746568649E+02  0.35254222539E+02  0.51100000000E-03 0. -1.
        -11    1    4    4    0    0  0.71106207797E+01 -0.73810680294E+01  0.40529455754E+01  0.11021227755E+02  0.51100000000E-03 0.  1.
        -12    1    4    4    0    0 -0.13522495885E+01  0.40112794897E+01  0.41539186444E+00  0.42534095142E+01  0.00000000000E+00 0.  1.
</event>
<event>
 8    1  0.7977359E-012  0.9118800E+02  0.7816164E-02  0.1184000E+00
        -11   -1    0    0    0    0  0.00000000000E+00  0.00000000000E+00  0.45593999997E+02  0.45594000000E+02  0.51100000000E-03 0. -1.
         11   -1    0    0    0    0 -0.00000000000E+00 -0.00000000000E+00 -0.45593999997E+02  0.45594000000E+02  0.51100000000E-03 0.  1.
         23    2    1    2    0    0  0.17763568394E-14  0.00000000000E+00  0.71054273576E-14  0.91188000000E+02  0.91188000000E+02 0.  0.
    9900012    2    3    3    0    0 -0.89967578820E+01 -0.13145126555E+02 -0.37408954781E+02  0.50528857088E+02  0.29999991606E+02 0.  0.
         12    1    3    3    0    0  0.89967578820E+01  0.13145126555E+02  0.37408954781E+02  0.40659142912E+02  0.00000000000E+00 0. -1.
         11    1    4    4    0    0  0.53772543606E+01 -0.28065904717E+01 -0.20661157280E+02  0.21533119489E+02  0.51100000000E-03 0. -1.
        -11    1    4    4    0    0 -0.94793372815E+01  0.18488988867E+01 -0.11060281368E+02  0.14683531135E+02  0.51100000000E-03 0.  1.
         12    1    4    4    0    0 -0.48946749611E+01 -0.12187434970E+02 -0.56875161330E+01  0.14312206464E+02  0.00000000000E+00 0. -1.
</event>
<event>
 8    1  0.7977359E-012  0.9118800E+02  0.7816164E-02  0.1184000E+00
        -11   -1    0    0    0    0  0.00000000000E+00  0.00000000000E+00  0.45593999997E+02  0.45594000000E+02  0.51100000000E-03 0. -1.
         11   -1    0    0    0    0 -0.00000000000E+00 -0.00000000000E+00 -0.45593999997E+02  0.45594000000E+02  0.51100000000E-03 0.  1.
         23    2    1    2    0    0 -0.17763568394E-14  0.00000000000E+00  0.00000000000E+00  0.91188000000E+02  0.91188000000E+02 0.  0.
    9900012    2    3    3    0    0  0.82936930740E+01 -0.37850608710E+02 -0.12317133553E+02  0.50528859534E+02  0.29999999039E+02 0.  0.
         12    1    3    3    0    0 -0.82936930740E+01  0.37850608710E+02  0.12317133553E+02  0.40659140466E+02  0.00000000000E+00 0. -1.
         11    1    4    4    0    0 -0.21068176410E+01 -0.32337507002E+02 -0.12618719411E+02  0.34776214853E+02  0.51100000000E-03 0.  1.
        -11    1    4    4    0    0  0.10646905127E+02 -0.77947413065E+01 -0.77453386577E+00  0.13217960651E+02  0.51100000000E-03 0. -1.
        -12    1    4    4    0    0 -0.24639441153E+00  0.22816395993E+01  0.10761197239E+01  0.25346840291E+01  0.00000000000E+00 0.  1.
</event>
<event>
 8    1  0.7977359E-012  0.9118800E+02  0.7816164E-02  0.1184000E+00
        -11   -1    0    0    0    0  0.00000000000E+00  0.00000000000E+00  0.45593999997E+02  0.45594000000E+02  0.51100000000E-03 0. -1.
         11   -1    0    0    0    0 -0.00000000000E+00 -0.00000000000E+00 -0.45593999997E+02  0.45594000000E+02  0.51100000000E-03 0.  1.
         23    2    1    2    0    0 -0.71054273576E-14  0.35527136788E-14 -0.17763568394E-14  0.91188000000E+02  0.91188000000E+02 0.  0.
    9900012    2    3    3    0    0 -0.33726228739E+02  0.20805242491E+02 -0.91022847106E+01  0.50528828747E+02  0.29999905459E+02 0.  0.
        -12    1    3    3    0    0  0.33726228739E+02 -0.20805242491E+02  0.91022847106E+01  0.40659171253E+02  0.00000000000E+00 0.  1.
         11    1    4    4    0    0  0.19877360198E+01 -0.12632874230E+01 -0.89958242751E+00  0.25211581471E+01  0.51100000000E-03 0. -1.
        -11    1    4    4    0    0 -0.35313702940E+02  0.24739618845E+02 -0.10594576111E+02  0.44399903144E+02  0.51100000000E-03 0.  1.
        -12    1    4    4    0    0 -0.40026181800E+00 -0.26710889317E+01  0.23918738282E+01  0.36077674556E+01  0.00000000000E+00 0.  1.
</event>
<event>
 8    1  0.7977359E-012  0.9118800E+02  0.7816164E-02  0.1184000E+00
        -11   -1    0    0    0    0  0.00000000000E+00  0.00000000000E+00  0.45593999997E+02  0.45594000000E+02  0.51100000000E-03 0. -1.
         11   -1    0    0    0    0 -0.00000000000E+00 -0.00000000000E+00 -0.45593999997E+02  0.45594000000E+02  0.51100000000E-03 0.  1.
         23    2    1    2    0    0  0.00000000000E+00 -0.35527136788E-14  0.00000000000E+00  0.91188000000E+02  0.91188000000E+02 0.  0.
    9900012    2    3    3    0    0 -0.47105763789E+01 -0.18734777055E+02  0.35776869796E+02  0.50528858181E+02  0.29999994925E+02 0.  0.
        -12    1    3    3    0    0  0.47105763789E+01  0.18734777055E+02 -0.35776869796E+02  0.40659141819E+02  0.00000000000E+00 0.  1.
         11    1    4    4    0    0  0.42236640699E+01 -0.26825437299E+01  0.98776147295E+01  0.11072608186E+02  0.51100000000E-03 0. -1.
        -11    1    4    4    0    0 -0.16897258427E+00 -0.18500080566E+02  0.23749469104E+02  0.30105129391E+02  0.51100000000E-03 0.  1.
        -12    1    4    4    0    0 -0.87652678645E+01  0.24478472411E+01  0.21497859624E+01  0.93511206032E+01  0.00000000000E+00 0.  1.
</event>
<event>
 8    1  0.7977359E-012  0.9118800E+02  0.7816164E-02  0.1184000E+00
        -11   -1    0    0    0    0  0.00000000000E+00  0.00000000000E+00  0.45593999997E+02  0.45594000000E+02  0.51100000000E-03 0. -1.
         11   -1    0    0    0    0 -0.00000000000E+00 -0.00000000000E+00 -0.45593999997E+02  0.45594000000E+02  0.51100000000E-03 0.  1.
         23    2    1    2    0    0 -0.35527136788E-14  0.35527136788E-14  0.35527136788E-14  0.91188000000E+02  0.91188000000E+02 0.  0.
    9900012    2    3    3    0    0 -0.16610650776E+02  0.25587008914E+02  0.26880500168E+02  0.50528806284E+02  0.29999837179E+02 0.  0.
        -12    1    3    3    0    0  0.16610650776E+02 -0.25587008914E+02 -0.26880500168E+02  0.40659193716E+02  0.00000000000E+00 0.  1.
         11    1    4    4    0    0  0.51028791093E+00  0.48589594942E+01  0.71341878560E+00  0.49374940753E+01  0.51100000000E-03 0. -1.
        -11    1    4    4    0    0 -0.23968159857E+01  0.12345421014E+02 -0.19872665579E+01  0.12731982388E+02  0.51100000000E-03 0.  1.
         12    1    4    4    0    0 -0.14724122701E+02  0.83826284057E+01  0.28154347941E+02  0.32859329821E+02  0.00000000000E+00 0. -1.
</event>
<event>
 8    1  0.7977359E-012  0.9118800E+02  0.7816164E-02  0.1184000E+00
        -11   -1    0    0    0    0  0.00000000000E+00  0.00000000000E+00  0.45593999997E+02  0.45594000000E+02  0.51100000000E-03 0. -1.
         11   -1    0    0    0    0 -0.00000000000E+00 -0.00000000000E+00 -0.45593999997E+02  0.45594000000E+02  0.51100000000E-03 0.  1.
         23    2    1    2    0    0  0.00000000000E+00  0.35527136788E-14  0.71054273576E-14  0.91188000000E+02  0.91188000000E+02 0.  0.
    9900012    2    3    3    0    0 -0.97504089824E+01 -0.17627199628E+02 -0.35318218569E+02  0.50528865664E+02  0.30000017673E+02 0.  0.
         12    1    3    3    0    0  0.97504089824E+01  0.17627199628E+02  0.35318218569E+02  0.40659134336E+02  0.00000000000E+00 0. -1.
         11    1    4    4    0    0  0.54348215910E+01 -0.15979125940E+01 -0.30138736292E+00  0.56728692024E+01  0.51100000000E-03 0. -1.
        -11    1    4    4    0    0 -0.17066710716E+01 -0.52429005832E+01  0.32502300518E+00  0.55232574526E+01  0.51100000000E-03 0.  1.
        -12    1    4    4    0    0 -0.13478559502E+02 -0.10786386451E+02 -0.35341854211E+02  0.39332739009E+02  0.00000000000E+00 0.  1.
</event>
<event>
 8    1  0.7977359E-012  0.9118800E+02  0.7816164E-02  0.1184000E+00
        -11   -1    0    0    0    0  0.00000000000E+00  0.00000000000E+00  0.45593999997E+02  0.45594000000E+02  0.51100000000E-03 0. -1.
         11   -1    0    0    0    0 -0.00000000000E+00 -0.00000000000E+00 -0.45593999997E+02  0.45594000000E+02  0.51100000000E-03 0.  1.
         23    2    1    2    0    0 -0.17763568394E-14 -0.88817841970E-15 -0.71054273576E-14  0.91188000000E+02  0.91188000000E+02 0.  0.
    9900012    2    3    3    0    0  0.11461593035E+02  0.78023981538E+01  0.38221981756E+02  0.50528863005E+02  0.30000009590E+02 0.  0.
        -12    1    3    3    0    0 -0.11461593035E+02 -0.78023981538E+01 -0.38221981756E+02  0.40659136995E+02  0.00000000000E+00 0.  1.
         11    1    4    4    0    0  0.43524997412E+01  0.22137751479E+01  0.26579783519E+02  0.27024617418E+02  0.51100000000E-03 0. -1.
        -11    1    4    4    0    0  0.85817981721E+01  0.11485000329E+02  0.79699160204E+01  0.16403415926E+02  0.51100000000E-03 0.  1.
         12    1    4    4    0    0 -0.14727048787E+01 -0.58963773228E+01  0.36722822160E+01  0.71008296605E+01  0.00000000000E+00 0. -1.
</event>
<event>
 8    1  0.7977359E-012  0.9118800E+02  0.7816164E-02  0.1184000E+00
        -11   -1    0    0    0    0  0.00000000000E+00  0.00000000000E+00  0.45593999997E+02  0.45594000000E+02  0.51100000000E-03 0.  1.
         11   -1    0    0    0    0 -0.00000000000E+00 -0.00000000000E+00 -0.45593999997E+02  0.45594000000E+02  0.51100000000E-03 0. -1.
         23    2    1    2    0    0  0.00000000000E+00  0.71054273576E-14  0.00000000000E+00  0.91188000000E+02  0.91188000000E+02 0.  0.
    9900012    2    3    3    0    0 -0.13620612517E+02  0.33834456155E+02 -0.17968713001E+02  0.50528853974E+02  0.29999982139E+02 0.  0.
         12    1    3    3    0    0  0.13620612517E+02 -0.33834456155E+02  0.17968713001E+02  0.40659146026E+02  0.00000000000E+00 0. -1.
         11    1    4    4    0    0  0.32752724729E+01  0.13084675037E+02 -0.81886654580E+01  0.15779428787E+02  0.51100000000E-03 0. -1.
        -11    1    4    4    0    0  0.24349518840E+01  0.87301449488E+01 -0.76981920668E+01  0.11891449990E+02  0.51100000000E-03 0.  1.
         12    1    4    4    0    0 -0.19330836874E+02  0.12019636169E+02 -0.20818554761E+01  0.22857975197E+02  0.00000000000E+00 0. -1.
</event>
<event>
 8    1  0.7977359E-012  0.9118800E+02  0.7816164E-02  0.1184000E+00
        -11   -1    0    0    0    0  0.00000000000E+00  0.00000000000E+00  0.45593999997E+02  0.45594000000E+02  0.51100000000E-03 0. -1.
         11   -1    0    0    0    0 -0.00000000000E+00 -0.00000000000E+00 -0.45593999997E+02  0.45594000000E+02  0.51100000000E-03 0.  1.
         23    2    1    2    0    0  0.00000000000E+00  0.00000000000E+00  0.00000000000E+00  0.91188000000E+02  0.91188000000E+02 0.  0.
    9900012    2    3    3    0    0 -0.28810977638E+01  0.24115908410E+02  0.32608102476E+02  0.50528854536E+02  0.29999983848E+02 0.  0.
        -12    1    3    3    0    0  0.28810977638E+01 -0.24115908410E+02 -0.32608102476E+02  0.40659145464E+02  0.00000000000E+00 0.  1.
         11    1    4    4    0    0  0.75350731156E+01  0.99144879729E+00  0.12028764382E+02  0.14228544212E+02  0.51100000000E-03 0. -1.
        -11    1    4    4    0    0 -0.29794354675E+01  0.44946705712E+01 -0.23089126809E+01  0.58660188611E+01  0.51100000000E-03 0.  1.
        -12    1    4    4    0    0 -0.74367354119E+01  0.18629789042E+02  0.22888250775E+02  0.30434291463E+02  0.00000000000E+00 0.  1.
</event>
<event>
 8    1  0.7977359E-012  0.9118800E+02  0.7816164E-02  0.1184000E+00
        -11   -1    0    0    0    0  0.00000000000E+00  0.00000000000E+00  0.45593999997E+02  0.45594000000E+02  0.51100000000E-03 0. -1.
         11   -1    0    0    0    0 -0.00000000000E+00 -0.00000000000E+00 -0.45593999997E+02  0.45594000000E+02  0.51100000000E-03 0.  1.
         23    2    1    2    0    0  0.00000000000E+00  0.88817841970E-15  0.00000000000E+00  0.91188000000E+02  0.91188000000E+02 0.  0.
    9900012    2    3    3    0    0  0.16622845064E+02  0.27415570578E+01  0.37004468051E+02  0.50528858729E+02  0.29999996593E+02 0.  0.
        -12    1    3    3    0    0 -0.16622845064E+02 -0.27415570578E+01 -0.37004468051E+02  0.40659141271E+02  0.00000000000E+00 0.  1.
         11    1    4    4    0    0  0.18052887684E+02  0.22835914606E+01  0.18545402179E+02  0.25981791430E+02  0.51100000000E-03 0. -1.
        -11    1    4    4    0    0  0.58050282594E+01 -0.45483897162E+01  0.80356956927E+01  0.10906814733E+02  0.51100000000E-03 0.  1.
        -12    1    4    4    0    0 -0.72350708791E+01  0.50063553134E+01  0.10423370179E+02  0.13640252565E+02  0.00000000000E+00 0.  1.
</event>
<event>
 8    1  0.7977359E-012  0.9118800E+02  0.7816164E-02  0.1184000E+00
        -11   -1    0    0    0    0  0.00000000000E+00  0.00000000000E+00  0.45593999997E+02  0.45594000000E+02  0.51100000000E-03 0. -1.
         11   -1    0    0    0    0 -0.00000000000E+00 -0.00000000000E+00 -0.45593999997E+02  0.45594000000E+02  0.51100000000E-03 0.  1.
         23    2    1    2    0    0  0.00000000000E+00  0.00000000000E+00  0.00000000000E+00  0.91188000000E+02  0.91188000000E+02 0.  0.
    9900012    2    3    3    0    0  0.12971592560E+02 -0.93525721691E+01  0.37382256712E+02  0.50528856667E+02  0.29999990324E+02 0.  0.
        -12    1    3    3    0    0 -0.12971592560E+02  0.93525721691E+01 -0.37382256712E+02  0.40659143333E+02  0.00000000000E+00 0.  1.
         11    1    4    4    0    0 -0.39849265858E+01  0.42431882069E+01  0.14568615271E+01  0.60005609591E+01  0.51100000000E-03 0.  1.
        -11    1    4    4    0    0  0.95118930474E+01 -0.10331504967E+02  0.96889171314E+01  0.17061395595E+02  0.51100000000E-03 0. -1.
        -12    1    4    4    0    0  0.74446260985E+01 -0.32642554093E+01  0.26236478053E+02  0.27466900112E+02  0.00000000000E+00 0.  1.
</event>
<event>
 8    1  0.7977359E-012  0.9118800E+02  0.7816164E-02  0.1184000E+00
        -11   -1    0    0    0    0  0.00000000000E+00  0.00000000000E+00  0.45593999997E+02  0.45594000000E+02  0.51100000000E-03 0. -1.
         11   -1    0    0    0    0 -0.00000000000E+00 -0.00000000000E+00 -0.45593999997E+02  0.45594000000E+02  0.51100000000E-03 0.  1.
         23    2    1    2    0    0 -0.26367796835E-15 -0.71054273576E-14  0.00000000000E+00  0.91188000000E+02  0.91188000000E+02 0.  0.
    9900012    2    3    3    0    0 -0.83821103569E-01 -0.37147636081E+02 -0.16529144760E+02  0.50528849506E+02  0.29999968559E+02 0.  0.
         12    1    3    3    0    0  0.83821103569E-01  0.37147636081E+02  0.16529144760E+02  0.40659150494E+02  0.00000000000E+00 0. -1.
         11    1    4    4    0    0  0.46971860669E+01 -0.16660939564E+01  0.77005641994E-01  0.49845116259E+01  0.51100000000E-03 0.  1.
        -11    1    4    4    0    0 -0.68831113375E+01 -0.67903558569E+00 -0.58449451542E+01  0.90554787354E+01  0.51100000000E-03 0. -1.
        -12    1    4    4    0    0  0.21021041670E+01 -0.34802506539E+02 -0.10761205248E+02  0.36488859145E+02  0.00000000000E+00 0.  1.
</event>
<event>
 8    1  0.7977359E-012  0.9118800E+02  0.7816164E-02  0.1184000E+00
        -11   -1    0    0    0    0  0.00000000000E+00  0.00000000000E+00  0.45593999997E+02  0.45594000000E+02  0.51100000000E-03 0. -1.
         11   -1    0    0    0    0 -0.00000000000E+00 -0.00000000000E+00 -0.45593999997E+02  0.45594000000E+02  0.51100000000E-03 0.  1.
         23    2    1    2    0    0 -0.53290705182E-14  0.00000000000E+00  0.00000000000E+00  0.91188000000E+02  0.91188000000E+02 0.  0.
    9900012    2    3    3    0    0 -0.11605381594E+02  0.12644732956E+02 -0.36859075078E+02  0.50528861186E+02  0.30000004061E+02 0.  0.
         12    1    3    3    0    0  0.11605381594E+02 -0.12644732956E+02  0.36859075078E+02  0.40659138814E+02  0.00000000000E+00 0. -1.
         11    1    4    4    0    0 -0.15486748747E+02  0.27151435199E+00 -0.12131373997E+02  0.19674433717E+02  0.51100000000E-03 0. -1.
        -11    1    4    4    0    0 -0.47029749538E+01  0.43401974091E+01 -0.11471658239E+02  0.13135989874E+02  0.51100000000E-03 0.  1.
         12    1    4    4    0    0  0.85843421071E+01  0.80330211950E+01 -0.13256042843E+02  0.17718437594E+02  0.00000000000E+00 0. -1.
</event>
<event>
 8    1  0.7977359E-012  0.9118800E+02  0.7816164E-02  0.1184000E+00
        -11   -1    0    0    0    0  0.00000000000E+00  0.00000000000E+00  0.45593999997E+02  0.45594000000E+02  0.51100000000E-03 0. -1.
         11   -1    0    0    0    0 -0.00000000000E+00 -0.00000000000E+00 -0.45593999997E+02  0.45594000000E+02  0.51100000000E-03 0.  1.
         23    2    1    2    0    0  0.00000000000E+00  0.35527136788E-14  0.00000000000E+00  0.91188000000E+02  0.91188000000E+02 0.  0.
    9900012    2    3    3    0    0  0.26577661843E+02  0.19750488616E+02 -0.23594746083E+02  0.50528856473E+02  0.29999989735E+02 0.  0.
         12    1    3    3    0    0 -0.26577661843E+02 -0.19750488616E+02  0.23594746083E+02  0.40659143527E+02  0.00000000000E+00 0. -1.
         11    1    4    4    0    0  0.31138731622E+01  0.35998854318E+00  0.24479569833E+01  0.39772215773E+01  0.51100000000E-03 0. -1.
        -11    1    4    4    0    0  0.46869716841E+01 -0.42640509956E+01  0.48415332600E+00  0.63548594922E+01  0.51100000000E-03 0.  1.
        -12    1    4    4    0    0  0.18776816997E+02  0.23654551068E+02 -0.26526856392E+02  0.40196775404E+02  0.00000000000E+00 0.  1.
</event>
<event>
 8    1  0.7977359E-012  0.9118800E+02  0.7816164E-02  0.1184000E+00
        -11   -1    0    0    0    0  0.00000000000E+00  0.00000000000E+00  0.45593999997E+02  0.45594000000E+02  0.51100000000E-03 0. -1.
         11   -1    0    0    0    0 -0.00000000000E+00 -0.00000000000E+00 -0.45593999997E+02  0.45594000000E+02  0.51100000000E-03 0.  1.
         23    2    1    2    0    0  0.00000000000E+00  0.00000000000E+00  0.00000000000E+00  0.91188000000E+02  0.91188000000E+02 0.  0.
    9900012    2    3    3    0    0  0.19023131084E+02  0.25562330754E+01  0.35843435540E+02  0.50528859391E+02  0.29999998604E+02 0.  0.
        -12    1    3    3    0    0 -0.19023131084E+02 -0.25562330754E+01 -0.35843435540E+02  0.40659140609E+02  0.00000000000E+00 0.  1.
         11    1    4    4    0    0 -0.17714476411E+01 -0.74130597465E+01  0.82988914112E+01  0.11267789511E+02  0.51100000000E-03 0. -1.
        -11    1    4    4    0    0  0.65813471276E+00  0.47510256524E+00 -0.20633487471E+01  0.22172667997E+01  0.51100000000E-03 0.  1.
         12    1    4    4    0    0  0.20136444012E+02  0.94941902567E+01  0.29607892876E+02  0.37043803080E+02  0.00000000000E+00 0. -1.
</event>
<event>
 8    1  0.7977359E-012  0.9118800E+02  0.7816164E-02  0.1184000E+00
        -11   -1    0    0    0    0  0.00000000000E+00  0.00000000000E+00  0.45593999997E+02  0.45594000000E+02  0.51100000000E-03 0. -1.
         11   -1    0    0    0    0 -0.00000000000E+00 -0.00000000000E+00 -0.45593999997E+02  0.45594000000E+02  0.51100000000E-03 0.  1.
         23    2    1    2    0    0  0.00000000000E+00  0.35527136788E-14 -0.35527136788E-14  0.91188000000E+02  0.91188000000E+02 0.  0.
    9900012    2    3    3    0    0  0.20184845757E+02 -0.17302025783E+02  0.30763252897E+02  0.50528858061E+02  0.29999994561E+02 0.  0.
        -12    1    3    3    0    0 -0.20184845757E+02  0.17302025783E+02 -0.30763252897E+02  0.40659141939E+02  0.00000000000E+00 0.  1.
         11    1    4    4    0    0  0.93035836811E+01 -0.21929634553E+01  0.18482783889E+02  0.20808148850E+02  0.51100000000E-03 0. -1.
        -11    1    4    4    0    0  0.14827937145E+02 -0.46976834685E+01  0.95653880138E+01  0.18260136858E+02  0.51100000000E-03 0.  1.
        -12    1    4    4    0    0 -0.39466750686E+01 -0.10411378859E+02  0.27150809938E+01  0.11460572353E+02  0.00000000000E+00 0.  1.
</event>
<event>
 8    1  0.7977359E-012  0.9118800E+02  0.7816164E-02  0.1184000E+00
        -11   -1    0    0    0    0  0.00000000000E+00  0.00000000000E+00  0.45593999997E+02  0.45594000000E+02  0.51100000000E-03 0.  1.
         11   -1    0    0    0    0 -0.00000000000E+00 -0.00000000000E+00 -0.45593999997E+02  0.45594000000E+02  0.51100000000E-03 0. -1.
         23    2    1    2    0    0  0.17763568394E-14 -0.71054273576E-14 -0.35527136788E-14  0.91188000000E+02  0.91188000000E+02 0.  0.
    9900012    2    3    3    0    0 -0.70469087627E+01  0.32448454606E+02  0.23464970990E+02  0.50528855973E+02  0.29999988216E+02 0.  0.
        -12    1    3    3    0    0  0.70469087627E+01 -0.32448454606E+02 -0.23464970990E+02  0.40659144027E+02  0.00000000000E+00 0.  1.
         11    1    4    4    0    0 -0.81843335776E+00 -0.19341156152E+01 -0.12906972767E+01  0.24650631017E+01  0.51100000000E-03 0. -1.
        -11    1    4    4    0    0  0.32740895553E+01 -0.11726867674E+01 -0.37652108288E+00  0.34980887721E+01  0.51100000000E-03 0.  1.
         12    1    4    4    0    0 -0.95025649602E+01  0.35555256989E+02  0.25132189350E+02  0.44565704099E+02  0.00000000000E+00 0. -1.
</event>
<event>
 8    1  0.7977359E-012  0.9118800E+02  0.7816164E-02  0.1184000E+00
        -11   -1    0    0    0    0  0.00000000000E+00  0.00000000000E+00  0.45593999997E+02  0.45594000000E+02  0.51100000000E-03 0.  1.
         11   -1    0    0    0    0 -0.00000000000E+00 -0.00000000000E+00 -0.45593999997E+02  0.45594000000E+02  0.51100000000E-03 0. -1.
         23    2    1    2    0    0  0.00000000000E+00  0.71054273576E-14 -0.17763568394E-14  0.91188000000E+02  0.91188000000E+02 0.  0.
    9900012    2    3    3    0    0  0.22602779886E+01  0.39943255653E+02  0.72521081295E+01  0.50528860793E+02  0.30000002866E+02 0.  0.
        -12    1    3    3    0    0 -0.22602779886E+01 -0.39943255653E+02 -0.72521081295E+01  0.40659139207E+02  0.00000000000E+00 0.  1.
         11    1    4    4    0    0  0.48392278928E+01  0.79236674943E+01  0.10966223621E+02  0.14368740165E+02  0.51100000000E-03 0. -1.
        -11    1    4    4    0    0 -0.73287749281E-01 -0.85534421486E+00  0.24699560691E+01  0.26148935092E+01  0.51100000000E-03 0.  1.
        -12    1    4    4    0    0 -0.25056621549E+01  0.32874932373E+02 -0.61840715606E+01  0.33545227119E+02  0.00000000000E+00 0.  1.
</event>
<event>
 8    1  0.7977359E-012  0.9118800E+02  0.7816164E-02  0.1184000E+00
        -11   -1    0    0    0    0  0.00000000000E+00  0.00000000000E+00  0.45593999997E+02  0.45594000000E+02  0.51100000000E-03 0. -1.
         11   -1    0    0    0    0 -0.00000000000E+00 -0.00000000000E+00 -0.45593999997E+02  0.45594000000E+02  0.51100000000E-03 0.  1.
         23    2    1    2    0    0  0.00000000000E+00 -0.71054273576E-14  0.00000000000E+00  0.91188000000E+02  0.91188000000E+02 0.  0.
    9900012    2    3    3    0    0 -0.23627549872E+01 -0.18781378251E+02  0.35983923955E+02  0.50528861257E+02  0.30000004275E+02 0.  0.
        -12    1    3    3    0    0  0.23627549872E+01  0.18781378251E+02 -0.35983923955E+02  0.40659138743E+02  0.00000000000E+00 0.  1.
         11    1    4    4    0    0  0.39664113123E+01 -0.48047995401E+01  0.72706564959E+01  0.95750176742E+01  0.51100000000E-03 0. -1.
        -11    1    4    4    0    0 -0.56351034393E+01 -0.18642217878E+02  0.10471263868E+02  0.22111853053E+02  0.51100000000E-03 0.  1.
         12    1    4    4    0    0 -0.69406286020E+00  0.46656391667E+01  0.18242003591E+02  0.18841990530E+02  0.00000000000E+00 0. -1.
</event>
<event>
 8    1  0.7977359E-012  0.9118800E+02  0.7816164E-02  0.1184000E+00
        -11   -1    0    0    0    0  0.00000000000E+00  0.00000000000E+00  0.45593999997E+02  0.45594000000E+02  0.51100000000E-03 0. -1.
         11   -1    0    0    0    0 -0.00000000000E+00 -0.00000000000E+00 -0.45593999997E+02  0.45594000000E+02  0.51100000000E-03 0.  1.
         23    2    1    2    0    0  0.00000000000E+00  0.35527136788E-14  0.00000000000E+00  0.91188000000E+02  0.91188000000E+02 0.  0.
    9900012    2    3    3    0    0  0.11258409873E+02 -0.22403396931E+02 -0.32007818137E+02  0.50528875454E+02  0.30000047431E+02 0.  0.
         12    1    3    3    0    0 -0.11258409873E+02  0.22403396931E+02  0.32007818137E+02  0.40659124546E+02  0.00000000000E+00 0. -1.
         11    1    4    4    0    0  0.17775329906E+01  0.40421669685E+01 -0.19625361853E+01  0.48322133515E+01  0.51100000000E-03 0. -1.
        -11    1    4    4    0    0  0.31035898257E+01 -0.77131282121E+00  0.22791029068E+01  0.39270222300E+01  0.51100000000E-03 0.  1.
        -12    1    4    4    0    0  0.63772870563E+01 -0.25674251079E+02 -0.32324384858E+02  0.41769639873E+02  0.00000000000E+00 0.  1.
</event>
<event>
 8    1  0.7977359E-012  0.9118800E+02  0.7816164E-02  0.1184000E+00
        -11   -1    0    0    0    0  0.00000000000E+00  0.00000000000E+00  0.45593999997E+02  0.45594000000E+02  0.51100000000E-03 0.  1.
         11   -1    0    0    0    0 -0.00000000000E+00 -0.00000000000E+00 -0.45593999997E+02  0.45594000000E+02  0.51100000000E-03 0. -1.
         23    2    1    2    0    0  0.00000000000E+00  0.00000000000E+00  0.00000000000E+00  0.91188000000E+02  0.91188000000E+02 0.  0.
    9900012    2    3    3    0    0  0.72765388693E+01  0.30713711956E+02  0.25629782836E+02  0.50528857261E+02  0.29999992131E+02 0.  0.
        -12    1    3    3    0    0 -0.72765388693E+01 -0.30713711956E+02 -0.25629782836E+02  0.40659142739E+02  0.00000000000E+00 0.  1.
         11    1    4    4    0    0  0.31415009073E+01  0.57133647387E+01  0.87802184468E+01  0.10936352263E+02  0.51100000000E-03 0. -1.
        -11    1    4    4    0    0  0.26065230427E+01  0.18557151894E+02  0.23600839104E+02  0.30135717272E+02  0.51100000000E-03 0.  1.
         12    1    4    4    0    0  0.15285149194E+01  0.64431953231E+01 -0.67512747147E+01  0.94567877265E+01  0.00000000000E+00 0. -1.
</event>
<event>
 8    1  0.7977359E-012  0.9118800E+02  0.7816164E-02  0.1184000E+00
        -11   -1    0    0    0    0  0.00000000000E+00  0.00000000000E+00  0.45593999997E+02  0.45594000000E+02  0.51100000000E-03 0. -1.
         11   -1    0    0    0    0 -0.00000000000E+00 -0.00000000000E+00 -0.45593999997E+02  0.45594000000E+02  0.51100000000E-03 0.  1.
         23    2    1    2    0    0 -0.35527136788E-14 -0.17763568394E-14  0.00000000000E+00  0.91188000000E+02  0.91188000000E+02 0.  0.
    9900012    2    3    3    0    0 -0.21038979053E+02  0.10309789767E+02  0.33229964931E+02  0.50528917694E+02  0.30000175822E+02 0.  0.
        -12    1    3    3    0    0  0.21038979053E+02 -0.10309789767E+02 -0.33229964931E+02  0.40659082306E+02  0.00000000000E+00 0.  1.
         11    1    4    4    0    0 -0.28852172423E+01  0.63498168140E-01  0.23032380277E+01  0.36923456266E+01  0.51100000000E-03 0. -1.
        -11    1    4    4    0    0 -0.64483457716E+01 -0.62499708725E+01  0.23721320424E+02  0.25364233520E+02  0.51100000000E-03 0.  1.
        -12    1    4    4    0    0 -0.11705416039E+02  0.16496262472E+02  0.72054064792E+01  0.21472338548E+02  0.00000000000E+00 0.  1.
</event>
<event>
 8    1  0.7977359E-012  0.9118800E+02  0.7816164E-02  0.1184000E+00
        -11   -1    0    0    0    0  0.00000000000E+00  0.00000000000E+00  0.45593999997E+02  0.45594000000E+02  0.51100000000E-03 0.  1.
         11   -1    0    0    0    0 -0.00000000000E+00 -0.00000000000E+00 -0.45593999997E+02  0.45594000000E+02  0.51100000000E-03 0. -1.
         23    2    1    2    0    0 -0.17763568394E-14  0.00000000000E+00 -0.88817841970E-15  0.91188000000E+02  0.91188000000E+02 0.  0.
    9900012    2    3    3    0    0  0.13489140117E+02 -0.38143782241E+02 -0.40324436663E+01  0.50528860478E+02  0.30000001909E+02 0.  0.
        -12    1    3    3    0    0 -0.13489140117E+02  0.38143782241E+02  0.40324436663E+01  0.40659139522E+02  0.00000000000E+00 0.  1.
         11    1    4    4    0    0 -0.14375453824E+01 -0.17519877672E+02 -0.64084280318E+01  0.18710440948E+02  0.51100000000E-03 0. -1.
        -11    1    4    4    0    0 -0.20082904295E+01 -0.12745531738E+02 -0.54121313928E+00  0.12914128761E+02  0.51100000000E-03 0.  1.
         12    1    4    4    0    0  0.16934975929E+02 -0.78783728305E+01  0.29171975048E+01  0.18904290768E+02  0.00000000000E+00 0. -1.
</event>
<event>
 8    1  0.9290176E-012  0.9118800E+02  0.7816164E-02  0.1184000E+00
        -11   -1    0    0    0    0  0.00000000000E+00  0.00000000000E+00  0.45593999997E+02  0.45594000000E+02  0.51100000000E-03 0. -1.
         11   -1    0    0    0    0 -0.00000000000E+00 -0.00000000000E+00 -0.45593999997E+02  0.45594000000E+02  0.51100000000E-03 0.  1.
         23    2    1    2    0    0  0.00000000000E+00 -0.88817841970E-15  0.00000000000E+00  0.91188000000E+02  0.91188000000E+02 0.  0.
    9900012    2    3    3    0    0  0.22943373680E+02 -0.68067559700E+01  0.32869893998E+02  0.50528926546E+02  0.30000202730E+02 0.  0.
        -12    1    3    3    0    0 -0.22943373680E+02  0.68067559700E+01 -0.32869893998E+02  0.40659073454E+02  0.00000000000E+00 0.  1.
         11    1    4    4    0    0  0.11793255005E+02 -0.44126648974E+01  0.30120968456E+02  0.32646978668E+02  0.51100000000E-03 0. -1.
        -11    1    4    4    0    0  0.12898649049E+02 -0.23095685713E+00  0.54501086885E+01  0.14004719681E+02  0.51100000000E-03 0.  1.
        -12    1    4    4    0    0 -0.17485303747E+01 -0.21631342155E+01 -0.27011831467E+01  0.38772281978E+01  0.00000000000E+00 0.  1.
</event>
<event>
 8    1  0.7977359E-012  0.9118800E+02  0.7816164E-02  0.1184000E+00
        -11   -1    0    0    0    0  0.00000000000E+00  0.00000000000E+00  0.45593999997E+02  0.45594000000E+02  0.51100000000E-03 0.  1.
         11   -1    0    0    0    0 -0.00000000000E+00 -0.00000000000E+00 -0.45593999997E+02  0.45594000000E+02  0.51100000000E-03 0. -1.
         23    2    1    2    0    0 -0.71054273576E-14 -0.35527136788E-14 -0.44408920985E-15  0.91188000000E+02  0.91188000000E+02 0.  0.
    9900012    2    3    3    0    0 -0.38219607474E+02 -0.13809195715E+02  0.13167479813E+01  0.50528854571E+02  0.29999983954E+02 0.  0.
         12    1    3    3    0    0  0.38219607474E+02  0.13809195715E+02 -0.13167479813E+01  0.40659145429E+02  0.00000000000E+00 0. -1.
         11    1    4    4    0    0 -0.37568244109E+02 -0.15156358210E+02  0.95141964714E+01  0.41612595381E+02  0.51100000000E-03 0.  1.
        -11    1    4    4    0    0 -0.73392157606E+00  0.20807709003E+01 -0.33396638272E+01  0.40026994840E+01  0.51100000000E-03 0. -1.
        -12    1    4    4    0    0  0.82558210863E-01 -0.73360840544E+00 -0.48577846629E+01  0.49135597058E+01  0.00000000000E+00 0.  1.
</event>
<event>
 8    1  0.7977359E-012  0.9118800E+02  0.7816164E-02  0.1184000E+00
        -11   -1    0    0    0    0  0.00000000000E+00  0.00000000000E+00  0.45593999997E+02  0.45594000000E+02  0.51100000000E-03 0.  1.
         11   -1    0    0    0    0 -0.00000000000E+00 -0.00000000000E+00 -0.45593999997E+02  0.45594000000E+02  0.51100000000E-03 0. -1.
         23    2    1    2    0    0  0.71054273576E-14  0.88817841970E-15  0.00000000000E+00  0.91188000000E+02  0.91188000000E+02 0.  0.
    9900012    2    3    3    0    0 -0.39492745817E+02  0.79431840275E+01  0.55130659318E+01  0.50528867684E+02  0.30000023813E+02 0.  0.
        -12    1    3    3    0    0  0.39492745817E+02 -0.79431840275E+01 -0.55130659318E+01  0.40659132316E+02  0.00000000000E+00 0.  1.
         11    1    4    4    0    0 -0.28073093813E+01 -0.35924785130E+00 -0.35782757321E+01  0.45622475225E+01  0.51100000000E-03 0. -1.
        -11    1    4    4    0    0 -0.17526170518E+01 -0.66637173774E+01  0.28374486636E+01  0.74517052408E+01  0.51100000000E-03 0.  1.
         12    1    4    4    0    0 -0.34932819384E+02  0.14966149256E+02  0.62538930003E+01  0.38514914921E+02  0.00000000000E+00 0. -1.
</event>
<event>
 8    1  0.7977359E-012  0.9118800E+02  0.7816164E-02  0.1184000E+00
        -11   -1    0    0    0    0  0.00000000000E+00  0.00000000000E+00  0.45593999997E+02  0.45594000000E+02  0.51100000000E-03 0. -1.
         11   -1    0    0    0    0 -0.00000000000E+00 -0.00000000000E+00 -0.45593999997E+02  0.45594000000E+02  0.51100000000E-03 0.  1.
         23    2    1    2    0    0  0.17763568394E-14  0.00000000000E+00  0.00000000000E+00  0.91188000000E+02  0.91188000000E+02 0.  0.
    9900012    2    3    3    0    0  0.10063591137E+02  0.37692294945E+02 -0.11453415690E+02  0.50528859628E+02  0.29999999326E+02 0.  0.
         12    1    3    3    0    0 -0.10063591137E+02 -0.37692294945E+02  0.11453415690E+02  0.40659140372E+02  0.00000000000E+00 0. -1.
         11    1    4    4    0    0 -0.11962206084E+01  0.84447932641E+01  0.32083265806E+01  0.91125647721E+01  0.51100000000E-03 0. -1.
        -11    1    4    4    0    0 -0.22783175741E+00  0.25481540253E+02 -0.50649345021E+01  0.25981038523E+02  0.51100000000E-03 0.  1.
         12    1    4    4    0    0  0.11487643503E+02  0.37659614282E+01 -0.95968077683E+01  0.15435256333E+02  0.00000000000E+00 0. -1.
</event>
<event>
 8    1  0.7977359E-012  0.9118800E+02  0.7816164E-02  0.1184000E+00
        -11   -1    0    0    0    0  0.00000000000E+00  0.00000000000E+00  0.45593999997E+02  0.45594000000E+02  0.51100000000E-03 0. -1.
         11   -1    0    0    0    0 -0.00000000000E+00 -0.00000000000E+00 -0.45593999997E+02  0.45594000000E+02  0.51100000000E-03 0.  1.
         23    2    1    2    0    0 -0.17763568394E-14  0.00000000000E+00  0.35527136788E-14  0.91188000000E+02  0.91188000000E+02 0.  0.
    9900012    2    3    3    0    0 -0.12401750224E+02  0.29442103116E+02  0.25150058250E+02  0.50528852512E+02  0.29999977695E+02 0.  0.
        -12    1    3    3    0    0  0.12401750224E+02 -0.29442103116E+02 -0.25150058250E+02  0.40659147488E+02  0.00000000000E+00 0.  1.
         11    1    4    4    0    0 -0.95662072460E+00  0.15289890693E+02  0.91030038970E+01  0.17820228978E+02  0.51100000000E-03 0. -1.
        -11    1    4    4    0    0 -0.71466547600E+00  0.13704566209E+02  0.39827953707E+00  0.13728966041E+02  0.51100000000E-03 0.  1.
         12    1    4    4    0    0 -0.10730464023E+02  0.44764621396E+00  0.15648774816E+02  0.18979657493E+02  0.00000000000E+00 0. -1.
</event>
<event>
 8    1  0.7977359E-012  0.9118800E+02  0.7816164E-02  0.1184000E+00
        -11   -1    0    0    0    0  0.00000000000E+00  0.00000000000E+00  0.45593999997E+02  0.45594000000E+02  0.51100000000E-03 0. -1.
         11   -1    0    0    0    0 -0.00000000000E+00 -0.00000000000E+00 -0.45593999997E+02  0.45594000000E+02  0.51100000000E-03 0.  1.
         23    2    1    2    0    0 -0.88817841970E-15  0.00000000000E+00  0.00000000000E+00  0.91188000000E+02  0.91188000000E+02 0.  0.
    9900012    2    3    3    0    0 -0.76533777117E+01  0.22962373042E+02 -0.32669881408E+02  0.50528856903E+02  0.29999991044E+02 0.  0.
         12    1    3    3    0    0  0.76533777117E+01 -0.22962373042E+02  0.32669881408E+02  0.40659143097E+02  0.00000000000E+00 0. -1.
         11    1    4    4    0    0 -0.10983589902E+02  0.14998713799E+02 -0.18500531854E+02  0.26227282397E+02  0.51100000000E-03 0. -1.
        -11    1    4    4    0    0  0.36435043595E+01  0.11713365208E+02 -0.15963993947E+02  0.20132738302E+02  0.51100000000E-03 0.  1.
         12    1    4    4    0    0 -0.31329216896E+00 -0.37497059648E+01  0.17946443935E+01  0.41688362051E+01  0.00000000000E+00 0. -1.
</event>
<event>
 8    1  0.7977359E-012  0.9118800E+02  0.7816164E-02  0.1184000E+00
        -11   -1    0    0    0    0  0.00000000000E+00  0.00000000000E+00  0.45593999997E+02  0.45594000000E+02  0.51100000000E-03 0. -1.
         11   -1    0    0    0    0 -0.00000000000E+00 -0.00000000000E+00 -0.45593999997E+02  0.45594000000E+02  0.51100000000E-03 0.  1.
         23    2    1    2    0    0  0.00000000000E+00  0.00000000000E+00  0.00000000000E+00  0.91188000000E+02  0.91188000000E+02 0.  0.
    9900012    2    3    3    0    0 -0.34113791756E+01  0.22307615968E+02 -0.33821565118E+02  0.50528861973E+02  0.30000006454E+02 0.  0.
         12    1    3    3    0    0  0.34113791756E+01 -0.22307615968E+02  0.33821565118E+02  0.40659138027E+02  0.00000000000E+00 0. -1.
         11    1    4    4    0    0  0.93203913509E+01  0.46194077151E+01 -0.11357903764E+02  0.15401642794E+02  0.51100000000E-03 0. -1.
        -11    1    4    4    0    0  0.83298867690E-01 -0.26576775858E+01 -0.83881005570E+00  0.27881519726E+01  0.51100000000E-03 0.  1.
        -12    1    4    4    0    0 -0.12815069394E+02  0.20345885838E+02 -0.21624851298E+02  0.32339067207E+02  0.00000000000E+00 0.  1.
</event>
<event>
 8    1  0.7977359E-012  0.9118800E+02  0.7816164E-02  0.1184000E+00
        -11   -1    0    0    0    0  0.00000000000E+00  0.00000000000E+00  0.45593999997E+02  0.45594000000E+02  0.51100000000E-03 0. -1.
         11   -1    0    0    0    0 -0.00000000000E+00 -0.00000000000E+00 -0.45593999997E+02  0.45594000000E+02  0.51100000000E-03 0.  1.
         23    2    1    2    0    0  0.00000000000E+00  0.17763568394E-14  0.00000000000E+00  0.91188000000E+02  0.91188000000E+02 0.  0.
    9900012    2    3    3    0    0 -0.16337436399E+02 -0.83002298561E+01  0.36295451226E+02  0.50528862977E+02  0.30000009504E+02 0.  0.
        -12    1    3    3    0    0  0.16337436399E+02  0.83002298561E+01 -0.36295451226E+02  0.40659137023E+02  0.00000000000E+00 0.  1.
         11    1    4    4    0    0 -0.18666663995E+02 -0.10922865110E+02  0.17056008764E+02  0.27543797163E+02  0.51100000000E-03 0. -1.
        -11    1    4    4    0    0  0.26686610184E+00  0.19172758770E+00 -0.17369788433E+01  0.17677875289E+01  0.51100000000E-03 0.  1.
         12    1    4    4    0    0  0.20623614948E+01  0.24309076667E+01  0.20976421306E+02  0.21217278285E+02  0.00000000000E+00 0. -1.
</event>
<event>
 8    1  0.7977359E-012  0.9118800E+02  0.7816164E-02  0.1184000E+00
        -11   -1    0    0    0    0  0.00000000000E+00  0.00000000000E+00  0.45593999997E+02  0.45594000000E+02  0.51100000000E-03 0.  1.
         11   -1    0    0    0    0 -0.00000000000E+00 -0.00000000000E+00 -0.45593999997E+02  0.45594000000E+02  0.51100000000E-03 0. -1.
         23    2    1    2    0    0  0.00000000000E+00 -0.35527136788E-14  0.44408920985E-15  0.91188000000E+02  0.91188000000E+02 0.  0.
    9900012    2    3    3    0    0  0.35025845119E+02  0.20595209317E+02 -0.14811037926E+01  0.50528854146E+02  0.29999982662E+02 0.  0.
        -12    1    3    3    0    0 -0.35025845119E+02 -0.20595209317E+02  0.14811037926E+01  0.40659145854E+02  0.00000000000E+00 0.  1.
         11    1    4    4    0    0  0.96125938468E+01 -0.22953687089E-01 -0.68330652552E+01  0.11793780920E+02  0.51100000000E-03 0. -1.
        -11    1    4    4    0    0  0.25091375992E+01  0.20937771253E+00 -0.56169128117E+01  0.61554301485E+01  0.51100000000E-03 0.  1.
         12    1    4    4    0    0  0.22904113673E+02  0.20408785292E+02  0.10968874274E+02  0.32579643078E+02  0.00000000000E+00 0. -1.
</event>
<event>
 8    1  0.7977359E-012  0.9118800E+02  0.7816164E-02  0.1184000E+00
        -11   -1    0    0    0    0  0.00000000000E+00  0.00000000000E+00  0.45593999997E+02  0.45594000000E+02  0.51100000000E-03 0. -1.
         11   -1    0    0    0    0 -0.00000000000E+00 -0.00000000000E+00 -0.45593999997E+02  0.45594000000E+02  0.51100000000E-03 0.  1.
         23    2    1    2    0    0  0.00000000000E+00  0.00000000000E+00  0.00000000000E+00  0.91188000000E+02  0.91188000000E+02 0.  0.
    9900012    2    3    3    0    0 -0.25172889640E+02 -0.11657324790E+02  0.29725382221E+02  0.50528856597E+02  0.29999990112E+02 0.  0.
        -12    1    3    3    0    0  0.25172889640E+02  0.11657324790E+02 -0.29725382221E+02  0.40659143403E+02  0.00000000000E+00 0.  1.
         11    1    4    4    0    0 -0.98907499536E+01  0.13438002272E+01  0.55306434435E+01  0.11411430710E+02  0.51100000000E-03 0. -1.
        -11    1    4    4    0    0 -0.17984785034E+02 -0.44706506017E+01  0.71443535568E+01  0.19861545699E+02  0.51100000000E-03 0.  1.
         12    1    4    4    0    0  0.27026453481E+01 -0.85304744161E+01  0.17050385220E+02  0.19255880188E+02  0.00000000000E+00 0. -1.
</event>
<event>
 8    1  0.7977359E-012  0.9118800E+02  0.7816164E-02  0.1184000E+00
        -11   -1    0    0    0    0  0.00000000000E+00  0.00000000000E+00  0.45593999997E+02  0.45594000000E+02  0.51100000000E-03 0. -1.
         11   -1    0    0    0    0 -0.00000000000E+00 -0.00000000000E+00 -0.45593999997E+02  0.45594000000E+02  0.51100000000E-03 0.  1.
         23    2    1    2    0    0 -0.83266726847E-15  0.00000000000E+00 -0.35527136788E-14  0.91188000000E+02  0.91188000000E+02 0.  0.
    9900012    2    3    3    0    0  0.30372787087E+00  0.35861397640E+02  0.19158368375E+02  0.50528743119E+02  0.29999645183E+02 0.  0.
        -12    1    3    3    0    0 -0.30372787087E+00 -0.35861397640E+02 -0.19158368375E+02  0.40659256881E+02  0.00000000000E+00 0.  1.
         11    1    4    4    0    0  0.23909178127E+00 -0.11696092893E+01 -0.70711667477E+00  0.13875031612E+01  0.51100000000E-03 0.  1.
        -11    1    4    4    0    0  0.41798223546E+01  0.11658496192E+01  0.11205803065E+02  0.12016661052E+02  0.51100000000E-03 0. -1.
         12    1    4    4    0    0 -0.41151862650E+01  0.35865157310E+02  0.86596819855E+01  0.37124578906E+02  0.00000000000E+00 0. -1.
</event>
<event>
 8    1  0.7977359E-012  0.9118800E+02  0.7816164E-02  0.1184000E+00
        -11   -1    0    0    0    0  0.00000000000E+00  0.00000000000E+00  0.45593999997E+02  0.45594000000E+02  0.51100000000E-03 0. -1.
         11   -1    0    0    0    0 -0.00000000000E+00 -0.00000000000E+00 -0.45593999997E+02  0.45594000000E+02  0.51100000000E-03 0.  1.
         23    2    1    2    0    0  0.88817841970E-15  0.00000000000E+00  0.00000000000E+00  0.91188000000E+02  0.91188000000E+02 0.  0.
    9900012    2    3    3    0    0  0.65513115898E+01  0.18626216737E+02 -0.35543058717E+02  0.50528872410E+02  0.30000038176E+02 0.  0.
         12    1    3    3    0    0 -0.65513115898E+01 -0.18626216737E+02  0.35543058717E+02  0.40659127590E+02  0.00000000000E+00 0. -1.
         11    1    4    4    0    0  0.83112366336E-01  0.43518179385E+00 -0.93180736224E+01  0.93286004928E+01  0.51100000000E-03 0. -1.
        -11    1    4    4    0    0  0.11556638617E+02  0.78611709682E+01 -0.26188740640E+02  0.29685081130E+02  0.51100000000E-03 0.  1.
         12    1    4    4    0    0 -0.50884393938E+01  0.10329863974E+02 -0.36244454424E-01  0.11515190787E+02  0.00000000000E+00 0. -1.
</event>
<event>
 8    1  0.7977359E-012  0.9118800E+02  0.7816164E-02  0.1184000E+00
        -11   -1    0    0    0    0  0.00000000000E+00  0.00000000000E+00  0.45593999997E+02  0.45594000000E+02  0.51100000000E-03 0. -1.
         11   -1    0    0    0    0 -0.00000000000E+00 -0.00000000000E+00 -0.45593999997E+02  0.45594000000E+02  0.51100000000E-03 0.  1.
         23    2    1    2    0    0 -0.35527136788E-14  0.00000000000E+00 -0.35527136788E-14  0.91188000000E+02  0.91188000000E+02 0.  0.
    9900012    2    3    3    0    0 -0.24031250886E+02 -0.21332073942E+02 -0.24911964160E+02  0.50528876102E+02  0.30000049401E+02 0.  0.
         12    1    3    3    0    0  0.24031250886E+02  0.21332073942E+02  0.24911964160E+02  0.40659123898E+02  0.00000000000E+00 0. -1.
         11    1    4    4    0    0 -0.27666804285E+01 -0.41662958938E+01  0.11290247155E+01  0.51271082627E+01  0.51100000000E-03 0. -1.
        -11    1    4    4    0    0 -0.20429003982E+02 -0.22950110209E+02 -0.18514183317E+02  0.35872367450E+02  0.51100000000E-03 0.  1.
         12    1    4    4    0    0 -0.83556647555E+00  0.57843321604E+01 -0.75268055585E+01  0.95294003900E+01  0.00000000000E+00 0. -1.
</event>
<event>
 8    1  0.7977359E-012  0.9118800E+02  0.7816164E-02  0.1184000E+00
        -11   -1    0    0    0    0  0.00000000000E+00  0.00000000000E+00  0.45593999997E+02  0.45594000000E+02  0.51100000000E-03 0. -1.
         11   -1    0    0    0    0 -0.00000000000E+00 -0.00000000000E+00 -0.45593999997E+02  0.45594000000E+02  0.51100000000E-03 0.  1.
         23    2    1    2    0    0 -0.35527136788E-14  0.00000000000E+00  0.00000000000E+00  0.91188000000E+02  0.91188000000E+02 0.  0.
    9900012    2    3    3    0    0  0.19893920347E+02 -0.96903462966E+01  0.34109990408E+02  0.50528901095E+02  0.30000125369E+02 0.  0.
        -12    1    3    3    0    0 -0.19893920347E+02  0.96903462966E+01 -0.34109990408E+02  0.40659098905E+02  0.00000000000E+00 0.  1.
         11    1    4    4    0    0  0.52917928010E+01 -0.16130527097E+02  0.14685870137E+02  0.22447087949E+02  0.51100000000E-03 0. -1.
        -11    1    4    4    0    0 -0.18961444081E+01  0.28058773128E+01  0.32285269973E+01  0.46788564783E+01  0.51100000000E-03 0.  1.
         12    1    4    4    0    0  0.16498271954E+02  0.36343034872E+01  0.16195593274E+02  0.23402956668E+02  0.00000000000E+00 0. -1.
</event>
<event>
 8    1  0.9509062E-012  0.9118800E+02  0.7816164E-02  0.1184000E+00
        -11   -1    0    0    0    0  0.00000000000E+00  0.00000000000E+00  0.45593999997E+02  0.45594000000E+02  0.51100000000E-03 0. -1.
         11   -1    0    0    0    0 -0.00000000000E+00 -0.00000000000E+00 -0.45593999997E+02  0.45594000000E+02  0.51100000000E-03 0.  1.
         23    2    1    2    0    0  0.35527136788E-14 -0.17763568394E-14  0.00000000000E+00  0.91188000000E+02  0.91188000000E+02 0.  0.
    9900012    2    3    3    0    0  0.21867866208E+02  0.10602531683E+02  0.32596767783E+02  0.50528849487E+02  0.29999968499E+02 0.  0.
        -12    1    3    3    0    0 -0.21867866208E+02 -0.10602531683E+02 -0.32596767783E+02  0.40659150513E+02  0.00000000000E+00 0.  1.
         11    1    4    4    0    0  0.21073390153E+02  0.55083518692E+01  0.27766414594E+02  0.35290274758E+02  0.51100000000E-03 0. -1.
        -11    1    4    4    0    0  0.44072957115E+01  0.28198816736E+00 -0.30178822915E+01  0.53489612638E+01  0.51100000000E-03 0.  1.
        -12    1    4    4    0    0 -0.36128196567E+01  0.48121916463E+01  0.78482354813E+01  0.98896134648E+01  0.00000000000E+00 0.  1.
</event>
<event>
 8    1  0.7977359E-012  0.9118800E+02  0.7816164E-02  0.1184000E+00
        -11   -1    0    0    0    0  0.00000000000E+00  0.00000000000E+00  0.45593999997E+02  0.45594000000E+02  0.51100000000E-03 0. -1.
         11   -1    0    0    0    0 -0.00000000000E+00 -0.00000000000E+00 -0.45593999997E+02  0.45594000000E+02  0.51100000000E-03 0.  1.
         23    2    1    2    0    0  0.00000000000E+00  0.00000000000E+00  0.00000000000E+00  0.91188000000E+02  0.91188000000E+02 0.  0.
    9900012    2    3    3    0    0 -0.29347244636E+02  0.34745558695E+01  0.27925488258E+02  0.50528853419E+02  0.29999980454E+02 0.  0.
        -12    1    3    3    0    0  0.29347244636E+02 -0.34745558695E+01 -0.27925488258E+02  0.40659146581E+02  0.00000000000E+00 0.  1.
         11    1    4    4    0    0  0.21108146061E+01  0.10420270583E+01 -0.19333137526E+01  0.30461551207E+01  0.51100000000E-03 0. -1.
        -11    1    4    4    0    0 -0.18519831757E+01 -0.23314026105E+01 -0.21112896943E+01  0.36500444175E+01  0.51100000000E-03 0.  1.
         12    1    4    4    0    0 -0.29606076066E+02  0.47639314217E+01  0.31970091705E+02  0.43832653881E+02  0.00000000000E+00 0. -1.
</event>
<event>
 8    1  0.7977359E-012  0.9118800E+02  0.7816164E-02  0.1184000E+00
        -11   -1    0    0    0    0  0.00000000000E+00  0.00000000000E+00  0.45593999997E+02  0.45594000000E+02  0.51100000000E-03 0. -1.
         11   -1    0    0    0    0 -0.00000000000E+00 -0.00000000000E+00 -0.45593999997E+02  0.45594000000E+02  0.51100000000E-03 0.  1.
         23    2    1    2    0    0  0.00000000000E+00 -0.35527136788E-14  0.17763568394E-14  0.91188000000E+02  0.91188000000E+02 0.  0.
    9900012    2    3    3    0    0  0.30378695937E+02 -0.25010973332E+02  0.10234834936E+02  0.50528858346E+02  0.29999995428E+02 0.  0.
        -12    1    3    3    0    0 -0.30378695937E+02  0.25010973332E+02 -0.10234834936E+02  0.40659141654E+02  0.00000000000E+00 0.  1.
         11    1    4    4    0    0  0.22112842085E+02 -0.20517520702E+02  0.15514022953E+02  0.33920957376E+02  0.51100000000E-03 0. -1.
        -11    1    4    4    0    0  0.10327921959E+02 -0.64188091626E+01 -0.20700489479E+01  0.12334998418E+02  0.51100000000E-03 0.  1.
         12    1    4    4    0    0 -0.20620681073E+01  0.19253565324E+01 -0.32091390690E+01  0.42729025521E+01  0.00000000000E+00 0. -1.
</event>
<event>
 8    1  0.7977359E-012  0.9118800E+02  0.7816164E-02  0.1184000E+00
        -11   -1    0    0    0    0  0.00000000000E+00  0.00000000000E+00  0.45593999997E+02  0.45594000000E+02  0.51100000000E-03 0. -1.
         11   -1    0    0    0    0 -0.00000000000E+00 -0.00000000000E+00 -0.45593999997E+02  0.45594000000E+02  0.51100000000E-03 0.  1.
         23    2    1    2    0    0  0.00000000000E+00  0.17763568394E-14  0.00000000000E+00  0.91188000000E+02  0.91188000000E+02 0.  0.
    9900012    2    3    3    0    0  0.12301788205E+02 -0.14207631398E+02 -0.36055173437E+02  0.50528852019E+02  0.29999976196E+02 0.  0.
         12    1    3    3    0    0 -0.12301788205E+02  0.14207631398E+02  0.36055173437E+02  0.40659147981E+02  0.00000000000E+00 0. -1.
         11    1    4    4    0    0  0.22321062234E+01 -0.46266169602E+01 -0.24762147735E+02  0.25289362258E+02  0.51100000000E-03 0. -1.
        -11    1    4    4    0    0  0.64994321382E+01 -0.53613049037E+01 -0.15932476175E+02  0.18023040968E+02  0.51100000000E-03 0.  1.
         12    1    4    4    0    0  0.35702498430E+01 -0.42197095338E+01  0.46394504730E+01  0.72164487930E+01  0.00000000000E+00 0. -1.
</event>
<event>
 8    1  0.7977359E-012  0.9118800E+02  0.7816164E-02  0.1184000E+00
        -11   -1    0    0    0    0  0.00000000000E+00  0.00000000000E+00  0.45593999997E+02  0.45594000000E+02  0.51100000000E-03 0.  1.
         11   -1    0    0    0    0 -0.00000000000E+00 -0.00000000000E+00 -0.45593999997E+02  0.45594000000E+02  0.51100000000E-03 0. -1.
         23    2    1    2    0    0 -0.44408920985E-15  0.00000000000E+00 -0.35527136788E-14  0.91188000000E+02  0.91188000000E+02 0.  0.
    9900012    2    3    3    0    0  0.16521200097E+01 -0.29646322375E+02  0.27776515566E+02  0.50528822095E+02  0.29999885241E+02 0.  0.
        -12    1    3    3    0    0 -0.16521200097E+01  0.29646322375E+02 -0.27776515566E+02  0.40659177905E+02  0.00000000000E+00 0.  1.
         11    1    4    4    0    0 -0.18016707539E+01 -0.74822829209E+01 -0.50004954672E+01  0.91779916318E+01  0.51100000000E-03 0. -1.
        -11    1    4    4    0    0  0.10038462703E+01  0.12744973903E+01  0.25578974279E+01  0.30290081619E+01  0.51100000000E-03 0.  1.
        -12    1    4    4    0    0  0.24499444933E+01 -0.23438536844E+02  0.30219113606E+02  0.38321822302E+02  0.00000000000E+00 0.  1.
</event>
<event>
 8    1  0.7977359E-012  0.9118800E+02  0.7816164E-02  0.1184000E+00
        -11   -1    0    0    0    0  0.00000000000E+00  0.00000000000E+00  0.45593999997E+02  0.45594000000E+02  0.51100000000E-03 0. -1.
         11   -1    0    0    0    0 -0.00000000000E+00 -0.00000000000E+00 -0.45593999997E+02  0.45594000000E+02  0.51100000000E-03 0.  1.
         23    2    1    2    0    0  0.88817841970E-15  0.35527136788E-14  0.00000000000E+00  0.91188000000E+02  0.91188000000E+02 0.  0.
    9900012    2    3    3    0    0 -0.44607597452E+01 -0.28803585496E+02  0.28348208203E+02  0.50528858061E+02  0.29999994563E+02 0.  0.
        -12    1    3    3    0    0  0.44607597452E+01  0.28803585496E+02 -0.28348208203E+02  0.40659141939E+02  0.00000000000E+00 0.  1.
         11    1    4    4    0    0 -0.14216619990E+02 -0.16040548562E+02  0.15047388377E+02  0.26188458896E+02  0.51100000000E-03 0. -1.
        -11    1    4    4    0    0  0.72950001579E+01 -0.11607203358E+02  0.15608524798E+02  0.20774268789E+02  0.51100000000E-03 0.  1.
        -12    1    4    4    0    0  0.24608600866E+01 -0.11558335754E+01 -0.23077049724E+01  0.35661303761E+01  0.00000000000E+00 0.  1.
</event>
<event>
 8    1  0.7977359E-012  0.9118800E+02  0.7816164E-02  0.1184000E+00
        -11   -1    0    0    0    0  0.00000000000E+00  0.00000000000E+00  0.45593999997E+02  0.45594000000E+02  0.51100000000E-03 0. -1.
         11   -1    0    0    0    0 -0.00000000000E+00 -0.00000000000E+00 -0.45593999997E+02  0.45594000000E+02  0.51100000000E-03 0.  1.
         23    2    1    2    0    0  0.00000000000E+00 -0.17763568394E-14  0.00000000000E+00  0.91188000000E+02  0.91188000000E+02 0.  0.
    9900012    2    3    3    0    0 -0.12644247194E+02  0.13037778614E+02  0.36377265764E+02  0.50528854378E+02  0.29999983366E+02 0.  0.
        -12    1    3    3    0    0  0.12644247194E+02 -0.13037778614E+02 -0.36377265764E+02  0.40659145622E+02  0.00000000000E+00 0.  1.
         11    1    4    4    0    0  0.27592530598E+01 -0.32243888857E+00 -0.12701596298E+01  0.30546276420E+01  0.51100000000E-03 0. -1.
        -11    1    4    4    0    0 -0.43475137812E+00 -0.40585449007E+01  0.96357180100E+00  0.41939559307E+01  0.51100000000E-03 0.  1.
         12    1    4    4    0    0 -0.14968748875E+02  0.17418762403E+02  0.36683853593E+02  0.43280270805E+02  0.00000000000E+00 0. -1.
</event>
<event>
 8    1  0.7977359E-012  0.9118800E+02  0.7816164E-02  0.1184000E+00
        -11   -1    0    0    0    0  0.00000000000E+00  0.00000000000E+00  0.45593999997E+02  0.45594000000E+02  0.51100000000E-03 0. -1.
         11   -1    0    0    0    0 -0.00000000000E+00 -0.00000000000E+00 -0.45593999997E+02  0.45594000000E+02  0.51100000000E-03 0.  1.
         23    2    1    2    0    0  0.00000000000E+00  0.00000000000E+00 -0.24424906542E-14  0.91188000000E+02  0.91188000000E+02 0.  0.
    9900012    2    3    3    0    0  0.27558563164E+02 -0.29851668728E+02 -0.16030354740E+01  0.50528852786E+02  0.29999978527E+02 0.  0.
         12    1    3    3    0    0 -0.27558563164E+02  0.29851668728E+02  0.16030354740E+01  0.40659147214E+02  0.00000000000E+00 0. -1.
         11    1    4    4    0    0  0.13848510896E+02 -0.11685661518E+02 -0.97026538993E+01  0.20554255815E+02  0.51100000000E-03 0. -1.
        -11    1    4    4    0    0  0.11917083515E+02 -0.11658377659E+02 -0.30430448499E+01  0.16946821866E+02  0.51100000000E-03 0.  1.
         12    1    4    4    0    0  0.17929687525E+01 -0.65076295513E+01  0.11142663275E+02  0.13027775105E+02  0.00000000000E+00 0. -1.
</event>
<event>
 8    1  0.7977359E-012  0.9118800E+02  0.7816164E-02  0.1184000E+00
        -11   -1    0    0    0    0  0.00000000000E+00  0.00000000000E+00  0.45593999997E+02  0.45594000000E+02  0.51100000000E-03 0. -1.
         11   -1    0    0    0    0 -0.00000000000E+00 -0.00000000000E+00 -0.45593999997E+02  0.45594000000E+02  0.51100000000E-03 0.  1.
         23    2    1    2    0    0 -0.35527136788E-14 -0.88817841970E-15  0.00000000000E+00  0.91188000000E+02  0.91188000000E+02 0.  0.
    9900012    2    3    3    0    0  0.28582390996E+02  0.76337259900E+01  0.27891485308E+02  0.50528907533E+02  0.30000144938E+02 0.  0.
        -12    1    3    3    0    0 -0.28582390996E+02 -0.76337259900E+01 -0.27891485308E+02  0.40659092467E+02  0.00000000000E+00 0.  1.
         11    1    4    4    0    0  0.10472515356E+02  0.12201784810E+02  0.19591490861E+02  0.25345288415E+02  0.51100000000E-03 0. -1.
        -11    1    4    4    0    0  0.14150910261E+01  0.34963411797E+01  0.51404548842E+01  0.63758262943E+01  0.51100000000E-03 0.  1.
        -12    1    4    4    0    0  0.16694784614E+02 -0.80643999998E+01  0.31595395630E+01  0.18807792824E+02  0.00000000000E+00 0.  1.
</event>
<event>
 8    1  0.7977359E-012  0.9118800E+02  0.7816164E-02  0.1184000E+00
        -11   -1    0    0    0    0  0.00000000000E+00  0.00000000000E+00  0.45593999997E+02  0.45594000000E+02  0.51100000000E-03 0. -1.
         11   -1    0    0    0    0 -0.00000000000E+00 -0.00000000000E+00 -0.45593999997E+02  0.45594000000E+02  0.51100000000E-03 0.  1.
         23    2    1    2    0    0  0.00000000000E+00  0.00000000000E+00  0.00000000000E+00  0.91188000000E+02  0.91188000000E+02 0.  0.
    9900012    2    3    3    0    0  0.84096082870E+01 -0.20061549379E+02  0.34350819822E+02  0.50528854688E+02  0.29999984311E+02 0.  0.
        -12    1    3    3    0    0 -0.84096082870E+01  0.20061549379E+02 -0.34350819822E+02  0.40659145312E+02  0.00000000000E+00 0.  1.
         11    1    4    4    0    0  0.60689090643E+00 -0.40225470696E+01  0.20617846197E+02  0.21015346382E+02  0.51100000000E-03 0. -1.
        -11    1    4    4    0    0 -0.34549222695E+01 -0.24280800317E+01  0.10815833223E+02  0.11610956425E+02  0.51100000000E-03 0.  1.
        -12    1    4    4    0    0  0.11257639650E+02 -0.13610922278E+02  0.29171404020E+01  0.17902551882E+02  0.00000000000E+00 0.  1.
</event>
<event>
 8    1  0.7977359E-012  0.9118800E+02  0.7816164E-02  0.1184000E+00
        -11   -1    0    0    0    0  0.00000000000E+00  0.00000000000E+00  0.45593999997E+02  0.45594000000E+02  0.51100000000E-03 0. -1.
         11   -1    0    0    0    0 -0.00000000000E+00 -0.00000000000E+00 -0.45593999997E+02  0.45594000000E+02  0.51100000000E-03 0.  1.
         23    2    1    2    0    0  0.00000000000E+00  0.88817841970E-15 -0.35527136788E-14  0.91188000000E+02  0.91188000000E+02 0.  0.
    9900012    2    3    3    0    0  0.29672820590E+02 -0.43225237028E+01  0.27459171850E+02  0.50528848366E+02  0.29999965093E+02 0.  0.
        -12    1    3    3    0    0 -0.29672820590E+02  0.43225237028E+01 -0.27459171850E+02  0.40659151634E+02  0.00000000000E+00 0.  1.
         11    1    4    4    0    0  0.26214486016E+01  0.12758965146E+01 -0.35524706359E+01  0.45956449565E+01  0.51100000000E-03 0. -1.
        -11    1    4    4    0    0  0.28017801814E+01  0.62835845083E+01  0.63378994347E+01  0.93542704666E+01  0.51100000000E-03 0.  1.
         12    1    4    4    0    0  0.24249591807E+02 -0.11882004726E+02  0.24673743051E+02  0.36578932943E+02  0.00000000000E+00 0. -1.
</event>
<event>
 8    1  0.7977359E-012  0.9118800E+02  0.7816164E-02  0.1184000E+00
        -11   -1    0    0    0    0  0.00000000000E+00  0.00000000000E+00  0.45593999997E+02  0.45594000000E+02  0.51100000000E-03 0. -1.
         11   -1    0    0    0    0 -0.00000000000E+00 -0.00000000000E+00 -0.45593999997E+02  0.45594000000E+02  0.51100000000E-03 0.  1.
         23    2    1    2    0    0  0.00000000000E+00  0.17763568394E-14  0.00000000000E+00  0.91188000000E+02  0.91188000000E+02 0.  0.
    9900012    2    3    3    0    0 -0.17639545971E+02 -0.74475734221E+01  0.35868456148E+02  0.50528854923E+02  0.29999985023E+02 0.  0.
        -12    1    3    3    0    0  0.17639545971E+02  0.74475734221E+01 -0.35868456148E+02  0.40659145077E+02  0.00000000000E+00 0.  1.
         11    1    4    4    0    0 -0.85565469311E+01  0.67425545812E+01  0.45679809933E+01  0.11812831510E+02  0.51100000000E-03 0. -1.
        -11    1    4    4    0    0 -0.16214156032E+01  0.26079005645E+01  0.91602782149E+00  0.32045656716E+01  0.51100000000E-03 0.  1.
         12    1    4    4    0    0 -0.74615834366E+01 -0.16798028568E+02  0.30384447334E+02  0.35511457741E+02  0.00000000000E+00 0. -1.
</event>
<event>
 8    1  0.7977359E-012  0.9118800E+02  0.7816164E-02  0.1184000E+00
        -11   -1    0    0    0    0  0.00000000000E+00  0.00000000000E+00  0.45593999997E+02  0.45594000000E+02  0.51100000000E-03 0. -1.
         11   -1    0    0    0    0 -0.00000000000E+00 -0.00000000000E+00 -0.45593999997E+02  0.45594000000E+02  0.51100000000E-03 0.  1.
         23    2    1    2    0    0  0.00000000000E+00  0.17763568394E-14 -0.35527136788E-14  0.91188000000E+02  0.91188000000E+02 0.  0.
    9900012    2    3    3    0    0  0.35286560079E+02 -0.10105779005E+02  0.17489738663E+02  0.50528941354E+02  0.30000247737E+02 0.  0.
        -12    1    3    3    0    0 -0.35286560079E+02  0.10105779005E+02 -0.17489738663E+02  0.40659058646E+02  0.00000000000E+00 0.  1.
         11    1    4    4    0    0  0.22867595847E+02 -0.66667970795E+01  0.22215322916E+02  0.32571363122E+02  0.51100000000E-03 0. -1.
        -11    1    4    4    0    0  0.13167667399E+02 -0.13132364552E+00 -0.14590175013E+01  0.13248903463E+02  0.51100000000E-03 0.  1.
        -12    1    4    4    0    0 -0.74870316745E+00 -0.33076582802E+01 -0.32665667516E+01  0.47086747684E+01  0.00000000000E+00 0.  1.
</event>
<event>
 8    1  0.9409499E-012  0.9118800E+02  0.7816164E-02  0.1184000E+00
        -11   -1    0    0    0    0  0.00000000000E+00  0.00000000000E+00  0.45593999997E+02  0.45594000000E+02  0.51100000000E-03 0. -1.
         11   -1    0    0    0    0 -0.00000000000E+00 -0.00000000000E+00 -0.45593999997E+02  0.45594000000E+02  0.51100000000E-03 0.  1.
         23    2    1    2    0    0 -0.17763568394E-14  0.11102230246E-14 -0.71054273576E-14  0.91188000000E+02  0.91188000000E+02 0.  0.
    9900012    2    3    3    0    0 -0.10898980334E+02 -0.10442158881E+01  0.39157218943E+02  0.50528856447E+02  0.29999989655E+02 0.  0.
        -12    1    3    3    0    0  0.10898980334E+02  0.10442158881E+01 -0.39157218943E+02  0.40659143553E+02  0.00000000000E+00 0.  1.
         11    1    4    4    0    0 -0.12486513862E+02 -0.53679236489E+01  0.24471485534E+02  0.27992521094E+02  0.51100000000E-03 0.  1.
        -11    1    4    4    0    0  0.30580828707E+01 -0.57312528088E+01  0.33376664186E+01  0.73033654561E+01  0.51100000000E-03 0. -1.
        -12    1    4    4    0    0 -0.14705493423E+01  0.10054960570E+02  0.11348066991E+02  0.15232969896E+02  0.00000000000E+00 0.  1.
</event>
<event>
 8    1  0.7977359E-012  0.9118800E+02  0.7816164E-02  0.1184000E+00
        -11   -1    0    0    0    0  0.00000000000E+00  0.00000000000E+00  0.45593999997E+02  0.45594000000E+02  0.51100000000E-03 0. -1.
         11   -1    0    0    0    0 -0.00000000000E+00 -0.00000000000E+00 -0.45593999997E+02  0.45594000000E+02  0.51100000000E-03 0.  1.
         23    2    1    2    0    0  0.00000000000E+00  0.17763568394E-14  0.00000000000E+00  0.91188000000E+02  0.91188000000E+02 0.  0.
    9900012    2    3    3    0    0  0.13414568053E+02 -0.11627542022E+02 -0.36578882699E+02  0.50528867828E+02  0.30000024250E+02 0.  0.
         12    1    3    3    0    0 -0.13414568053E+02  0.11627542022E+02  0.36578882699E+02  0.40659132172E+02  0.00000000000E+00 0. -1.
         11    1    4    4    0    0  0.25611805315E+01  0.86859917991E+01 -0.14735730706E+02  0.17295891389E+02  0.51100000000E-03 0. -1.
        -11    1    4    4    0    0 -0.16700495926E+00 -0.20634141161E+01 -0.68850428953E+01  0.71895329752E+01  0.51100000000E-03 0.  1.
         12    1    4    4    0    0  0.11020392480E+02 -0.18250119705E+02 -0.14958109098E+02  0.26043443464E+02  0.00000000000E+00 0. -1.
</event>
<event>
 8    1  0.7977359E-012  0.9118800E+02  0.7816164E-02  0.1184000E+00
        -11   -1    0    0    0    0  0.00000000000E+00  0.00000000000E+00  0.45593999997E+02  0.45594000000E+02  0.51100000000E-03 0. -1.
         11   -1    0    0    0    0 -0.00000000000E+00 -0.00000000000E+00 -0.45593999997E+02  0.45594000000E+02  0.51100000000E-03 0.  1.
         23    2    1    2    0    0 -0.26645352591E-14  0.00000000000E+00  0.71054273576E-14  0.91188000000E+02  0.91188000000E+02 0.  0.
    9900012    2    3    3    0    0  0.64796820497E+01  0.11379102163E+02  0.38492811734E+02  0.50528846041E+02  0.29999958026E+02 0.  0.
        -12    1    3    3    0    0 -0.64796820497E+01 -0.11379102163E+02 -0.38492811734E+02  0.40659153959E+02  0.00000000000E+00 0.  1.
         11    1    4    4    0    0 -0.18154799654E+01  0.15873915489E+01  0.10925538970E+02  0.11188529013E+02  0.51100000000E-03 0. -1.
        -11    1    4    4    0    0 -0.61439164156E+01 -0.76539303636E+00  0.18043123832E+02  0.19075844760E+02  0.51100000000E-03 0.  1.
        -12    1    4    4    0    0  0.14439078431E+02  0.10557103651E+02  0.95241489320E+01  0.20264472268E+02  0.00000000000E+00 0.  1.
</event>
<event>
 8    1  0.7977359E-012  0.9118800E+02  0.7816164E-02  0.1184000E+00
        -11   -1    0    0    0    0  0.00000000000E+00  0.00000000000E+00  0.45593999997E+02  0.45594000000E+02  0.51100000000E-03 0. -1.
         11   -1    0    0    0    0 -0.00000000000E+00 -0.00000000000E+00 -0.45593999997E+02  0.45594000000E+02  0.51100000000E-03 0.  1.
         23    2    1    2    0    0  0.17763568394E-14  0.00000000000E+00  0.00000000000E+00  0.91188000000E+02  0.91188000000E+02 0.  0.
    9900012    2    3    3    0    0  0.14173270231E+02 -0.17070240509E+02  0.34071856335E+02  0.50528854729E+02  0.29999984433E+02 0.  0.
        -12    1    3    3    0    0 -0.14173270231E+02  0.17070240509E+02 -0.34071856335E+02  0.40659145271E+02  0.00000000000E+00 0.  1.
         11    1    4    4    0    0 -0.17767391489E+01  0.34821967360E+01  0.74580692935E+01  0.84205281283E+01  0.51100000000E-03 0. -1.
        -11    1    4    4    0    0  0.56608278072E+00 -0.11601275303E+02  0.20823816939E+01  0.11800269156E+02  0.51100000000E-03 0.  1.
         12    1    4    4    0    0  0.15383926599E+02 -0.89511619422E+01  0.24531405347E+02  0.30308057444E+02  0.00000000000E+00 0. -1.
</event>
<event>
 8    1  0.7977359E-012  0.9118800E+02  0.7816164E-02  0.1184000E+00
        -11   -1    0    0    0    0  0.00000000000E+00  0.00000000000E+00  0.45593999997E+02  0.45594000000E+02  0.51100000000E-03 0. -1.
         11   -1    0    0    0    0 -0.00000000000E+00 -0.00000000000E+00 -0.45593999997E+02  0.45594000000E+02  0.51100000000E-03 0.  1.
         23    2    1    2    0    0 -0.88817841970E-15  0.00000000000E+00  0.71054273576E-14  0.91188000000E+02  0.91188000000E+02 0.  0.
    9900012    2    3    3    0    0  0.12034002079E+01  0.11138547536E+02  0.39085162652E+02  0.50528863846E+02  0.30000012146E+02 0.  0.
        -12    1    3    3    0    0 -0.12034002079E+01 -0.11138547536E+02 -0.39085162652E+02  0.40659136154E+02  0.00000000000E+00 0.  1.
         11    1    4    4    0    0 -0.83468184184E+01  0.38110141630E+00  0.33212875091E+01  0.89914162944E+01  0.51100000000E-03 0. -1.
        -11    1    4    4    0    0 -0.20666483317E+01 -0.26124200576E+01  0.44086562327E+01  0.55255790577E+01  0.51100000000E-03 0.  1.
         12    1    4    4    0    0  0.11616866958E+02  0.13369866178E+02  0.31355218910E+02  0.36011868494E+02  0.00000000000E+00 0. -1.
</event>
<event>
 8    1  0.7977359E-012  0.9118800E+02  0.7816164E-02  0.1184000E+00
        -11   -1    0    0    0    0  0.00000000000E+00  0.00000000000E+00  0.45593999997E+02  0.45594000000E+02  0.51100000000E-03 0. -1.
         11   -1    0    0    0    0 -0.00000000000E+00 -0.00000000000E+00 -0.45593999997E+02  0.45594000000E+02  0.51100000000E-03 0.  1.
         23    2    1    2    0    0  0.53290705182E-14  0.35527136788E-14  0.35527136788E-14  0.91188000000E+02  0.91188000000E+02 0.  0.
    9900012    2    3    3    0    0  0.82316429707E+01  0.27879947260E+02  0.28427349276E+02  0.50528860904E+02  0.30000003203E+02 0.  0.
        -12    1    3    3    0    0 -0.82316429707E+01 -0.27879947260E+02 -0.28427349276E+02  0.40659139096E+02  0.00000000000E+00 0.  1.
         11    1    4    4    0    0  0.17964890713E+02  0.16620987702E+02  0.10753862317E+02  0.26732753048E+02  0.51100000000E-03 0. -1.
        -11    1    4    4    0    0 -0.14279770563E+01  0.11216143678E+01  0.27484412319E-01  0.18160101645E+01  0.51100000000E-03 0.  1.
         12    1    4    4    0    0 -0.83052706859E+01  0.10137345190E+02  0.17646002546E+02  0.21980097691E+02  0.00000000000E+00 0. -1.
</event>
<event>
 8    1  0.7977359E-012  0.9118800E+02  0.7816164E-02  0.1184000E+00
        -11   -1    0    0    0    0  0.00000000000E+00  0.00000000000E+00  0.45593999997E+02  0.45594000000E+02  0.51100000000E-03 0. -1.
         11   -1    0    0    0    0 -0.00000000000E+00 -0.00000000000E+00 -0.45593999997E+02  0.45594000000E+02  0.51100000000E-03 0.  1.
         23    2    1    2    0    0  0.00000000000E+00  0.00000000000E+00  0.00000000000E+00  0.91188000000E+02  0.91188000000E+02 0.  0.
    9900012    2    3    3    0    0 -0.78745187033E+01  0.92217684365E+01 -0.38808720913E+02  0.50528857402E+02  0.29999992560E+02 0.  0.
         12    1    3    3    0    0  0.78745187033E+01 -0.92217684365E+01  0.38808720913E+02  0.40659142598E+02  0.00000000000E+00 0. -1.
         11    1    4    4    0    0 -0.11987963861E+01 -0.14656549687E+01 -0.26928304409E+02  0.26994792754E+02  0.51100000000E-03 0. -1.
        -11    1    4    4    0    0  0.38208315598E+01 -0.80160094682E+00 -0.54310079220E+01  0.66885846930E+01  0.51100000000E-03 0.  1.
        -12    1    4    4    0    0 -0.10496553877E+02  0.11489024352E+02 -0.64494085822E+01  0.16845479955E+02  0.00000000000E+00 0.  1.
</event>
<event>
 8    1  0.7977359E-012  0.9118800E+02  0.7816164E-02  0.1184000E+00
        -11   -1    0    0    0    0  0.00000000000E+00  0.00000000000E+00  0.45593999997E+02  0.45594000000E+02  0.51100000000E-03 0. -1.
         11   -1    0    0    0    0 -0.00000000000E+00 -0.00000000000E+00 -0.45593999997E+02  0.45594000000E+02  0.51100000000E-03 0.  1.
         23    2    1    2    0    0  0.00000000000E+00  0.27755575616E-16  0.00000000000E+00  0.91188000000E+02  0.91188000000E+02 0.  0.
    9900012    2    3    3    0    0 -0.45867811912E+01  0.17592865430E+00 -0.40399211020E+02  0.50528858794E+02  0.29999996789E+02 0.  0.
         12    1    3    3    0    0  0.45867811912E+01 -0.17592865430E+00  0.40399211020E+02  0.40659141206E+02  0.00000000000E+00 0. -1.
         11    1    4    4    0    0 -0.42508754900E+01  0.86920473262E+01 -0.26632166423E+02  0.28335382789E+02  0.51100000000E-03 0. -1.
        -11    1    4    4    0    0 -0.92774008303E+00 -0.56897954993E+01 -0.16945439056E+02  0.17899228463E+02  0.51100000000E-03 0.  1.
         12    1    4    4    0    0  0.59183438187E+00 -0.28263231726E+01  0.31783944592E+01  0.42942475418E+01  0.00000000000E+00 0. -1.
</event>
<event>
 8    1  0.7977359E-012  0.9118800E+02  0.7816164E-02  0.1184000E+00
        -11   -1    0    0    0    0  0.00000000000E+00  0.00000000000E+00  0.45593999997E+02  0.45594000000E+02  0.51100000000E-03 0. -1.
         11   -1    0    0    0    0 -0.00000000000E+00 -0.00000000000E+00 -0.45593999997E+02  0.45594000000E+02  0.51100000000E-03 0.  1.
         23    2    1    2    0    0  0.00000000000E+00 -0.88817841970E-15  0.00000000000E+00  0.91188000000E+02  0.91188000000E+02 0.  0.
    9900012    2    3    3    0    0  0.57149240727E+01 -0.56875295040E+01  0.39851676876E+02  0.50528874347E+02  0.30000044065E+02 0.  0.
        -12    1    3    3    0    0 -0.57149240727E+01  0.56875295040E+01 -0.39851676876E+02  0.40659125653E+02  0.00000000000E+00 0.  1.
         11    1    4    4    0    0 -0.33278905868E+00 -0.11880725909E+02  0.41952252752E+01  0.12604059348E+02  0.51100000000E-03 0. -1.
        -11    1    4    4    0    0 -0.17619127516E+01  0.13764943379E+01  0.16868288736E+02  0.17015823175E+02  0.51100000000E-03 0.  1.
        -12    1    4    4    0    0  0.78096258829E+01  0.48167020667E+01  0.18788162865E+02  0.20908991824E+02  0.00000000000E+00 0.  1.
</event>
<event>
 8    1  0.7977359E-012  0.9118800E+02  0.7816164E-02  0.1184000E+00
        -11   -1    0    0    0    0  0.00000000000E+00  0.00000000000E+00  0.45593999997E+02  0.45594000000E+02  0.51100000000E-03 0. -1.
         11   -1    0    0    0    0 -0.00000000000E+00 -0.00000000000E+00 -0.45593999997E+02  0.45594000000E+02  0.51100000000E-03 0.  1.
         23    2    1    2    0    0  0.11102230246E-14  0.44408920985E-15  0.00000000000E+00  0.91188000000E+02  0.91188000000E+02 0.  0.
    9900012    2    3    3    0    0  0.12751212910E+01  0.32283344104E+00 -0.40637859414E+02  0.50528858672E+02  0.29999996421E+02 0.  0.
         12    1    3    3    0    0 -0.12751212910E+01 -0.32283344104E+00  0.40637859414E+02  0.40659141328E+02  0.00000000000E+00 0. -1.
         11    1    4    4    0    0 -0.40849434989E+00  0.52212615290E+01 -0.76293382450E+01  0.92539311596E+01  0.51100000000E-03 0. -1.
        -11    1    4    4    0    0  0.51430515969E+01  0.24857366691E+01 -0.32614602953E+02  0.33111058463E+02  0.51100000000E-03 0.  1.
         12    1    4    4    0    0 -0.34594359560E+01 -0.73841647571E+01 -0.39391821593E+00  0.81638690493E+01  0.00000000000E+00 0. -1.
</event>
<event>
 8    1  0.7977359E-012  0.9118800E+02  0.7816164E-02  0.1184000E+00
        -11   -1    0    0    0    0  0.00000000000E+00  0.00000000000E+00  0.45593999997E+02  0.45594000000E+02  0.51100000000E-03 0. -1.
         11   -1    0    0    0    0 -0.00000000000E+00 -0.00000000000E+00 -0.45593999997E+02  0.45594000000E+02  0.51100000000E-03 0.  1.
         23    2    1    2    0    0  0.00000000000E+00 -0.17763568394E-14  0.35527136788E-14  0.91188000000E+02  0.91188000000E+02 0.  0.
    9900012    2    3    3    0    0  0.29002289631E+02 -0.15575922211E+02  0.23862604303E+02  0.50528855387E+02  0.29999986435E+02 0.  0.
        -12    1    3    3    0    0 -0.29002289631E+02  0.15575922211E+02 -0.23862604303E+02  0.40659144613E+02  0.00000000000E+00 0.  1.
         11    1    4    4    0    0  0.14214363278E+01 -0.41610478832E+01  0.12590134293E+02  0.13335902013E+02  0.51100000000E-03 0. -1.
        -11    1    4    4    0    0 -0.26296611207E+01 -0.19224105860E+01 -0.71192539095E+00  0.33343092379E+01  0.51100000000E-03 0.  1.
         12    1    4    4    0    0  0.30210514424E+02 -0.94924637420E+01  0.11984395401E+02  0.33858644136E+02  0.00000000000E+00 0. -1.
</event>
<event>
 8    1  0.7977359E-012  0.9118800E+02  0.7816164E-02  0.1184000E+00
        -11   -1    0    0    0    0  0.00000000000E+00  0.00000000000E+00  0.45593999997E+02  0.45594000000E+02  0.51100000000E-03 0. -1.
         11   -1    0    0    0    0 -0.00000000000E+00 -0.00000000000E+00 -0.45593999997E+02  0.45594000000E+02  0.51100000000E-03 0.  1.
         23    2    1    2    0    0  0.17763568394E-14  0.00000000000E+00 -0.35527136788E-14  0.91188000000E+02  0.91188000000E+02 0.  0.
    9900012    2    3    3    0    0  0.15635666839E+02  0.33368156374E+02  0.17183003916E+02  0.50528885881E+02  0.30000079125E+02 0.  0.
        -12    1    3    3    0    0 -0.15635666839E+02 -0.33368156374E+02 -0.17183003916E+02  0.40659114119E+02  0.00000000000E+00 0.  1.
         11    1    4    4    0    0  0.30203313703E+01  0.13084225978E+02  0.13043810685E+02  0.18720586755E+02  0.51100000000E-03 0. -1.
        -11    1    4    4    0    0 -0.21433433061E+01 -0.24424174867E+00  0.60796799164E+01  0.64510528370E+01  0.51100000000E-03 0.  1.
        -12    1    4    4    0    0  0.14758678775E+02  0.20528172145E+02 -0.19404866847E+01  0.25357246289E+02  0.00000000000E+00 0.  1.
</event>
<event>
 8    1  0.7977359E-012  0.9118800E+02  0.7816164E-02  0.1184000E+00
        -11   -1    0    0    0    0  0.00000000000E+00  0.00000000000E+00  0.45593999997E+02  0.45594000000E+02  0.51100000000E-03 0. -1.
         11   -1    0    0    0    0 -0.00000000000E+00 -0.00000000000E+00 -0.45593999997E+02  0.45594000000E+02  0.51100000000E-03 0.  1.
         23    2    1    2    0    0 -0.88817841970E-15  0.17763568394E-14  0.00000000000E+00  0.91188000000E+02  0.91188000000E+02 0.  0.
    9900012    2    3    3    0    0  0.72321853592E+01  0.88555101285E+01  0.39018477977E+02  0.50528853571E+02  0.29999980913E+02 0.  0.
        -12    1    3    3    0    0 -0.72321853592E+01 -0.88555101285E+01 -0.39018477977E+02  0.40659146429E+02  0.00000000000E+00 0.  1.
         11    1    4    4    0    0 -0.20259435804E+00  0.10780013064E+02  0.60379415119E+01  0.12357445694E+02  0.51100000000E-03 0. -1.
        -11    1    4    4    0    0  0.20822217365E+01  0.58984514295E+01  0.34216251640E+01  0.71298594412E+01  0.51100000000E-03 0.  1.
         12    1    4    4    0    0  0.53525579807E+01 -0.78229543647E+01  0.29558911301E+02  0.31041548435E+02  0.00000000000E+00 0. -1.
</event>
<event>
 8    1  0.7977359E-012  0.9118800E+02  0.7816164E-02  0.1184000E+00
        -11   -1    0    0    0    0  0.00000000000E+00  0.00000000000E+00  0.45593999997E+02  0.45594000000E+02  0.51100000000E-03 0. -1.
         11   -1    0    0    0    0 -0.00000000000E+00 -0.00000000000E+00 -0.45593999997E+02  0.45594000000E+02  0.51100000000E-03 0.  1.
         23    2    1    2    0    0 -0.44408920985E-15 -0.44408920985E-15  0.00000000000E+00  0.91188000000E+02  0.91188000000E+02 0.  0.
    9900012    2    3    3    0    0 -0.29759110030E+01 -0.39284237670E+01 -0.40359342641E+02  0.50528866980E+02  0.30000021671E+02 0.  0.
         12    1    3    3    0    0  0.29759110030E+01  0.39284237670E+01  0.40359342641E+02  0.40659133020E+02  0.00000000000E+00 0. -1.
         11    1    4    4    0    0  0.46887323060E+01 -0.41868578098E+01 -0.11086774052E+02  0.12744824365E+02  0.51100000000E-03 0. -1.
        -11    1    4    4    0    0  0.24307332579E+01 -0.13819943893E+01 -0.27206317911E+02  0.27349627186E+02  0.51100000000E-03 0.  1.
        -12    1    4    4    0    0 -0.10095376567E+02  0.16404284321E+01 -0.20662506768E+01  0.10434415428E+02  0.00000000000E+00 0.  1.
</event>
<event>
 8    1  0.7977359E-012  0.9118800E+02  0.7816164E-02  0.1184000E+00
        -11   -1    0    0    0    0  0.00000000000E+00  0.00000000000E+00  0.45593999997E+02  0.45594000000E+02  0.51100000000E-03 0. -1.
         11   -1    0    0    0    0 -0.00000000000E+00 -0.00000000000E+00 -0.45593999997E+02  0.45594000000E+02  0.51100000000E-03 0.  1.
         23    2    1    2    0    0  0.44408920985E-15  0.88817841970E-15 -0.71054273576E-14  0.91188000000E+02  0.91188000000E+02 0.  0.
    9900012    2    3    3    0    0 -0.34299072967E+01 -0.56543098873E+01  0.40117693972E+02  0.50528869980E+02  0.30000030791E+02 0.  0.
        -12    1    3    3    0    0  0.34299072967E+01  0.56543098873E+01 -0.40117693972E+02  0.40659130020E+02  0.00000000000E+00 0.  1.
         11    1    4    4    0    0  0.23793873018E+01 -0.67381260819E+01  0.24099804583E+01  0.75413415980E+01  0.51100000000E-03 0. -1.
        -11    1    4    4    0    0  0.27379998380E+01  0.22701617159E+01 -0.69778566375E+00  0.36245251306E+01  0.51100000000E-03 0.  1.
         12    1    4    4    0    0 -0.85472944365E+01 -0.11863455213E+01  0.38405499177E+02  0.39363003251E+02  0.00000000000E+00 0. -1.
</event>
<event>
 8    1  0.7977359E-012  0.9118800E+02  0.7816164E-02  0.1184000E+00
        -11   -1    0    0    0    0  0.00000000000E+00  0.00000000000E+00  0.45593999997E+02  0.45594000000E+02  0.51100000000E-03 0. -1.
         11   -1    0    0    0    0 -0.00000000000E+00 -0.00000000000E+00 -0.45593999997E+02  0.45594000000E+02  0.51100000000E-03 0.  1.
         23    2    1    2    0    0  0.17763568394E-14  0.44408920985E-15  0.71054273576E-14  0.91188000000E+02  0.91188000000E+02 0.  0.
    9900012    2    3    3    0    0  0.77295909282E+01  0.11253292774E+01  0.39901789517E+02  0.50528858979E+02  0.29999997354E+02 0.  0.
        -12    1    3    3    0    0 -0.77295909282E+01 -0.11253292774E+01 -0.39901789517E+02  0.40659141021E+02  0.00000000000E+00 0.  1.
         11    1    4    4    0    0  0.43728997488E+01  0.24532057986E+01  0.23280874907E+01  0.55281518185E+01  0.51100000000E-03 0. -1.
        -11    1    4    4    0    0  0.13293674993E+02  0.32176501982E+01  0.18324540045E+02  0.22866216034E+02  0.51100000000E-03 0.  1.
        -12    1    4    4    0    0 -0.99369838133E+01 -0.45455267194E+01  0.19249161981E+02  0.22134491127E+02  0.00000000000E+00 0.  1.
</event>
<event>
 8    1  0.7977359E-012  0.9118800E+02  0.7816164E-02  0.1184000E+00
        -11   -1    0    0    0    0  0.00000000000E+00  0.00000000000E+00  0.45593999997E+02  0.45594000000E+02  0.51100000000E-03 0. -1.
         11   -1    0    0    0    0 -0.00000000000E+00 -0.00000000000E+00 -0.45593999997E+02  0.45594000000E+02  0.51100000000E-03 0.  1.
         23    2    1    2    0    0 -0.17763568394E-14  0.44408920985E-15  0.71054273576E-14  0.91188000000E+02  0.91188000000E+02 0.  0.
    9900012    2    3    3    0    0  0.13501124181E+02  0.25739564162E+01 -0.38265645129E+02  0.50528865689E+02  0.30000017747E+02 0.  0.
         12    1    3    3    0    0 -0.13501124181E+02 -0.25739564162E+01  0.38265645129E+02  0.40659134311E+02  0.00000000000E+00 0. -1.
         11    1    4    4    0    0 -0.10348665994E+01  0.91865079905E+00 -0.95064244396E+01  0.96066109558E+01  0.51100000000E-03 0. -1.
        -11    1    4    4    0    0 -0.69101335253E+01 -0.15073764413E+01 -0.44733522544E+01  0.83685727412E+01  0.51100000000E-03 0.  1.
         12    1    4    4    0    0  0.21446124306E+02  0.31626820584E+01 -0.24285868435E+02  0.32553681992E+02  0.00000000000E+00 0. -1.
</event>
<event>
 8    1  0.7977359E-012  0.9118800E+02  0.7816164E-02  0.1184000E+00
        -11   -1    0    0    0    0  0.00000000000E+00  0.00000000000E+00  0.45593999997E+02  0.45594000000E+02  0.51100000000E-03 0. -1.
         11   -1    0    0    0    0 -0.00000000000E+00 -0.00000000000E+00 -0.45593999997E+02  0.45594000000E+02  0.51100000000E-03 0.  1.
         23    2    1    2    0    0  0.00000000000E+00  0.00000000000E+00  0.00000000000E+00  0.91188000000E+02  0.91188000000E+02 0.  0.
    9900012    2    3    3    0    0 -0.10784204362E+02 -0.38068178271E+01 -0.39017613318E+02  0.50528867266E+02  0.30000022541E+02 0.  0.
         12    1    3    3    0    0  0.10784204362E+02  0.38068178271E+01  0.39017613318E+02  0.40659132734E+02  0.00000000000E+00 0. -1.
         11    1    4    4    0    0  0.47892768555E+00 -0.11671412810E+02 -0.21563073730E+02  0.24523812869E+02  0.51100000000E-03 0. -1.
        -11    1    4    4    0    0  0.36647134151E+00 -0.31921812900E+01 -0.33298811961E+01  0.46273568777E+01  0.51100000000E-03 0.  1.
         12    1    4    4    0    0 -0.11629603389E+02  0.11056776273E+02 -0.14124658392E+02  0.21377697519E+02  0.00000000000E+00 0. -1.
</event>
<event>
 8    1  0.7977359E-012  0.9118800E+02  0.7816164E-02  0.1184000E+00
        -11   -1    0    0    0    0  0.00000000000E+00  0.00000000000E+00  0.45593999997E+02  0.45594000000E+02  0.51100000000E-03 0.  1.
         11   -1    0    0    0    0 -0.00000000000E+00 -0.00000000000E+00 -0.45593999997E+02  0.45594000000E+02  0.51100000000E-03 0. -1.
         23    2    1    2    0    0  0.71054273576E-14  0.00000000000E+00 -0.88817841970E-15  0.91188000000E+02  0.91188000000E+02 0.  0.
    9900012    2    3    3    0    0  0.36515422663E+02  0.17213103244E+02  0.48473973676E+01  0.50528877078E+02  0.30000052365E+02 0.  0.
         12    1    3    3    0    0 -0.36515422663E+02 -0.17213103244E+02 -0.48473973676E+01  0.40659122922E+02  0.00000000000E+00 0. -1.
         11    1    4    4    0    0  0.21371048451E+02  0.26078278718E+01  0.48504055961E+01  0.22069184688E+02  0.51100000000E-03 0. -1.
        -11    1    4    4    0    0  0.17787583928E+02  0.65181203390E+01  0.34889288543E+01  0.19262831037E+02  0.51100000000E-03 0.  1.
         12    1    4    4    0    0 -0.26432097161E+01  0.80871550332E+01 -0.34919370829E+01  0.91968613519E+01  0.00000000000E+00 0. -1.
</event>
<event>
 8    1  0.7977359E-012  0.9118800E+02  0.7816164E-02  0.1184000E+00
        -11   -1    0    0    0    0  0.00000000000E+00  0.00000000000E+00  0.45593999997E+02  0.45594000000E+02  0.51100000000E-03 0.  1.
         11   -1    0    0    0    0 -0.00000000000E+00 -0.00000000000E+00 -0.45593999997E+02  0.45594000000E+02  0.51100000000E-03 0. -1.
         23    2    1    2    0    0  0.00000000000E+00  0.35527136788E-14 -0.14432899320E-14  0.91188000000E+02  0.91188000000E+02 0.  0.
    9900012    2    3    3    0    0 -0.33596652728E+02  0.22889858507E+02  0.69698611578E+00  0.50528849903E+02  0.29999969764E+02 0.  0.
         12    1    3    3    0    0  0.33596652728E+02 -0.22889858507E+02 -0.69698611578E+00  0.40659150097E+02  0.00000000000E+00 0. -1.
         11    1    4    4    0    0  0.51628765158E+00  0.37410478448E+01 -0.45994554436E+01  0.59512168970E+01  0.51100000000E-03 0. -1.
        -11    1    4    4    0    0 -0.74016950358E+01  0.10712189852E+02 -0.60467983646E+01  0.14356178863E+02  0.51100000000E-03 0.  1.
         12    1    4    4    0    0 -0.26711245344E+02  0.84366208107E+01  0.11343239924E+02  0.30221454142E+02  0.00000000000E+00 0. -1.
</event>
<event>
 8    1  0.7977359E-012  0.9118800E+02  0.7816164E-02  0.1184000E+00
        -11   -1    0    0    0    0  0.00000000000E+00  0.00000000000E+00  0.45593999997E+02  0.45594000000E+02  0.51100000000E-03 0. -1.
         11   -1    0    0    0    0 -0.00000000000E+00 -0.00000000000E+00 -0.45593999997E+02  0.45594000000E+02  0.51100000000E-03 0.  1.
         23    2    1    2    0    0  0.00000000000E+00  0.71054273576E-14  0.35527136788E-14  0.91188000000E+02  0.91188000000E+02 0.  0.
    9900012    2    3    3    0    0 -0.80790726715E+01 -0.28332831674E+02 -0.28020433337E+02  0.50528862646E+02  0.30000008500E+02 0.  0.
         12    1    3    3    0    0  0.80790726715E+01  0.28332831674E+02  0.28020433337E+02  0.40659137354E+02  0.00000000000E+00 0. -1.
         11    1    4    4    0    0  0.54837297785E+01 -0.57490503406E+00 -0.57840251044E+01  0.79910421568E+01  0.51100000000E-03 0. -1.
        -11    1    4    4    0    0 -0.65727484844E+01 -0.24987271116E+02 -0.23484961603E+02  0.34915729439E+02  0.51100000000E-03 0.  1.
        -12    1    4    4    0    0 -0.69900539656E+01 -0.27706555238E+01  0.12485533698E+01  0.76220910511E+01  0.00000000000E+00 0.  1.
</event>
<event>
 8    1  0.7977359E-012  0.9118800E+02  0.7816164E-02  0.1184000E+00
        -11   -1    0    0    0    0  0.00000000000E+00  0.00000000000E+00  0.45593999997E+02  0.45594000000E+02  0.51100000000E-03 0. -1.
         11   -1    0    0    0    0 -0.00000000000E+00 -0.00000000000E+00 -0.45593999997E+02  0.45594000000E+02  0.51100000000E-03 0.  1.
         23    2    1    2    0    0 -0.35527136788E-14  0.00000000000E+00 -0.35527136788E-14  0.91188000000E+02  0.91188000000E+02 0.  0.
    9900012    2    3    3    0    0  0.24726623698E+02 -0.11151313166E+02 -0.30288740219E+02  0.50528862172E+02  0.30000007059E+02 0.  0.
         12    1    3    3    0    0 -0.24726623698E+02  0.11151313166E+02  0.30288740219E+02  0.40659137828E+02  0.00000000000E+00 0. -1.
         11    1    4    4    0    0  0.19159063777E+01  0.60195760192E-01 -0.25853308081E+01  0.32184245254E+01  0.51100000000E-03 0. -1.
        -11    1    4    4    0    0  0.16569843179E+02 -0.28469029337E+01 -0.31902160107E+02  0.36061230969E+02  0.51100000000E-03 0.  1.
         12    1    4    4    0    0  0.62408741418E+01 -0.83646059927E+01  0.41987506958E+01  0.11249206677E+02  0.00000000000E+00 0. -1.
</event>
<event>
 8    1  0.7977359E-012  0.9118800E+02  0.7816164E-02  0.1184000E+00
        -11   -1    0    0    0    0  0.00000000000E+00  0.00000000000E+00  0.45593999997E+02  0.45594000000E+02  0.51100000000E-03 0. -1.
         11   -1    0    0    0    0 -0.00000000000E+00 -0.00000000000E+00 -0.45593999997E+02  0.45594000000E+02  0.51100000000E-03 0.  1.
         23    2    1    2    0    0  0.53290705182E-14  0.00000000000E+00  0.00000000000E+00  0.91188000000E+02  0.91188000000E+02 0.  0.
    9900012    2    3    3    0    0  0.13009605959E+02 -0.13024691335E+02  0.36252980891E+02  0.50528793723E+02  0.29999799001E+02 0.  0.
        -12    1    3    3    0    0 -0.13009605959E+02  0.13024691335E+02 -0.36252980891E+02  0.40659206277E+02  0.00000000000E+00 0.  1.
         11    1    4    4    0    0  0.16832102608E+02 -0.66149511251E+01  0.20018836877E+02  0.26978344775E+02  0.51100000000E-03 0. -1.
        -11    1    4    4    0    0  0.46743404065E+01 -0.70136802113E+01  0.67152091538E+01  0.10776604409E+02  0.51100000000E-03 0.  1.
         12    1    4    4    0    0 -0.84968370554E+01  0.60394000158E+00  0.95189348595E+01  0.12773844540E+02  0.00000000000E+00 0. -1.
</event>
<event>
 8    1  0.7977359E-012  0.9118800E+02  0.7816164E-02  0.1184000E+00
        -11   -1    0    0    0    0  0.00000000000E+00  0.00000000000E+00  0.45593999997E+02  0.45594000000E+02  0.51100000000E-03 0.  1.
         11   -1    0    0    0    0 -0.00000000000E+00 -0.00000000000E+00 -0.45593999997E+02  0.45594000000E+02  0.51100000000E-03 0. -1.
         23    2    1    2    0    0  0.13322676296E-14  0.00000000000E+00  0.00000000000E+00  0.91188000000E+02  0.91188000000E+02 0.  0.
    9900012    2    3    3    0    0 -0.22483743622E+01 -0.30936564560E+02  0.26287646007E+02  0.50528849165E+02  0.29999967522E+02 0.  0.
        -12    1    3    3    0    0  0.22483743622E+01  0.30936564560E+02 -0.26287646007E+02  0.40659150835E+02  0.00000000000E+00 0.  1.
         11    1    4    4    0    0 -0.25698319379E+01  0.15419996711E+01  0.84226189168E+01  0.89399277879E+01  0.51100000000E-03 0. -1.
        -11    1    4    4    0    0 -0.92344909892E+01 -0.15177700839E+02  0.76907386229E+01  0.19359387579E+02  0.51100000000E-03 0.  1.
         12    1    4    4    0    0  0.95559485649E+01 -0.17300863392E+02  0.10174288467E+02  0.22229533798E+02  0.00000000000E+00 0. -1.
</event>
<event>
 8    1  0.7977359E-012  0.9118800E+02  0.7816164E-02  0.1184000E+00
        -11   -1    0    0    0    0  0.00000000000E+00  0.00000000000E+00  0.45593999997E+02  0.45594000000E+02  0.51100000000E-03 0. -1.
         11   -1    0    0    0    0 -0.00000000000E+00 -0.00000000000E+00 -0.45593999997E+02  0.45594000000E+02  0.51100000000E-03 0.  1.
         23    2    1    2    0    0  0.00000000000E+00  0.00000000000E+00  0.00000000000E+00  0.91188000000E+02  0.91188000000E+02 0.  0.
    9900012    2    3    3    0    0  0.33577425022E+02  0.21571428313E+02 -0.77714619461E+01  0.50528860667E+02  0.30000002482E+02 0.  0.
         12    1    3    3    0    0 -0.33577425022E+02 -0.21571428313E+02  0.77714619461E+01  0.40659139333E+02  0.00000000000E+00 0. -1.
         11    1    4    4    0    0  0.36888256287E+01 -0.60986482407E+01 -0.52712675604E+01  0.88649425738E+01  0.51100000000E-03 0. -1.
        -11    1    4    4    0    0  0.23614998138E+00  0.28596465988E+00 -0.12261330737E+01  0.12809938235E+01  0.51100000000E-03 0.  1.
        -12    1    4    4    0    0  0.29652449412E+02  0.27384111894E+02 -0.12740613120E+01  0.40382924269E+02  0.00000000000E+00 0.  1.
</event>
<event>
 8    1  0.7977359E-012  0.9118800E+02  0.7816164E-02  0.1184000E+00
        -11   -1    0    0    0    0  0.00000000000E+00  0.00000000000E+00  0.45593999997E+02  0.45594000000E+02  0.51100000000E-03 0.  1.
         11   -1    0    0    0    0 -0.00000000000E+00 -0.00000000000E+00 -0.45593999997E+02  0.45594000000E+02  0.51100000000E-03 0. -1.
         23    2    1    2    0    0  0.17763568394E-14 -0.44408920985E-15  0.00000000000E+00  0.91188000000E+02  0.91188000000E+02 0.  0.
    9900012    2    3    3    0    0  0.14659294038E+02  0.16564704692E+01 -0.37888355542E+02  0.50528852422E+02  0.29999977421E+02 0.  0.
         12    1    3    3    0    0 -0.14659294038E+02 -0.16564704692E+01  0.37888355542E+02  0.40659147578E+02  0.00000000000E+00 0. -1.
         11    1    4    4    0    0  0.91296936113E+01 -0.50990697878E+01 -0.15834984964E+01  0.10576355038E+02  0.51100000000E-03 0. -1.
        -11    1    4    4    0    0  0.92983400991E+01  0.12699514212E+01 -0.15610729784E+02  0.18214466499E+02  0.51100000000E-03 0.  1.
         12    1    4    4    0    0 -0.37687396723E+01  0.54855888358E+01 -0.20694127262E+02  0.21738030885E+02  0.00000000000E+00 0. -1.
</event>
<event>
 8    1  0.7977359E-012  0.9118800E+02  0.7816164E-02  0.1184000E+00
        -11   -1    0    0    0    0  0.00000000000E+00  0.00000000000E+00  0.45593999997E+02  0.45594000000E+02  0.51100000000E-03 0. -1.
         11   -1    0    0    0    0 -0.00000000000E+00 -0.00000000000E+00 -0.45593999997E+02  0.45594000000E+02  0.51100000000E-03 0.  1.
         23    2    1    2    0    0  0.00000000000E+00 -0.35527136788E-14  0.17763568394E-14  0.91188000000E+02  0.91188000000E+02 0.  0.
    9900012    2    3    3    0    0  0.32198580913E+02 -0.20164685518E+02  0.14484556844E+02  0.50528861521E+02  0.30000005080E+02 0.  0.
        -12    1    3    3    0    0 -0.32198580913E+02  0.20164685518E+02 -0.14484556844E+02  0.40659138479E+02  0.00000000000E+00 0.  1.
         11    1    4    4    0    0  0.28097458591E+02 -0.15242054193E+02  0.15457640226E+02  0.35506704113E+02  0.51100000000E-03 0. -1.
        -11    1    4    4    0    0  0.64158153090E+01  0.39836966373E+00  0.38359695539E+01  0.74857228875E+01  0.51100000000E-03 0.  1.
        -12    1    4    4    0    0 -0.23146929873E+01 -0.53210009886E+01 -0.48090529363E+01  0.75364345210E+01  0.00000000000E+00 0.  1.
</event>
<event>
 8    1  0.7977359E-012  0.9118800E+02  0.7816164E-02  0.1184000E+00
        -11   -1    0    0    0    0  0.00000000000E+00  0.00000000000E+00  0.45593999997E+02  0.45594000000E+02  0.51100000000E-03 0. -1.
         11   -1    0    0    0    0 -0.00000000000E+00 -0.00000000000E+00 -0.45593999997E+02  0.45594000000E+02  0.51100000000E-03 0.  1.
         23    2    1    2    0    0 -0.35527136788E-14  0.00000000000E+00  0.00000000000E+00  0.91188000000E+02  0.91188000000E+02 0.  0.
    9900012    2    3    3    0    0  0.20735553170E+02 -0.33346646854E+02  0.10545421942E+02  0.50528831961E+02  0.29999915229E+02 0.  0.
        -12    1    3    3    0    0 -0.20735553170E+02  0.33346646854E+02 -0.10545421942E+02  0.40659168039E+02  0.00000000000E+00 0.  1.
         11    1    4    4    0    0  0.12765023553E+00 -0.95847097749E+00 -0.19398195233E+01  0.21674550149E+01  0.51100000000E-03 0. -1.
        -11    1    4    4    0    0 -0.51349266596E+01 -0.14399860042E+02  0.32914921753E+01  0.15638329899E+02  0.51100000000E-03 0.  1.
         12    1    4    4    0    0  0.25742829594E+02 -0.17988315835E+02  0.91937492897E+01  0.32723047048E+02  0.00000000000E+00 0. -1.
</event>
<event>
 8    1  0.7977359E-012  0.9118800E+02  0.7816164E-02  0.1184000E+00
        -11   -1    0    0    0    0  0.00000000000E+00  0.00000000000E+00  0.45593999997E+02  0.45594000000E+02  0.51100000000E-03 0. -1.
         11   -1    0    0    0    0 -0.00000000000E+00 -0.00000000000E+00 -0.45593999997E+02  0.45594000000E+02  0.51100000000E-03 0.  1.
         23    2    1    2    0    0  0.35527136788E-14  0.00000000000E+00  0.00000000000E+00  0.91188000000E+02  0.91188000000E+02 0.  0.
    9900012    2    3    3    0    0  0.31488892607E+02 -0.55606959323E+01 -0.25113616926E+02  0.50528862626E+02  0.30000008438E+02 0.  0.
         12    1    3    3    0    0 -0.31488892607E+02  0.55606959323E+01  0.25113616926E+02  0.40659137374E+02  0.00000000000E+00 0. -1.
         11    1    4    4    0    0  0.11747422469E+02  0.16695026987E+01 -0.75373347154E+01  0.14057047656E+02  0.51100000000E-03 0. -1.
        -11    1    4    4    0    0  0.25411063892E+02 -0.52881676351E+01 -0.14610814741E+02  0.29785278121E+02  0.51100000000E-03 0.  1.
         12    1    4    4    0    0 -0.56695937540E+01 -0.19420309959E+01 -0.29654674691E+01  0.66865368491E+01  0.00000000000E+00 0. -1.
</event>
<event>
 8    1  0.8021184E-012  0.9118800E+02  0.7816164E-02  0.1184000E+00
        -11   -1    0    0    0    0  0.00000000000E+00  0.00000000000E+00  0.45593999997E+02  0.45594000000E+02  0.51100000000E-03 0. -1.
         11   -1    0    0    0    0 -0.00000000000E+00 -0.00000000000E+00 -0.45593999997E+02  0.45594000000E+02  0.51100000000E-03 0.  1.
         23    2    1    2    0    0  0.00000000000E+00  0.00000000000E+00  0.35527136788E-14  0.91188000000E+02  0.91188000000E+02 0.  0.
    9900012    2    3    3    0    0 -0.28064478938E+02 -0.86101846489E+01  0.28132101515E+02  0.50528863347E+02  0.30000010629E+02 0.  0.
        -12    1    3    3    0    0  0.28064478938E+02  0.86101846489E+01 -0.28132101515E+02  0.40659136653E+02  0.00000000000E+00 0.  1.
         11    1    4    4    0    0 -0.91855515746E+01 -0.25901945898E+01  0.13166680955E+02  0.16261763539E+02  0.51100000000E-03 0. -1.
        -11    1    4    4    0    0 -0.26921837862E+01 -0.10428212682E+02  0.13723322708E+02  0.17444915010E+02  0.51100000000E-03 0.  1.
        -12    1    4    4    0    0 -0.16186743577E+02  0.44082226233E+01  0.12420978516E+01  0.16822184799E+02  0.00000000000E+00 0.  1.
</event>
<event>
 8    1  0.7977359E-012  0.9118800E+02  0.7816164E-02  0.1184000E+00
        -11   -1    0    0    0    0  0.00000000000E+00  0.00000000000E+00  0.45593999997E+02  0.45594000000E+02  0.51100000000E-03 0. -1.
         11   -1    0    0    0    0 -0.00000000000E+00 -0.00000000000E+00 -0.45593999997E+02  0.45594000000E+02  0.51100000000E-03 0.  1.
         23    2    1    2    0    0  0.35527136788E-14 -0.88817841970E-15  0.00000000000E+00  0.91188000000E+02  0.91188000000E+02 0.  0.
    9900012    2    3    3    0    0  0.22301784805E+02  0.51377239414E+01  0.33606567844E+02  0.50528840945E+02  0.29999942537E+02 0.  0.
        -12    1    3    3    0    0 -0.22301784805E+02 -0.51377239414E+01 -0.33606567844E+02  0.40659159055E+02  0.00000000000E+00 0.  1.
         11    1    4    4    0    0  0.93956234881E+01  0.60350375124E+01  0.12419794312E+02  0.16701817551E+02  0.51100000000E-03 0. -1.
        -11    1    4    4    0    0  0.15500241295E+02  0.77262746112E+01  0.14872609853E+02  0.22828651376E+02  0.51100000000E-03 0.  1.
        -12    1    4    4    0    0 -0.25940799777E+01 -0.86235881821E+01  0.63141636796E+01  0.10998372018E+02  0.00000000000E+00 0.  1.
</event>
<event>
 8    1  0.9832142E-012  0.9118800E+02  0.7816164E-02  0.1184000E+00
        -11   -1    0    0    0    0  0.00000000000E+00  0.00000000000E+00  0.45593999997E+02  0.45594000000E+02  0.51100000000E-03 0.  1.
         11   -1    0    0    0    0 -0.00000000000E+00 -0.00000000000E+00 -0.45593999997E+02  0.45594000000E+02  0.51100000000E-03 0. -1.
         23    2    1    2    0    0  0.00000000000E+00  0.35527136788E-14  0.00000000000E+00  0.91188000000E+02  0.91188000000E+02 0.  0.
    9900012    2    3    3    0    0  0.20786574181E+02 -0.25944348255E+02  0.23408867611E+02  0.50528856435E+02  0.29999989621E+02 0.  0.
        -12    1    3    3    0    0 -0.20786574181E+02  0.25944348255E+02 -0.23408867611E+02  0.40659143565E+02  0.00000000000E+00 0.  1.
         11    1    4    4    0    0  0.19324397206E+02 -0.14480285439E+02  0.17681363756E+02  0.29928942819E+02  0.51100000000E-03 0. -1.
        -11    1    4    4    0    0  0.11846794775E+01 -0.15355167539E+02  0.63332661457E+01  0.16652173911E+02  0.51100000000E-03 0.  1.
        -12    1    4    4    0    0  0.27749749789E+00  0.38911047231E+01 -0.60576229009E+00  0.39477397051E+01  0.00000000000E+00 0.  1.
</event>
<event>
 8    1  0.7977359E-012  0.9118800E+02  0.7816164E-02  0.1184000E+00
        -11   -1    0    0    0    0  0.00000000000E+00  0.00000000000E+00  0.45593999997E+02  0.45594000000E+02  0.51100000000E-03 0. -1.
         11   -1    0    0    0    0 -0.00000000000E+00 -0.00000000000E+00 -0.45593999997E+02  0.45594000000E+02  0.51100000000E-03 0.  1.
         23    2    1    2    0    0  0.13322676296E-14  0.71054273576E-14  0.71054273576E-14  0.91188000000E+02  0.91188000000E+02 0.  0.
    9900012    2    3    3    0    0  0.29398985558E+01  0.24968575088E+02  0.31954552958E+02  0.50528853425E+02  0.29999980470E+02 0.  0.
        -12    1    3    3    0    0 -0.29398985558E+01 -0.24968575088E+02 -0.31954552958E+02  0.40659146575E+02  0.00000000000E+00 0.  1.
         11    1    4    4    0    0  0.88623969533E+00 -0.26496443161E+00 -0.27404053412E+01  0.28923085318E+01  0.51100000000E-03 0.  1.
        -11    1    4    4    0    0  0.47996342683E+01  0.22164792472E+02  0.14256467077E+02  0.26787335967E+02  0.51100000000E-03 0. -1.
         12    1    4    4    0    0 -0.27459754078E+01  0.30687470484E+01  0.20438491223E+02  0.20849208926E+02  0.00000000000E+00 0. -1.
</event>
<event>
 8    1  0.7977359E-012  0.9118800E+02  0.7816164E-02  0.1184000E+00
        -11   -1    0    0    0    0  0.00000000000E+00  0.00000000000E+00  0.45593999997E+02  0.45594000000E+02  0.51100000000E-03 0. -1.
         11   -1    0    0    0    0 -0.00000000000E+00 -0.00000000000E+00 -0.45593999997E+02  0.45594000000E+02  0.51100000000E-03 0.  1.
         23    2    1    2    0    0 -0.88817841970E-15  0.00000000000E+00  0.00000000000E+00  0.91188000000E+02  0.91188000000E+02 0.  0.
    9900012    2    3    3    0    0  0.13927923333E+01  0.16228376685E+02  0.37254062053E+02  0.50528865482E+02  0.30000017118E+02 0.  0.
        -12    1    3    3    0    0 -0.13927923333E+01 -0.16228376685E+02 -0.37254062053E+02  0.40659134518E+02  0.00000000000E+00 0.  1.
         11    1    4    4    0    0  0.60812654826E+01 -0.37159986265E+01  0.10799245368E+02  0.12938861482E+02  0.51100000000E-03 0. -1.
        -11    1    4    4    0    0 -0.53831707975E+01  0.96433856905E+00  0.58962442747E+00  0.55005576024E+01  0.51100000000E-03 0.  1.
         12    1    4    4    0    0  0.69469764823E+00  0.18980036743E+02  0.25865192258E+02  0.32089446398E+02  0.00000000000E+00 0. -1.
</event>
<event>
 8    1  0.7977359E-012  0.9118800E+02  0.7816164E-02  0.1184000E+00
        -11   -1    0    0    0    0  0.00000000000E+00  0.00000000000E+00  0.45593999997E+02  0.45594000000E+02  0.51100000000E-03 0. -1.
         11   -1    0    0    0    0 -0.00000000000E+00 -0.00000000000E+00 -0.45593999997E+02  0.45594000000E+02  0.51100000000E-03 0.  1.
         23    2    1    2    0    0 -0.35527136788E-14  0.00000000000E+00  0.00000000000E+00  0.91188000000E+02  0.91188000000E+02 0.  0.
    9900012    2    3    3    0    0  0.18944519603E+02  0.26596262399E+02 -0.24226191148E+02  0.50528876373E+02  0.30000050223E+02 0.  0.
         12    1    3    3    0    0 -0.18944519603E+02 -0.26596262399E+02  0.24226191148E+02  0.40659123627E+02  0.00000000000E+00 0. -1.
         11    1    4    4    0    0  0.26406345900E+01  0.22338297000E+02 -0.11003767168E+02  0.25041073380E+02  0.51100000000E-03 0. -1.
        -11    1    4    4    0    0  0.13469290186E+02  0.83798508668E+01 -0.12949932224E+02  0.20477900858E+02  0.51100000000E-03 0.  1.
        -12    1    4    4    0    0  0.28345948269E+01 -0.41218854677E+01 -0.27249175564E+00  0.50099021346E+01  0.00000000000E+00 0.  1.
</event>
<event>
 8    1  0.7977359E-012  0.9118800E+02  0.7816164E-02  0.1184000E+00
        -11   -1    0    0    0    0  0.00000000000E+00  0.00000000000E+00  0.45593999997E+02  0.45594000000E+02  0.51100000000E-03 0.  1.
         11   -1    0    0    0    0 -0.00000000000E+00 -0.00000000000E+00 -0.45593999997E+02  0.45594000000E+02  0.51100000000E-03 0. -1.
         23    2    1    2    0    0 -0.17763568394E-14  0.00000000000E+00  0.17763568394E-14  0.91188000000E+02  0.91188000000E+02 0.  0.
    9900012    2    3    3    0    0 -0.12973040979E+02  0.37168748541E+02  0.10166324176E+02  0.50528809064E+02  0.29999845631E+02 0.  0.
         12    1    3    3    0    0  0.12973040979E+02 -0.37168748541E+02 -0.10166324176E+02  0.40659190936E+02  0.00000000000E+00 0. -1.
         11    1    4    4    0    0 -0.21305001844E+01  0.71733360141E+00 -0.42666731729E+01  0.48226651094E+01  0.51100000000E-03 0. -1.
        -11    1    4    4    0    0 -0.81087707662E+01  0.15721652332E+01  0.41278874495E+01  0.92338140503E+01  0.51100000000E-03 0.  1.
        -12    1    4    4    0    0 -0.27337700281E+01  0.34879249706E+02  0.10305109900E+02  0.36472329904E+02  0.00000000000E+00 0.  1.
</event>
<event>
 8    1  0.9538553E-012  0.9118800E+02  0.7816164E-02  0.1184000E+00
        -11   -1    0    0    0    0  0.00000000000E+00  0.00000000000E+00  0.45593999997E+02  0.45594000000E+02  0.51100000000E-03 0. -1.
         11   -1    0    0    0    0 -0.00000000000E+00 -0.00000000000E+00 -0.45593999997E+02  0.45594000000E+02  0.51100000000E-03 0.  1.
         23    2    1    2    0    0  0.17763568394E-14 -0.17763568394E-14  0.00000000000E+00  0.91188000000E+02  0.91188000000E+02 0.  0.
    9900012    2    3    3    0    0  0.10740710879E+02 -0.28492461148E+01  0.39111177537E+02  0.50528864717E+02  0.30000014793E+02 0.  0.
        -12    1    3    3    0    0 -0.10740710879E+02  0.28492461148E+01 -0.39111177537E+02  0.40659135283E+02  0.00000000000E+00 0.  1.
         11    1    4    4    0    0  0.71420888375E+01 -0.78859123298E+01  0.19147387419E+02  0.21904782388E+02  0.51100000000E-03 0. -1.
        -11    1    4    4    0    0  0.60216411965E+01 -0.64069354255E+01  0.78965586332E+01  0.11817978793E+02  0.51100000000E-03 0.  1.
        -12    1    4    4    0    0 -0.24230191546E+01  0.11443601641E+02  0.12067231485E+02  0.16806103535E+02  0.00000000000E+00 0.  1.
</event>
<event>
 8    1  0.7977359E-012  0.9118800E+02  0.7816164E-02  0.1184000E+00
        -11   -1    0    0    0    0  0.00000000000E+00  0.00000000000E+00  0.45593999997E+02  0.45594000000E+02  0.51100000000E-03 0. -1.
         11   -1    0    0    0    0 -0.00000000000E+00 -0.00000000000E+00 -0.45593999997E+02  0.45594000000E+02  0.51100000000E-03 0.  1.
         23    2    1    2    0    0 -0.17763568394E-14  0.71054273576E-14  0.00000000000E+00  0.91188000000E+02  0.91188000000E+02 0.  0.
    9900012    2    3    3    0    0  0.89866335469E+01 -0.35150862299E+02 -0.18352745236E+02  0.50528856371E+02  0.29999989427E+02 0.  0.
         12    1    3    3    0    0 -0.89866335469E+01  0.35150862299E+02  0.18352745236E+02  0.40659143629E+02  0.00000000000E+00 0. -1.
         11    1    4    4    0    0  0.57310589938E+01 -0.50390305956E+01 -0.11492596609E+01  0.77173612435E+01  0.51100000000E-03 0. -1.
        -11    1    4    4    0    0  0.68808667747E+01  0.82266236947E+00  0.56588556720E+00  0.69529366229E+01  0.51100000000E-03 0.  1.
        -12    1    4    4    0    0 -0.36252922216E+01 -0.30934494073E+02 -0.17769371143E+02  0.35858558505E+02  0.00000000000E+00 0.  1.
</event>
<event>
 8    1  0.7977359E-012  0.9118800E+02  0.7816164E-02  0.1184000E+00
        -11   -1    0    0    0    0  0.00000000000E+00  0.00000000000E+00  0.45593999997E+02  0.45594000000E+02  0.51100000000E-03 0. -1.
         11   -1    0    0    0    0 -0.00000000000E+00 -0.00000000000E+00 -0.45593999997E+02  0.45594000000E+02  0.51100000000E-03 0.  1.
         23    2    1    2    0    0  0.00000000000E+00  0.35527136788E-14 -0.35527136788E-14  0.91188000000E+02  0.91188000000E+02 0.  0.
    9900012    2    3    3    0    0 -0.26620452212E+02  0.76531974113E+01 -0.29764855278E+02  0.50528849538E+02  0.29999968656E+02 0.  0.
         12    1    3    3    0    0  0.26620452212E+02 -0.76531974113E+01  0.29764855278E+02  0.40659150462E+02  0.00000000000E+00 0. -1.
         11    1    4    4    0    0 -0.67694951253E+01 -0.73168659230E+01 -0.31995382691E+01  0.10468984506E+02  0.51100000000E-03 0. -1.
        -11    1    4    4    0    0 -0.69902774667E+01 -0.31786221566E+01 -0.79704969804E+01  0.11067810996E+02  0.51100000000E-03 0.  1.
         12    1    4    4    0    0 -0.12860679620E+02  0.18148685491E+02 -0.18594820028E+02  0.28992054036E+02  0.00000000000E+00 0. -1.
</event>
<event>
 8    1  0.7977359E-012  0.9118800E+02  0.7816164E-02  0.1184000E+00
        -11   -1    0    0    0    0  0.00000000000E+00  0.00000000000E+00  0.45593999997E+02  0.45594000000E+02  0.51100000000E-03 0. -1.
         11   -1    0    0    0    0 -0.00000000000E+00 -0.00000000000E+00 -0.45593999997E+02  0.45594000000E+02  0.51100000000E-03 0.  1.
         23    2    1    2    0    0  0.00000000000E+00 -0.26645352591E-14  0.00000000000E+00  0.91188000000E+02  0.91188000000E+02 0.  0.
    9900012    2    3    3    0    0 -0.10456477388E+02 -0.36402423914E+01  0.39122581789E+02  0.50528859700E+02  0.29999999545E+02 0.  0.
        -12    1    3    3    0    0  0.10456477388E+02  0.36402423914E+01 -0.39122581789E+02  0.40659140300E+02  0.00000000000E+00 0.  1.
         11    1    4    4    0    0 -0.81618552601E+01 -0.48403651566E+01  0.50348211579E+01  0.10742180435E+02  0.51100000000E-03 0. -1.
        -11    1    4    4    0    0 -0.58974882337E+01 -0.83948711908E+01  0.17670869655E+02  0.20433156007E+02  0.51100000000E-03 0.  1.
         12    1    4    4    0    0  0.36028661061E+01  0.95949939561E+01  0.16416890976E+02  0.19353523259E+02  0.00000000000E+00 0. -1.
</event>
<event>
 8    1  0.7977359E-012  0.9118800E+02  0.7816164E-02  0.1184000E+00
        -11   -1    0    0    0    0  0.00000000000E+00  0.00000000000E+00  0.45593999997E+02  0.45594000000E+02  0.51100000000E-03 0.  1.
         11   -1    0    0    0    0 -0.00000000000E+00 -0.00000000000E+00 -0.45593999997E+02  0.45594000000E+02  0.51100000000E-03 0. -1.
         23    2    1    2    0    0  0.00000000000E+00  0.35527136788E-14  0.88817841970E-15  0.91188000000E+02  0.91188000000E+02 0.  0.
    9900012    2    3    3    0    0 -0.27535671749E+02 -0.29205094232E+02 -0.64818967741E+01  0.50528859164E+02  0.29999997915E+02 0.  0.
         12    1    3    3    0    0  0.27535671749E+02  0.29205094232E+02  0.64818967741E+01  0.40659140836E+02  0.00000000000E+00 0. -1.
         11    1    4    4    0    0 -0.10987625395E+02 -0.43688550584E+01 -0.54804937310E+01  0.13032675019E+02  0.51100000000E-03 0. -1.
        -11    1    4    4    0    0 -0.70098559748E+01 -0.19480292247E+01  0.82778466253E+01  0.11020691614E+02  0.51100000000E-03 0.  1.
         12    1    4    4    0    0 -0.95381903788E+01 -0.22888209949E+02 -0.92792496684E+01  0.26475492531E+02  0.00000000000E+00 0. -1.
</event>
<event>
 8    1  0.7977359E-012  0.9118800E+02  0.7816164E-02  0.1184000E+00
        -11   -1    0    0    0    0  0.00000000000E+00  0.00000000000E+00  0.45593999997E+02  0.45594000000E+02  0.51100000000E-03 0. -1.
         11   -1    0    0    0    0 -0.00000000000E+00 -0.00000000000E+00 -0.45593999997E+02  0.45594000000E+02  0.51100000000E-03 0.  1.
         23    2    1    2    0    0  0.00000000000E+00 -0.88817841970E-15  0.00000000000E+00  0.91188000000E+02  0.91188000000E+02 0.  0.
    9900012    2    3    3    0    0  0.36136937221E+02 -0.41839617995E+01  0.18159898937E+02  0.50528859607E+02  0.29999999262E+02 0.  0.
        -12    1    3    3    0    0 -0.36136937221E+02  0.41839617995E+01 -0.18159898937E+02  0.40659140393E+02  0.00000000000E+00 0.  1.
         11    1    4    4    0    0  0.18137954178E+01 -0.24061214465E+01 -0.10966587640E+00  0.30151784522E+01  0.51100000000E-03 0. -1.
        -11    1    4    4    0    0 -0.19538602008E+01  0.13821848761E+01 -0.41214808457E+01  0.47659846137E+01  0.51100000000E-03 0.  1.
         12    1    4    4    0    0  0.36277002004E+02 -0.31600252290E+01  0.22391045659E+02  0.42747696541E+02  0.00000000000E+00 0. -1.
</event>
<event>
 8    1  0.7977359E-012  0.9118800E+02  0.7816164E-02  0.1184000E+00
        -11   -1    0    0    0    0  0.00000000000E+00  0.00000000000E+00  0.45593999997E+02  0.45594000000E+02  0.51100000000E-03 0. -1.
         11   -1    0    0    0    0 -0.00000000000E+00 -0.00000000000E+00 -0.45593999997E+02  0.45594000000E+02  0.51100000000E-03 0.  1.
         23    2    1    2    0    0 -0.26090241079E-14  0.00000000000E+00  0.00000000000E+00  0.91188000000E+02  0.91188000000E+02 0.  0.
    9900012    2    3    3    0    0  0.13027067432E+00 -0.35956244892E+02  0.18981467738E+02  0.50528872677E+02  0.30000038988E+02 0.  0.
        -12    1    3    3    0    0 -0.13027067432E+00  0.35956244892E+02 -0.18981467738E+02  0.40659127323E+02  0.00000000000E+00 0.  1.
         11    1    4    4    0    0 -0.50511869151E+01 -0.23992166633E+01  0.14563235245E+00  0.55939198145E+01  0.51100000000E-03 0. -1.
        -11    1    4    4    0    0 -0.38748022015E+01 -0.36893134255E+01 -0.36423913884E+01  0.64724138419E+01  0.51100000000E-03 0.  1.
         12    1    4    4    0    0  0.90562597909E+01 -0.29867714803E+02  0.22478226774E+02  0.38462539020E+02  0.00000000000E+00 0. -1.
</event>
<event>
 8    1  0.7977359E-012  0.9118800E+02  0.7816164E-02  0.1184000E+00
        -11   -1    0    0    0    0  0.00000000000E+00  0.00000000000E+00  0.45593999997E+02  0.45594000000E+02  0.51100000000E-03 0. -1.
         11   -1    0    0    0    0 -0.00000000000E+00 -0.00000000000E+00 -0.45593999997E+02  0.45594000000E+02  0.51100000000E-03 0.  1.
         23    2    1    2    0    0 -0.35527136788E-14  0.17763568394E-14  0.00000000000E+00  0.91188000000E+02  0.91188000000E+02 0.  0.
    9900012    2    3    3    0    0 -0.13283090385E+02  0.66423614784E+01 -0.37849773219E+02  0.50528846186E+02  0.29999958467E+02 0.  0.
         12    1    3    3    0    0  0.13283090385E+02 -0.66423614784E+01  0.37849773219E+02  0.40659153814E+02  0.00000000000E+00 0. -1.
         11    1    4    4    0    0 -0.89427639614E+00  0.11943712158E+01  0.21884751466E+01  0.26487122536E+01  0.51100000000E-03 0. -1.
        -11    1    4    4    0    0 -0.94880012253E+01  0.28968799710E+01 -0.26166499768E+01  0.10259675345E+02  0.51100000000E-03 0.  1.
        -12    1    4    4    0    0 -0.29008127632E+01  0.25511102915E+01 -0.37421598388E+02  0.37620458588E+02  0.00000000000E+00 0.  1.
</event>
<event>
 8    1  0.7977359E-012  0.9118800E+02  0.7816164E-02  0.1184000E+00
        -11   -1    0    0    0    0  0.00000000000E+00  0.00000000000E+00  0.45593999997E+02  0.45594000000E+02  0.51100000000E-03 0. -1.
         11   -1    0    0    0    0 -0.00000000000E+00 -0.00000000000E+00 -0.45593999997E+02  0.45594000000E+02  0.51100000000E-03 0.  1.
         23    2    1    2    0    0 -0.17763568394E-14  0.00000000000E+00  0.00000000000E+00  0.91188000000E+02  0.91188000000E+02 0.  0.
    9900012    2    3    3    0    0  0.85768138103E+01  0.38056421650E+02 -0.11459157033E+02  0.50528865185E+02  0.30000016217E+02 0.  0.
         12    1    3    3    0    0 -0.85768138103E+01 -0.38056421650E+02  0.11459157033E+02  0.40659134815E+02  0.00000000000E+00 0. -1.
         11    1    4    4    0    0  0.10187649418E+02  0.23835755913E+02 -0.12958279613E+02  0.28980139258E+02  0.51100000000E-03 0. -1.
        -11    1    4    4    0    0 -0.46660292088E+01  0.67026275076E+01 -0.62839064560E+01  0.10304587556E+02  0.51100000000E-03 0.  1.
         12    1    4    4    0    0  0.30551936006E+01  0.75180382295E+01  0.77830290352E+01  0.11244138372E+02  0.00000000000E+00 0. -1.
</event>
<event>
 8    1  0.7977359E-012  0.9118800E+02  0.7816164E-02  0.1184000E+00
        -11   -1    0    0    0    0  0.00000000000E+00  0.00000000000E+00  0.45593999997E+02  0.45594000000E+02  0.51100000000E-03 0. -1.
         11   -1    0    0    0    0 -0.00000000000E+00 -0.00000000000E+00 -0.45593999997E+02  0.45594000000E+02  0.51100000000E-03 0.  1.
         23    2    1    2    0    0 -0.35527136788E-14  0.00000000000E+00  0.35527136788E-14  0.91188000000E+02  0.91188000000E+02 0.  0.
    9900012    2    3    3    0    0  0.19221309546E+02  0.21703332351E+02 -0.28507419945E+02  0.50528851365E+02  0.29999974209E+02 0.  0.
         12    1    3    3    0    0 -0.19221309546E+02 -0.21703332351E+02  0.28507419945E+02  0.40659148635E+02  0.00000000000E+00 0. -1.
         11    1    4    4    0    0  0.78491137917E+01  0.12609432405E+02 -0.11496163818E+02  0.18782123300E+02  0.51100000000E-03 0. -1.
        -11    1    4    4    0    0  0.17935404239E+02  0.40404639944E+01 -0.13174846523E+02  0.22618148812E+02  0.51100000000E-03 0.  1.
         12    1    4    4    0    0 -0.65632084844E+01  0.50534359514E+01 -0.38364096042E+01  0.91285792529E+01  0.00000000000E+00 0. -1.
</event>
<event>
 8    1  0.7977359E-012  0.9118800E+02  0.7816164E-02  0.1184000E+00
        -11   -1    0    0    0    0  0.00000000000E+00  0.00000000000E+00  0.45593999997E+02  0.45594000000E+02  0.51100000000E-03 0. -1.
         11   -1    0    0    0    0 -0.00000000000E+00 -0.00000000000E+00 -0.45593999997E+02  0.45594000000E+02  0.51100000000E-03 0.  1.
         23    2    1    2    0    0  0.00000000000E+00  0.00000000000E+00 -0.71054273576E-14  0.91188000000E+02  0.91188000000E+02 0.  0.
    9900012    2    3    3    0    0  0.18785164399E+02 -0.76136734515E+01 -0.35246494239E+02  0.50528858580E+02  0.29999996139E+02 0.  0.
         12    1    3    3    0    0 -0.18785164399E+02  0.76136734515E+01  0.35246494239E+02  0.40659141420E+02  0.00000000000E+00 0. -1.
         11    1    4    4    0    0 -0.32126318826E+01  0.39605192574E+00 -0.14620166818E+02  0.14974215799E+02  0.51100000000E-03 0. -1.
        -11    1    4    4    0    0  0.29857051053E+01  0.41205564603E+01 -0.86089522447E+01  0.10000373970E+02  0.51100000000E-03 0.  1.
        -12    1    4    4    0    0  0.19012091176E+02 -0.12130281838E+02 -0.12017375176E+02  0.25554268811E+02  0.00000000000E+00 0.  1.
</event>
<event>
 8    1  0.1198903E-011  0.9118800E+02  0.7816164E-02  0.1184000E+00
        -11   -1    0    0    0    0  0.00000000000E+00  0.00000000000E+00  0.45593999997E+02  0.45594000000E+02  0.51100000000E-03 0. -1.
         11   -1    0    0    0    0 -0.00000000000E+00 -0.00000000000E+00 -0.45593999997E+02  0.45594000000E+02  0.51100000000E-03 0.  1.
         23    2    1    2    0    0  0.00000000000E+00  0.17763568394E-14  0.00000000000E+00  0.91188000000E+02  0.91188000000E+02 0.  0.
    9900012    2    3    3    0    0  0.35702124229E+01  0.13497394095E+02  0.38186928296E+02  0.50528836742E+02  0.29999929762E+02 0.  0.
        -12    1    3    3    0    0 -0.35702124229E+01 -0.13497394095E+02 -0.38186928296E+02  0.40659163258E+02  0.00000000000E+00 0.  1.
         11    1    4    4    0    0 -0.10701697589E+01  0.85615185007E+01  0.24130312950E+02  0.25626487580E+02  0.51100000000E-03 0. -1.
        -11    1    4    4    0    0  0.43138209486E+01 -0.34430806522E+01  0.15446164971E+02  0.16402678687E+02  0.51100000000E-03 0.  1.
        -12    1    4    4    0    0  0.32656123319E+00  0.83789562466E+01 -0.13895496250E+01  0.84996704749E+01  0.00000000000E+00 0.  1.
</event>
<event>
 8    1  0.7977359E-012  0.9118800E+02  0.7816164E-02  0.1184000E+00
        -11   -1    0    0    0    0  0.00000000000E+00  0.00000000000E+00  0.45593999997E+02  0.45594000000E+02  0.51100000000E-03 0. -1.
         11   -1    0    0    0    0 -0.00000000000E+00 -0.00000000000E+00 -0.45593999997E+02  0.45594000000E+02  0.51100000000E-03 0.  1.
         23    2    1    2    0    0  0.00000000000E+00  0.00000000000E+00  0.88817841970E-15  0.91188000000E+02  0.91188000000E+02 0.  0.
    9900012    2    3    3    0    0 -0.39602244250E+02 -0.70286093235E+01 -0.59520213357E+01  0.50528860109E+02  0.30000000787E+02 0.  0.
         12    1    3    3    0    0  0.39602244250E+02  0.70286093235E+01  0.59520213357E+01  0.40659139891E+02  0.00000000000E+00 0. -1.
         11    1    4    4    0    0 -0.36845606438E+02 -0.79309634003E+01 -0.43723947917E+01  0.37942281569E+02  0.51100000000E-03 0. -1.
        -11    1    4    4    0    0 -0.71516582338E+01  0.20864968743E+01 -0.26563273963E+01  0.79092199487E+01  0.51100000000E-03 0.  1.
         12    1    4    4    0    0  0.43950204208E+01 -0.11841427975E+01  0.10767008523E+01  0.46773585911E+01  0.00000000000E+00 0. -1.
</event>
<event>
 8    1  0.7977359E-012  0.9118800E+02  0.7816164E-02  0.1184000E+00
        -11   -1    0    0    0    0  0.00000000000E+00  0.00000000000E+00  0.45593999997E+02  0.45594000000E+02  0.51100000000E-03 0. -1.
         11   -1    0    0    0    0 -0.00000000000E+00 -0.00000000000E+00 -0.45593999997E+02  0.45594000000E+02  0.51100000000E-03 0.  1.
         23    2    1    2    0    0  0.00000000000E+00 -0.17763568394E-14  0.00000000000E+00  0.91188000000E+02  0.91188000000E+02 0.  0.
    9900012    2    3    3    0    0  0.40247040150E+01 -0.14584032698E+02 -0.37739601978E+02  0.50528809039E+02  0.29999845554E+02 0.  0.
         12    1    3    3    0    0 -0.40247040150E+01  0.14584032698E+02  0.37739601978E+02  0.40659190961E+02  0.00000000000E+00 0. -1.
         11    1    4    4    0    0  0.55716339044E+01 -0.66407430686E+01 -0.29104162150E+02  0.30367660884E+02  0.51100000000E-03 0. -1.
        -11    1    4    4    0    0 -0.30823933248E+01 -0.94311572169E+00 -0.11868926882E+02  0.12298863422E+02  0.51100000000E-03 0.  1.
         12    1    4    4    0    0  0.15354634354E+01 -0.70001739072E+01  0.32334870538E+01  0.78622847328E+01  0.00000000000E+00 0. -1.
</event>
<event>
 8    1  0.7977359E-012  0.9118800E+02  0.7816164E-02  0.1184000E+00
        -11   -1    0    0    0    0  0.00000000000E+00  0.00000000000E+00  0.45593999997E+02  0.45594000000E+02  0.51100000000E-03 0. -1.
         11   -1    0    0    0    0 -0.00000000000E+00 -0.00000000000E+00 -0.45593999997E+02  0.45594000000E+02  0.51100000000E-03 0.  1.
         23    2    1    2    0    0  0.00000000000E+00 -0.44408920985E-15  0.00000000000E+00  0.91188000000E+02  0.91188000000E+02 0.  0.
    9900012    2    3    3    0    0  0.23370912079E+02  0.12679490651E+01 -0.33246915982E+02  0.50528872507E+02  0.30000038471E+02 0.  0.
         12    1    3    3    0    0 -0.23370912079E+02 -0.12679490651E+01  0.33246915982E+02  0.40659127493E+02  0.00000000000E+00 0. -1.
         11    1    4    4    0    0 -0.69795965700E+00 -0.23703090541E+01 -0.70414274337E+01  0.74623865659E+01  0.51100000000E-03 0. -1.
        -11    1    4    4    0    0  0.16347633556E+02 -0.84867554538E+01 -0.20609404236E+02  0.27640869817E+02  0.51100000000E-03 0.  1.
         12    1    4    4    0    0  0.77212381802E+01  0.12125013573E+02 -0.55960843122E+01  0.15425616124E+02  0.00000000000E+00 0. -1.
</event>
<event>
 8    1  0.7977359E-012  0.9118800E+02  0.7816164E-02  0.1184000E+00
        -11   -1    0    0    0    0  0.00000000000E+00  0.00000000000E+00  0.45593999997E+02  0.45594000000E+02  0.51100000000E-03 0. -1.
         11   -1    0    0    0    0 -0.00000000000E+00 -0.00000000000E+00 -0.45593999997E+02  0.45594000000E+02  0.51100000000E-03 0.  1.
         23    2    1    2    0    0  0.00000000000E+00  0.00000000000E+00  0.00000000000E+00  0.91188000000E+02  0.91188000000E+02 0.  0.
    9900012    2    3    3    0    0  0.91825282291E+01 -0.20621316895E+02  0.33817275407E+02  0.50528860178E+02  0.30000000997E+02 0.  0.
        -12    1    3    3    0    0 -0.91825282291E+01  0.20621316895E+02 -0.33817275407E+02  0.40659139822E+02  0.00000000000E+00 0.  1.
         11    1    4    4    0    0 -0.15415419616E+00 -0.26032463870E+01  0.59877353957E+01  0.65309747127E+01  0.51100000000E-03 0. -1.
        -11    1    4    4    0    0 -0.18731220961E+01  0.62167745506E+01  0.18694742924E+01  0.67566120645E+01  0.51100000000E-03 0.  1.
         12    1    4    4    0    0  0.11209804521E+02 -0.24234845058E+02  0.25960065718E+02  0.37241273401E+02  0.00000000000E+00 0. -1.
</event>
<event>
 8    1  0.8886909E-012  0.9118800E+02  0.7816164E-02  0.1184000E+00
        -11   -1    0    0    0    0  0.00000000000E+00  0.00000000000E+00  0.45593999997E+02  0.45594000000E+02  0.51100000000E-03 0. -1.
         11   -1    0    0    0    0 -0.00000000000E+00 -0.00000000000E+00 -0.45593999997E+02  0.45594000000E+02  0.51100000000E-03 0.  1.
         23    2    1    2    0    0  0.88817841970E-15 -0.33306690739E-15  0.00000000000E+00  0.91188000000E+02  0.91188000000E+02 0.  0.
    9900012    2    3    3    0    0  0.47467262560E+01  0.48616542079E+00  0.40378186605E+02  0.50528859324E+02  0.29999998402E+02 0.  0.
        -12    1    3    3    0    0 -0.47467262560E+01 -0.48616542079E+00 -0.40378186605E+02  0.40659140676E+02  0.00000000000E+00 0.  1.
         11    1    4    4    0    0 -0.11475948386E+01  0.39180931907E+01  0.16845995130E+02  0.17333666096E+02  0.51100000000E-03 0. -1.
        -11    1    4    4    0    0 -0.86104448854E+01 -0.11292885437E+01  0.97174854216E+01  0.13032443244E+02  0.51100000000E-03 0.  1.
        -12    1    4    4    0    0  0.14504765980E+02 -0.23026392262E+01  0.13814706054E+02  0.20162749984E+02  0.00000000000E+00 0.  1.
</event>
<event>
 8    1  0.7977359E-012  0.9118800E+02  0.7816164E-02  0.1184000E+00
        -11   -1    0    0    0    0  0.00000000000E+00  0.00000000000E+00  0.45593999997E+02  0.45594000000E+02  0.51100000000E-03 0. -1.
         11   -1    0    0    0    0 -0.00000000000E+00 -0.00000000000E+00 -0.45593999997E+02  0.45594000000E+02  0.51100000000E-03 0.  1.
         23    2    1    2    0    0  0.00000000000E+00 -0.88817841970E-15  0.00000000000E+00  0.91188000000E+02  0.91188000000E+02 0.  0.
    9900012    2    3    3    0    0  0.25978456089E+02 -0.64671153261E+01  0.30601697957E+02  0.50528835236E+02  0.29999925184E+02 0.  0.
        -12    1    3    3    0    0 -0.25978456089E+02  0.64671153261E+01 -0.30601697957E+02  0.40659164764E+02  0.00000000000E+00 0.  1.
         11    1    4    4    0    0  0.56441960139E+01  0.16354127337E+01  0.12915288071E+02  0.14189298421E+02  0.51100000000E-03 0. -1.
        -11    1    4    4    0    0 -0.85923573721E+00  0.28451378769E+01  0.11244945212E+02  0.11631074270E+02  0.51100000000E-03 0.  1.
         12    1    4    4    0    0  0.21193495813E+02 -0.10947665937E+02  0.64414646741E+01  0.24708462546E+02  0.00000000000E+00 0. -1.
</event>
<event>
 8    1  0.7977359E-012  0.9118800E+02  0.7816164E-02  0.1184000E+00
        -11   -1    0    0    0    0  0.00000000000E+00  0.00000000000E+00  0.45593999997E+02  0.45594000000E+02  0.51100000000E-03 0. -1.
         11   -1    0    0    0    0 -0.00000000000E+00 -0.00000000000E+00 -0.45593999997E+02  0.45594000000E+02  0.51100000000E-03 0.  1.
         23    2    1    2    0    0  0.00000000000E+00  0.00000000000E+00  0.00000000000E+00  0.91188000000E+02  0.91188000000E+02 0.  0.
    9900012    2    3    3    0    0 -0.15215165478E+02 -0.18454307756E+02  0.32880134234E+02  0.50528856348E+02  0.29999989356E+02 0.  0.
        -12    1    3    3    0    0  0.15215165478E+02  0.18454307756E+02 -0.32880134234E+02  0.40659143652E+02  0.00000000000E+00 0.  1.
         11    1    4    4    0    0 -0.85193010409E+01 -0.11948675581E+02  0.15244476338E+02  0.21159947955E+02  0.51100000000E-03 0. -1.
        -11    1    4    4    0    0 -0.41258079828E+01 -0.14199169770E+02  0.81347775569E+01  0.16876413121E+02  0.51100000000E-03 0.  1.
        -12    1    4    4    0    0 -0.25700564541E+01  0.76935375956E+01  0.95008803387E+01  0.12492495272E+02  0.00000000000E+00 0.  1.
</event>
<event>
 8    1  0.7977359E-012  0.9118800E+02  0.7816164E-02  0.1184000E+00
        -11   -1    0    0    0    0  0.00000000000E+00  0.00000000000E+00  0.45593999997E+02  0.45594000000E+02  0.51100000000E-03 0. -1.
         11   -1    0    0    0    0 -0.00000000000E+00 -0.00000000000E+00 -0.45593999997E+02  0.45594000000E+02  0.51100000000E-03 0.  1.
         23    2    1    2    0    0  0.00000000000E+00  0.00000000000E+00  0.00000000000E+00  0.91188000000E+02  0.91188000000E+02 0.  0.
    9900012    2    3    3    0    0  0.16524289078E+02  0.35295877014E+02  0.11589431084E+02  0.50528856176E+02  0.29999988831E+02 0.  0.
        -12    1    3    3    0    0 -0.16524289078E+02 -0.35295877014E+02 -0.11589431084E+02  0.40659143824E+02  0.00000000000E+00 0.  1.
         11    1    4    4    0    0 -0.52768779607E+01  0.83416907088E+01  0.55140278260E+01  0.11306358743E+02  0.51100000000E-03 0. -1.
        -11    1    4    4    0    0 -0.13909107947E+01  0.74856760267E+00 -0.27149067557E+01  0.31409720228E+01  0.51100000000E-03 0.  1.
        -12    1    4    4    0    0  0.23192077833E+02  0.26205618702E+02  0.87903100134E+01  0.36081525410E+02  0.00000000000E+00 0.  1.
</event>
<event>
 8    1  0.7977359E-012  0.9118800E+02  0.7816164E-02  0.1184000E+00
        -11   -1    0    0    0    0  0.00000000000E+00  0.00000000000E+00  0.45593999997E+02  0.45594000000E+02  0.51100000000E-03 0. -1.
         11   -1    0    0    0    0 -0.00000000000E+00 -0.00000000000E+00 -0.45593999997E+02  0.45594000000E+02  0.51100000000E-03 0.  1.
         23    2    1    2    0    0  0.00000000000E+00 -0.17763568394E-14  0.00000000000E+00  0.91188000000E+02  0.91188000000E+02 0.  0.
    9900012    2    3    3    0    0 -0.20298804844E+02 -0.10314935010E+02  0.33685707169E+02  0.50528853061E+02  0.29999979363E+02 0.  0.
        -12    1    3    3    0    0  0.20298804844E+02  0.10314935010E+02 -0.33685707169E+02  0.40659146939E+02  0.00000000000E+00 0.  1.
         11    1    4    4    0    0 -0.17544157261E+01 -0.27530122094E+01  0.65516875765E+00  0.33296091553E+01  0.51100000000E-03 0.  1.
        -11    1    4    4    0    0 -0.19056069474E+02 -0.16029046624E+02  0.21592528670E+02  0.32959086973E+02  0.51100000000E-03 0. -1.
        -12    1    4    4    0    0  0.51168035567E+00  0.84671238232E+01  0.11438009741E+02  0.14240156932E+02  0.00000000000E+00 0.  1.
</event>
<event>
 8    1  0.7977359E-012  0.9118800E+02  0.7816164E-02  0.1184000E+00
        -11   -1    0    0    0    0  0.00000000000E+00  0.00000000000E+00  0.45593999997E+02  0.45594000000E+02  0.51100000000E-03 0. -1.
         11   -1    0    0    0    0 -0.00000000000E+00 -0.00000000000E+00 -0.45593999997E+02  0.45594000000E+02  0.51100000000E-03 0.  1.
         23    2    1    2    0    0  0.00000000000E+00  0.71054273576E-14  0.35527136788E-14  0.91188000000E+02  0.91188000000E+02 0.  0.
    9900012    2    3    3    0    0  0.17028950398E+02 -0.29389196112E+02  0.22348502239E+02  0.50528861396E+02  0.30000004698E+02 0.  0.
        -12    1    3    3    0    0 -0.17028950398E+02  0.29389196112E+02 -0.22348502239E+02  0.40659138604E+02  0.00000000000E+00 0.  1.
         11    1    4    4    0    0  0.88365875712E+00  0.18510123307E+01  0.84102035586E+01  0.86567097448E+01  0.51100000000E-03 0. -1.
        -11    1    4    4    0    0  0.19189707242E+02 -0.24114225818E+02  0.73052160452E+01  0.31671863421E+02  0.51100000000E-03 0.  1.
         12    1    4    4    0    0 -0.30444156018E+01 -0.71259826248E+01  0.66330826351E+01  0.10200288230E+02  0.00000000000E+00 0. -1.
</event>
<event>
 8    1  0.7977359E-012  0.9118800E+02  0.7816164E-02  0.1184000E+00
        -11   -1    0    0    0    0  0.00000000000E+00  0.00000000000E+00  0.45593999997E+02  0.45594000000E+02  0.51100000000E-03 0. -1.
         11   -1    0    0    0    0 -0.00000000000E+00 -0.00000000000E+00 -0.45593999997E+02  0.45594000000E+02  0.51100000000E-03 0.  1.
         23    2    1    2    0    0  0.00000000000E+00  0.35527136788E-14  0.35527136788E-14  0.91188000000E+02  0.91188000000E+02 0.  0.
    9900012    2    3    3    0    0 -0.25335195246E+02  0.18928316466E+02  0.25554112962E+02  0.50528856235E+02  0.29999989013E+02 0.  0.
        -12    1    3    3    0    0  0.25335195246E+02 -0.18928316466E+02 -0.25554112962E+02  0.40659143765E+02  0.00000000000E+00 0.  1.
         11    1    4    4    0    0 -0.19580246223E+02  0.20235561210E+02  0.29571892432E+02  0.40833329547E+02  0.51100000000E-03 0.  1.
        -11    1    4    4    0    0 -0.40967202449E+01  0.24090937546E+01 -0.20667493278E+01  0.51824996410E+01  0.51100000000E-03 0. -1.
        -12    1    4    4    0    0 -0.16582287777E+01 -0.37163384986E+01 -0.19510301417E+01  0.45130270472E+01  0.00000000000E+00 0.  1.
</event>
<event>
 8    1  0.9224642E-012  0.9118800E+02  0.7816164E-02  0.1184000E+00
        -11   -1    0    0    0    0  0.00000000000E+00  0.00000000000E+00  0.45593999997E+02  0.45594000000E+02  0.51100000000E-03 0. -1.
         11   -1    0    0    0    0 -0.00000000000E+00 -0.00000000000E+00 -0.45593999997E+02  0.45594000000E+02  0.51100000000E-03 0.  1.
         23    2    1    2    0    0 -0.35527136788E-14  0.44408920985E-15  0.71054273576E-14  0.91188000000E+02  0.91188000000E+02 0.  0.
    9900012    2    3    3    0    0 -0.22333191842E+02  0.12039492550E+01  0.33955061102E+02  0.50528842039E+02  0.29999945862E+02 0.  0.
        -12    1    3    3    0    0  0.22333191842E+02 -0.12039492550E+01 -0.33955061102E+02  0.40659157961E+02  0.00000000000E+00 0.  1.
         11    1    4    4    0    0 -0.57711441147E+01  0.50334585047E+01  0.22416380961E+02  0.23688308183E+02  0.51100000000E-03 0. -1.
        -11    1    4    4    0    0  0.11273349142E+01  0.27449884540E+01  0.67460127753E+01  0.73698394994E+01  0.51100000000E-03 0.  1.
        -12    1    4    4    0    0 -0.17689382641E+02 -0.65744977037E+01  0.47926673659E+01  0.19470694357E+02  0.00000000000E+00 0.  1.
</event>
<event>
 8    1  0.7977359E-012  0.9118800E+02  0.7816164E-02  0.1184000E+00
        -11   -1    0    0    0    0  0.00000000000E+00  0.00000000000E+00  0.45593999997E+02  0.45594000000E+02  0.51100000000E-03 0. -1.
         11   -1    0    0    0    0 -0.00000000000E+00 -0.00000000000E+00 -0.45593999997E+02  0.45594000000E+02  0.51100000000E-03 0.  1.
         23    2    1    2    0    0  0.22204460493E-15  0.00000000000E+00  0.00000000000E+00  0.91188000000E+02  0.91188000000E+02 0.  0.
    9900012    2    3    3    0    0  0.15483040263E+01  0.18212870265E+02 -0.36318869245E+02  0.50528854019E+02  0.29999982278E+02 0.  0.
         12    1    3    3    0    0 -0.15483040263E+01 -0.18212870265E+02  0.36318869245E+02  0.40659145981E+02  0.00000000000E+00 0. -1.
         11    1    4    4    0    0 -0.66784968086E+01  0.10231332897E+02 -0.93938645862E+01  0.15411916967E+02  0.51100000000E-03 0. -1.
        -11    1    4    4    0    0  0.65841759106E+01  0.12531540403E+01  0.60448842566E+00  0.67295745771E+01  0.51100000000E-03 0.  1.
         12    1    4    4    0    0  0.16426249243E+01  0.67283833281E+01 -0.27529493084E+02  0.28387362476E+02  0.00000000000E+00 0. -1.
</event>
<event>
 8    1  0.7977359E-012  0.9118800E+02  0.7816164E-02  0.1184000E+00
        -11   -1    0    0    0    0  0.00000000000E+00  0.00000000000E+00  0.45593999997E+02  0.45594000000E+02  0.51100000000E-03 0. -1.
         11   -1    0    0    0    0 -0.00000000000E+00 -0.00000000000E+00 -0.45593999997E+02  0.45594000000E+02  0.51100000000E-03 0.  1.
         23    2    1    2    0    0 -0.35527136788E-14 -0.44408920985E-15  0.35527136788E-14  0.91188000000E+02  0.91188000000E+02 0.  0.
    9900012    2    3    3    0    0 -0.30804495303E+02  0.39968993474E+01  0.26234999122E+02  0.50528839726E+02  0.29999938830E+02 0.  0.
        -12    1    3    3    0    0  0.30804495303E+02 -0.39968993474E+01 -0.26234999122E+02  0.40659160274E+02  0.00000000000E+00 0.  1.
         11    1    4    4    0    0 -0.42341107035E+01 -0.16719569870E+01  0.97843573514E+01  0.10791514382E+02  0.51100000000E-03 0. -1.
        -11    1    4    4    0    0  0.15870291843E+01 -0.39735865377E+01  0.75398799519E+01  0.86693622346E+01  0.51100000000E-03 0.  1.
         12    1    4    4    0    0 -0.28157413784E+02  0.96424428721E+01  0.89107618191E+01  0.31067963109E+02  0.00000000000E+00 0. -1.
</event>
<event>
 8    1  0.7977359E-012  0.9118800E+02  0.7816164E-02  0.1184000E+00
        -11   -1    0    0    0    0  0.00000000000E+00  0.00000000000E+00  0.45593999997E+02  0.45594000000E+02  0.51100000000E-03 0. -1.
         11   -1    0    0    0    0 -0.00000000000E+00 -0.00000000000E+00 -0.45593999997E+02  0.45594000000E+02  0.51100000000E-03 0.  1.
         23    2    1    2    0    0 -0.66613381478E-15  0.35527136788E-14  0.00000000000E+00  0.91188000000E+02  0.91188000000E+02 0.  0.
    9900012    2    3    3    0    0  0.13648277756E+01 -0.20038573578E+02 -0.35351926467E+02  0.50528857230E+02  0.29999992036E+02 0.  0.
         12    1    3    3    0    0 -0.13648277756E+01  0.20038573578E+02  0.35351926467E+02  0.40659142770E+02  0.00000000000E+00 0. -1.
         11    1    4    4    0    0 -0.31031109946E+01  0.42883178691E+01 -0.59386000059E+01  0.79552459599E+01  0.51100000000E-03 0. -1.
        -11    1    4    4    0    0 -0.60424601245E+00  0.62199363842E+00  0.19757467376E+01  0.21576757778E+01  0.51100000000E-03 0.  1.
        -12    1    4    4    0    0  0.50721847826E+01 -0.24948885085E+02 -0.31389073198E+02  0.40415935492E+02  0.00000000000E+00 0.  1.
</event>
<event>
 8    1  0.7977359E-012  0.9118800E+02  0.7816164E-02  0.1184000E+00
        -11   -1    0    0    0    0  0.00000000000E+00  0.00000000000E+00  0.45593999997E+02  0.45594000000E+02  0.51100000000E-03 0.  1.
         11   -1    0    0    0    0 -0.00000000000E+00 -0.00000000000E+00 -0.45593999997E+02  0.45594000000E+02  0.51100000000E-03 0. -1.
         23    2    1    2    0    0  0.00000000000E+00 -0.88817841970E-15 -0.35527136788E-14  0.91188000000E+02  0.91188000000E+02 0.  0.
    9900012    2    3    3    0    0  0.34270961432E+02  0.39974686469E+01 -0.21510160496E+02  0.50528861327E+02  0.30000004489E+02 0.  0.
         12    1    3    3    0    0 -0.34270961432E+02 -0.39974686469E+01  0.21510160496E+02  0.40659138673E+02  0.00000000000E+00 0. -1.
         11    1    4    4    0    0  0.47672611154E+01  0.31409814935E+01 -0.10577633704E+01  0.58061525035E+01  0.51100000000E-03 0. -1.
        -11    1    4    4    0    0  0.15211242118E+02  0.95266592547E+01  0.45495884525E+00  0.17953999864E+02  0.51100000000E-03 0.  1.
         12    1    4    4    0    0  0.14292458199E+02 -0.86701721012E+01 -0.20907355971E+02  0.26768708959E+02  0.00000000000E+00 0. -1.
</event>
<event>
 8    1  0.7977359E-012  0.9118800E+02  0.7816164E-02  0.1184000E+00
        -11   -1    0    0    0    0  0.00000000000E+00  0.00000000000E+00  0.45593999997E+02  0.45594000000E+02  0.51100000000E-03 0. -1.
         11   -1    0    0    0    0 -0.00000000000E+00 -0.00000000000E+00 -0.45593999997E+02  0.45594000000E+02  0.51100000000E-03 0.  1.
         23    2    1    2    0    0  0.00000000000E+00  0.35527136788E-14 -0.35527136788E-14  0.91188000000E+02  0.91188000000E+02 0.  0.
    9900012    2    3    3    0    0  0.18106702997E+02  0.18242006661E+02 -0.31504600990E+02  0.50528888057E+02  0.30000085738E+02 0.  0.
         12    1    3    3    0    0 -0.18106702997E+02 -0.18242006661E+02  0.31504600990E+02  0.40659111943E+02  0.00000000000E+00 0. -1.
         11    1    4    4    0    0  0.34423506694E+01  0.86052150814E+01 -0.95512033663E+01  0.13308831306E+02  0.51100000000E-03 0. -1.
        -11    1    4    4    0    0  0.13082379867E+02  0.11799895433E+02 -0.26571033235E+02  0.31881122983E+02  0.51100000000E-03 0.  1.
         12    1    4    4    0    0  0.15819724603E+01 -0.21631038534E+01  0.46176356110E+01  0.53389337682E+01  0.00000000000E+00 0. -1.
</event>
<event>
 8    1  0.7977359E-012  0.9118800E+02  0.7816164E-02  0.1184000E+00
        -11   -1    0    0    0    0  0.00000000000E+00  0.00000000000E+00  0.45593999997E+02  0.45594000000E+02  0.51100000000E-03 0. -1.
         11   -1    0    0    0    0 -0.00000000000E+00 -0.00000000000E+00 -0.45593999997E+02  0.45594000000E+02  0.51100000000E-03 0.  1.
         23    2    1    2    0    0  0.44408920985E-15  0.00000000000E+00  0.00000000000E+00  0.91188000000E+02  0.91188000000E+02 0.  0.
    9900012    2    3    3    0    0 -0.18776256062E+01  0.12320812658E+02 -0.38701903945E+02  0.50528864846E+02  0.30000015187E+02 0.  0.
         12    1    3    3    0    0  0.18776256062E+01 -0.12320812658E+02  0.38701903945E+02  0.40659135154E+02  0.00000000000E+00 0. -1.
         11    1    4    4    0    0  0.14867855750E+01  0.38887800974E+01 -0.57053196061E+01  0.70628474471E+01  0.51100000000E-03 0.  1.
        -11    1    4    4    0    0  0.66324708189E+01  0.14593466554E+02 -0.23053228364E+02  0.28078644438E+02  0.51100000000E-03 0. -1.
        -12    1    4    4    0    0 -0.99968820001E+01 -0.61614339941E+01 -0.99433559755E+01  0.15387372961E+02  0.00000000000E+00 0.  1.
</event>
<event>
 8    1  0.7977359E-012  0.9118800E+02  0.7816164E-02  0.1184000E+00
        -11   -1    0    0    0    0  0.00000000000E+00  0.00000000000E+00  0.45593999997E+02  0.45594000000E+02  0.51100000000E-03 0. -1.
         11   -1    0    0    0    0 -0.00000000000E+00 -0.00000000000E+00 -0.45593999997E+02  0.45594000000E+02  0.51100000000E-03 0.  1.
         23    2    1    2    0    0  0.35527136788E-14  0.88817841970E-15 -0.35527136788E-14  0.91188000000E+02  0.91188000000E+02 0.  0.
    9900012    2    3    3    0    0 -0.28977124267E+02 -0.27686116022E+01  0.28387199100E+02  0.50528781934E+02  0.29999763165E+02 0.  0.
        -12    1    3    3    0    0  0.28977124267E+02  0.27686116022E+01 -0.28387199100E+02  0.40659218066E+02  0.00000000000E+00 0.  1.
         11    1    4    4    0    0 -0.97544358510E+01 -0.48493517666E+01  0.13012004810E+02  0.16969899845E+02  0.51100000000E-03 0. -1.
        -11    1    4    4    0    0 -0.12831599856E+02 -0.20942403336E+01  0.20563436643E+02  0.24328804415E+02  0.51100000000E-03 0.  1.
        -12    1    4    4    0    0 -0.63910885596E+01  0.41749804981E+01 -0.51882423526E+01  0.92300776728E+01  0.00000000000E+00 0.  1.
</event>
<event>
 8    1  0.7977359E-012  0.9118800E+02  0.7816164E-02  0.1184000E+00
        -11   -1    0    0    0    0  0.00000000000E+00  0.00000000000E+00  0.45593999997E+02  0.45594000000E+02  0.51100000000E-03 0. -1.
         11   -1    0    0    0    0 -0.00000000000E+00 -0.00000000000E+00 -0.45593999997E+02  0.45594000000E+02  0.51100000000E-03 0.  1.
         23    2    1    2    0    0 -0.35527136788E-14  0.00000000000E+00  0.00000000000E+00  0.91188000000E+02  0.91188000000E+02 0.  0.
    9900012    2    3    3    0    0  0.27706015616E+02 -0.82404957765E+01 -0.28594346863E+02  0.50528859029E+02  0.29999997505E+02 0.  0.
         12    1    3    3    0    0 -0.27706015616E+02  0.82404957765E+01  0.28594346863E+02  0.40659140971E+02  0.00000000000E+00 0. -1.
         11    1    4    4    0    0  0.16442766483E+02 -0.46276851154E+00 -0.60602372842E+01  0.17530122661E+02  0.51100000000E-03 0. -1.
        -11    1    4    4    0    0  0.13149314736E+02  0.27253666973E+01 -0.12944216803E+02  0.18651671523E+02  0.51100000000E-03 0.  1.
        -12    1    4    4    0    0 -0.18860656033E+01 -0.10503093962E+02 -0.95898927752E+01  0.14347064846E+02  0.00000000000E+00 0.  1.
</event>
<event>
 8    1  0.7977359E-012  0.9118800E+02  0.7816164E-02  0.1184000E+00
        -11   -1    0    0    0    0  0.00000000000E+00  0.00000000000E+00  0.45593999997E+02  0.45594000000E+02  0.51100000000E-03 0.  1.
         11   -1    0    0    0    0 -0.00000000000E+00 -0.00000000000E+00 -0.45593999997E+02  0.45594000000E+02  0.51100000000E-03 0. -1.
         23    2    1    2    0    0 -0.71054273576E-14  0.35527136788E-14  0.22204460493E-15  0.91188000000E+02  0.91188000000E+02 0.  0.
    9900012    2    3    3    0    0  0.31124535945E+02 -0.26091750501E+02 -0.19105152404E+01  0.50528852807E+02  0.29999978591E+02 0.  0.
         12    1    3    3    0    0 -0.31124535945E+02  0.26091750501E+02  0.19105152404E+01  0.40659147193E+02  0.00000000000E+00 0. -1.
         11    1    4    4    0    0  0.12381884276E+01 -0.38708222101E+01  0.46062094859E+01  0.61427633239E+01  0.51100000000E-03 0. -1.
        -11    1    4    4    0    0  0.85803207755E+01 -0.14964404525E+02 -0.12253053500E+02  0.21158748255E+02  0.51100000000E-03 0.  1.
         12    1    4    4    0    0  0.21306026742E+02 -0.72565237657E+01  0.57363287735E+01  0.23227341227E+02  0.00000000000E+00 0. -1.
</event>
<event>
 8    1  0.7977359E-012  0.9118800E+02  0.7816164E-02  0.1184000E+00
        -11   -1    0    0    0    0  0.00000000000E+00  0.00000000000E+00  0.45593999997E+02  0.45594000000E+02  0.51100000000E-03 0. -1.
         11   -1    0    0    0    0 -0.00000000000E+00 -0.00000000000E+00 -0.45593999997E+02  0.45594000000E+02  0.51100000000E-03 0.  1.
         23    2    1    2    0    0  0.00000000000E+00  0.88817841970E-15  0.00000000000E+00  0.91188000000E+02  0.91188000000E+02 0.  0.
    9900012    2    3    3    0    0  0.27524966238E+02  0.39529319790E+01  0.29663385301E+02  0.50528857546E+02  0.29999992996E+02 0.  0.
        -12    1    3    3    0    0 -0.27524966238E+02 -0.39529319790E+01 -0.29663385301E+02  0.40659142454E+02  0.00000000000E+00 0.  1.
         11    1    4    4    0    0  0.34388672815E+01 -0.62821819097E+01 -0.18589427802E+01  0.73991409128E+01  0.51100000000E-03 0. -1.
        -11    1    4    4    0    0  0.17122478558E+02  0.13848717180E+01  0.13371086894E+02  0.21768856347E+02  0.51100000000E-03 0.  1.
         12    1    4    4    0    0  0.69636203976E+01  0.88502421707E+01  0.18151241187E+02  0.21360860286E+02  0.00000000000E+00 0. -1.
</event>
<event>
 8    1  0.7977359E-012  0.9118800E+02  0.7816164E-02  0.1184000E+00
        -11   -1    0    0    0    0  0.00000000000E+00  0.00000000000E+00  0.45593999997E+02  0.45594000000E+02  0.51100000000E-03 0. -1.
         11   -1    0    0    0    0 -0.00000000000E+00 -0.00000000000E+00 -0.45593999997E+02  0.45594000000E+02  0.51100000000E-03 0.  1.
         23    2    1    2    0    0  0.00000000000E+00 -0.35527136788E-14 -0.71054273576E-14  0.91188000000E+02  0.91188000000E+02 0.  0.
    9900012    2    3    3    0    0  0.12115570221E+02 -0.17700728199E+02  0.34540759368E+02  0.50528845086E+02  0.29999955124E+02 0.  0.
        -12    1    3    3    0    0 -0.12115570221E+02  0.17700728199E+02 -0.34540759368E+02  0.40659154914E+02  0.00000000000E+00 0.  1.
         11    1    4    4    0    0  0.71999459866E+01 -0.35418597400E+01  0.74497900283E+01  0.10949126191E+02  0.51100000000E-03 0. -1.
        -11    1    4    4    0    0  0.53926884140E+01 -0.64856068421E+01  0.30148345575E+02  0.31306020597E+02  0.51100000000E-03 0.  1.
         12    1    4    4    0    0 -0.47706417932E+00 -0.76732616171E+01 -0.30573762353E+01  0.82736982976E+01  0.00000000000E+00 0. -1.
</event>
<event>
 8    1  0.7977359E-012  0.9118800E+02  0.7816164E-02  0.1184000E+00
        -11   -1    0    0    0    0  0.00000000000E+00  0.00000000000E+00  0.45593999997E+02  0.45594000000E+02  0.51100000000E-03 0.  1.
         11   -1    0    0    0    0 -0.00000000000E+00 -0.00000000000E+00 -0.45593999997E+02  0.45594000000E+02  0.51100000000E-03 0. -1.
         23    2    1    2    0    0 -0.44408920985E-15  0.00000000000E+00  0.88817841970E-15  0.91188000000E+02  0.91188000000E+02 0.  0.
    9900012    2    3    3    0    0 -0.30646773144E+01 -0.40445881810E+02 -0.28115084180E+01  0.50528853649E+02  0.29999981151E+02 0.  0.
        -12    1    3    3    0    0  0.30646773144E+01  0.40445881810E+02  0.28115084180E+01  0.40659146351E+02  0.00000000000E+00 0.  1.
         11    1    4    4    0    0 -0.16867502032E+01 -0.29417098667E+02  0.65526472658E+01  0.30185228286E+02  0.51100000000E-03 0. -1.
        -11    1    4    4    0    0 -0.32720370947E+01 -0.43279232930E+01  0.29657482300E+01  0.61832685211E+01  0.51100000000E-03 0.  1.
        -12    1    4    4    0    0  0.18941099836E+01 -0.67008598502E+01 -0.12329903914E+02  0.14160356842E+02  0.00000000000E+00 0.  1.
</event>
<event>
 8    1  0.7977359E-012  0.9118800E+02  0.7816164E-02  0.1184000E+00
        -11   -1    0    0    0    0  0.00000000000E+00  0.00000000000E+00  0.45593999997E+02  0.45594000000E+02  0.51100000000E-03 0. -1.
         11   -1    0    0    0    0 -0.00000000000E+00 -0.00000000000E+00 -0.45593999997E+02  0.45594000000E+02  0.51100000000E-03 0.  1.
         23    2    1    2    0    0 -0.35527136788E-14  0.00000000000E+00  0.00000000000E+00  0.91188000000E+02  0.91188000000E+02 0.  0.
    9900012    2    3    3    0    0 -0.17246643760E+02 -0.26982701849E+02  0.25052995048E+02  0.50528862270E+02  0.30000007357E+02 0.  0.
        -12    1    3    3    0    0  0.17246643760E+02  0.26982701849E+02 -0.25052995048E+02  0.40659137730E+02  0.00000000000E+00 0.  1.
         11    1    4    4    0    0 -0.13810215084E+02 -0.11699415683E+02  0.12780185868E+02  0.22156974502E+02  0.51100000000E-03 0. -1.
        -11    1    4    4    0    0  0.58459260878E+01 -0.36774615039E+01  0.11593954406E+02  0.13495123340E+02  0.51100000000E-03 0.  1.
         12    1    4    4    0    0 -0.92823547637E+01 -0.11605824662E+02  0.67885477338E+00  0.14876764428E+02  0.00000000000E+00 0. -1.
</event>
<event>
 8    1  0.7977359E-012  0.9118800E+02  0.7816164E-02  0.1184000E+00
        -11   -1    0    0    0    0  0.00000000000E+00  0.00000000000E+00  0.45593999997E+02  0.45594000000E+02  0.51100000000E-03 0. -1.
         11   -1    0    0    0    0 -0.00000000000E+00 -0.00000000000E+00 -0.45593999997E+02  0.45594000000E+02  0.51100000000E-03 0.  1.
         23    2    1    2    0    0  0.35527136788E-14 -0.88817841970E-15  0.00000000000E+00  0.91188000000E+02  0.91188000000E+02 0.  0.
    9900012    2    3    3    0    0 -0.20245905729E+02 -0.13881330438E+01 -0.35232680703E+02  0.50528863245E+02  0.30000010319E+02 0.  0.
         12    1    3    3    0    0  0.20245905729E+02  0.13881330438E+01  0.35232680703E+02  0.40659136755E+02  0.00000000000E+00 0. -1.
         11    1    4    4    0    0 -0.61265609502E+01 -0.34382947882E+01 -0.30578749278E+01  0.76620636556E+01  0.51100000000E-03 0. -1.
        -11    1    4    4    0    0 -0.95506104128E+01 -0.10774411095E+02 -0.19707104908E+02  0.24406394199E+02  0.51100000000E-03 0.  1.
         12    1    4    4    0    0 -0.45687343663E+01  0.12824572840E+02 -0.12467700868E+02  0.18460405390E+02  0.00000000000E+00 0. -1.
</event>
<event>
 8    1  0.7977359E-012  0.9118800E+02  0.7816164E-02  0.1184000E+00
        -11   -1    0    0    0    0  0.00000000000E+00  0.00000000000E+00  0.45593999997E+02  0.45594000000E+02  0.51100000000E-03 0. -1.
         11   -1    0    0    0    0 -0.00000000000E+00 -0.00000000000E+00 -0.45593999997E+02  0.45594000000E+02  0.51100000000E-03 0.  1.
         23    2    1    2    0    0  0.00000000000E+00  0.00000000000E+00  0.00000000000E+00  0.91188000000E+02  0.91188000000E+02 0.  0.
    9900012    2    3    3    0    0  0.12723863876E+02  0.34265803558E+02  0.17807943967E+02  0.50528869737E+02  0.30000030054E+02 0.  0.
        -12    1    3    3    0    0 -0.12723863876E+02 -0.34265803558E+02 -0.17807943967E+02  0.40659130263E+02  0.00000000000E+00 0.  1.
         11    1    4    4    0    0  0.21784597590E+01  0.76735637572E+01 -0.48582064712E+01  0.93397771941E+01  0.51100000000E-03 0. -1.
        -11    1    4    4    0    0 -0.22769943368E+01  0.10625142487E+02  0.30909634407E+00  0.10870781797E+02  0.51100000000E-03 0.  1.
         12    1    4    4    0    0  0.12822398454E+02  0.15967097314E+02  0.22357054094E+02  0.30318310746E+02  0.00000000000E+00 0. -1.
</event>
<event>
 8    1  0.7977359E-012  0.9118800E+02  0.7816164E-02  0.1184000E+00
        -11   -1    0    0    0    0  0.00000000000E+00  0.00000000000E+00  0.45593999997E+02  0.45594000000E+02  0.51100000000E-03 0. -1.
         11   -1    0    0    0    0 -0.00000000000E+00 -0.00000000000E+00 -0.45593999997E+02  0.45594000000E+02  0.51100000000E-03 0.  1.
         23    2    1    2    0    0  0.00000000000E+00  0.00000000000E+00  0.00000000000E+00  0.91188000000E+02  0.91188000000E+02 0.  0.
    9900012    2    3    3    0    0  0.22385124605E+02 -0.85953711373E+01  0.32835842364E+02  0.50528846635E+02  0.29999959833E+02 0.  0.
        -12    1    3    3    0    0 -0.22385124605E+02  0.85953711373E+01 -0.32835842364E+02  0.40659153365E+02  0.00000000000E+00 0.  1.
         11    1    4    4    0    0  0.15389989482E+02 -0.10387153563E+02  0.14125813911E+02  0.23329881146E+02  0.51100000000E-03 0. -1.
        -11    1    4    4    0    0  0.65864064528E+01  0.35370299538E+01 -0.87949572762E+00  0.75276054527E+01  0.51100000000E-03 0.  1.
         12    1    4    4    0    0  0.40872867058E+00 -0.17452475279E+01  0.19589524181E+02  0.19671360037E+02  0.00000000000E+00 0. -1.
</event>
<event>
 8    1  0.7977359E-012  0.9118800E+02  0.7816164E-02  0.1184000E+00
        -11   -1    0    0    0    0  0.00000000000E+00  0.00000000000E+00  0.45593999997E+02  0.45594000000E+02  0.51100000000E-03 0.  1.
         11   -1    0    0    0    0 -0.00000000000E+00 -0.00000000000E+00 -0.45593999997E+02  0.45594000000E+02  0.51100000000E-03 0. -1.
         23    2    1    2    0    0 -0.35527136788E-14  0.00000000000E+00  0.00000000000E+00  0.91188000000E+02  0.91188000000E+02 0.  0.
    9900012    2    3    3    0    0  0.25147469718E+02  0.31543966136E+02 -0.50744067679E+01  0.50528848055E+02  0.29999964149E+02 0.  0.
        -12    1    3    3    0    0 -0.25147469718E+02 -0.31543966136E+02  0.50744067679E+01  0.40659151945E+02  0.00000000000E+00 0.  1.
         11    1    4    4    0    0  0.67864319136E+01  0.73588708663E+01  0.77953470223E+01  0.12687634689E+02  0.51100000000E-03 0. -1.
        -11    1    4    4    0    0  0.22629695118E+01  0.15062306043E+02  0.12294764786E+00  0.15231848565E+02  0.51100000000E-03 0.  1.
         12    1    4    4    0    0  0.16098068293E+02  0.91227892267E+01 -0.12992701438E+02  0.22609364801E+02  0.00000000000E+00 0. -1.
</event>
<event>
 8    1  0.7977359E-012  0.9118800E+02  0.7816164E-02  0.1184000E+00
        -11   -1    0    0    0    0  0.00000000000E+00  0.00000000000E+00  0.45593999997E+02  0.45594000000E+02  0.51100000000E-03 0. -1.
         11   -1    0    0    0    0 -0.00000000000E+00 -0.00000000000E+00 -0.45593999997E+02  0.45594000000E+02  0.51100000000E-03 0.  1.
         23    2    1    2    0    0  0.00000000000E+00  0.88817841970E-15 -0.35527136788E-14  0.91188000000E+02  0.91188000000E+02 0.  0.
    9900012    2    3    3    0    0 -0.32089303976E+02 -0.40064384780E+01  0.24645313108E+02  0.50528850511E+02  0.29999971613E+02 0.  0.
        -12    1    3    3    0    0  0.32089303976E+02  0.40064384780E+01 -0.24645313108E+02  0.40659149489E+02  0.00000000000E+00 0.  1.
         11    1    4    4    0    0 -0.13443203776E+02  0.12662448030E+01  0.16039774839E+02  0.20966580094E+02  0.51100000000E-03 0. -1.
        -11    1    4    4    0    0 -0.14207426815E+02  0.32249744202E+01 -0.26172635258E+01  0.14802077737E+02  0.51100000000E-03 0.  1.
         12    1    4    4    0    0 -0.44386733853E+01 -0.84976577011E+01  0.11222801795E+02  0.14760192680E+02  0.00000000000E+00 0. -1.
</event>
<event>
 8    1  0.7977359E-012  0.9118800E+02  0.7816164E-02  0.1184000E+00
        -11   -1    0    0    0    0  0.00000000000E+00  0.00000000000E+00  0.45593999997E+02  0.45594000000E+02  0.51100000000E-03 0. -1.
         11   -1    0    0    0    0 -0.00000000000E+00 -0.00000000000E+00 -0.45593999997E+02  0.45594000000E+02  0.51100000000E-03 0.  1.
         23    2    1    2    0    0  0.35527136788E-14  0.17763568394E-14  0.35527136788E-14  0.91188000000E+02  0.91188000000E+02 0.  0.
    9900012    2    3    3    0    0 -0.29116369981E+02 -0.14669684395E+02 -0.24294085564E+02  0.50528865301E+02  0.30000016568E+02 0.  0.
         12    1    3    3    0    0  0.29116369981E+02  0.14669684395E+02  0.24294085564E+02  0.40659134699E+02  0.00000000000E+00 0. -1.
         11    1    4    4    0    0 -0.94275726770E+01 -0.25203771551E+01  0.48018565008E+00  0.97704660126E+01  0.51100000000E-03 0. -1.
        -11    1    4    4    0    0 -0.16236345739E+02 -0.12290198249E+02 -0.53846328794E+01  0.21063289569E+02  0.51100000000E-03 0.  1.
        -12    1    4    4    0    0 -0.34524515647E+01  0.14089100914E+00 -0.19389638335E+02  0.19695109719E+02  0.00000000000E+00 0.  1.
</event>
<event>
 8    1  0.7977359E-012  0.9118800E+02  0.7816164E-02  0.1184000E+00
        -11   -1    0    0    0    0  0.00000000000E+00  0.00000000000E+00  0.45593999997E+02  0.45594000000E+02  0.51100000000E-03 0. -1.
         11   -1    0    0    0    0 -0.00000000000E+00 -0.00000000000E+00 -0.45593999997E+02  0.45594000000E+02  0.51100000000E-03 0.  1.
         23    2    1    2    0    0  0.00000000000E+00  0.00000000000E+00 -0.35527136788E-14  0.91188000000E+02  0.91188000000E+02 0.  0.
    9900012    2    3    3    0    0 -0.50002354481E+01 -0.27003527592E+02 -0.29982907780E+02  0.50528836016E+02  0.29999927554E+02 0.  0.
         12    1    3    3    0    0  0.50002354481E+01  0.27003527592E+02  0.29982907780E+02  0.40659163984E+02  0.00000000000E+00 0. -1.
         11    1    4    4    0    0 -0.33531216326E-01  0.10940676522E+01 -0.24448120435E+00  0.11215523574E+01  0.51100000000E-03 0. -1.
        -11    1    4    4    0    0  0.96387675477E+01 -0.26947930074E+01 -0.57823252578E+01  0.11558677902E+02  0.51100000000E-03 0.  1.
        -12    1    4    4    0    0 -0.14605471780E+02 -0.25402802236E+02 -0.23956101318E+02  0.37848605757E+02  0.00000000000E+00 0.  1.
</event>
<event>
 8    1  0.7977359E-012  0.9118800E+02  0.7816164E-02  0.1184000E+00
        -11   -1    0    0    0    0  0.00000000000E+00  0.00000000000E+00  0.45593999997E+02  0.45594000000E+02  0.51100000000E-03 0. -1.
         11   -1    0    0    0    0 -0.00000000000E+00 -0.00000000000E+00 -0.45593999997E+02  0.45594000000E+02  0.51100000000E-03 0.  1.
         23    2    1    2    0    0 -0.71054273576E-14  0.00000000000E+00 -0.11102230246E-15  0.91188000000E+02  0.91188000000E+02 0.  0.
    9900012    2    3    3    0    0 -0.37883571738E+02 -0.14745696611E+02 -0.75153942553E+00  0.50528863417E+02  0.30000010842E+02 0.  0.
         12    1    3    3    0    0  0.37883571738E+02  0.14745696611E+02  0.75153942553E+00  0.40659136583E+02  0.00000000000E+00 0. -1.
         11    1    4    4    0    0 -0.20091613601E+02 -0.48679754490E+00  0.54851046395E+00  0.20104993731E+02  0.51100000000E-03 0. -1.
        -11    1    4    4    0    0 -0.18906639202E+02 -0.30741792087E+01 -0.69916025597E+00  0.19167691803E+02  0.51100000000E-03 0.  1.
         12    1    4    4    0    0  0.11146810652E+01 -0.11184719858E+02 -0.60088963351E+00  0.11256177882E+02  0.00000000000E+00 0. -1.
</event>
<event>
 8    1  0.7977359E-012  0.9118800E+02  0.7816164E-02  0.1184000E+00
        -11   -1    0    0    0    0  0.00000000000E+00  0.00000000000E+00  0.45593999997E+02  0.45594000000E+02  0.51100000000E-03 0. -1.
         11   -1    0    0    0    0 -0.00000000000E+00 -0.00000000000E+00 -0.45593999997E+02  0.45594000000E+02  0.51100000000E-03 0.  1.
         23    2    1    2    0    0  0.00000000000E+00  0.00000000000E+00  0.00000000000E+00  0.91188000000E+02  0.91188000000E+02 0.  0.
    9900012    2    3    3    0    0  0.22925000710E+02  0.91346534950E+00  0.33567392584E+02  0.50528930638E+02  0.30000215167E+02 0.  0.
        -12    1    3    3    0    0 -0.22925000710E+02 -0.91346534950E+00 -0.33567392584E+02  0.40659069362E+02  0.00000000000E+00 0.  1.
         11    1    4    4    0    0  0.72653904197E+01 -0.88996798241E+00 -0.26185802425E+00  0.73243778471E+01  0.51100000000E-03 0. -1.
        -11    1    4    4    0    0  0.39546250112E+00  0.40439067640E+01 -0.17503109791E+01  0.44241565626E+01  0.51100000000E-03 0.  1.
         12    1    4    4    0    0  0.15264147789E+02 -0.22404734321E+01  0.35579561587E+02  0.38780396229E+02  0.00000000000E+00 0. -1.
</event>
<event>
 8    1  0.7977359E-012  0.9118800E+02  0.7816164E-02  0.1184000E+00
        -11   -1    0    0    0    0  0.00000000000E+00  0.00000000000E+00  0.45593999997E+02  0.45594000000E+02  0.51100000000E-03 0. -1.
         11   -1    0    0    0    0 -0.00000000000E+00 -0.00000000000E+00 -0.45593999997E+02  0.45594000000E+02  0.51100000000E-03 0.  1.
         23    2    1    2    0    0 -0.71054273576E-14 -0.88817841970E-15  0.00000000000E+00  0.91188000000E+02  0.91188000000E+02 0.  0.
    9900012    2    3    3    0    0  0.35720092549E+02  0.59341228835E+01  0.18493961054E+02  0.50528863000E+02  0.30000009576E+02 0.  0.
        -12    1    3    3    0    0 -0.35720092549E+02 -0.59341228835E+01 -0.18493961054E+02  0.40659137000E+02  0.00000000000E+00 0.  1.
         11    1    4    4    0    0  0.19331909844E+02  0.10548375353E+01  0.26853123181E+01  0.19546005294E+02  0.51100000000E-03 0. -1.
        -11    1    4    4    0    0  0.76901815015E+01 -0.51442987363E+01  0.15079378572E+02  0.17691533551E+02  0.51100000000E-03 0.  1.
         12    1    4    4    0    0  0.86980012035E+01  0.10023584085E+02  0.72927016388E+00  0.13291324156E+02  0.00000000000E+00 0. -1.
</event>
<event>
 8    1  0.7977359E-012  0.9118800E+02  0.7816164E-02  0.1184000E+00
        -11   -1    0    0    0    0  0.00000000000E+00  0.00000000000E+00  0.45593999997E+02  0.45594000000E+02  0.51100000000E-03 0.  1.
         11   -1    0    0    0    0 -0.00000000000E+00 -0.00000000000E+00 -0.45593999997E+02  0.45594000000E+02  0.51100000000E-03 0. -1.
         23    2    1    2    0    0  0.00000000000E+00  0.00000000000E+00  0.17763568394E-14  0.91188000000E+02  0.91188000000E+02 0.  0.
    9900012    2    3    3    0    0 -0.25984956549E+02 -0.27253380963E+02  0.15336235115E+02  0.50528870050E+02  0.30000031005E+02 0.  0.
        -12    1    3    3    0    0  0.25984956549E+02  0.27253380963E+02 -0.15336235115E+02  0.40659129950E+02  0.00000000000E+00 0.  1.
         11    1    4    4    0    0 -0.20364291528E+01 -0.12369840213E+01 -0.33721389850E+01  0.41289822909E+01  0.51100000000E-03 0. -1.
        -11    1    4    4    0    0 -0.87891707881E+01 -0.49849069699E+01  0.17788638104E+02  0.20458114930E+02  0.51100000000E-03 0.  1.
         12    1    4    4    0    0 -0.15159356608E+02 -0.21031489972E+02  0.91973599610E+00  0.25941772829E+02  0.00000000000E+00 0. -1.
</event>
<event>
 8    1  0.7977359E-012  0.9118800E+02  0.7816164E-02  0.1184000E+00
        -11   -1    0    0    0    0  0.00000000000E+00  0.00000000000E+00  0.45593999997E+02  0.45594000000E+02  0.51100000000E-03 0. -1.
         11   -1    0    0    0    0 -0.00000000000E+00 -0.00000000000E+00 -0.45593999997E+02  0.45594000000E+02  0.51100000000E-03 0.  1.
         23    2    1    2    0    0  0.00000000000E+00 -0.35527136788E-14 -0.35527136788E-14  0.91188000000E+02  0.91188000000E+02 0.  0.
    9900012    2    3    3    0    0  0.24742399849E+02  0.21365389118E+02  0.24176430317E+02  0.50528856067E+02  0.29999988502E+02 0.  0.
        -12    1    3    3    0    0 -0.24742399849E+02 -0.21365389118E+02 -0.24176430317E+02  0.40659143933E+02  0.00000000000E+00 0.  1.
         11    1    4    4    0    0 -0.95849084619E+00 -0.35761583142E+01  0.24281873553E+01  0.44276073769E+01  0.51100000000E-03 0. -1.
        -11    1    4    4    0    0 -0.50819214248E+00 -0.23850455579E+01  0.29515703848E+01  0.38286380822E+01  0.51100000000E-03 0.  1.
        -12    1    4    4    0    0  0.26209082838E+02  0.27326592990E+02  0.18796672577E+02  0.42272610608E+02  0.00000000000E+00 0.  1.
</event>
<event>
 8    1  0.7977359E-012  0.9118800E+02  0.7816164E-02  0.1184000E+00
        -11   -1    0    0    0    0  0.00000000000E+00  0.00000000000E+00  0.45593999997E+02  0.45594000000E+02  0.51100000000E-03 0.  1.
         11   -1    0    0    0    0 -0.00000000000E+00 -0.00000000000E+00 -0.45593999997E+02  0.45594000000E+02  0.51100000000E-03 0. -1.
         23    2    1    2    0    0 -0.44408920985E-15  0.00000000000E+00 -0.17763568394E-14  0.91188000000E+02  0.91188000000E+02 0.  0.
    9900012    2    3    3    0    0  0.35408252172E+01  0.39473553541E+02  0.90810904575E+01  0.50528867246E+02  0.30000022481E+02 0.  0.
         12    1    3    3    0    0 -0.35408252172E+01 -0.39473553541E+02 -0.90810904575E+01  0.40659132754E+02  0.00000000000E+00 0. -1.
         11    1    4    4    0    0  0.56620191800E+01  0.19065290931E+02 -0.43227027465E+01  0.20352629776E+02  0.51100000000E-03 0. -1.
        -11    1    4    4    0    0  0.50053760768E+01  0.19000057131E+02  0.11037168653E+02  0.22536083351E+02  0.51100000000E-03 0.  1.
        -12    1    4    4    0    0 -0.71265700396E+01  0.14082054786E+01  0.23666245512E+01  0.76401541192E+01  0.00000000000E+00 0.  1.
</event>
<event>
 8    1  0.7977359E-012  0.9118800E+02  0.7816164E-02  0.1184000E+00
        -11   -1    0    0    0    0  0.00000000000E+00  0.00000000000E+00  0.45593999997E+02  0.45594000000E+02  0.51100000000E-03 0. -1.
         11   -1    0    0    0    0 -0.00000000000E+00 -0.00000000000E+00 -0.45593999997E+02  0.45594000000E+02  0.51100000000E-03 0.  1.
         23    2    1    2    0    0  0.35527136788E-14  0.44408920985E-15  0.00000000000E+00  0.91188000000E+02  0.91188000000E+02 0.  0.
    9900012    2    3    3    0    0 -0.17082842391E+02  0.14661312898E+01 -0.36867241278E+02  0.50528849437E+02  0.29999968347E+02 0.  0.
         12    1    3    3    0    0  0.17082842391E+02 -0.14661312898E+01  0.36867241278E+02  0.40659150563E+02  0.00000000000E+00 0. -1.
         11    1    4    4    0    0  0.27734146264E+00  0.44192720988E+01  0.29808020751E+00  0.44379878596E+01  0.51100000000E-03 0. -1.
        -11    1    4    4    0    0  0.25207918275E+01  0.50825296827E+01 -0.59650791283E+01  0.82321727801E+01  0.51100000000E-03 0.  1.
         12    1    4    4    0    0 -0.19880975681E+02 -0.80356704917E+01 -0.31200242357E+02  0.37858688797E+02  0.00000000000E+00 0. -1.
</event>
<event>
 8    1  0.7977359E-012  0.9118800E+02  0.7816164E-02  0.1184000E+00
        -11   -1    0    0    0    0  0.00000000000E+00  0.00000000000E+00  0.45593999997E+02  0.45594000000E+02  0.51100000000E-03 0. -1.
         11   -1    0    0    0    0 -0.00000000000E+00 -0.00000000000E+00 -0.45593999997E+02  0.45594000000E+02  0.51100000000E-03 0.  1.
         23    2    1    2    0    0  0.00000000000E+00  0.00000000000E+00 -0.35527136788E-14  0.91188000000E+02  0.91188000000E+02 0.  0.
    9900012    2    3    3    0    0  0.22242750283E+02 -0.19310554432E+02  0.28027153382E+02  0.50528944682E+02  0.30000257856E+02 0.  0.
        -12    1    3    3    0    0 -0.22242750283E+02  0.19310554432E+02 -0.28027153382E+02  0.40659055318E+02  0.00000000000E+00 0.  1.
         11    1    4    4    0    0 -0.45538159837E+01 -0.79484659592E+01  0.46515015894E+01  0.10273841463E+02  0.51100000000E-03 0.  1.
        -11    1    4    4    0    0 -0.15032207764E+01  0.23462571346E+00 -0.33374151801E+00  0.15575960933E+01  0.51100000000E-03 0. -1.
         12    1    4    4    0    0  0.28299787043E+02 -0.11596714187E+02  0.23709393310E+02  0.38697507126E+02  0.00000000000E+00 0. -1.
</event>
<event>
 8    1  0.7977359E-012  0.9118800E+02  0.7816164E-02  0.1184000E+00
        -11   -1    0    0    0    0  0.00000000000E+00  0.00000000000E+00  0.45593999997E+02  0.45594000000E+02  0.51100000000E-03 0. -1.
         11   -1    0    0    0    0 -0.00000000000E+00 -0.00000000000E+00 -0.45593999997E+02  0.45594000000E+02  0.51100000000E-03 0.  1.
         23    2    1    2    0    0  0.00000000000E+00  0.00000000000E+00 -0.35527136788E-14  0.91188000000E+02  0.91188000000E+02 0.  0.
    9900012    2    3    3    0    0  0.33685769187E+02  0.12297513739E+02  0.19162604120E+02  0.50528864661E+02  0.30000014622E+02 0.  0.
        -12    1    3    3    0    0 -0.33685769187E+02 -0.12297513739E+02 -0.19162604120E+02  0.40659135339E+02  0.00000000000E+00 0.  1.
         11    1    4    4    0    0 -0.13195096178E+01  0.16473913045E+01 -0.47072061081E+01  0.51587588960E+01  0.51100000000E-03 0. -1.
        -11    1    4    4    0    0  0.13490437843E+01  0.17201943173E+00  0.54122137998E+01  0.55804630895E+01  0.51100000000E-03 0.  1.
         12    1    4    4    0    0  0.33656235021E+02  0.10478103002E+02  0.18457596428E+02  0.39789642675E+02  0.00000000000E+00 0. -1.
</event>
<event>
 8    1  0.7977359E-012  0.9118800E+02  0.7816164E-02  0.1184000E+00
        -11   -1    0    0    0    0  0.00000000000E+00  0.00000000000E+00  0.45593999997E+02  0.45594000000E+02  0.51100000000E-03 0. -1.
         11   -1    0    0    0    0 -0.00000000000E+00 -0.00000000000E+00 -0.45593999997E+02  0.45594000000E+02  0.51100000000E-03 0.  1.
         23    2    1    2    0    0  0.00000000000E+00  0.00000000000E+00  0.00000000000E+00  0.91188000000E+02  0.91188000000E+02 0.  0.
    9900012    2    3    3    0    0 -0.13904021352E+02  0.30708930522E+02 -0.22733359534E+02  0.50528857617E+02  0.29999993214E+02 0.  0.
         12    1    3    3    0    0  0.13904021352E+02 -0.30708930522E+02  0.22733359534E+02  0.40659142383E+02  0.00000000000E+00 0. -1.
         11    1    4    4    0    0  0.58112155970E+01  0.10274987193E+02 -0.12777654865E+02  0.17395805604E+02  0.51100000000E-03 0. -1.
        -11    1    4    4    0    0 -0.17849538278E+01  0.28515968053E+00 -0.55081866617E+01  0.57971973204E+01  0.51100000000E-03 0.  1.
         12    1    4    4    0    0 -0.17930283121E+02  0.20148783649E+02 -0.44475180079E+01  0.27335854693E+02  0.00000000000E+00 0. -1.
</event>
<event>
 8    1  0.7977359E-012  0.9118800E+02  0.7816164E-02  0.1184000E+00
        -11   -1    0    0    0    0  0.00000000000E+00  0.00000000000E+00  0.45593999997E+02  0.45594000000E+02  0.51100000000E-03 0. -1.
         11   -1    0    0    0    0 -0.00000000000E+00 -0.00000000000E+00 -0.45593999997E+02  0.45594000000E+02  0.51100000000E-03 0.  1.
         23    2    1    2    0    0  0.00000000000E+00  0.00000000000E+00  0.00000000000E+00  0.91188000000E+02  0.91188000000E+02 0.  0.
    9900012    2    3    3    0    0  0.21691408522E+02  0.23576435928E+02 -0.25035949160E+02  0.50528876976E+02  0.30000052056E+02 0.  0.
         12    1    3    3    0    0 -0.21691408522E+02 -0.23576435928E+02  0.25035949160E+02  0.40659123024E+02  0.00000000000E+00 0. -1.
         11    1    4    4    0    0 -0.28293453055E+01  0.38575821186E+01 -0.42647275339E+01  0.64089028592E+01  0.51100000000E-03 0. -1.
        -11    1    4    4    0    0 -0.20723926879E+01 -0.32027668680E+01 -0.19202678879E+01  0.42708261597E+01  0.51100000000E-03 0.  1.
        -12    1    4    4    0    0  0.26593146516E+02  0.22921620678E+02 -0.18850953738E+02  0.39849147957E+02  0.00000000000E+00 0.  1.
</event>
<event>
 8    1  0.7977359E-012  0.9118800E+02  0.7816164E-02  0.1184000E+00
        -11   -1    0    0    0    0  0.00000000000E+00  0.00000000000E+00  0.45593999997E+02  0.45594000000E+02  0.51100000000E-03 0.  1.
         11   -1    0    0    0    0 -0.00000000000E+00 -0.00000000000E+00 -0.45593999997E+02  0.45594000000E+02  0.51100000000E-03 0. -1.
         23    2    1    2    0    0  0.00000000000E+00 -0.66613381478E-15 -0.35527136788E-14  0.91188000000E+02  0.91188000000E+02 0.  0.
    9900012    2    3    3    0    0  0.36068586603E+02 -0.15074611130E+01 -0.18706928221E+02  0.50528873817E+02  0.30000042454E+02 0.  0.
        -12    1    3    3    0    0 -0.36068586603E+02  0.15074611130E+01  0.18706928221E+02  0.40659126183E+02  0.00000000000E+00 0.  1.
         11    1    4    4    0    0  0.19411170355E+02 -0.45343929177E+01 -0.18493831411E+02  0.27191470248E+02  0.51100000000E-03 0. -1.
        -11    1    4    4    0    0  0.11047071026E+02  0.78082166892E+01 -0.51395298959E+01  0.14471378439E+02  0.51100000000E-03 0.  1.
        -12    1    4    4    0    0  0.56103452214E+01 -0.47812848845E+01  0.49264330866E+01  0.88660251300E+01  0.00000000000E+00 0.  1.
</event>
<event>
 8    1  0.7977359E-012  0.9118800E+02  0.7816164E-02  0.1184000E+00
        -11   -1    0    0    0    0  0.00000000000E+00  0.00000000000E+00  0.45593999997E+02  0.45594000000E+02  0.51100000000E-03 0. -1.
         11   -1    0    0    0    0 -0.00000000000E+00 -0.00000000000E+00 -0.45593999997E+02  0.45594000000E+02  0.51100000000E-03 0.  1.
         23    2    1    2    0    0 -0.88817841970E-15  0.00000000000E+00 -0.71054273576E-14  0.91188000000E+02  0.91188000000E+02 0.  0.
    9900012    2    3    3    0    0 -0.31338741386E+01  0.15281429688E+02  0.37547605022E+02  0.50528857076E+02  0.29999991567E+02 0.  0.
        -12    1    3    3    0    0  0.31338741386E+01 -0.15281429688E+02 -0.37547605022E+02  0.40659142924E+02  0.00000000000E+00 0.  1.
         11    1    4    4    0    0 -0.53164600501E+01  0.46704336060E+01  0.43190779922E+01  0.82904844549E+01  0.51100000000E-03 0. -1.
        -11    1    4    4    0    0 -0.15289398402E+01  0.27819223081E+01 -0.33691722952E+01  0.46290464438E+01  0.51100000000E-03 0.  1.
         12    1    4    4    0    0  0.37115257518E+01  0.78290737740E+01  0.36597699325E+02  0.37609326177E+02  0.00000000000E+00 0. -1.
</event>
<event>
 8    1  0.7977359E-012  0.9118800E+02  0.7816164E-02  0.1184000E+00
        -11   -1    0    0    0    0  0.00000000000E+00  0.00000000000E+00  0.45593999997E+02  0.45594000000E+02  0.51100000000E-03 0. -1.
         11   -1    0    0    0    0 -0.00000000000E+00 -0.00000000000E+00 -0.45593999997E+02  0.45594000000E+02  0.51100000000E-03 0.  1.
         23    2    1    2    0    0  0.00000000000E+00  0.00000000000E+00  0.17763568394E-14  0.91188000000E+02  0.91188000000E+02 0.  0.
    9900012    2    3    3    0    0  0.11690186793E+02 -0.36591323500E+02 -0.13325928975E+02  0.50528858275E+02  0.29999995214E+02 0.  0.
         12    1    3    3    0    0 -0.11690186793E+02  0.36591323500E+02  0.13325928975E+02  0.40659141725E+02  0.00000000000E+00 0. -1.
         11    1    4    4    0    0  0.11848600238E+02 -0.15741081879E+02 -0.43859335610E+01  0.20184335505E+02  0.51100000000E-03 0.  1.
        -11    1    4    4    0    0  0.94388160412E+00  0.38480899578E+01 -0.28554441145E+01  0.48838785978E+01  0.51100000000E-03 0. -1.
         12    1    4    4    0    0 -0.11022950494E+01 -0.24698331579E+02 -0.60845512998E+01  0.25460644172E+02  0.00000000000E+00 0. -1.
</event>
<event>
 8    1  0.7977359E-012  0.9118800E+02  0.7816164E-02  0.1184000E+00
        -11   -1    0    0    0    0  0.00000000000E+00  0.00000000000E+00  0.45593999997E+02  0.45594000000E+02  0.51100000000E-03 0. -1.
         11   -1    0    0    0    0 -0.00000000000E+00 -0.00000000000E+00 -0.45593999997E+02  0.45594000000E+02  0.51100000000E-03 0.  1.
         23    2    1    2    0    0  0.16098233857E-14  0.00000000000E+00  0.00000000000E+00  0.91188000000E+02  0.91188000000E+02 0.  0.
    9900012    2    3    3    0    0 -0.31143385142E+00 -0.62570243848E+01 -0.40173606996E+02  0.50528855342E+02  0.29999986299E+02 0.  0.
         12    1    3    3    0    0  0.31143385142E+00  0.62570243848E+01  0.40173606996E+02  0.40659144658E+02  0.00000000000E+00 0. -1.
         11    1    4    4    0    0 -0.58917346812E+01 -0.22702832167E+01 -0.66557371991E+01  0.91741790566E+01  0.51100000000E-03 0. -1.
        -11    1    4    4    0    0 -0.34887187185E+01 -0.92711846541E+01 -0.52715666330E+01  0.11221204847E+02  0.51100000000E-03 0.  1.
         12    1    4    4    0    0  0.90690195484E+01  0.52844434861E+01 -0.28246303164E+02  0.30133471439E+02  0.00000000000E+00 0. -1.
</event>
<event>
 8    1  0.7977359E-012  0.9118800E+02  0.7816164E-02  0.1184000E+00
        -11   -1    0    0    0    0  0.00000000000E+00  0.00000000000E+00  0.45593999997E+02  0.45594000000E+02  0.51100000000E-03 0. -1.
         11   -1    0    0    0    0 -0.00000000000E+00 -0.00000000000E+00 -0.45593999997E+02  0.45594000000E+02  0.51100000000E-03 0.  1.
         23    2    1    2    0    0 -0.17763568394E-14  0.00000000000E+00 -0.71054273576E-14  0.91188000000E+02  0.91188000000E+02 0.  0.
    9900012    2    3    3    0    0 -0.99419272991E+01  0.22966191670E+02 -0.32044933876E+02  0.50528860002E+02  0.30000000463E+02 0.  0.
         12    1    3    3    0    0  0.99419272991E+01 -0.22966191670E+02  0.32044933876E+02  0.40659139998E+02  0.00000000000E+00 0. -1.
         11    1    4    4    0    0 -0.78583099824E-02 -0.55489809095E+00 -0.63014421580E+00  0.83967591260E+00  0.51100000000E-03 0. -1.
        -11    1    4    4    0    0 -0.39796739993E+01  0.32160111422E+01  0.52661204462E+01  0.73425171176E+01  0.51100000000E-03 0.  1.
        -12    1    4    4    0    0 -0.59543949898E+01  0.20305078619E+02 -0.36680910106E+02  0.42346666972E+02  0.00000000000E+00 0.  1.
</event>
<event>
 8    1  0.7977359E-012  0.9118800E+02  0.7816164E-02  0.1184000E+00
        -11   -1    0    0    0    0  0.00000000000E+00  0.00000000000E+00  0.45593999997E+02  0.45594000000E+02  0.51100000000E-03 0. -1.
         11   -1    0    0    0    0 -0.00000000000E+00 -0.00000000000E+00 -0.45593999997E+02  0.45594000000E+02  0.51100000000E-03 0.  1.
         23    2    1    2    0    0  0.71054273576E-14  0.44408920985E-15  0.35527136788E-14  0.91188000000E+02  0.91188000000E+02 0.  0.
    9900012    2    3    3    0    0  0.33409051688E+02 -0.24724891320E+01  0.23041005169E+02  0.50528857653E+02  0.29999993322E+02 0.  0.
        -12    1    3    3    0    0 -0.33409051688E+02  0.24724891320E+01 -0.23041005169E+02  0.40659142347E+02  0.00000000000E+00 0.  1.
         11    1    4    4    0    0  0.27839482294E+01 -0.36061510327E+01  0.83018549404E+01  0.94697142896E+01  0.51100000000E-03 0. -1.
        -11    1    4    4    0    0  0.86941012409E+01 -0.96169521722E+01  0.95179334477E+01  0.16083041467E+02  0.51100000000E-03 0.  1.
        -12    1    4    4    0    0  0.21931002218E+02  0.10750614073E+02  0.52212167804E+01  0.24976101896E+02  0.00000000000E+00 0.  1.
</event>
<event>
 8    1  0.7977359E-012  0.9118800E+02  0.7816164E-02  0.1184000E+00
        -11   -1    0    0    0    0  0.00000000000E+00  0.00000000000E+00  0.45593999997E+02  0.45594000000E+02  0.51100000000E-03 0. -1.
         11   -1    0    0    0    0 -0.00000000000E+00 -0.00000000000E+00 -0.45593999997E+02  0.45594000000E+02  0.51100000000E-03 0.  1.
         23    2    1    2    0    0  0.00000000000E+00  0.00000000000E+00  0.00000000000E+00  0.91188000000E+02  0.91188000000E+02 0.  0.
    9900012    2    3    3    0    0  0.14739190587E+02  0.22826016012E+02  0.30247229394E+02  0.50528860410E+02  0.30000001703E+02 0.  0.
        -12    1    3    3    0    0 -0.14739190587E+02 -0.22826016012E+02 -0.30247229394E+02  0.40659139590E+02  0.00000000000E+00 0.  1.
         11    1    4    4    0    0  0.25615857718E+01  0.90728372078E+01  0.23150327255E+02  0.24996314708E+02  0.51100000000E-03 0. -1.
        -11    1    4    4    0    0 -0.22969797611E+01 -0.33274954038E+00  0.46378682186E+01  0.51861990083E+01  0.51100000000E-03 0.  1.
        -12    1    4    4    0    0  0.14474584577E+02  0.14085928345E+02  0.24590339200E+01  0.20346346695E+02  0.00000000000E+00 0.  1.
</event>
<event>
 8    1  0.7977359E-012  0.9118800E+02  0.7816164E-02  0.1184000E+00
        -11   -1    0    0    0    0  0.00000000000E+00  0.00000000000E+00  0.45593999997E+02  0.45594000000E+02  0.51100000000E-03 0. -1.
         11   -1    0    0    0    0 -0.00000000000E+00 -0.00000000000E+00 -0.45593999997E+02  0.45594000000E+02  0.51100000000E-03 0.  1.
         23    2    1    2    0    0  0.00000000000E+00  0.35527136788E-14  0.00000000000E+00  0.91188000000E+02  0.91188000000E+02 0.  0.
    9900012    2    3    3    0    0  0.19178438737E+02  0.19437559562E+02 -0.30125314173E+02  0.50528858493E+02  0.29999995875E+02 0.  0.
         12    1    3    3    0    0 -0.19178438737E+02 -0.19437559562E+02  0.30125314173E+02  0.40659141507E+02  0.00000000000E+00 0. -1.
         11    1    4    4    0    0 -0.46483709071E+01 -0.11947974593E+01 -0.34580382685E+01  0.59154815515E+01  0.51100000000E-03 0. -1.
        -11    1    4    4    0    0 -0.21388980814E+00  0.88883093026E+01 -0.51189068418E+01  0.10259190934E+02  0.51100000000E-03 0.  1.
        -12    1    4    4    0    0  0.24040699452E+02  0.11744047718E+02 -0.21548369063E+02  0.34354186007E+02  0.00000000000E+00 0.  1.
</event>
<event>
 8    1  0.7977359E-012  0.9118800E+02  0.7816164E-02  0.1184000E+00
        -11   -1    0    0    0    0  0.00000000000E+00  0.00000000000E+00  0.45593999997E+02  0.45594000000E+02  0.51100000000E-03 0. -1.
         11   -1    0    0    0    0 -0.00000000000E+00 -0.00000000000E+00 -0.45593999997E+02  0.45594000000E+02  0.51100000000E-03 0.  1.
         23    2    1    2    0    0  0.17763568394E-14 -0.35527136788E-14  0.00000000000E+00  0.91188000000E+02  0.91188000000E+02 0.  0.
    9900012    2    3    3    0    0 -0.13168389696E+02  0.29997469427E+02  0.24081313124E+02  0.50528876780E+02  0.30000051461E+02 0.  0.
        -12    1    3    3    0    0  0.13168389696E+02 -0.29997469427E+02 -0.24081313124E+02  0.40659123220E+02  0.00000000000E+00 0.  1.
         11    1    4    4    0    0 -0.35459826649E+01  0.95565293673E+01  0.60025524671E+01  0.11829280747E+02  0.51100000000E-03 0. -1.
        -11    1    4    4    0    0 -0.48716937948E+01  0.15579380397E+02 -0.29604418713E+01  0.16589596448E+02  0.51100000000E-03 0.  1.
         12    1    4    4    0    0 -0.47507132363E+01  0.48615596630E+01  0.21039202529E+02  0.22109999585E+02  0.00000000000E+00 0. -1.
</event>
<event>
 8    1  0.7977359E-012  0.9118800E+02  0.7816164E-02  0.1184000E+00
        -11   -1    0    0    0    0  0.00000000000E+00  0.00000000000E+00  0.45593999997E+02  0.45594000000E+02  0.51100000000E-03 0. -1.
         11   -1    0    0    0    0 -0.00000000000E+00 -0.00000000000E+00 -0.45593999997E+02  0.45594000000E+02  0.51100000000E-03 0.  1.
         23    2    1    2    0    0  0.00000000000E+00 -0.71054273576E-14  0.88817841970E-15  0.91188000000E+02  0.91188000000E+02 0.  0.
    9900012    2    3    3    0    0 -0.23078474406E+01 -0.40354952669E+02  0.43951079741E+01  0.50528864018E+02  0.30000012668E+02 0.  0.
        -12    1    3    3    0    0  0.23078474406E+01  0.40354952669E+02 -0.43951079741E+01  0.40659135982E+02  0.00000000000E+00 0.  1.
         11    1    4    4    0    0  0.22767192259E+01 -0.17195213791E+01  0.99575440912E+00  0.30218754625E+01  0.51100000000E-03 0. -1.
        -11    1    4    4    0    0  0.35000459512E+01  0.24961691171E+01 -0.28029364298E+01  0.51320205390E+01  0.51100000000E-03 0.  1.
         12    1    4    4    0    0 -0.80846126176E+01 -0.41131600407E+02  0.62022899948E+01  0.42374968016E+02  0.00000000000E+00 0. -1.
</event>
<event>
 8    1  0.7977359E-012  0.9118800E+02  0.7816164E-02  0.1184000E+00
        -11   -1    0    0    0    0  0.00000000000E+00  0.00000000000E+00  0.45593999997E+02  0.45594000000E+02  0.51100000000E-03 0. -1.
         11   -1    0    0    0    0 -0.00000000000E+00 -0.00000000000E+00 -0.45593999997E+02  0.45594000000E+02  0.51100000000E-03 0.  1.
         23    2    1    2    0    0  0.00000000000E+00  0.00000000000E+00  0.00000000000E+00  0.91188000000E+02  0.91188000000E+02 0.  0.
    9900012    2    3    3    0    0 -0.29252166527E+02 -0.13666879465E+02  0.24712199151E+02  0.50528860465E+02  0.30000001871E+02 0.  0.
        -12    1    3    3    0    0  0.29252166527E+02  0.13666879465E+02 -0.24712199151E+02  0.40659139535E+02  0.00000000000E+00 0.  1.
         11    1    4    4    0    0 -0.20153042001E+01 -0.40885427195E+01  0.49769955056E+01  0.67489345168E+01  0.51100000000E-03 0. -1.
        -11    1    4    4    0    0  0.47838574723E+01 -0.39022686087E+01  0.55474783008E+01  0.82998499003E+01  0.51100000000E-03 0.  1.
         12    1    4    4    0    0 -0.32020719799E+02 -0.56760681368E+01  0.14187725344E+02  0.35480076048E+02  0.00000000000E+00 0. -1.
</event>
<event>
 8    1  0.7977359E-012  0.9118800E+02  0.7816164E-02  0.1184000E+00
        -11   -1    0    0    0    0  0.00000000000E+00  0.00000000000E+00  0.45593999997E+02  0.45594000000E+02  0.51100000000E-03 0. -1.
         11   -1    0    0    0    0 -0.00000000000E+00 -0.00000000000E+00 -0.45593999997E+02  0.45594000000E+02  0.51100000000E-03 0.  1.
         23    2    1    2    0    0  0.35527136788E-14 -0.35527136788E-14  0.00000000000E+00  0.91188000000E+02  0.91188000000E+02 0.  0.
    9900012    2    3    3    0    0  0.15362160756E+02 -0.24780365170E+02 -0.28339076401E+02  0.50528859179E+02  0.29999997960E+02 0.  0.
         12    1    3    3    0    0 -0.15362160756E+02  0.24780365170E+02  0.28339076401E+02  0.40659140821E+02  0.00000000000E+00 0. -1.
         11    1    4    4    0    0  0.92766234264E+01 -0.11410756421E+02 -0.31386081943E+02  0.34660456493E+02  0.51100000000E-03 0.  1.
        -11    1    4    4    0    0  0.19751488429E+01 -0.12584117248E+01  0.19213621027E+01  0.30292648632E+01  0.51100000000E-03 0. -1.
        -12    1    4    4    0    0  0.41103884870E+01 -0.12111197025E+02  0.11256434396E+01  0.12839137823E+02  0.00000000000E+00 0.  1.
</event>
<event>
 8    1  0.7977359E-012  0.9118800E+02  0.7816164E-02  0.1184000E+00
        -11   -1    0    0    0    0  0.00000000000E+00  0.00000000000E+00  0.45593999997E+02  0.45594000000E+02  0.51100000000E-03 0. -1.
         11   -1    0    0    0    0 -0.00000000000E+00 -0.00000000000E+00 -0.45593999997E+02  0.45594000000E+02  0.51100000000E-03 0.  1.
         23    2    1    2    0    0  0.00000000000E+00  0.00000000000E+00  0.00000000000E+00  0.91188000000E+02  0.91188000000E+02 0.  0.
    9900012    2    3    3    0    0 -0.10800225651E+02 -0.36072452337E+01 -0.39032149594E+02  0.50528858418E+02  0.29999995646E+02 0.  0.
         12    1    3    3    0    0  0.10800225651E+02  0.36072452337E+01  0.39032149594E+02  0.40659141582E+02  0.00000000000E+00 0. -1.
         11    1    4    4    0    0 -0.32156670558E+01  0.47572752368E+01 -0.24917959684E+01  0.62594911695E+01  0.51100000000E-03 0. -1.
        -11    1    4    4    0    0 -0.68724989187E+01  0.54479694002E+00 -0.25426298341E+00  0.68987459019E+01  0.51100000000E-03 0.  1.
        -12    1    4    4    0    0 -0.71205967621E+00 -0.89093174105E+01 -0.36286090642E+02  0.37370621346E+02  0.00000000000E+00 0.  1.
</event>
<event>
 8    1  0.7977359E-012  0.9118800E+02  0.7816164E-02  0.1184000E+00
        -11   -1    0    0    0    0  0.00000000000E+00  0.00000000000E+00  0.45593999997E+02  0.45594000000E+02  0.51100000000E-03 0. -1.
         11   -1    0    0    0    0 -0.00000000000E+00 -0.00000000000E+00 -0.45593999997E+02  0.45594000000E+02  0.51100000000E-03 0.  1.
         23    2    1    2    0    0  0.00000000000E+00  0.71054273576E-14  0.00000000000E+00  0.91188000000E+02  0.91188000000E+02 0.  0.
    9900012    2    3    3    0    0 -0.30084864385E+01 -0.33475584007E+02  0.22880125702E+02  0.50528857518E+02  0.29999992912E+02 0.  0.
        -12    1    3    3    0    0  0.30084864385E+01  0.33475584007E+02 -0.22880125702E+02  0.40659142482E+02  0.00000000000E+00 0.  1.
         11    1    4    4    0    0  0.49443374874E+01 -0.10915721431E+02  0.93059029117E+01  0.15172319427E+02  0.51100000000E-03 0. -1.
        -11    1    4    4    0    0 -0.13195397740E+01 -0.31279609425E-02  0.11695556623E+02  0.11769759555E+02  0.51100000000E-03 0.  1.
         12    1    4    4    0    0 -0.66332841519E+01 -0.22556734615E+02  0.18786661668E+01  0.23586778536E+02  0.00000000000E+00 0. -1.
</event>
<event>
 8    1  0.7977359E-012  0.9118800E+02  0.7816164E-02  0.1184000E+00
        -11   -1    0    0    0    0  0.00000000000E+00  0.00000000000E+00  0.45593999997E+02  0.45594000000E+02  0.51100000000E-03 0. -1.
         11   -1    0    0    0    0 -0.00000000000E+00 -0.00000000000E+00 -0.45593999997E+02  0.45594000000E+02  0.51100000000E-03 0.  1.
         23    2    1    2    0    0 -0.17763568394E-14  0.88817841970E-15 -0.71054273576E-14  0.91188000000E+02  0.91188000000E+02 0.  0.
    9900012    2    3    3    0    0 -0.70278775058E+01 -0.32340975882E+01  0.39916354574E+02  0.50528858199E+02  0.29999994983E+02 0.  0.
        -12    1    3    3    0    0  0.70278775058E+01  0.32340975882E+01 -0.39916354574E+02  0.40659141801E+02  0.00000000000E+00 0.  1.
         11    1    4    4    0    0 -0.91176652632E+01 -0.35758607453E+01  0.61116923528E+01  0.11544322570E+02  0.51100000000E-03 0. -1.
        -11    1    4    4    0    0 -0.11814928951E+00 -0.87590050688E+01  0.23401189096E+02  0.24986992224E+02  0.51100000000E-03 0.  1.
        -12    1    4    4    0    0  0.22079370469E+01  0.91007682259E+01  0.10403473126E+02  0.13997543405E+02  0.00000000000E+00 0.  1.
</event>
<event>
 8    1  0.7977359E-012  0.9118800E+02  0.7816164E-02  0.1184000E+00
        -11   -1    0    0    0    0  0.00000000000E+00  0.00000000000E+00  0.45593999997E+02  0.45594000000E+02  0.51100000000E-03 0. -1.
         11   -1    0    0    0    0 -0.00000000000E+00 -0.00000000000E+00 -0.45593999997E+02  0.45594000000E+02  0.51100000000E-03 0.  1.
         23    2    1    2    0    0  0.35527136788E-14 -0.35527136788E-14 -0.35527136788E-14  0.91188000000E+02  0.91188000000E+02 0.  0.
    9900012    2    3    3    0    0 -0.25728770128E+02  0.16722567535E+02  0.26674934835E+02  0.50528855571E+02  0.29999986992E+02 0.  0.
        -12    1    3    3    0    0  0.25728770128E+02 -0.16722567535E+02 -0.26674934835E+02  0.40659144429E+02  0.00000000000E+00 0.  1.
         11    1    4    4    0    0 -0.67588604170E+01  0.16562726473E+02  0.84668541799E+01  0.19791253682E+02  0.51100000000E-03 0. -1.
        -11    1    4    4    0    0  0.16344485598E+01 -0.34318067677E+01  0.21333372096E+01  0.43588814731E+01  0.51100000000E-03 0.  1.
        -12    1    4    4    0    0 -0.20604358271E+02  0.35916478297E+01  0.16074743446E+02  0.26378720415E+02  0.00000000000E+00 0.  1.
</event>
<event>
 8    1  0.7977359E-012  0.9118800E+02  0.7816164E-02  0.1184000E+00
        -11   -1    0    0    0    0  0.00000000000E+00  0.00000000000E+00  0.45593999997E+02  0.45594000000E+02  0.51100000000E-03 0. -1.
         11   -1    0    0    0    0 -0.00000000000E+00 -0.00000000000E+00 -0.45593999997E+02  0.45594000000E+02  0.51100000000E-03 0.  1.
         23    2    1    2    0    0 -0.71054273576E-14 -0.17763568394E-14 -0.17763568394E-14  0.91188000000E+02  0.91188000000E+02 0.  0.
    9900012    2    3    3    0    0  0.38224931655E+02 -0.65490890288E+01  0.12211856165E+02  0.50528863288E+02  0.30000010452E+02 0.  0.
        -12    1    3    3    0    0 -0.38224931655E+02  0.65490890288E+01 -0.12211856165E+02  0.40659136712E+02  0.00000000000E+00 0.  1.
         11    1    4    4    0    0  0.18494530649E+02 -0.95897541317E+01  0.16525418275E+01  0.20898371778E+02  0.51100000000E-03 0. -1.
        -11    1    4    4    0    0  0.12874879197E+01  0.45609842634E+00 -0.51117902376E+01  0.52911294269E+01  0.51100000000E-03 0.  1.
         12    1    4    4    0    0  0.18442913086E+02  0.25845666765E+01  0.15671104575E+02  0.24339362083E+02  0.00000000000E+00 0. -1.
</event>
<event>
 8    1  0.7977359E-012  0.9118800E+02  0.7816164E-02  0.1184000E+00
        -11   -1    0    0    0    0  0.00000000000E+00  0.00000000000E+00  0.45593999997E+02  0.45594000000E+02  0.51100000000E-03 0. -1.
         11   -1    0    0    0    0 -0.00000000000E+00 -0.00000000000E+00 -0.45593999997E+02  0.45594000000E+02  0.51100000000E-03 0.  1.
         23    2    1    2    0    0  0.00000000000E+00  0.00000000000E+00  0.00000000000E+00  0.91188000000E+02  0.91188000000E+02 0.  0.
    9900012    2    3    3    0    0 -0.28084443905E+02 -0.18934704055E+02  0.22492376675E+02  0.50528855695E+02  0.29999987371E+02 0.  0.
        -12    1    3    3    0    0  0.28084443905E+02  0.18934704055E+02 -0.22492376675E+02  0.40659144305E+02  0.00000000000E+00 0.  1.
         11    1    4    4    0    0 -0.13852482193E+02 -0.19848334387E+02  0.21603243600E+02  0.32442992697E+02  0.51100000000E-03 0. -1.
        -11    1    4    4    0    0 -0.57240089203E+01 -0.44390794460E+01  0.29565678842E+01  0.78237458012E+01  0.51100000000E-03 0.  1.
        -12    1    4    4    0    0 -0.85079527915E+01  0.53527097780E+01 -0.20674348090E+01  0.10262117197E+02  0.00000000000E+00 0.  1.
</event>
<event>
 8    1  0.7977359E-012  0.9118800E+02  0.7816164E-02  0.1184000E+00
        -11   -1    0    0    0    0  0.00000000000E+00  0.00000000000E+00  0.45593999997E+02  0.45594000000E+02  0.51100000000E-03 0. -1.
         11   -1    0    0    0    0 -0.00000000000E+00 -0.00000000000E+00 -0.45593999997E+02  0.45594000000E+02  0.51100000000E-03 0.  1.
         23    2    1    2    0    0  0.35527136788E-14  0.44408920985E-15  0.00000000000E+00  0.91188000000E+02  0.91188000000E+02 0.  0.
    9900012    2    3    3    0    0 -0.23996318028E+02 -0.15097604428E+01  0.32788159954E+02  0.50528854797E+02  0.29999984640E+02 0.  0.
        -12    1    3    3    0    0  0.23996318028E+02  0.15097604428E+01 -0.32788159954E+02  0.40659145203E+02  0.00000000000E+00 0.  1.
         11    1    4    4    0    0 -0.14816000911E+02 -0.37953440923E+01  0.62780229934E+01  0.16532758171E+02  0.51100000000E-03 0. -1.
        -11    1    4    4    0    0 -0.11820519495E+02  0.76835062347E+01  0.23167370837E+02  0.27119882392E+02  0.51100000000E-03 0.  1.
        -12    1    4    4    0    0  0.26402023779E+01 -0.53979225852E+01  0.33427661239E+01  0.68762142340E+01  0.00000000000E+00 0.  1.
</event>
<event>
 8    1  0.7977359E-012  0.9118800E+02  0.7816164E-02  0.1184000E+00
        -11   -1    0    0    0    0  0.00000000000E+00  0.00000000000E+00  0.45593999997E+02  0.45594000000E+02  0.51100000000E-03 0. -1.
         11   -1    0    0    0    0 -0.00000000000E+00 -0.00000000000E+00 -0.45593999997E+02  0.45594000000E+02  0.51100000000E-03 0.  1.
         23    2    1    2    0    0  0.00000000000E+00  0.00000000000E+00  0.00000000000E+00  0.91188000000E+02  0.91188000000E+02 0.  0.
    9900012    2    3    3    0    0 -0.90727734135E+01  0.20117806191E+02 -0.34148556517E+02  0.50528865042E+02  0.30000015781E+02 0.  0.
         12    1    3    3    0    0  0.90727734135E+01 -0.20117806191E+02  0.34148556517E+02  0.40659134958E+02  0.00000000000E+00 0. -1.
         11    1    4    4    0    0 -0.11218280915E+02  0.15665758871E+02 -0.85559195381E+01  0.21082447370E+02  0.51100000000E-03 0. -1.
        -11    1    4    4    0    0  0.25537100449E+01 -0.41277234392E+01 -0.42924817512E+01  0.64795783528E+01  0.51100000000E-03 0.  1.
        -12    1    4    4    0    0 -0.40820254342E+00  0.85797707590E+01 -0.21300155227E+02  0.22966839319E+02  0.00000000000E+00 0.  1.
</event>
<event>
 8    1  0.7977359E-012  0.9118800E+02  0.7816164E-02  0.1184000E+00
        -11   -1    0    0    0    0  0.00000000000E+00  0.00000000000E+00  0.45593999997E+02  0.45594000000E+02  0.51100000000E-03 0. -1.
         11   -1    0    0    0    0 -0.00000000000E+00 -0.00000000000E+00 -0.45593999997E+02  0.45594000000E+02  0.51100000000E-03 0.  1.
         23    2    1    2    0    0  0.00000000000E+00  0.00000000000E+00 -0.71054273576E-14  0.91188000000E+02  0.91188000000E+02 0.  0.
    9900012    2    3    3    0    0 -0.13698641352E+02  0.80761331329E+01  0.37420431513E+02  0.50528863316E+02  0.30000010535E+02 0.  0.
        -12    1    3    3    0    0  0.13698641352E+02 -0.80761331329E+01 -0.37420431513E+02  0.40659136684E+02  0.00000000000E+00 0.  1.
         11    1    4    4    0    0  0.42229196704E-01 -0.75618130588E+00  0.32825536947E+01  0.33687909541E+01  0.51100000000E-03 0. -1.
        -11    1    4    4    0    0  0.22498579629E+01  0.53973514288E+01 -0.30058765820E+01  0.65748427804E+01  0.51100000000E-03 0.  1.
        -12    1    4    4    0    0 -0.15990728512E+02  0.34349630101E+01  0.37143754400E+02  0.40585229581E+02  0.00000000000E+00 0.  1.
</event>
<event>
 8    1  0.1534767E-011  0.9118800E+02  0.7816164E-02  0.1184000E+00
        -11   -1    0    0    0    0  0.00000000000E+00  0.00000000000E+00  0.45593999997E+02  0.45594000000E+02  0.51100000000E-03 0. -1.
         11   -1    0    0    0    0 -0.00000000000E+00 -0.00000000000E+00 -0.45593999997E+02  0.45594000000E+02  0.51100000000E-03 0.  1.
         23    2    1    2    0    0  0.00000000000E+00  0.00000000000E+00  0.00000000000E+00  0.91188000000E+02  0.91188000000E+02 0.  0.
    9900012    2    3    3    0    0 -0.18219613280E+01 -0.12870953443E+02  0.38525113872E+02  0.50528863456E+02  0.30000010962E+02 0.  0.
        -12    1    3    3    0    0  0.18219613280E+01  0.12870953443E+02 -0.38525113872E+02  0.40659136544E+02  0.00000000000E+00 0.  1.
         11    1    4    4    0    0  0.17719026514E+01 -0.47001266859E+01  0.16765061635E+02  0.17501374853E+02  0.51100000000E-03 0. -1.
        -11    1    4    4    0    0  0.34173032400E+01 -0.14012559043E+01  0.22917350324E+02  0.23213065840E+02  0.51100000000E-03 0.  1.
        -12    1    4    4    0    0 -0.70111672195E+01 -0.67695708532E+01 -0.11572980869E+01  0.98144227633E+01  0.00000000000E+00 0.  1.
</event>
<event>
 8    1  0.7977359E-012  0.9118800E+02  0.7816164E-02  0.1184000E+00
        -11   -1    0    0    0    0  0.00000000000E+00  0.00000000000E+00  0.45593999997E+02  0.45594000000E+02  0.51100000000E-03 0.  1.
         11   -1    0    0    0    0 -0.00000000000E+00 -0.00000000000E+00 -0.45593999997E+02  0.45594000000E+02  0.51100000000E-03 0. -1.
         23    2    1    2    0    0 -0.35527136788E-14  0.00000000000E+00 -0.35527136788E-14  0.91188000000E+02  0.91188000000E+02 0.  0.
    9900012    2    3    3    0    0 -0.20982336854E+02  0.26747825907E+02  0.22303834380E+02  0.50528859838E+02  0.29999999965E+02 0.  0.
        -12    1    3    3    0    0  0.20982336854E+02 -0.26747825907E+02 -0.22303834380E+02  0.40659140162E+02  0.00000000000E+00 0.  1.
         11    1    4    4    0    0 -0.96632326545E+01  0.14135236904E+02  0.19841435122E+02  0.26208119651E+02  0.51100000000E-03 0. -1.
        -11    1    4    4    0    0 -0.10868890371E+02 -0.68173995846E+00  0.13161639161E+01  0.10969495658E+02  0.51100000000E-03 0.  1.
         12    1    4    4    0    0 -0.45021382791E+00  0.13294328962E+02  0.11462353423E+01  0.13351244530E+02  0.00000000000E+00 0. -1.
</event>
<event>
 8    1  0.7977359E-012  0.9118800E+02  0.7816164E-02  0.1184000E+00
        -11   -1    0    0    0    0  0.00000000000E+00  0.00000000000E+00  0.45593999997E+02  0.45594000000E+02  0.51100000000E-03 0. -1.
         11   -1    0    0    0    0 -0.00000000000E+00 -0.00000000000E+00 -0.45593999997E+02  0.45594000000E+02  0.51100000000E-03 0.  1.
         23    2    1    2    0    0  0.35527136788E-14 -0.17763568394E-14  0.00000000000E+00  0.91188000000E+02  0.91188000000E+02 0.  0.
    9900012    2    3    3    0    0 -0.26582919004E+02  0.15247929663E+02 -0.26721055094E+02  0.50528859243E+02  0.29999998154E+02 0.  0.
         12    1    3    3    0    0  0.26582919004E+02 -0.15247929663E+02  0.26721055094E+02  0.40659140757E+02  0.00000000000E+00 0. -1.
         11    1    4    4    0    0 -0.79400317669E+01  0.12578168935E+02 -0.73380018018E+01  0.16586160162E+02  0.51100000000E-03 0. -1.
        -11    1    4    4    0    0 -0.59512148818E+00  0.54060522611E+01  0.20298442174E+01  0.58051561946E+01  0.51100000000E-03 0.  1.
         12    1    4    4    0    0 -0.18047765749E+02 -0.27362915334E+01 -0.21412897510E+02  0.28137542886E+02  0.00000000000E+00 0. -1.
</event>
<event>
 8    1  0.7977359E-012  0.9118800E+02  0.7816164E-02  0.1184000E+00
        -11   -1    0    0    0    0  0.00000000000E+00  0.00000000000E+00  0.45593999997E+02  0.45594000000E+02  0.51100000000E-03 0. -1.
         11   -1    0    0    0    0 -0.00000000000E+00 -0.00000000000E+00 -0.45593999997E+02  0.45594000000E+02  0.51100000000E-03 0.  1.
         23    2    1    2    0    0  0.00000000000E+00 -0.88817841970E-15  0.00000000000E+00  0.91188000000E+02  0.91188000000E+02 0.  0.
    9900012    2    3    3    0    0  0.23461140109E+02  0.18421944897E+01  0.33156403542E+02  0.50528857466E+02  0.29999992753E+02 0.  0.
        -12    1    3    3    0    0 -0.23461140109E+02 -0.18421944897E+01 -0.33156403542E+02  0.40659142534E+02  0.00000000000E+00 0.  1.
         11    1    4    4    0    0  0.13632807949E+02  0.13846425104E+02  0.13983251492E+02  0.23939679682E+02  0.51100000000E-03 0. -1.
        -11    1    4    4    0    0 -0.51566739293E+00 -0.76720521153E-01 -0.90663872124E+00  0.10458455577E+01  0.51100000000E-03 0.  1.
         12    1    4    4    0    0  0.10343999554E+02 -0.11927510093E+02  0.20079790771E+02  0.25543332226E+02  0.00000000000E+00 0. -1.
</event>
<event>
 8    1  0.7977359E-012  0.9118800E+02  0.7816164E-02  0.1184000E+00
        -11   -1    0    0    0    0  0.00000000000E+00  0.00000000000E+00  0.45593999997E+02  0.45594000000E+02  0.51100000000E-03 0. -1.
         11   -1    0    0    0    0 -0.00000000000E+00 -0.00000000000E+00 -0.45593999997E+02  0.45594000000E+02  0.51100000000E-03 0.  1.
         23    2    1    2    0    0  0.00000000000E+00  0.00000000000E+00  0.00000000000E+00  0.91188000000E+02  0.91188000000E+02 0.  0.
    9900012    2    3    3    0    0  0.23529651952E+02  0.32945224906E+01 -0.32995012348E+02  0.50528816053E+02  0.29999866873E+02 0.  0.
         12    1    3    3    0    0 -0.23529651952E+02 -0.32945224906E+01  0.32995012348E+02  0.40659183947E+02  0.00000000000E+00 0. -1.
         11    1    4    4    0    0  0.58721415192E+01 -0.57330342630E+01 -0.14435470768E+01  0.83326800194E+01  0.51100000000E-03 0. -1.
        -11    1    4    4    0    0  0.10039473622E+02 -0.41437187069E+01 -0.58704792160E+01  0.12346009955E+02  0.51100000000E-03 0.  1.
         12    1    4    4    0    0  0.76180368112E+01  0.13171275460E+02 -0.25680986055E+02  0.29850126078E+02  0.00000000000E+00 0. -1.
</event>
<event>
 8    1  0.7977359E-012  0.9118800E+02  0.7816164E-02  0.1184000E+00
        -11   -1    0    0    0    0  0.00000000000E+00  0.00000000000E+00  0.45593999997E+02  0.45594000000E+02  0.51100000000E-03 0. -1.
         11   -1    0    0    0    0 -0.00000000000E+00 -0.00000000000E+00 -0.45593999997E+02  0.45594000000E+02  0.51100000000E-03 0.  1.
         23    2    1    2    0    0  0.11102230246E-14  0.44408920985E-15  0.00000000000E+00  0.91188000000E+02  0.91188000000E+02 0.  0.
    9900012    2    3    3    0    0  0.11836694359E+01  0.35710454766E+01 -0.40484680589E+02  0.50528895220E+02  0.30000107511E+02 0.  0.
         12    1    3    3    0    0 -0.11836694359E+01 -0.35710454766E+01  0.40484680589E+02  0.40659104780E+02  0.00000000000E+00 0. -1.
         11    1    4    4    0    0 -0.36718208361E+00  0.61156620710E+00  0.25020673931E+01  0.26017642877E+01  0.51100000000E-03 0. -1.
        -11    1    4    4    0    0 -0.47076212697E+01  0.76257384851E+01 -0.77875282326E+01  0.11872623202E+02  0.51100000000E-03 0.  1.
        -12    1    4    4    0    0  0.62584727892E+01 -0.46662592155E+01 -0.35199219749E+02  0.36054507730E+02  0.00000000000E+00 0.  1.
</event>
<event>
 8    1  0.7977359E-012  0.9118800E+02  0.7816164E-02  0.1184000E+00
        -11   -1    0    0    0    0  0.00000000000E+00  0.00000000000E+00  0.45593999997E+02  0.45594000000E+02  0.51100000000E-03 0.  1.
         11   -1    0    0    0    0 -0.00000000000E+00 -0.00000000000E+00 -0.45593999997E+02  0.45594000000E+02  0.51100000000E-03 0. -1.
         23    2    1    2    0    0  0.00000000000E+00  0.00000000000E+00 -0.17763568394E-14  0.91188000000E+02  0.91188000000E+02 0.  0.
    9900012    2    3    3    0    0 -0.32621621649E+02  0.19046686579E+02  0.15040668679E+02  0.50528829042E+02  0.29999906357E+02 0.  0.
        -12    1    3    3    0    0  0.32621621649E+02 -0.19046686579E+02 -0.15040668679E+02  0.40659170958E+02  0.00000000000E+00 0.  1.
         11    1    4    4    0    0 -0.18312306562E+02  0.73969419089E+01  0.93755908691E+01  0.21862228286E+02  0.51100000000E-03 0. -1.
        -11    1    4    4    0    0 -0.77036662471E+01  0.17558914107E+02  0.47671152148E+01  0.19758221731E+02  0.51100000000E-03 0.  1.
         12    1    4    4    0    0 -0.66056488400E+01 -0.59091694368E+01  0.89796259558E+00  0.89083790250E+01  0.00000000000E+00 0. -1.
</event>
<event>
 8    1  0.7977359E-012  0.9118800E+02  0.7816164E-02  0.1184000E+00
        -11   -1    0    0    0    0  0.00000000000E+00  0.00000000000E+00  0.45593999997E+02  0.45594000000E+02  0.51100000000E-03 0. -1.
         11   -1    0    0    0    0 -0.00000000000E+00 -0.00000000000E+00 -0.45593999997E+02  0.45594000000E+02  0.51100000000E-03 0.  1.
         23    2    1    2    0    0 -0.44408920985E-15  0.00000000000E+00  0.00000000000E+00  0.91188000000E+02  0.91188000000E+02 0.  0.
    9900012    2    3    3    0    0  0.32826925265E+01 -0.32511113826E+01 -0.40395801585E+02  0.50528848741E+02  0.29999966232E+02 0.  0.
         12    1    3    3    0    0 -0.32826925265E+01  0.32511113826E+01  0.40395801585E+02  0.40659151259E+02  0.00000000000E+00 0. -1.
         11    1    4    4    0    0  0.69149567215E+01 -0.45937989067E+01 -0.15796820353E+02  0.17845423738E+02  0.51100000000E-03 0. -1.
        -11    1    4    4    0    0  0.88259379440E+01  0.19572098431E+01 -0.10718197179E+02  0.14021683280E+02  0.51100000000E-03 0.  1.
        -12    1    4    4    0    0 -0.12458202139E+02 -0.61452231898E+00 -0.13880784053E+02  0.18661741723E+02  0.00000000000E+00 0.  1.
</event>
<event>
 8    1  0.7977359E-012  0.9118800E+02  0.7816164E-02  0.1184000E+00
        -11   -1    0    0    0    0  0.00000000000E+00  0.00000000000E+00  0.45593999997E+02  0.45594000000E+02  0.51100000000E-03 0. -1.
         11   -1    0    0    0    0 -0.00000000000E+00 -0.00000000000E+00 -0.45593999997E+02  0.45594000000E+02  0.51100000000E-03 0.  1.
         23    2    1    2    0    0  0.00000000000E+00  0.00000000000E+00  0.00000000000E+00  0.91188000000E+02  0.91188000000E+02 0.  0.
    9900012    2    3    3    0    0 -0.32715420013E+02 -0.11220588094E+02 -0.21376762612E+02  0.50528852400E+02  0.29999977357E+02 0.  0.
         12    1    3    3    0    0  0.32715420013E+02  0.11220588094E+02  0.21376762612E+02  0.40659147600E+02  0.00000000000E+00 0. -1.
         11    1    4    4    0    0  0.47759101438E+01 -0.52642311273E+00 -0.23515353494E+01  0.53494072341E+01  0.51100000000E-03 0. -1.
        -11    1    4    4    0    0 -0.11028006077E+02  0.26155852928E+01 -0.46000647467E+01  0.12231876405E+02  0.51100000000E-03 0.  1.
        -12    1    4    4    0    0 -0.26463324080E+02 -0.13309750274E+02 -0.14425162516E+02  0.32947568761E+02  0.00000000000E+00 0.  1.
</event>
<event>
 8    1  0.7977359E-012  0.9118800E+02  0.7816164E-02  0.1184000E+00
        -11   -1    0    0    0    0  0.00000000000E+00  0.00000000000E+00  0.45593999997E+02  0.45594000000E+02  0.51100000000E-03 0. -1.
         11   -1    0    0    0    0 -0.00000000000E+00 -0.00000000000E+00 -0.45593999997E+02  0.45594000000E+02  0.51100000000E-03 0.  1.
         23    2    1    2    0    0  0.30531133177E-15  0.00000000000E+00 -0.22204460493E-14  0.91188000000E+02  0.91188000000E+02 0.  0.
    9900012    2    3    3    0    0 -0.19554874026E+00  0.40525306332E+02 -0.32904571005E+01  0.50528858340E+02  0.29999995411E+02 0.  0.
         12    1    3    3    0    0  0.19554874026E+00 -0.40525306332E+02  0.32904571005E+01  0.40659141660E+02  0.00000000000E+00 0. -1.
         11    1    4    4    0    0  0.25616608058E+01  0.98901931305E+01  0.25310273066E+01  0.10525403827E+02  0.51100000000E-03 0. -1.
        -11    1    4    4    0    0  0.16426677833E+01  0.33273077636E+02 -0.82614215991E+01  0.34322691327E+02  0.51100000000E-03 0.  1.
        -12    1    4    4    0    0 -0.43998773293E+01 -0.26379644350E+01  0.24399371920E+01  0.56807631859E+01  0.00000000000E+00 0.  1.
</event>
<event>
 8    1  0.7977359E-012  0.9118800E+02  0.7816164E-02  0.1184000E+00
        -11   -1    0    0    0    0  0.00000000000E+00  0.00000000000E+00  0.45593999997E+02  0.45594000000E+02  0.51100000000E-03 0. -1.
         11   -1    0    0    0    0 -0.00000000000E+00 -0.00000000000E+00 -0.45593999997E+02  0.45594000000E+02  0.51100000000E-03 0.  1.
         23    2    1    2    0    0 -0.17763568394E-14  0.00000000000E+00  0.00000000000E+00  0.91188000000E+02  0.91188000000E+02 0.  0.
    9900012    2    3    3    0    0 -0.13631297323E+02  0.93845410147E+01  0.37138744716E+02  0.50528828392E+02  0.29999904380E+02 0.  0.
        -12    1    3    3    0    0  0.13631297323E+02 -0.93845410147E+01 -0.37138744716E+02  0.40659171608E+02  0.00000000000E+00 0.  1.
         11    1    4    4    0    0  0.93139230886E+00  0.66916342939E+01  0.82756491586E+01  0.10683249993E+02  0.51100000000E-03 0. -1.
        -11    1    4    4    0    0 -0.40279533164E+00 -0.52409189468E+00 -0.39280042799E+01  0.39832316374E+01  0.51100000000E-03 0.  1.
         12    1    4    4    0    0 -0.14159894300E+02  0.32169986154E+01  0.32791099837E+02  0.35862346761E+02  0.00000000000E+00 0. -1.
</event>
<event>
 8    1  0.7977359E-012  0.9118800E+02  0.7816164E-02  0.1184000E+00
        -11   -1    0    0    0    0  0.00000000000E+00  0.00000000000E+00  0.45593999997E+02  0.45594000000E+02  0.51100000000E-03 0. -1.
         11   -1    0    0    0    0 -0.00000000000E+00 -0.00000000000E+00 -0.45593999997E+02  0.45594000000E+02  0.51100000000E-03 0.  1.
         23    2    1    2    0    0  0.35527136788E-14  0.35527136788E-14  0.00000000000E+00  0.91188000000E+02  0.91188000000E+02 0.  0.
    9900012    2    3    3    0    0 -0.30622534123E+02  0.18551237019E+02 -0.19268566612E+02  0.50528860187E+02  0.30000001025E+02 0.  0.
         12    1    3    3    0    0  0.30622534123E+02 -0.18551237019E+02  0.19268566612E+02  0.40659139813E+02  0.00000000000E+00 0. -1.
         11    1    4    4    0    0 -0.11901008079E+02  0.16687186706E+02 -0.49818043298E+01  0.21092998082E+02  0.51100000000E-03 0. -1.
        -11    1    4    4    0    0 -0.10952165601E+02  0.96557412462E+01 -0.66615783957E+01  0.16048672759E+02  0.51100000000E-03 0.  1.
         12    1    4    4    0    0 -0.77693604425E+01 -0.77916909326E+01 -0.76251838865E+01  0.13387189346E+02  0.00000000000E+00 0. -1.
</event>
<event>
 8    1  0.7977359E-012  0.9118800E+02  0.7816164E-02  0.1184000E+00
        -11   -1    0    0    0    0  0.00000000000E+00  0.00000000000E+00  0.45593999997E+02  0.45594000000E+02  0.51100000000E-03 0. -1.
         11   -1    0    0    0    0 -0.00000000000E+00 -0.00000000000E+00 -0.45593999997E+02  0.45594000000E+02  0.51100000000E-03 0.  1.
         23    2    1    2    0    0  0.00000000000E+00  0.00000000000E+00 -0.35527136788E-14  0.91188000000E+02  0.91188000000E+02 0.  0.
    9900012    2    3    3    0    0 -0.86847919546E+01 -0.26551772056E+02 -0.29542231769E+02  0.50528859963E+02  0.30000000345E+02 0.  0.
         12    1    3    3    0    0  0.86847919546E+01  0.26551772056E+02  0.29542231769E+02  0.40659140037E+02  0.00000000000E+00 0. -1.
         11    1    4    4    0    0 -0.11927866597E+02  0.62863455077E+00 -0.10380697940E+02  0.15824919366E+02  0.51100000000E-03 0. -1.
        -11    1    4    4    0    0  0.11946195826E+01 -0.51643652025E+01  0.21353972064E+00  0.53050337760E+01  0.51100000000E-03 0.  1.
        -12    1    4    4    0    0  0.20484550596E+01 -0.22016041405E+02 -0.19375073550E+02  0.29398906822E+02  0.00000000000E+00 0.  1.
</event>
<event>
 8    1  0.7977359E-012  0.9118800E+02  0.7816164E-02  0.1184000E+00
        -11   -1    0    0    0    0  0.00000000000E+00  0.00000000000E+00  0.45593999997E+02  0.45594000000E+02  0.51100000000E-03 0. -1.
         11   -1    0    0    0    0 -0.00000000000E+00 -0.00000000000E+00 -0.45593999997E+02  0.45594000000E+02  0.51100000000E-03 0.  1.
         23    2    1    2    0    0 -0.35527136788E-14  0.00000000000E+00  0.88817841970E-15  0.91188000000E+02  0.91188000000E+02 0.  0.
    9900012    2    3    3    0    0  0.24731623494E+02 -0.31870018150E+02 -0.50807890288E+01  0.50528859888E+02  0.30000000115E+02 0.  0.
         12    1    3    3    0    0 -0.24731623494E+02  0.31870018150E+02  0.50807890288E+01  0.40659140112E+02  0.00000000000E+00 0. -1.
         11    1    4    4    0    0 -0.36491051581E+01 -0.18344865469E+01 -0.14299025743E+01  0.43273468753E+01  0.51100000000E-03 0. -1.
        -11    1    4    4    0    0  0.71884937617E+00 -0.84264816185E+01 -0.69481403712E+01  0.10945272576E+02  0.51100000000E-03 0.  1.
        -12    1    4    4    0    0  0.27661879276E+02 -0.21609049985E+02  0.32972539167E+01  0.35256240436E+02  0.00000000000E+00 0.  1.
</event>
<event>
 8    1  0.7977359E-012  0.9118800E+02  0.7816164E-02  0.1184000E+00
        -11   -1    0    0    0    0  0.00000000000E+00  0.00000000000E+00  0.45593999997E+02  0.45594000000E+02  0.51100000000E-03 0. -1.
         11   -1    0    0    0    0 -0.00000000000E+00 -0.00000000000E+00 -0.45593999997E+02  0.45594000000E+02  0.51100000000E-03 0.  1.
         23    2    1    2    0    0  0.00000000000E+00  0.00000000000E+00  0.00000000000E+00  0.91188000000E+02  0.91188000000E+02 0.  0.
    9900012    2    3    3    0    0 -0.17254373415E+02 -0.27960276909E+02 -0.23951599274E+02  0.50528811683E+02  0.29999853592E+02 0.  0.
         12    1    3    3    0    0  0.17254373415E+02  0.27960276909E+02  0.23951599274E+02  0.40659188317E+02  0.00000000000E+00 0. -1.
         11    1    4    4    0    0 -0.39644713274E+01 -0.59705246701E+01 -0.11663261753E+02  0.13689261219E+02  0.51100000000E-03 0. -1.
        -11    1    4    4    0    0 -0.98719912029E+01 -0.16624439989E+02 -0.19336803314E+02  0.27344838231E+02  0.51100000000E-03 0.  1.
         12    1    4    4    0    0 -0.34179108850E+01 -0.53653122504E+01  0.70484657924E+01  0.94947122330E+01  0.00000000000E+00 0. -1.
</event>
<event>
 8    1  0.7977359E-012  0.9118800E+02  0.7816164E-02  0.1184000E+00
        -11   -1    0    0    0    0  0.00000000000E+00  0.00000000000E+00  0.45593999997E+02  0.45594000000E+02  0.51100000000E-03 0.  1.
         11   -1    0    0    0    0 -0.00000000000E+00 -0.00000000000E+00 -0.45593999997E+02  0.45594000000E+02  0.51100000000E-03 0. -1.
         23    2    1    2    0    0 -0.17763568394E-14 -0.17763568394E-14  0.00000000000E+00  0.91188000000E+02  0.91188000000E+02 0.  0.
    9900012    2    3    3    0    0 -0.76472029892E+01 -0.10379045125E+02 -0.38561142272E+02  0.50528856077E+02  0.29999988531E+02 0.  0.
         12    1    3    3    0    0  0.76472029892E+01  0.10379045125E+02  0.38561142272E+02  0.40659143923E+02  0.00000000000E+00 0. -1.
         11    1    4    4    0    0 -0.82843830344E+01 -0.12635450623E+02 -0.12181098952E+02  0.19407853736E+02  0.51100000000E-03 0. -1.
        -11    1    4    4    0    0 -0.44233717548E+01  0.28816730475E+01 -0.11790001906E+01  0.54092789671E+01  0.51100000000E-03 0.  1.
         12    1    4    4    0    0  0.50605518001E+01 -0.62526754900E+00 -0.25201043129E+02  0.25711723373E+02  0.00000000000E+00 0. -1.
</event>
<event>
 8    1  0.7977359E-012  0.9118800E+02  0.7816164E-02  0.1184000E+00
        -11   -1    0    0    0    0  0.00000000000E+00  0.00000000000E+00  0.45593999997E+02  0.45594000000E+02  0.51100000000E-03 0. -1.
         11   -1    0    0    0    0 -0.00000000000E+00 -0.00000000000E+00 -0.45593999997E+02  0.45594000000E+02  0.51100000000E-03 0.  1.
         23    2    1    2    0    0  0.35527136788E-14 -0.13322676296E-14 -0.71054273576E-14  0.91188000000E+02  0.91188000000E+02 0.  0.
    9900012    2    3    3    0    0 -0.17666019012E+02 -0.38580469021E+01  0.36416905503E+02  0.50528883433E+02  0.30000071682E+02 0.  0.
        -12    1    3    3    0    0  0.17666019012E+02  0.38580469021E+01 -0.36416905503E+02  0.40659116567E+02  0.00000000000E+00 0.  1.
         11    1    4    4    0    0 -0.86320350283E+01  0.82585736753E+01  0.21320699015E+02  0.24439481881E+02  0.51100000000E-03 0. -1.
        -11    1    4    4    0    0 -0.40626574102E+01 -0.34931770165E+00 -0.21639345275E+01  0.46162561660E+01  0.51100000000E-03 0.  1.
         12    1    4    4    0    0 -0.49713265736E+01 -0.11767302876E+02  0.17260141015E+02  0.21473145385E+02  0.00000000000E+00 0. -1.
</event>
<event>
 8    1  0.7977359E-012  0.9118800E+02  0.7816164E-02  0.1184000E+00
        -11   -1    0    0    0    0  0.00000000000E+00  0.00000000000E+00  0.45593999997E+02  0.45594000000E+02  0.51100000000E-03 0. -1.
         11   -1    0    0    0    0 -0.00000000000E+00 -0.00000000000E+00 -0.45593999997E+02  0.45594000000E+02  0.51100000000E-03 0.  1.
         23    2    1    2    0    0  0.17763568394E-14  0.00000000000E+00  0.00000000000E+00  0.91188000000E+02  0.91188000000E+02 0.  0.
    9900012    2    3    3    0    0  0.11958745177E+02 -0.30734300919E+02  0.23781391545E+02  0.50528887577E+02  0.30000084280E+02 0.  0.
        -12    1    3    3    0    0 -0.11958745177E+02  0.30734300919E+02 -0.23781391545E+02  0.40659112423E+02  0.00000000000E+00 0.  1.
         11    1    4    4    0    0  0.26476459084E+01 -0.55869073951E+01  0.10850522488E+02  0.12488290580E+02  0.51100000000E-03 0. -1.
        -11    1    4    4    0    0 -0.49488905830E+00 -0.64797087318E+01  0.15491363209E+02  0.16799222445E+02  0.51100000000E-03 0.  1.
         12    1    4    4    0    0  0.98059883264E+01 -0.18667684792E+02 -0.25604941518E+01  0.21241374552E+02  0.00000000000E+00 0. -1.
</event>
<event>
 8    1  0.7977359E-012  0.9118800E+02  0.7816164E-02  0.1184000E+00
        -11   -1    0    0    0    0  0.00000000000E+00  0.00000000000E+00  0.45593999997E+02  0.45594000000E+02  0.51100000000E-03 0. -1.
         11   -1    0    0    0    0 -0.00000000000E+00 -0.00000000000E+00 -0.45593999997E+02  0.45594000000E+02  0.51100000000E-03 0.  1.
         23    2    1    2    0    0  0.35527136788E-14  0.00000000000E+00  0.35527136788E-14  0.91188000000E+02  0.91188000000E+02 0.  0.
    9900012    2    3    3    0    0 -0.24796041151E+02 -0.14689942917E+02 -0.28679722016E+02  0.50528873907E+02  0.30000042729E+02 0.  0.
         12    1    3    3    0    0  0.24796041151E+02  0.14689942917E+02  0.28679722016E+02  0.40659126093E+02  0.00000000000E+00 0. -1.
         11    1    4    4    0    0 -0.51641263429E+01 -0.77822578377E+01 -0.12144414245E+02  0.15320526608E+02  0.51100000000E-03 0. -1.
        -11    1    4    4    0    0  0.14453990086E+01 -0.62701955357E+00 -0.12804387870E+02  0.12900956585E+02  0.51100000000E-03 0.  1.
         12    1    4    4    0    0 -0.21077313817E+02 -0.62806655258E+01 -0.37309199018E+01  0.22307390715E+02  0.00000000000E+00 0. -1.
</event>
<event>
 8    1  0.7977359E-012  0.9118800E+02  0.7816164E-02  0.1184000E+00
        -11   -1    0    0    0    0  0.00000000000E+00  0.00000000000E+00  0.45593999997E+02  0.45594000000E+02  0.51100000000E-03 0. -1.
         11   -1    0    0    0    0 -0.00000000000E+00 -0.00000000000E+00 -0.45593999997E+02  0.45594000000E+02  0.51100000000E-03 0.  1.
         23    2    1    2    0    0  0.00000000000E+00  0.00000000000E+00  0.00000000000E+00  0.91188000000E+02  0.91188000000E+02 0.  0.
    9900012    2    3    3    0    0 -0.68895529819E+01 -0.30970011793E+02 -0.25427511844E+02  0.50528856756E+02  0.29999990597E+02 0.  0.
         12    1    3    3    0    0  0.68895529819E+01  0.30970011793E+02  0.25427511844E+02  0.40659143244E+02  0.00000000000E+00 0. -1.
         11    1    4    4    0    0  0.94925446615E+01 -0.78043357016E+01 -0.10984981139E+02  0.16482896311E+02  0.51100000000E-03 0. -1.
        -11    1    4    4    0    0 -0.65120364713E+01 -0.15151766331E+02 -0.26467861394E+01  0.16702937439E+02  0.51100000000E-03 0.  1.
        -12    1    4    4    0    0 -0.98700611721E+01 -0.80139097602E+01 -0.11795744565E+02  0.17343023007E+02  0.00000000000E+00 0.  1.
</event>
<event>
 8    1  0.7977359E-012  0.9118800E+02  0.7816164E-02  0.1184000E+00
        -11   -1    0    0    0    0  0.00000000000E+00  0.00000000000E+00  0.45593999997E+02  0.45594000000E+02  0.51100000000E-03 0. -1.
         11   -1    0    0    0    0 -0.00000000000E+00 -0.00000000000E+00 -0.45593999997E+02  0.45594000000E+02  0.51100000000E-03 0.  1.
         23    2    1    2    0    0  0.35527136788E-14  0.00000000000E+00 -0.71054273576E-14  0.91188000000E+02  0.91188000000E+02 0.  0.
    9900012    2    3    3    0    0  0.22890946472E+02 -0.87941349621E+01 -0.32431992397E+02  0.50528851325E+02  0.29999974088E+02 0.  0.
         12    1    3    3    0    0 -0.22890946472E+02  0.87941349621E+01  0.32431992397E+02  0.40659148675E+02  0.00000000000E+00 0. -1.
         11    1    4    4    0    0  0.14130007315E+02 -0.83889913776E+01 -0.21918870107E+02  0.27394692005E+02  0.51100000000E-03 0. -1.
        -11    1    4    4    0    0  0.12572770864E+02  0.18999141322E+01 -0.12872099251E+02  0.18093512105E+02  0.51100000000E-03 0.  1.
         12    1    4    4    0    0 -0.38118317079E+01 -0.23050577167E+01  0.23589769600E+01  0.50406472149E+01  0.00000000000E+00 0. -1.
</event>
<event>
 8    1  0.7977359E-012  0.9118800E+02  0.7816164E-02  0.1184000E+00
        -11   -1    0    0    0    0  0.00000000000E+00  0.00000000000E+00  0.45593999997E+02  0.45594000000E+02  0.51100000000E-03 0. -1.
         11   -1    0    0    0    0 -0.00000000000E+00 -0.00000000000E+00 -0.45593999997E+02  0.45594000000E+02  0.51100000000E-03 0.  1.
         23    2    1    2    0    0  0.88817841970E-15  0.44408920985E-15  0.00000000000E+00  0.91188000000E+02  0.91188000000E+02 0.  0.
    9900012    2    3    3    0    0  0.62693403878E+01 -0.21156291044E+01  0.40117139862E+02  0.50528862944E+02  0.30000009405E+02 0.  0.
        -12    1    3    3    0    0 -0.62693403878E+01  0.21156291044E+01 -0.40117139862E+02  0.40659137056E+02  0.00000000000E+00 0.  1.
         11    1    4    4    0    0  0.42198633127E+00 -0.77654935733E+00 -0.12593526103E+01  0.15385287213E+01  0.51100000000E-03 0. -1.
        -11    1    4    4    0    0  0.57048004762E+01  0.41376918478E+01 -0.20415192957E+00  0.70503135088E+01  0.51100000000E-03 0.  1.
         12    1    4    4    0    0  0.14255358034E+00 -0.54767715948E+01  0.41580644402E+02  0.41940020714E+02  0.00000000000E+00 0. -1.
</event>
<event>
 8    1  0.7977359E-012  0.9118800E+02  0.7816164E-02  0.1184000E+00
        -11   -1    0    0    0    0  0.00000000000E+00  0.00000000000E+00  0.45593999997E+02  0.45594000000E+02  0.51100000000E-03 0. -1.
         11   -1    0    0    0    0 -0.00000000000E+00 -0.00000000000E+00 -0.45593999997E+02  0.45594000000E+02  0.51100000000E-03 0.  1.
         23    2    1    2    0    0  0.35527136788E-14  0.00000000000E+00  0.35527136788E-14  0.91188000000E+02  0.91188000000E+02 0.  0.
    9900012    2    3    3    0    0 -0.16686112154E+02 -0.27934543930E+02 -0.24380332217E+02  0.50528859793E+02  0.29999999826E+02 0.  0.
         12    1    3    3    0    0  0.16686112154E+02  0.27934543930E+02  0.24380332217E+02  0.40659140207E+02  0.00000000000E+00 0. -1.
         11    1    4    4    0    0 -0.73499087336E+01 -0.23369905139E+02 -0.39072670933E+01  0.24808070481E+02  0.51100000000E-03 0. -1.
        -11    1    4    4    0    0  0.14072058579E+01 -0.41400540586E+01 -0.33772307844E+01  0.55250306757E+01  0.51100000000E-03 0.  1.
         12    1    4    4    0    0 -0.10743409279E+02 -0.42458473229E+00 -0.17095834340E+02  0.20195758636E+02  0.00000000000E+00 0. -1.
</event>
<event>
 8    1  0.7977359E-012  0.9118800E+02  0.7816164E-02  0.1184000E+00
        -11   -1    0    0    0    0  0.00000000000E+00  0.00000000000E+00  0.45593999997E+02  0.45594000000E+02  0.51100000000E-03 0. -1.
         11   -1    0    0    0    0 -0.00000000000E+00 -0.00000000000E+00 -0.45593999997E+02  0.45594000000E+02  0.51100000000E-03 0.  1.
         23    2    1    2    0    0 -0.35527136788E-14 -0.17763568394E-14  0.00000000000E+00  0.91188000000E+02  0.91188000000E+02 0.  0.
    9900012    2    3    3    0    0  0.22753979828E+02  0.12899929693E+02  0.31128986903E+02  0.50528860686E+02  0.30000002542E+02 0.  0.
        -12    1    3    3    0    0 -0.22753979828E+02 -0.12899929693E+02 -0.31128986903E+02  0.40659139314E+02  0.00000000000E+00 0.  1.
         11    1    4    4    0    0  0.22109667343E+02  0.14656120153E+02  0.26599658833E+02  0.37565690440E+02  0.51100000000E-03 0. -1.
        -11    1    4    4    0    0 -0.26322704003E+01  0.12062377042E+01  0.72282842520E+01  0.77866520629E+01  0.51100000000E-03 0.  1.
        -12    1    4    4    0    0  0.32765828857E+01 -0.29624281636E+01 -0.26989561816E+01  0.51765181832E+01  0.00000000000E+00 0.  1.
</event>
<event>
 8    1  0.7977359E-012  0.9118800E+02  0.7816164E-02  0.1184000E+00
        -11   -1    0    0    0    0  0.00000000000E+00  0.00000000000E+00  0.45593999997E+02  0.45594000000E+02  0.51100000000E-03 0. -1.
         11   -1    0    0    0    0 -0.00000000000E+00 -0.00000000000E+00 -0.45593999997E+02  0.45594000000E+02  0.51100000000E-03 0.  1.
         23    2    1    2    0    0 -0.17763568394E-14  0.35527136788E-14 -0.35527136788E-14  0.91188000000E+02  0.91188000000E+02 0.  0.
    9900012    2    3    3    0    0 -0.91483211271E+01 -0.31730055006E+02  0.23720843635E+02  0.50528848596E+02  0.29999965793E+02 0.  0.
        -12    1    3    3    0    0  0.91483211271E+01  0.31730055006E+02 -0.23720843635E+02  0.40659151404E+02  0.00000000000E+00 0.  1.
         11    1    4    4    0    0 -0.14245565076E+01 -0.39766890093E+01  0.76587909563E+01  0.87464561906E+01  0.51100000000E-03 0. -1.
        -11    1    4    4    0    0 -0.15159218855E+02 -0.25328910719E+02  0.16735405764E+02  0.33932719326E+02  0.51100000000E-03 0.  1.
        -12    1    4    4    0    0  0.74354542352E+01 -0.24244552776E+01 -0.67335308609E+00  0.78496730795E+01  0.00000000000E+00 0.  1.
</event>
<event>
 8    1  0.7977359E-012  0.9118800E+02  0.7816164E-02  0.1184000E+00
        -11   -1    0    0    0    0  0.00000000000E+00  0.00000000000E+00  0.45593999997E+02  0.45594000000E+02  0.51100000000E-03 0. -1.
         11   -1    0    0    0    0 -0.00000000000E+00 -0.00000000000E+00 -0.45593999997E+02  0.45594000000E+02  0.51100000000E-03 0.  1.
         23    2    1    2    0    0 -0.22204460493E-14  0.00000000000E+00  0.00000000000E+00  0.91188000000E+02  0.91188000000E+02 0.  0.
    9900012    2    3    3    0    0 -0.14867689323E+01  0.28933462831E+01 -0.40528797407E+02  0.50528863833E+02  0.30000012108E+02 0.  0.
         12    1    3    3    0    0  0.14867689323E+01 -0.28933462831E+01  0.40528797407E+02  0.40659136167E+02  0.00000000000E+00 0. -1.
         11    1    4    4    0    0  0.54785489389E+01  0.13474703297E+01 -0.85318644055E+01  0.10228532899E+02  0.51100000000E-03 0. -1.
        -11    1    4    4    0    0  0.84010689183E+01  0.93795594774E+00 -0.16088076051E+02  0.18173714854E+02  0.51100000000E-03 0.  1.
         12    1    4    4    0    0 -0.15366386790E+02  0.60792000560E+00 -0.15908856951E+02  0.22126616081E+02  0.00000000000E+00 0. -1.
</event>
<event>
 8    1  0.7977359E-012  0.9118800E+02  0.7816164E-02  0.1184000E+00
        -11   -1    0    0    0    0  0.00000000000E+00  0.00000000000E+00  0.45593999997E+02  0.45594000000E+02  0.51100000000E-03 0. -1.
         11   -1    0    0    0    0 -0.00000000000E+00 -0.00000000000E+00 -0.45593999997E+02  0.45594000000E+02  0.51100000000E-03 0.  1.
         23    2    1    2    0    0  0.00000000000E+00  0.17763568394E-14 -0.71054273576E-14  0.91188000000E+02  0.91188000000E+02 0.  0.
    9900012    2    3    3    0    0  0.93729216510E+01  0.14502577503E+02 -0.36810158826E+02  0.50528877932E+02  0.30000054963E+02 0.  0.
         12    1    3    3    0    0 -0.93729216510E+01 -0.14502577503E+02  0.36810158826E+02  0.40659122068E+02  0.00000000000E+00 0. -1.
         11    1    4    4    0    0  0.93322102582E+00  0.10691424956E+02 -0.51767775362E+01  0.11915388999E+02  0.51100000000E-03 0. -1.
        -11    1    4    4    0    0  0.44579312397E+01  0.10058779665E+02 -0.28535806647E+02  0.30583401716E+02  0.51100000000E-03 0.  1.
        -12    1    4    4    0    0  0.39817693855E+01 -0.62476271182E+01 -0.30975746432E+01  0.80300872173E+01  0.00000000000E+00 0.  1.
</event>
<event>
 8    1  0.7977359E-012  0.9118800E+02  0.7816164E-02  0.1184000E+00
        -11   -1    0    0    0    0  0.00000000000E+00  0.00000000000E+00  0.45593999997E+02  0.45594000000E+02  0.51100000000E-03 0. -1.
         11   -1    0    0    0    0 -0.00000000000E+00 -0.00000000000E+00 -0.45593999997E+02  0.45594000000E+02  0.51100000000E-03 0.  1.
         23    2    1    2    0    0  0.00000000000E+00  0.17763568394E-14  0.00000000000E+00  0.91188000000E+02  0.91188000000E+02 0.  0.
    9900012    2    3    3    0    0 -0.92367621490E+01 -0.10308014905E+02 -0.38230780167E+02  0.50528862055E+02  0.30000006702E+02 0.  0.
         12    1    3    3    0    0  0.92367621490E+01  0.10308014905E+02  0.38230780167E+02  0.40659137945E+02  0.00000000000E+00 0. -1.
         11    1    4    4    0    0  0.60042469528E+00 -0.33144347165E+01  0.80207562457E+00  0.34625587176E+01  0.51100000000E-03 0. -1.
        -11    1    4    4    0    0 -0.39187904130E+01 -0.10687032147E+02 -0.51870578901E+01  0.12509002528E+02  0.51100000000E-03 0.  1.
        -12    1    4    4    0    0 -0.59183964313E+01  0.36934519587E+01 -0.33845797901E+02  0.34557300810E+02  0.00000000000E+00 0.  1.
</event>
<event>
 8    1  0.7977359E-012  0.9118800E+02  0.7816164E-02  0.1184000E+00
        -11   -1    0    0    0    0  0.00000000000E+00  0.00000000000E+00  0.45593999997E+02  0.45594000000E+02  0.51100000000E-03 0. -1.
         11   -1    0    0    0    0 -0.00000000000E+00 -0.00000000000E+00 -0.45593999997E+02  0.45594000000E+02  0.51100000000E-03 0.  1.
         23    2    1    2    0    0  0.17763568394E-14 -0.35527136788E-14  0.00000000000E+00  0.91188000000E+02  0.91188000000E+02 0.  0.
    9900012    2    3    3    0    0  0.10101756829E+02 -0.16776630681E+02  0.35632353864E+02  0.50528862406E+02  0.30000007768E+02 0.  0.
        -12    1    3    3    0    0 -0.10101756829E+02  0.16776630681E+02 -0.35632353864E+02  0.40659137594E+02  0.00000000000E+00 0.  1.
         11    1    4    4    0    0  0.45902664818E+01 -0.63809863709E+01  0.47637613239E+01  0.91913522211E+01  0.51100000000E-03 0. -1.
        -11    1    4    4    0    0  0.99353735566E+01 -0.95918619839E+01  0.44062283688E+01  0.14495872265E+02  0.51100000000E-03 0.  1.
         12    1    4    4    0    0 -0.44238832091E+01 -0.80378232660E+00  0.26462364171E+02  0.26841637919E+02  0.00000000000E+00 0. -1.
</event>
<event>
 8    1  0.7977359E-012  0.9118800E+02  0.7816164E-02  0.1184000E+00
        -11   -1    0    0    0    0  0.00000000000E+00  0.00000000000E+00  0.45593999997E+02  0.45594000000E+02  0.51100000000E-03 0.  1.
         11   -1    0    0    0    0 -0.00000000000E+00 -0.00000000000E+00 -0.45593999997E+02  0.45594000000E+02  0.51100000000E-03 0. -1.
         23    2    1    2    0    0  0.00000000000E+00 -0.35527136788E-14 -0.17763568394E-14  0.91188000000E+02  0.91188000000E+02 0.  0.
    9900012    2    3    3    0    0  0.27583597249E+02  0.27471441896E+02  0.11731595655E+02  0.50528864573E+02  0.30000014356E+02 0.  0.
        -12    1    3    3    0    0 -0.27583597249E+02 -0.27471441896E+02 -0.11731595655E+02  0.40659135427E+02  0.00000000000E+00 0.  1.
         11    1    4    4    0    0  0.89647540185E+01  0.48555471167E+01  0.84853093421E+01  0.13264374365E+02  0.51100000000E-03 0. -1.
        -11    1    4    4    0    0  0.37107246022E+01 -0.46234205091E+01  0.17290169392E+01  0.61753537643E+01  0.51100000000E-03 0.  1.
        -12    1    4    4    0    0  0.14908118629E+02  0.27239315289E+02  0.15172693736E+01  0.31089136443E+02  0.00000000000E+00 0.  1.
</event>
<event>
 8    1  0.7977359E-012  0.9118800E+02  0.7816164E-02  0.1184000E+00
        -11   -1    0    0    0    0  0.00000000000E+00  0.00000000000E+00  0.45593999997E+02  0.45594000000E+02  0.51100000000E-03 0. -1.
         11   -1    0    0    0    0 -0.00000000000E+00 -0.00000000000E+00 -0.45593999997E+02  0.45594000000E+02  0.51100000000E-03 0.  1.
         23    2    1    2    0    0 -0.13322676296E-14  0.17763568394E-14  0.71054273576E-14  0.91188000000E+02  0.91188000000E+02 0.  0.
    9900012    2    3    3    0    0 -0.34096719742E+01  0.15791888736E+02  0.37311627587E+02  0.50528841548E+02  0.29999944369E+02 0.  0.
        -12    1    3    3    0    0  0.34096719742E+01 -0.15791888736E+02 -0.37311627587E+02  0.40659158452E+02  0.00000000000E+00 0.  1.
         11    1    4    4    0    0 -0.18329666626E+01  0.11619203934E+01  0.36786443316E+01  0.42710947269E+01  0.51100000000E-03 0. -1.
        -11    1    4    4    0    0 -0.92352562808E+01 -0.50659186108E+01  0.12884016823E+02  0.16641856257E+02  0.51100000000E-03 0.  1.
         12    1    4    4    0    0  0.76585509691E+01  0.19695886954E+02  0.20748966433E+02  0.29615890564E+02  0.00000000000E+00 0. -1.
</event>
<event>
 8    1  0.7977359E-012  0.9118800E+02  0.7816164E-02  0.1184000E+00
        -11   -1    0    0    0    0  0.00000000000E+00  0.00000000000E+00  0.45593999997E+02  0.45594000000E+02  0.51100000000E-03 0. -1.
         11   -1    0    0    0    0 -0.00000000000E+00 -0.00000000000E+00 -0.45593999997E+02  0.45594000000E+02  0.51100000000E-03 0.  1.
         23    2    1    2    0    0  0.00000000000E+00  0.17763568394E-14  0.00000000000E+00  0.91188000000E+02  0.91188000000E+02 0.  0.
    9900012    2    3    3    0    0  0.97178750297E+01 -0.10113001235E+02  0.38163540622E+02  0.50528859307E+02  0.29999998350E+02 0.  0.
        -12    1    3    3    0    0 -0.97178750297E+01  0.10113001235E+02 -0.38163540622E+02  0.40659140693E+02  0.00000000000E+00 0.  1.
         11    1    4    4    0    0  0.45219875250E+01  0.15423781566E+01  0.22313180552E+02  0.22818968604E+02  0.51100000000E-03 0. -1.
        -11    1    4    4    0    0 -0.59376625853E+01 -0.55804708270E+00  0.92836967561E+00  0.60356544002E+01  0.51100000000E-03 0.  1.
        -12    1    4    4    0    0  0.11133550090E+02 -0.11097332309E+02  0.14921990394E+02  0.21674236303E+02  0.00000000000E+00 0.  1.
</event>
<event>
 8    1  0.7977359E-012  0.9118800E+02  0.7816164E-02  0.1184000E+00
        -11   -1    0    0    0    0  0.00000000000E+00  0.00000000000E+00  0.45593999997E+02  0.45594000000E+02  0.51100000000E-03 0. -1.
         11   -1    0    0    0    0 -0.00000000000E+00 -0.00000000000E+00 -0.45593999997E+02  0.45594000000E+02  0.51100000000E-03 0.  1.
         23    2    1    2    0    0  0.00000000000E+00  0.00000000000E+00  0.00000000000E+00  0.91188000000E+02  0.91188000000E+02 0.  0.
    9900012    2    3    3    0    0 -0.14146388546E+02 -0.15314529743E+02 -0.34907176709E+02  0.50528854462E+02  0.29999983621E+02 0.  0.
         12    1    3    3    0    0  0.14146388546E+02  0.15314529743E+02  0.34907176709E+02  0.40659145538E+02  0.00000000000E+00 0. -1.
         11    1    4    4    0    0 -0.46624975701E+01  0.18985473306E+01 -0.18994767924E+01  0.53806484650E+01  0.51100000000E-03 0.  1.
        -11    1    4    4    0    0  0.31214435037E+01  0.31462970367E+01 -0.78153631572E-01  0.44326857368E+01  0.51100000000E-03 0. -1.
        -12    1    4    4    0    0 -0.12605334480E+02 -0.20359374110E+02 -0.32929546285E+02  0.40715520260E+02  0.00000000000E+00 0.  1.
</event>
<event>
 8    1  0.9138688E-012  0.9118800E+02  0.7816164E-02  0.1184000E+00
        -11   -1    0    0    0    0  0.00000000000E+00  0.00000000000E+00  0.45593999997E+02  0.45594000000E+02  0.51100000000E-03 0. -1.
         11   -1    0    0    0    0 -0.00000000000E+00 -0.00000000000E+00 -0.45593999997E+02  0.45594000000E+02  0.51100000000E-03 0.  1.
         23    2    1    2    0    0  0.35527136788E-14  0.88817841970E-15  0.00000000000E+00  0.91188000000E+02  0.91188000000E+02 0.  0.
    9900012    2    3    3    0    0 -0.30209307871E+02 -0.26414244007E+01  0.27084800388E+02  0.50528858138E+02  0.29999994795E+02 0.  0.
        -12    1    3    3    0    0  0.30209307871E+02  0.26414244007E+01 -0.27084800388E+02  0.40659141862E+02  0.00000000000E+00 0.  1.
         11    1    4    4    0    0 -0.21006313095E+02  0.84882509647E+01  0.13928638432E+02  0.26595536526E+02  0.51100000000E-03 0. -1.
        -11    1    4    4    0    0 -0.86957705529E+01 -0.71772501875E+01  0.15608010684E+02  0.19254592790E+02  0.51100000000E-03 0.  1.
        -12    1    4    4    0    0 -0.50722422320E+00 -0.39524251779E+01 -0.24518487275E+01  0.46787288212E+01  0.00000000000E+00 0.  1.
</event>
<event>
 8    1  0.7977359E-012  0.9118800E+02  0.7816164E-02  0.1184000E+00
        -11   -1    0    0    0    0  0.00000000000E+00  0.00000000000E+00  0.45593999997E+02  0.45594000000E+02  0.51100000000E-03 0.  1.
         11   -1    0    0    0    0 -0.00000000000E+00 -0.00000000000E+00 -0.45593999997E+02  0.45594000000E+02  0.51100000000E-03 0. -1.
         23    2    1    2    0    0  0.71054273576E-14 -0.17763568394E-14 -0.17763568394E-14  0.91188000000E+02  0.91188000000E+02 0.  0.
    9900012    2    3    3    0    0  0.37398339997E+02  0.14073625289E+02 -0.75141913808E+01  0.50528857911E+02  0.29999994107E+02 0.  0.
         12    1    3    3    0    0 -0.37398339997E+02 -0.14073625289E+02  0.75141913808E+01  0.40659142089E+02  0.00000000000E+00 0. -1.
         11    1    4    4    0    0  0.15408807249E+02  0.68644869500E+01 -0.79265862577E+01  0.18638221264E+02  0.51100000000E-03 0. -1.
        -11    1    4    4    0    0  0.23687360089E+02  0.11880857454E+02 -0.15532922195E+01  0.26545404853E+02  0.51100000000E-03 0.  1.
         12    1    4    4    0    0 -0.16978273413E+01 -0.46717191152E+01  0.19656870964E+01  0.53452317941E+01  0.00000000000E+00 0. -1.
</event>
<event>
 8    1  0.7977359E-012  0.9118800E+02  0.7816164E-02  0.1184000E+00
        -11   -1    0    0    0    0  0.00000000000E+00  0.00000000000E+00  0.45593999997E+02  0.45594000000E+02  0.51100000000E-03 0. -1.
         11   -1    0    0    0    0 -0.00000000000E+00 -0.00000000000E+00 -0.45593999997E+02  0.45594000000E+02  0.51100000000E-03 0.  1.
         23    2    1    2    0    0  0.44408920985E-15  0.00000000000E+00  0.00000000000E+00  0.91188000000E+02  0.91188000000E+02 0.  0.
    9900012    2    3    3    0    0 -0.31846038762E+01 -0.12292285499E+02  0.38625442994E+02  0.50528845666E+02  0.29999956888E+02 0.  0.
        -12    1    3    3    0    0  0.31846038762E+01  0.12292285499E+02 -0.38625442994E+02  0.40659154334E+02  0.00000000000E+00 0.  1.
         11    1    4    4    0    0 -0.27552462589E+01  0.34086997987E+00 -0.19967393706E+01  0.34197284491E+01  0.51100000000E-03 0. -1.
        -11    1    4    4    0    0  0.35211693823E+01  0.39697339062E+01  0.38076159000E+01  0.65311071196E+01  0.51100000000E-03 0.  1.
         12    1    4    4    0    0 -0.39505269996E+01 -0.16602889385E+02  0.36814566465E+02  0.40578010098E+02  0.00000000000E+00 0. -1.
</event>
<event>
 8    1  0.7977359E-012  0.9118800E+02  0.7816164E-02  0.1184000E+00
        -11   -1    0    0    0    0  0.00000000000E+00  0.00000000000E+00  0.45593999997E+02  0.45594000000E+02  0.51100000000E-03 0. -1.
         11   -1    0    0    0    0 -0.00000000000E+00 -0.00000000000E+00 -0.45593999997E+02  0.45594000000E+02  0.51100000000E-03 0.  1.
         23    2    1    2    0    0  0.00000000000E+00  0.35527136788E-14  0.35527136788E-14  0.91188000000E+02  0.91188000000E+02 0.  0.
    9900012    2    3    3    0    0 -0.11251979171E+02 -0.25712463149E+02 -0.29418156559E+02  0.50528859185E+02  0.29999997980E+02 0.  0.
         12    1    3    3    0    0  0.11251979171E+02  0.25712463149E+02  0.29418156559E+02  0.40659140815E+02  0.00000000000E+00 0. -1.
         11    1    4    4    0    0 -0.12150686622E+02 -0.17164151645E+02 -0.20076651040E+02  0.29074373670E+02  0.51100000000E-03 0. -1.
        -11    1    4    4    0    0 -0.39522066470E+01 -0.82472501563E+01  0.17803715541E+01  0.93170164567E+01  0.51100000000E-03 0.  1.
        -12    1    4    4    0    0  0.48509140979E+01 -0.30106134839E+00 -0.11121877073E+02  0.12137469059E+02  0.00000000000E+00 0.  1.
</event>
<event>
 8    1  0.7977359E-012  0.9118800E+02  0.7816164E-02  0.1184000E+00
        -11   -1    0    0    0    0  0.00000000000E+00  0.00000000000E+00  0.45593999997E+02  0.45594000000E+02  0.51100000000E-03 0. -1.
         11   -1    0    0    0    0 -0.00000000000E+00 -0.00000000000E+00 -0.45593999997E+02  0.45594000000E+02  0.51100000000E-03 0.  1.
         23    2    1    2    0    0  0.00000000000E+00  0.00000000000E+00  0.00000000000E+00  0.91188000000E+02  0.91188000000E+02 0.  0.
    9900012    2    3    3    0    0 -0.23599539577E+02 -0.22629021856E+01  0.33031914962E+02  0.50528850961E+02  0.29999972981E+02 0.  0.
        -12    1    3    3    0    0  0.23599539577E+02  0.22629021856E+01 -0.33031914962E+02  0.40659149039E+02  0.00000000000E+00 0.  1.
         11    1    4    4    0    0 -0.12617834184E+02  0.64859008181E+01  0.29607807965E+02  0.32831371303E+02  0.51100000000E-03 0. -1.
        -11    1    4    4    0    0  0.13781754740E+01 -0.35997944730E+01  0.16425351349E+01  0.41899653716E+01  0.51100000000E-03 0.  1.
        -12    1    4    4    0    0 -0.12359880867E+02 -0.51490085308E+01  0.17815718621E+01  0.13507514286E+02  0.00000000000E+00 0.  1.
</event>
<event>
 8    1  0.7977359E-012  0.9118800E+02  0.7816164E-02  0.1184000E+00
        -11   -1    0    0    0    0  0.00000000000E+00  0.00000000000E+00  0.45593999997E+02  0.45594000000E+02  0.51100000000E-03 0. -1.
         11   -1    0    0    0    0 -0.00000000000E+00 -0.00000000000E+00 -0.45593999997E+02  0.45594000000E+02  0.51100000000E-03 0.  1.
         23    2    1    2    0    0  0.00000000000E+00  0.00000000000E+00  0.00000000000E+00  0.91188000000E+02  0.91188000000E+02 0.  0.
    9900012    2    3    3    0    0  0.24139990291E+02 -0.97573169959E+01  0.31228524906E+02  0.50528866536E+02  0.30000020324E+02 0.  0.
        -12    1    3    3    0    0 -0.24139990291E+02  0.97573169959E+01 -0.31228524906E+02  0.40659133464E+02  0.00000000000E+00 0.  1.
         11    1    4    4    0    0  0.15395099508E+01 -0.71486360091E+01 -0.17153760010E+01  0.75110320706E+01  0.51100000000E-03 0. -1.
        -11    1    4    4    0    0  0.60455061861E+01 -0.50496978551E+01  0.24760901458E+01  0.82570343433E+01  0.51100000000E-03 0.  1.
         12    1    4    4    0    0  0.16554974154E+02  0.24410168682E+01  0.30467810761E+02  0.34760800123E+02  0.00000000000E+00 0. -1.
</event>
<event>
 8    1  0.7977359E-012  0.9118800E+02  0.7816164E-02  0.1184000E+00
        -11   -1    0    0    0    0  0.00000000000E+00  0.00000000000E+00  0.45593999997E+02  0.45594000000E+02  0.51100000000E-03 0. -1.
         11   -1    0    0    0    0 -0.00000000000E+00 -0.00000000000E+00 -0.45593999997E+02  0.45594000000E+02  0.51100000000E-03 0.  1.
         23    2    1    2    0    0  0.00000000000E+00 -0.17763568394E-14  0.00000000000E+00  0.91188000000E+02  0.91188000000E+02 0.  0.
    9900012    2    3    3    0    0  0.19619640799E+02  0.14021366228E+02 -0.32735829538E+02  0.50528885997E+02  0.30000079475E+02 0.  0.
         12    1    3    3    0    0 -0.19619640799E+02 -0.14021366228E+02  0.32735829538E+02  0.40659114003E+02  0.00000000000E+00 0. -1.
         11    1    4    4    0    0 -0.77597216321E+00  0.38724000219E+01  0.23345414693E+01  0.45877771154E+01  0.51100000000E-03 0. -1.
        -11    1    4    4    0    0  0.49657192475E+01  0.91106736900E+01 -0.37898151615E+01  0.11046512660E+02  0.51100000000E-03 0.  1.
        -12    1    4    4    0    0  0.15429893715E+02  0.10382925162E+01 -0.31280555846E+02  0.34894596221E+02  0.00000000000E+00 0.  1.
</event>
<event>
 8    1  0.7977359E-012  0.9118800E+02  0.7816164E-02  0.1184000E+00
        -11   -1    0    0    0    0  0.00000000000E+00  0.00000000000E+00  0.45593999997E+02  0.45594000000E+02  0.51100000000E-03 0. -1.
         11   -1    0    0    0    0 -0.00000000000E+00 -0.00000000000E+00 -0.45593999997E+02  0.45594000000E+02  0.51100000000E-03 0.  1.
         23    2    1    2    0    0  0.00000000000E+00  0.00000000000E+00  0.00000000000E+00  0.91188000000E+02  0.91188000000E+02 0.  0.
    9900012    2    3    3    0    0  0.42855552679E+01  0.20911622259E+02 -0.34604950762E+02  0.50528873759E+02  0.30000042278E+02 0.  0.
         12    1    3    3    0    0 -0.42855552679E+01 -0.20911622259E+02  0.34604950762E+02  0.40659126241E+02  0.00000000000E+00 0. -1.
         11    1    4    4    0    0  0.72662443305E-01  0.92174506021E+01 -0.82819477343E+01  0.12391825288E+02  0.51100000000E-03 0. -1.
        -11    1    4    4    0    0 -0.62816398952E+01  0.14642620852E+02 -0.19870513735E+02  0.25469641959E+02  0.51100000000E-03 0.  1.
         12    1    4    4    0    0  0.10494532720E+02 -0.29484491956E+01 -0.64524892926E+01  0.12667406512E+02  0.00000000000E+00 0. -1.
</event>
<event>
 8    1  0.8359738E-012  0.9118800E+02  0.7816164E-02  0.1184000E+00
        -11   -1    0    0    0    0  0.00000000000E+00  0.00000000000E+00  0.45593999997E+02  0.45594000000E+02  0.51100000000E-03 0. -1.
         11   -1    0    0    0    0 -0.00000000000E+00 -0.00000000000E+00 -0.45593999997E+02  0.45594000000E+02  0.51100000000E-03 0.  1.
         23    2    1    2    0    0 -0.35527136788E-14  0.00000000000E+00  0.00000000000E+00  0.91188000000E+02  0.91188000000E+02 0.  0.
    9900012    2    3    3    0    0  0.25245263134E+02  0.11279002705E+02  0.29809843119E+02  0.50528856385E+02  0.29999989467E+02 0.  0.
        -12    1    3    3    0    0 -0.25245263134E+02 -0.11279002705E+02 -0.29809843119E+02  0.40659143615E+02  0.00000000000E+00 0.  1.
         11    1    4    4    0    0  0.91845475633E+01  0.32104466252E+01  0.17229939923E+02  0.19787210806E+02  0.51100000000E-03 0. -1.
        -11    1    4    4    0    0  0.37562369390E+01 -0.39003036951E+01  0.12448974015E+02  0.13575663488E+02  0.51100000000E-03 0.  1.
        -12    1    4    4    0    0  0.12304478632E+02  0.11968859775E+02  0.13092918230E+00  0.17165982091E+02  0.00000000000E+00 0.  1.
</event>
<event>
 8    1  0.7977359E-012  0.9118800E+02  0.7816164E-02  0.1184000E+00
        -11   -1    0    0    0    0  0.00000000000E+00  0.00000000000E+00  0.45593999997E+02  0.45594000000E+02  0.51100000000E-03 0. -1.
         11   -1    0    0    0    0 -0.00000000000E+00 -0.00000000000E+00 -0.45593999997E+02  0.45594000000E+02  0.51100000000E-03 0.  1.
         23    2    1    2    0    0  0.00000000000E+00  0.00000000000E+00 -0.35527136788E-14  0.91188000000E+02  0.91188000000E+02 0.  0.
    9900012    2    3    3    0    0  0.17974834413E+02  0.17632656520E+02  0.31924284838E+02  0.50528865595E+02  0.30000017462E+02 0.  0.
        -12    1    3    3    0    0 -0.17974834413E+02 -0.17632656520E+02 -0.31924284838E+02  0.40659134405E+02  0.00000000000E+00 0.  1.
         11    1    4    4    0    0  0.58601427966E+01 -0.16955171214E+01  0.64115975375E+01  0.88501206291E+01  0.51100000000E-03 0. -1.
        -11    1    4    4    0    0  0.19073414805E+00 -0.41728260147E+01 -0.10018184791E+01  0.42956369715E+01  0.51100000000E-03 0.  1.
         12    1    4    4    0    0  0.11923957469E+02  0.23500999656E+02  0.26514505780E+02  0.37383107994E+02  0.00000000000E+00 0. -1.
</event>
<event>
 8    1  0.7977359E-012  0.9118800E+02  0.7816164E-02  0.1184000E+00
        -11   -1    0    0    0    0  0.00000000000E+00  0.00000000000E+00  0.45593999997E+02  0.45594000000E+02  0.51100000000E-03 0. -1.
         11   -1    0    0    0    0 -0.00000000000E+00 -0.00000000000E+00 -0.45593999997E+02  0.45594000000E+02  0.51100000000E-03 0.  1.
         23    2    1    2    0    0 -0.35527136788E-14  0.00000000000E+00  0.00000000000E+00  0.91188000000E+02  0.91188000000E+02 0.  0.
    9900012    2    3    3    0    0 -0.26104979103E+02  0.10531287286E+02  0.29339182605E+02  0.50528861030E+02  0.30000003586E+02 0.  0.
        -12    1    3    3    0    0  0.26104979103E+02 -0.10531287286E+02 -0.29339182605E+02  0.40659138970E+02  0.00000000000E+00 0.  1.
         11    1    4    4    0    0 -0.13656968300E+02 -0.35720065227E+01  0.42721101062E+01  0.14748658880E+02  0.51100000000E-03 0. -1.
        -11    1    4    4    0    0 -0.67260220435E+01  0.20513223834E+01 -0.38613970038E+00  0.70424711700E+01  0.51100000000E-03 0.  1.
         12    1    4    4    0    0 -0.57219887599E+01  0.12051971425E+02  0.25453212199E+02  0.28737730980E+02  0.00000000000E+00 0. -1.
</event>
<event>
 8    1  0.7977359E-012  0.9118800E+02  0.7816164E-02  0.1184000E+00
        -11   -1    0    0    0    0  0.00000000000E+00  0.00000000000E+00  0.45593999997E+02  0.45594000000E+02  0.51100000000E-03 0. -1.
         11   -1    0    0    0    0 -0.00000000000E+00 -0.00000000000E+00 -0.45593999997E+02  0.45594000000E+02  0.51100000000E-03 0.  1.
         23    2    1    2    0    0  0.00000000000E+00  0.00000000000E+00  0.35527136788E-14  0.91188000000E+02  0.91188000000E+02 0.  0.
    9900012    2    3    3    0    0  0.29125035991E+02  0.58338200328E+01  0.27764439258E+02  0.50528864926E+02  0.30000015429E+02 0.  0.
        -12    1    3    3    0    0 -0.29125035991E+02 -0.58338200328E+01 -0.27764439258E+02  0.40659135074E+02  0.00000000000E+00 0.  1.
         11    1    4    4    0    0  0.15660618174E+02  0.10398497128E+02  0.31590356108E+01  0.19062088300E+02  0.51100000000E-03 0. -1.
        -11    1    4    4    0    0  0.85065078826E+00 -0.74719320110E+00 -0.17012999788E+01  0.20436062053E+01  0.51100000000E-03 0.  1.
         12    1    4    4    0    0  0.12613767029E+02 -0.38174838938E+01  0.26306703626E+02  0.29423170421E+02  0.00000000000E+00 0. -1.
</event>
<event>
 8    1  0.7977359E-012  0.9118800E+02  0.7816164E-02  0.1184000E+00
        -11   -1    0    0    0    0  0.00000000000E+00  0.00000000000E+00  0.45593999997E+02  0.45594000000E+02  0.51100000000E-03 0. -1.
         11   -1    0    0    0    0 -0.00000000000E+00 -0.00000000000E+00 -0.45593999997E+02  0.45594000000E+02  0.51100000000E-03 0.  1.
         23    2    1    2    0    0  0.00000000000E+00  0.00000000000E+00  0.71054273576E-14  0.91188000000E+02  0.91188000000E+02 0.  0.
    9900012    2    3    3    0    0 -0.18271557332E+02 -0.25179212787E+02 -0.26178658608E+02  0.50528871499E+02  0.30000035409E+02 0.  0.
         12    1    3    3    0    0  0.18271557332E+02  0.25179212787E+02  0.26178658608E+02  0.40659128501E+02  0.00000000000E+00 0. -1.
         11    1    4    4    0    0 -0.88534613833E+01  0.35417875045E+00 -0.75324642029E+01  0.11629584613E+02  0.51100000000E-03 0. -1.
        -11    1    4    4    0    0 -0.37227778076E+01 -0.10933986708E+02 -0.20077760815E+02  0.23163065849E+02  0.51100000000E-03 0.  1.
         12    1    4    4    0    0 -0.56953181415E+01 -0.14599404830E+02  0.14315664100E+01  0.15736221036E+02  0.00000000000E+00 0. -1.
</event>
<event>
 8    1  0.7977359E-012  0.9118800E+02  0.7816164E-02  0.1184000E+00
        -11   -1    0    0    0    0  0.00000000000E+00  0.00000000000E+00  0.45593999997E+02  0.45594000000E+02  0.51100000000E-03 0. -1.
         11   -1    0    0    0    0 -0.00000000000E+00 -0.00000000000E+00 -0.45593999997E+02  0.45594000000E+02  0.51100000000E-03 0.  1.
         23    2    1    2    0    0  0.17763568394E-14  0.00000000000E+00 -0.35527136788E-14  0.91188000000E+02  0.91188000000E+02 0.  0.
    9900012    2    3    3    0    0 -0.11426977153E+02  0.25476201530E+02 -0.29555914612E+02  0.50528871384E+02  0.30000035058E+02 0.  0.
         12    1    3    3    0    0  0.11426977153E+02 -0.25476201530E+02  0.29555914612E+02  0.40659128616E+02  0.00000000000E+00 0. -1.
         11    1    4    4    0    0  0.24732518878E+01  0.67214158789E+01  0.20876256804E+01  0.74600661900E+01  0.51100000000E-03 0. -1.
        -11    1    4    4    0    0  0.42080390671E+01  0.37373889398E+01 -0.50307773621E+01  0.75488005674E+01  0.51100000000E-03 0.  1.
        -12    1    4    4    0    0 -0.18108268108E+02  0.15017396712E+02 -0.26612762931E+02  0.35520004626E+02  0.00000000000E+00 0.  1.
</event>
<event>
 8    1  0.7977359E-012  0.9118800E+02  0.7816164E-02  0.1184000E+00
        -11   -1    0    0    0    0  0.00000000000E+00  0.00000000000E+00  0.45593999997E+02  0.45594000000E+02  0.51100000000E-03 0.  1.
         11   -1    0    0    0    0 -0.00000000000E+00 -0.00000000000E+00 -0.45593999997E+02  0.45594000000E+02  0.51100000000E-03 0. -1.
         23    2    1    2    0    0  0.00000000000E+00  0.00000000000E+00  0.00000000000E+00  0.91188000000E+02  0.91188000000E+02 0.  0.
    9900012    2    3    3    0    0 -0.17847755091E+02  0.56341990531E+01 -0.36095421190E+02  0.50528855989E+02  0.29999988265E+02 0.  0.
         12    1    3    3    0    0  0.17847755091E+02 -0.56341990531E+01  0.36095421190E+02  0.40659144011E+02  0.00000000000E+00 0. -1.
         11    1    4    4    0    0  0.16223050232E+01  0.85158044497E+01 -0.22457296655E+02  0.24072411020E+02  0.51100000000E-03 0. -1.
        -11    1    4    4    0    0 -0.26857424685E+01  0.17729777843E+01  0.13382821369E+01  0.34853496481E+01  0.51100000000E-03 0.  1.
         12    1    4    4    0    0 -0.16784317646E+02 -0.46545831809E+01 -0.14976406673E+02  0.22971095321E+02  0.00000000000E+00 0. -1.
</event>
<event>
 8    1  0.7977359E-012  0.9118800E+02  0.7816164E-02  0.1184000E+00
        -11   -1    0    0    0    0  0.00000000000E+00  0.00000000000E+00  0.45593999997E+02  0.45594000000E+02  0.51100000000E-03 0. -1.
         11   -1    0    0    0    0 -0.00000000000E+00 -0.00000000000E+00 -0.45593999997E+02  0.45594000000E+02  0.51100000000E-03 0.  1.
         23    2    1    2    0    0 -0.13322676296E-14 -0.35527136788E-14 -0.71054273576E-14  0.91188000000E+02  0.91188000000E+02 0.  0.
    9900012    2    3    3    0    0 -0.21287507998E+01  0.25589040847E+02  0.31525153123E+02  0.50528857475E+02  0.29999992781E+02 0.  0.
        -12    1    3    3    0    0  0.21287507998E+01 -0.25589040847E+02 -0.31525153123E+02  0.40659142525E+02  0.00000000000E+00 0.  1.
         11    1    4    4    0    0 -0.44439825200E+01 -0.51782329946E+00  0.12529983236E+02  0.13304796194E+02  0.51100000000E-03 0. -1.
        -11    1    4    4    0    0  0.78012628235E+01  0.32277447745E+01  0.41831345414E+01  0.94221363195E+01  0.51100000000E-03 0.  1.
        -12    1    4    4    0    0 -0.54860311033E+01  0.22879119372E+02  0.14812035346E+02  0.27801924962E+02  0.00000000000E+00 0.  1.
</event>
<event>
 8    1  0.7977359E-012  0.9118800E+02  0.7816164E-02  0.1184000E+00
        -11   -1    0    0    0    0  0.00000000000E+00  0.00000000000E+00  0.45593999997E+02  0.45594000000E+02  0.51100000000E-03 0. -1.
         11   -1    0    0    0    0 -0.00000000000E+00 -0.00000000000E+00 -0.45593999997E+02  0.45594000000E+02  0.51100000000E-03 0.  1.
         23    2    1    2    0    0 -0.35527136788E-14 -0.35527136788E-14  0.00000000000E+00  0.91188000000E+02  0.91188000000E+02 0.  0.
    9900012    2    3    3    0    0  0.12366800307E+02  0.17399312648E+02 -0.34604793656E+02  0.50528861121E+02  0.30000003862E+02 0.  0.
         12    1    3    3    0    0 -0.12366800307E+02 -0.17399312648E+02  0.34604793656E+02  0.40659138879E+02  0.00000000000E+00 0. -1.
         11    1    4    4    0    0  0.12786291730E+02  0.12437551542E+02 -0.25088032011E+02  0.30782970861E+02  0.51100000000E-03 0. -1.
        -11    1    4    4    0    0  0.78311338652E+01  0.35596322932E+01 -0.67405123891E+01  0.10928501599E+02  0.51100000000E-03 0.  1.
         12    1    4    4    0    0 -0.82506252883E+01  0.14021288132E+01 -0.27762492552E+01  0.88173886601E+01  0.00000000000E+00 0. -1.
</event>
<event>
 8    1  0.7977359E-012  0.9118800E+02  0.7816164E-02  0.1184000E+00
        -11   -1    0    0    0    0  0.00000000000E+00  0.00000000000E+00  0.45593999997E+02  0.45594000000E+02  0.51100000000E-03 0. -1.
         11   -1    0    0    0    0 -0.00000000000E+00 -0.00000000000E+00 -0.45593999997E+02  0.45594000000E+02  0.51100000000E-03 0.  1.
         23    2    1    2    0    0 -0.35527136788E-14  0.00000000000E+00  0.00000000000E+00  0.91188000000E+02  0.91188000000E+02 0.  0.
    9900012    2    3    3    0    0  0.24842228783E+02  0.12094461178E+02 -0.29828747267E+02  0.50528849915E+02  0.29999969801E+02 0.  0.
         12    1    3    3    0    0 -0.24842228783E+02 -0.12094461178E+02  0.29828747267E+02  0.40659150085E+02  0.00000000000E+00 0. -1.
         11    1    4    4    0    0 -0.25305630370E+01 -0.35378048661E+01 -0.67807687231E+01  0.80559690473E+01  0.51100000000E-03 0. -1.
        -11    1    4    4    0    0  0.15072200458E+02  0.10346754219E+01 -0.42784194100E+01  0.15701804125E+02  0.51100000000E-03 0.  1.
        -12    1    4    4    0    0  0.12300591362E+02  0.14597590622E+02 -0.18769559134E+02  0.26771076742E+02  0.00000000000E+00 0.  1.
</event>
<event>
 8    1  0.7977359E-012  0.9118800E+02  0.7816164E-02  0.1184000E+00
        -11   -1    0    0    0    0  0.00000000000E+00  0.00000000000E+00  0.45593999997E+02  0.45594000000E+02  0.51100000000E-03 0. -1.
         11   -1    0    0    0    0 -0.00000000000E+00 -0.00000000000E+00 -0.45593999997E+02  0.45594000000E+02  0.51100000000E-03 0.  1.
         23    2    1    2    0    0  0.35527136788E-14  0.00000000000E+00  0.00000000000E+00  0.91188000000E+02  0.91188000000E+02 0.  0.
    9900012    2    3    3    0    0 -0.18960859763E+02 -0.29186466015E+01  0.35848738917E+02  0.50528870854E+02  0.30000033449E+02 0.  0.
        -12    1    3    3    0    0  0.18960859763E+02  0.29186466015E+01 -0.35848738917E+02  0.40659129146E+02  0.00000000000E+00 0.  1.
         11    1    4    4    0    0 -0.24118563898E+01  0.10574247742E+01 -0.69386672150E+00  0.27233526556E+01  0.51100000000E-03 0. -1.
        -11    1    4    4    0    0 -0.74494622848E+01 -0.29243331038E+01 -0.19507994891E+01  0.82372223075E+01  0.51100000000E-03 0.  1.
         12    1    4    4    0    0 -0.90995410885E+01 -0.10517382718E+01  0.38493405128E+02  0.39568295891E+02  0.00000000000E+00 0. -1.
</event>
<event>
 8    1  0.7977359E-012  0.9118800E+02  0.7816164E-02  0.1184000E+00
        -11   -1    0    0    0    0  0.00000000000E+00  0.00000000000E+00  0.45593999997E+02  0.45594000000E+02  0.51100000000E-03 0. -1.
         11   -1    0    0    0    0 -0.00000000000E+00 -0.00000000000E+00 -0.45593999997E+02  0.45594000000E+02  0.51100000000E-03 0.  1.
         23    2    1    2    0    0 -0.44408920985E-15  0.00000000000E+00  0.71054273576E-14  0.91188000000E+02  0.91188000000E+02 0.  0.
    9900012    2    3    3    0    0 -0.18662696466E+01 -0.21023330000E+02 -0.34752012368E+02  0.50528859204E+02  0.29999998036E+02 0.  0.
         12    1    3    3    0    0  0.18662696466E+01  0.21023330000E+02  0.34752012368E+02  0.40659140796E+02  0.00000000000E+00 0. -1.
         11    1    4    4    0    0 -0.15953525238E+01 -0.15321421934E+02 -0.33166939112E+02  0.36569618129E+02  0.51100000000E-03 0. -1.
        -11    1    4    4    0    0 -0.19513367436E+01 -0.38751596588E+01 -0.68672053850E+01  0.81229974473E+01  0.51100000000E-03 0.  1.
         12    1    4    4    0    0  0.16804196207E+01 -0.18267484069E+01  0.52821321295E+01  0.58362436273E+01  0.00000000000E+00 0. -1.
</event>
<event>
 8    1  0.7977359E-012  0.9118800E+02  0.7816164E-02  0.1184000E+00
        -11   -1    0    0    0    0  0.00000000000E+00  0.00000000000E+00  0.45593999997E+02  0.45594000000E+02  0.51100000000E-03 0. -1.
         11   -1    0    0    0    0 -0.00000000000E+00 -0.00000000000E+00 -0.45593999997E+02  0.45594000000E+02  0.51100000000E-03 0.  1.
         23    2    1    2    0    0 -0.35527136788E-14  0.71054273576E-14 -0.35527136788E-14  0.91188000000E+02  0.91188000000E+02 0.  0.
    9900012    2    3    3    0    0  0.18611399252E+02  0.31627359248E+02  0.17506892970E+02  0.50528864045E+02  0.30000012751E+02 0.  0.
        -12    1    3    3    0    0 -0.18611399252E+02 -0.31627359248E+02 -0.17506892970E+02  0.40659135955E+02  0.00000000000E+00 0.  1.
         11    1    4    4    0    0 -0.12173061371E+01  0.19557138630E+02  0.52807197080E+01  0.20294075650E+02  0.51100000000E-03 0. -1.
        -11    1    4    4    0    0  0.77626975754E+00  0.50646934175E+01  0.79996254911E+01  0.94998801260E+01  0.51100000000E-03 0.  1.
         12    1    4    4    0    0  0.19052435631E+02  0.70055272013E+01  0.42265477711E+01  0.20734908269E+02  0.00000000000E+00 0. -1.
</event>
<event>
 8    1  0.7977359E-012  0.9118800E+02  0.7816164E-02  0.1184000E+00
        -11   -1    0    0    0    0  0.00000000000E+00  0.00000000000E+00  0.45593999997E+02  0.45594000000E+02  0.51100000000E-03 0. -1.
         11   -1    0    0    0    0 -0.00000000000E+00 -0.00000000000E+00 -0.45593999997E+02  0.45594000000E+02  0.51100000000E-03 0.  1.
         23    2    1    2    0    0  0.17763568394E-14 -0.17763568394E-14 -0.71054273576E-14  0.91188000000E+02  0.91188000000E+02 0.  0.
    9900012    2    3    3    0    0 -0.97388186061E+01 -0.26719684016E+01 -0.39385042910E+02  0.50528860708E+02  0.30000002607E+02 0.  0.
         12    1    3    3    0    0  0.97388186061E+01  0.26719684016E+01  0.39385042910E+02  0.40659139292E+02  0.00000000000E+00 0. -1.
         11    1    4    4    0    0 -0.58539985839E+01  0.79043417135E+00 -0.12693834944E+02  0.14000983231E+02  0.51100000000E-03 0. -1.
        -11    1    4    4    0    0  0.96976508314E+00  0.89663989935E+01 -0.19231033383E+02  0.21240748586E+02  0.51100000000E-03 0.  1.
         12    1    4    4    0    0 -0.48545851054E+01 -0.12428801566E+02 -0.74601745825E+01  0.15287128891E+02  0.00000000000E+00 0. -1.
</event>
<event>
 8    1  0.7977359E-012  0.9118800E+02  0.7816164E-02  0.1184000E+00
        -11   -1    0    0    0    0  0.00000000000E+00  0.00000000000E+00  0.45593999997E+02  0.45594000000E+02  0.51100000000E-03 0.  1.
         11   -1    0    0    0    0 -0.00000000000E+00 -0.00000000000E+00 -0.45593999997E+02  0.45594000000E+02  0.51100000000E-03 0. -1.
         23    2    1    2    0    0 -0.35527136788E-14  0.17763568394E-14  0.71054273576E-14  0.91188000000E+02  0.91188000000E+02 0.  0.
    9900012    2    3    3    0    0  0.30000278781E+02 -0.11008172774E+02 -0.25139016363E+02  0.50528846806E+02  0.29999960352E+02 0.  0.
         12    1    3    3    0    0 -0.30000278781E+02  0.11008172774E+02  0.25139016363E+02  0.40659153194E+02  0.00000000000E+00 0. -1.
         11    1    4    4    0    0  0.87065699151E+01 -0.56983731209E+01 -0.13508305297E+02  0.17051396663E+02  0.51100000000E-03 0. -1.
        -11    1    4    4    0    0  0.70027515326E+00  0.54100266630E+01 -0.84304189195E+01  0.10041450951E+02  0.51100000000E-03 0.  1.
        -12    1    4    4    0    0  0.20593433712E+02 -0.10719826316E+02 -0.32002921468E+01  0.23435999192E+02  0.00000000000E+00 0.  1.
</event>
<event>
 8    1  0.7977359E-012  0.9118800E+02  0.7816164E-02  0.1184000E+00
        -11   -1    0    0    0    0  0.00000000000E+00  0.00000000000E+00  0.45593999997E+02  0.45594000000E+02  0.51100000000E-03 0. -1.
         11   -1    0    0    0    0 -0.00000000000E+00 -0.00000000000E+00 -0.45593999997E+02  0.45594000000E+02  0.51100000000E-03 0.  1.
         23    2    1    2    0    0  0.35527136788E-14  0.00000000000E+00  0.71054273576E-14  0.91188000000E+02  0.91188000000E+02 0.  0.
    9900012    2    3    3    0    0  0.26770128905E+02 -0.42014340801E+01 -0.30312937459E+02  0.50528855551E+02  0.29999986933E+02 0.  0.
         12    1    3    3    0    0 -0.26770128905E+02  0.42014340801E+01  0.30312937459E+02  0.40659144449E+02  0.00000000000E+00 0. -1.
         11    1    4    4    0    0  0.50363833338E+00  0.24597601265E+01 -0.12147014835E+02  0.12403791401E+02  0.51100000000E-03 0. -1.
        -11    1    4    4    0    0  0.25169202468E+02  0.57266813647E+00 -0.17736027970E+02  0.30795833973E+02  0.51100000000E-03 0.  1.
         12    1    4    4    0    0  0.10972881036E+01 -0.72338623430E+01 -0.42989465385E+00  0.73292301774E+01  0.00000000000E+00 0. -1.
</event>
<event>
 8    1  0.7977359E-012  0.9118800E+02  0.7816164E-02  0.1184000E+00
        -11   -1    0    0    0    0  0.00000000000E+00  0.00000000000E+00  0.45593999997E+02  0.45594000000E+02  0.51100000000E-03 0. -1.
         11   -1    0    0    0    0 -0.00000000000E+00 -0.00000000000E+00 -0.45593999997E+02  0.45594000000E+02  0.51100000000E-03 0.  1.
         23    2    1    2    0    0  0.00000000000E+00  0.00000000000E+00  0.00000000000E+00  0.91188000000E+02  0.91188000000E+02 0.  0.
    9900012    2    3    3    0    0 -0.34113477585E+02 -0.45032355247E+01 -0.21660037949E+02  0.50528859243E+02  0.29999998154E+02 0.  0.
         12    1    3    3    0    0  0.34113477585E+02  0.45032355247E+01  0.21660037949E+02  0.40659140757E+02  0.00000000000E+00 0. -1.
         11    1    4    4    0    0 -0.27217224438E+02 -0.32636930433E+01 -0.77694141887E+01  0.28491977739E+02  0.51100000000E-03 0. -1.
        -11    1    4    4    0    0 -0.10895783377E+02 -0.25513380156E+01 -0.13878021047E+02  0.17827700062E+02  0.51100000000E-03 0.  1.
         12    1    4    4    0    0  0.39995302293E+01  0.13117955342E+01 -0.12602713110E-01  0.42091814414E+01  0.00000000000E+00 0. -1.
</event>
<event>
 8    1  0.7977359E-012  0.9118800E+02  0.7816164E-02  0.1184000E+00
        -11   -1    0    0    0    0  0.00000000000E+00  0.00000000000E+00  0.45593999997E+02  0.45594000000E+02  0.51100000000E-03 0. -1.
         11   -1    0    0    0    0 -0.00000000000E+00 -0.00000000000E+00 -0.45593999997E+02  0.45594000000E+02  0.51100000000E-03 0.  1.
         23    2    1    2    0    0  0.00000000000E+00  0.26645352591E-14  0.00000000000E+00  0.91188000000E+02  0.91188000000E+02 0.  0.
    9900012    2    3    3    0    0 -0.71627350148E+01 -0.39956025094E+01  0.39823310396E+02  0.50528860029E+02  0.30000000543E+02 0.  0.
        -12    1    3    3    0    0  0.71627350148E+01  0.39956025094E+01 -0.39823310396E+02  0.40659139971E+02  0.00000000000E+00 0.  1.
         11    1    4    4    0    0 -0.16324001042E+01  0.70649780626E+01  0.10430527735E+02  0.12703328470E+02  0.51100000000E-03 0. -1.
        -11    1    4    4    0    0 -0.29796304995E+01  0.58820165530E+01  0.68138003778E+01  0.94817821370E+01  0.51100000000E-03 0.  1.
        -12    1    4    4    0    0 -0.25507044110E+01 -0.16942597125E+02  0.22578982284E+02  0.28343749422E+02  0.00000000000E+00 0.  1.
</event>
<event>
 8    1  0.7977359E-012  0.9118800E+02  0.7816164E-02  0.1184000E+00
        -11   -1    0    0    0    0  0.00000000000E+00  0.00000000000E+00  0.45593999997E+02  0.45594000000E+02  0.51100000000E-03 0. -1.
         11   -1    0    0    0    0 -0.00000000000E+00 -0.00000000000E+00 -0.45593999997E+02  0.45594000000E+02  0.51100000000E-03 0.  1.
         23    2    1    2    0    0  0.00000000000E+00  0.00000000000E+00  0.00000000000E+00  0.91188000000E+02  0.91188000000E+02 0.  0.
    9900012    2    3    3    0    0 -0.67454884892E+01 -0.86758708479E+01  0.39145795522E+02  0.50528860105E+02  0.30000000775E+02 0.  0.
        -12    1    3    3    0    0  0.67454884892E+01  0.86758708479E+01 -0.39145795522E+02  0.40659139895E+02  0.00000000000E+00 0.  1.
         11    1    4    4    0    0 -0.83357512162E+01  0.25725534652E+01  0.71637211399E+01  0.11288121212E+02  0.51100000000E-03 0.  1.
        -11    1    4    4    0    0 -0.40980037683E+01  0.40207695003E+01  0.13082701401E+02  0.14286962535E+02  0.51100000000E-03 0. -1.
         12    1    4    4    0    0  0.56882664952E+01 -0.15269193813E+02  0.18899372981E+02  0.24953776358E+02  0.00000000000E+00 0. -1.
</event>
<event>
 8    1  0.7977359E-012  0.9118800E+02  0.7816164E-02  0.1184000E+00
        -11   -1    0    0    0    0  0.00000000000E+00  0.00000000000E+00  0.45593999997E+02  0.45594000000E+02  0.51100000000E-03 0. -1.
         11   -1    0    0    0    0 -0.00000000000E+00 -0.00000000000E+00 -0.45593999997E+02  0.45594000000E+02  0.51100000000E-03 0.  1.
         23    2    1    2    0    0  0.83266726847E-15 -0.35527136788E-14  0.00000000000E+00  0.91188000000E+02  0.91188000000E+02 0.  0.
    9900012    2    3    3    0    0  0.51968769291E-01 -0.16260126586E+02  0.37266214941E+02  0.50528865806E+02  0.30000018105E+02 0.  0.
        -12    1    3    3    0    0 -0.51968769291E-01  0.16260126586E+02 -0.37266214941E+02  0.40659134194E+02  0.00000000000E+00 0.  1.
         11    1    4    4    0    0  0.50362076605E+01 -0.36965661087E+01  0.40295952584E+01  0.74340854719E+01  0.51100000000E-03 0. -1.
        -11    1    4    4    0    0  0.68345971107E+01  0.29222169726E+01  0.57141455212E+01  0.93756348585E+01  0.51100000000E-03 0.  1.
        -12    1    4    4    0    0 -0.11818836002E+02 -0.15485777450E+02  0.27522474161E+02  0.33719145476E+02  0.00000000000E+00 0.  1.
</event>
<event>
 8    1  0.7977359E-012  0.9118800E+02  0.7816164E-02  0.1184000E+00
        -11   -1    0    0    0    0  0.00000000000E+00  0.00000000000E+00  0.45593999997E+02  0.45594000000E+02  0.51100000000E-03 0.  1.
         11   -1    0    0    0    0 -0.00000000000E+00 -0.00000000000E+00 -0.45593999997E+02  0.45594000000E+02  0.51100000000E-03 0. -1.
         23    2    1    2    0    0 -0.35527136788E-14  0.00000000000E+00  0.35527136788E-14  0.91188000000E+02  0.91188000000E+02 0.  0.
    9900012    2    3    3    0    0  0.20158353992E+02  0.27453697851E+02 -0.22205863019E+02  0.50528866785E+02  0.30000021080E+02 0.  0.
         12    1    3    3    0    0 -0.20158353992E+02 -0.27453697851E+02  0.22205863019E+02  0.40659133215E+02  0.00000000000E+00 0. -1.
         11    1    4    4    0    0  0.15435341115E+02  0.77101263699E+01 -0.37200120453E+01  0.17650334100E+02  0.51100000000E-03 0. -1.
        -11    1    4    4    0    0  0.16102679139E+01  0.95994828441E+01  0.18806722120E+01  0.99136250614E+01  0.51100000000E-03 0.  1.
         12    1    4    4    0    0  0.31127449635E+01  0.10144088637E+02 -0.20366523186E+02  0.22964907624E+02  0.00000000000E+00 0. -1.
</event>
<event>
 8    1  0.7977359E-012  0.9118800E+02  0.7816164E-02  0.1184000E+00
        -11   -1    0    0    0    0  0.00000000000E+00  0.00000000000E+00  0.45593999997E+02  0.45594000000E+02  0.51100000000E-03 0.  1.
         11   -1    0    0    0    0 -0.00000000000E+00 -0.00000000000E+00 -0.45593999997E+02  0.45594000000E+02  0.51100000000E-03 0. -1.
         23    2    1    2    0    0  0.00000000000E+00 -0.17763568394E-14  0.00000000000E+00  0.91188000000E+02  0.91188000000E+02 0.  0.
    9900012    2    3    3    0    0 -0.38932155246E+02 -0.55631443588E+01 -0.10319556386E+02  0.50528996923E+02  0.30000416644E+02 0.  0.
         12    1    3    3    0    0  0.38932155246E+02  0.55631443588E+01  0.10319556386E+02  0.40659003077E+02  0.00000000000E+00 0. -1.
         11    1    4    4    0    0 -0.24030014159E+02 -0.60777995396E+01 -0.17332194627E+02  0.30245432689E+02  0.51100000000E-03 0. -1.
        -11    1    4    4    0    0 -0.82389099263E+01 -0.53388373287E+01  0.17548893251E+01  0.99730866636E+01  0.51100000000E-03 0.  1.
         12    1    4    4    0    0 -0.66632311606E+01  0.58534925095E+01  0.52577489158E+01  0.10310477570E+02  0.00000000000E+00 0. -1.
</event>
<event>
 8    1  0.7977359E-012  0.9118800E+02  0.7816164E-02  0.1184000E+00
        -11   -1    0    0    0    0  0.00000000000E+00  0.00000000000E+00  0.45593999997E+02  0.45594000000E+02  0.51100000000E-03 0. -1.
         11   -1    0    0    0    0 -0.00000000000E+00 -0.00000000000E+00 -0.45593999997E+02  0.45594000000E+02  0.51100000000E-03 0.  1.
         23    2    1    2    0    0  0.00000000000E+00  0.88817841970E-15 -0.71054273576E-14  0.91188000000E+02  0.91188000000E+02 0.  0.
    9900012    2    3    3    0    0  0.17726683245E+02 -0.51011629726E+01  0.36234079480E+02  0.50528859843E+02  0.29999999978E+02 0.  0.
        -12    1    3    3    0    0 -0.17726683245E+02  0.51011629726E+01 -0.36234079480E+02  0.40659140157E+02  0.00000000000E+00 0.  1.
         11    1    4    4    0    0  0.75835527514E+01 -0.92190467199E+01  0.54459756915E+01  0.13120965904E+02  0.51100000000E-03 0. -1.
        -11    1    4    4    0    0  0.91880500066E+00  0.95741222790E+00 -0.24406390624E+01  0.27780496931E+01  0.51100000000E-03 0.  1.
         12    1    4    4    0    0  0.92243254931E+01  0.31604715195E+01  0.33228742851E+02  0.34629844246E+02  0.00000000000E+00 0. -1.
</event>
<event>
 8    1  0.7977359E-012  0.9118800E+02  0.7816164E-02  0.1184000E+00
        -11   -1    0    0    0    0  0.00000000000E+00  0.00000000000E+00  0.45593999997E+02  0.45594000000E+02  0.51100000000E-03 0. -1.
         11   -1    0    0    0    0 -0.00000000000E+00 -0.00000000000E+00 -0.45593999997E+02  0.45594000000E+02  0.51100000000E-03 0.  1.
         23    2    1    2    0    0  0.35527136788E-14  0.00000000000E+00 -0.35527136788E-14  0.91188000000E+02  0.91188000000E+02 0.  0.
    9900012    2    3    3    0    0  0.26138381517E+02  0.24817885807E+02 -0.18815510227E+02  0.50528857494E+02  0.29999992838E+02 0.  0.
         12    1    3    3    0    0 -0.26138381517E+02 -0.24817885807E+02  0.18815510227E+02  0.40659142506E+02  0.00000000000E+00 0. -1.
         11    1    4    4    0    0  0.50219654985E+01  0.54458401858E+01  0.16747710363E+01  0.75948779505E+01  0.51100000000E-03 0. -1.
        -11    1    4    4    0    0  0.35132858916E+01  0.96873566521E+01  0.41776217980E+01  0.11119378616E+02  0.51100000000E-03 0.  1.
        -12    1    4    4    0    0  0.17603130127E+02  0.96846889691E+01 -0.24667903062E+02  0.31814600927E+02  0.00000000000E+00 0.  1.
</event>
<event>
 8    1  0.7977359E-012  0.9118800E+02  0.7816164E-02  0.1184000E+00
        -11   -1    0    0    0    0  0.00000000000E+00  0.00000000000E+00  0.45593999997E+02  0.45594000000E+02  0.51100000000E-03 0. -1.
         11   -1    0    0    0    0 -0.00000000000E+00 -0.00000000000E+00 -0.45593999997E+02  0.45594000000E+02  0.51100000000E-03 0.  1.
         23    2    1    2    0    0 -0.35527136788E-14 -0.44408920985E-15  0.00000000000E+00  0.91188000000E+02  0.91188000000E+02 0.  0.
    9900012    2    3    3    0    0  0.23033709477E+02  0.22870555631E+01  0.33427308557E+02  0.50528839251E+02  0.29999937389E+02 0.  0.
        -12    1    3    3    0    0 -0.23033709477E+02 -0.22870555631E+01 -0.33427308557E+02  0.40659160749E+02  0.00000000000E+00 0.  1.
         11    1    4    4    0    0  0.15512636647E+02 -0.12004463300E+01  0.15813553340E+02  0.22184486396E+02  0.51100000000E-03 0. -1.
        -11    1    4    4    0    0  0.12627268553E+02  0.76709702964E+01  0.83552143021E+01  0.16973547145E+02  0.51100000000E-03 0.  1.
        -12    1    4    4    0    0 -0.51061957229E+01 -0.41834684033E+01  0.92585409144E+01  0.11370805710E+02  0.00000000000E+00 0.  1.
</event>
<event>
 8    1  0.7977359E-012  0.9118800E+02  0.7816164E-02  0.1184000E+00
        -11   -1    0    0    0    0  0.00000000000E+00  0.00000000000E+00  0.45593999997E+02  0.45594000000E+02  0.51100000000E-03 0.  1.
         11   -1    0    0    0    0 -0.00000000000E+00 -0.00000000000E+00 -0.45593999997E+02  0.45594000000E+02  0.51100000000E-03 0. -1.
         23    2    1    2    0    0  0.00000000000E+00  0.00000000000E+00 -0.17763568394E-14  0.91188000000E+02  0.91188000000E+02 0.  0.
    9900012    2    3    3    0    0 -0.34739668081E+02  0.19536230221E+02  0.80409693302E+01  0.50528855674E+02  0.29999987305E+02 0.  0.
        -12    1    3    3    0    0  0.34739668081E+02 -0.19536230221E+02 -0.80409693302E+01  0.40659144326E+02  0.00000000000E+00 0.  1.
         11    1    4    4    0    0 -0.22019482316E+00 -0.45811517921E+00 -0.40385642848E+01  0.40704246733E+01  0.51100000000E-03 0. -1.
        -11    1    4    4    0    0 -0.66068822564E+01  0.45857962596E+01  0.12155466359E+02  0.14575176951E+02  0.51100000000E-03 0.  1.
         12    1    4    4    0    0 -0.27912591001E+02  0.15408549140E+02 -0.75932743820E-01  0.31883254049E+02  0.00000000000E+00 0. -1.
</event>
<event>
 8    1  0.7977359E-012  0.9118800E+02  0.7816164E-02  0.1184000E+00
        -11   -1    0    0    0    0  0.00000000000E+00  0.00000000000E+00  0.45593999997E+02  0.45594000000E+02  0.51100000000E-03 0. -1.
         11   -1    0    0    0    0 -0.00000000000E+00 -0.00000000000E+00 -0.45593999997E+02  0.45594000000E+02  0.51100000000E-03 0.  1.
         23    2    1    2    0    0  0.00000000000E+00  0.00000000000E+00  0.35527136788E-14  0.91188000000E+02  0.91188000000E+02 0.  0.
    9900012    2    3    3    0    0 -0.22737280955E+02  0.25166557768E+02 -0.22423774911E+02  0.50528865032E+02  0.30000015751E+02 0.  0.
         12    1    3    3    0    0  0.22737280955E+02 -0.25166557768E+02  0.22423774911E+02  0.40659134968E+02  0.00000000000E+00 0. -1.
         11    1    4    4    0    0 -0.87010076442E+01  0.49986541557E+01 -0.24819113187E+01  0.10337018983E+02  0.51100000000E-03 0. -1.
        -11    1    4    4    0    0 -0.80875945743E+01  0.17151585461E+02 -0.25313180337E+02  0.31628202112E+02  0.51100000000E-03 0.  1.
         12    1    4    4    0    0 -0.59486787363E+01  0.30163181515E+01  0.53713167454E+01  0.85636439369E+01  0.00000000000E+00 0. -1.
</event>
<event>
 8    1  0.7977359E-012  0.9118800E+02  0.7816164E-02  0.1184000E+00
        -11   -1    0    0    0    0  0.00000000000E+00  0.00000000000E+00  0.45593999997E+02  0.45594000000E+02  0.51100000000E-03 0.  1.
         11   -1    0    0    0    0 -0.00000000000E+00 -0.00000000000E+00 -0.45593999997E+02  0.45594000000E+02  0.51100000000E-03 0. -1.
         23    2    1    2    0    0 -0.88817841970E-15  0.35527136788E-14  0.00000000000E+00  0.91188000000E+02  0.91188000000E+02 0.  0.
    9900012    2    3    3    0    0 -0.74595513159E+01 -0.28899284202E+02  0.27610729620E+02  0.50528856829E+02  0.29999990817E+02 0.  0.
        -12    1    3    3    0    0  0.74595513159E+01  0.28899284202E+02 -0.27610729620E+02  0.40659143171E+02  0.00000000000E+00 0.  1.
         11    1    4    4    0    0 -0.38916068042E+01 -0.12127385284E+02 -0.10329752445E+01  0.12778306439E+02  0.51100000000E-03 0. -1.
        -11    1    4    4    0    0 -0.18532879317E+01 -0.13652526995E+02  0.63433060556E+01  0.15167850918E+02  0.51100000000E-03 0.  1.
        -12    1    4    4    0    0 -0.17146565800E+01 -0.31193719240E+01  0.22300398809E+02  0.22582699472E+02  0.00000000000E+00 0.  1.
</event>
<event>
 8    1  0.7977359E-012  0.9118800E+02  0.7816164E-02  0.1184000E+00
        -11   -1    0    0    0    0  0.00000000000E+00  0.00000000000E+00  0.45593999997E+02  0.45594000000E+02  0.51100000000E-03 0. -1.
         11   -1    0    0    0    0 -0.00000000000E+00 -0.00000000000E+00 -0.45593999997E+02  0.45594000000E+02  0.51100000000E-03 0.  1.
         23    2    1    2    0    0 -0.35527136788E-14  0.00000000000E+00 -0.35527136788E-14  0.91188000000E+02  0.91188000000E+02 0.  0.
    9900012    2    3    3    0    0 -0.25784465650E+02 -0.10476882140E+02 -0.29640543095E+02  0.50528861751E+02  0.30000005778E+02 0.  0.
         12    1    3    3    0    0  0.25784465650E+02  0.10476882140E+02  0.29640543095E+02  0.40659138249E+02  0.00000000000E+00 0. -1.
         11    1    4    4    0    0 -0.10006195752E+02  0.36126031208E+01 -0.47524958332E+00  0.10648977282E+02  0.51100000000E-03 0. -1.
        -11    1    4    4    0    0 -0.16398600887E+02 -0.38844841244E+01 -0.19956493788E+02  0.26120202384E+02  0.51100000000E-03 0.  1.
         12    1    4    4    0    0  0.62033098942E+00 -0.10205001137E+02 -0.92087997231E+01  0.13759682085E+02  0.00000000000E+00 0. -1.
</event>
<event>
 8    1  0.7977359E-012  0.9118800E+02  0.7816164E-02  0.1184000E+00
        -11   -1    0    0    0    0  0.00000000000E+00  0.00000000000E+00  0.45593999997E+02  0.45594000000E+02  0.51100000000E-03 0. -1.
         11   -1    0    0    0    0 -0.00000000000E+00 -0.00000000000E+00 -0.45593999997E+02  0.45594000000E+02  0.51100000000E-03 0.  1.
         23    2    1    2    0    0  0.00000000000E+00  0.00000000000E+00  0.71054273576E-14  0.91188000000E+02  0.91188000000E+02 0.  0.
    9900012    2    3    3    0    0 -0.19628787788E+02 -0.40128328184E+01 -0.35380396772E+02  0.50528872943E+02  0.30000039798E+02 0.  0.
         12    1    3    3    0    0  0.19628787788E+02  0.40128328184E+01  0.35380396772E+02  0.40659127057E+02  0.00000000000E+00 0. -1.
         11    1    4    4    0    0 -0.21379256067E-01 -0.57154990969E+01 -0.10042848595E+01  0.58031004937E+01  0.51100000000E-03 0. -1.
        -11    1    4    4    0    0 -0.54688417118E+00  0.16509720106E+01 -0.21846777578E+02  0.21915895640E+02  0.51100000000E-03 0.  1.
        -12    1    4    4    0    0 -0.19060524361E+02  0.51694267886E-01 -0.12529334334E+02  0.22809876810E+02  0.00000000000E+00 0.  1.
</event>
<event>
 8    1  0.7977359E-012  0.9118800E+02  0.7816164E-02  0.1184000E+00
        -11   -1    0    0    0    0  0.00000000000E+00  0.00000000000E+00  0.45593999997E+02  0.45594000000E+02  0.51100000000E-03 0. -1.
         11   -1    0    0    0    0 -0.00000000000E+00 -0.00000000000E+00 -0.45593999997E+02  0.45594000000E+02  0.51100000000E-03 0.  1.
         23    2    1    2    0    0  0.00000000000E+00  0.26645352591E-14  0.00000000000E+00  0.91188000000E+02  0.91188000000E+02 0.  0.
    9900012    2    3    3    0    0  0.27385198852E+01 -0.76261099532E+01  0.39843552493E+02  0.50528859338E+02  0.29999998442E+02 0.  0.
        -12    1    3    3    0    0 -0.27385198852E+01  0.76261099532E+01 -0.39843552493E+02  0.40659140662E+02  0.00000000000E+00 0.  1.
         11    1    4    4    0    0  0.50802649187E+00  0.46070513687E+01  0.10061501503E+02  0.11077762680E+02  0.51100000000E-03 0. -1.
        -11    1    4    4    0    0  0.48551108390E+01  0.57699814928E+01  0.69334634772E+01  0.10243910569E+02  0.51100000000E-03 0.  1.
         12    1    4    4    0    0 -0.26246174457E+01 -0.18003142815E+02  0.22848587512E+02  0.29207186089E+02  0.00000000000E+00 0. -1.
</event>
<event>
 8    1  0.7977359E-012  0.9118800E+02  0.7816164E-02  0.1184000E+00
        -11   -1    0    0    0    0  0.00000000000E+00  0.00000000000E+00  0.45593999997E+02  0.45594000000E+02  0.51100000000E-03 0. -1.
         11   -1    0    0    0    0 -0.00000000000E+00 -0.00000000000E+00 -0.45593999997E+02  0.45594000000E+02  0.51100000000E-03 0.  1.
         23    2    1    2    0    0  0.35527136788E-14  0.49960036108E-15  0.71054273576E-14  0.91188000000E+02  0.91188000000E+02 0.  0.
    9900012    2    3    3    0    0  0.16108060768E+02  0.38579367785E+00 -0.37330247175E+02  0.50528858192E+02  0.29999994960E+02 0.  0.
         12    1    3    3    0    0 -0.16108060768E+02 -0.38579367785E+00  0.37330247175E+02  0.40659141808E+02  0.00000000000E+00 0. -1.
         11    1    4    4    0    0  0.26670255568E+00  0.42314578460E+01 -0.42843940139E+01  0.60276361937E+01  0.51100000000E-03 0. -1.
        -11    1    4    4    0    0  0.12428276512E+02  0.95695567599E+01 -0.20554074862E+02  0.25855530691E+02  0.51100000000E-03 0.  1.
        -12    1    4    4    0    0  0.34130816998E+01 -0.13415220928E+02 -0.12491778299E+02  0.18645691307E+02  0.00000000000E+00 0.  1.
</event>
<event>
 8    1  0.7977359E-012  0.9118800E+02  0.7816164E-02  0.1184000E+00
        -11   -1    0    0    0    0  0.00000000000E+00  0.00000000000E+00  0.45593999997E+02  0.45594000000E+02  0.51100000000E-03 0. -1.
         11   -1    0    0    0    0 -0.00000000000E+00 -0.00000000000E+00 -0.45593999997E+02  0.45594000000E+02  0.51100000000E-03 0.  1.
         23    2    1    2    0    0 -0.71054273576E-14  0.00000000000E+00  0.00000000000E+00  0.91188000000E+02  0.91188000000E+02 0.  0.
    9900012    2    3    3    0    0 -0.35728728642E+02 -0.12448974772E+02  0.14887806540E+02  0.50528858263E+02  0.29999995175E+02 0.  0.
        -12    1    3    3    0    0  0.35728728642E+02  0.12448974772E+02 -0.14887806540E+02  0.40659141737E+02  0.00000000000E+00 0.  1.
         11    1    4    4    0    0 -0.36741969761E+01 -0.97309748550E+01  0.10665818609E+02  0.14898029464E+02  0.51100000000E-03 0. -1.
        -11    1    4    4    0    0  0.10328605668E+01  0.12360865267E+01 -0.10078259971E+01  0.19001116687E+01  0.51100000000E-03 0.  1.
         12    1    4    4    0    0 -0.33087392233E+02 -0.39540864435E+01  0.52298139276E+01  0.33730717130E+02  0.00000000000E+00 0. -1.
</event>
<event>
 8    1  0.7977359E-012  0.9118800E+02  0.7816164E-02  0.1184000E+00
        -11   -1    0    0    0    0  0.00000000000E+00  0.00000000000E+00  0.45593999997E+02  0.45594000000E+02  0.51100000000E-03 0. -1.
         11   -1    0    0    0    0 -0.00000000000E+00 -0.00000000000E+00 -0.45593999997E+02  0.45594000000E+02  0.51100000000E-03 0.  1.
         23    2    1    2    0    0  0.00000000000E+00  0.17763568394E-14  0.00000000000E+00  0.91188000000E+02  0.91188000000E+02 0.  0.
    9900012    2    3    3    0    0 -0.20490688496E+02  0.51547601914E+01  0.34737949389E+02  0.50528868241E+02  0.30000025505E+02 0.  0.
        -12    1    3    3    0    0  0.20490688496E+02 -0.51547601914E+01 -0.34737949389E+02  0.40659131759E+02  0.00000000000E+00 0.  1.
         11    1    4    4    0    0 -0.12646638063E+02 -0.94600910119E+01  0.99570849171E+01  0.18670145060E+02  0.51100000000E-03 0. -1.
        -11    1    4    4    0    0 -0.17664878730E+00 -0.79631595394E+00 -0.72273235706E+00  0.10898009973E+01  0.51100000000E-03 0.  1.
         12    1    4    4    0    0 -0.76674016457E+01  0.15411167157E+02  0.25503596829E+02  0.30768922184E+02  0.00000000000E+00 0. -1.
</event>
<event>
 8    1  0.7977359E-012  0.9118800E+02  0.7816164E-02  0.1184000E+00
        -11   -1    0    0    0    0  0.00000000000E+00  0.00000000000E+00  0.45593999997E+02  0.45594000000E+02  0.51100000000E-03 0.  1.
         11   -1    0    0    0    0 -0.00000000000E+00 -0.00000000000E+00 -0.45593999997E+02  0.45594000000E+02  0.51100000000E-03 0. -1.
         23    2    1    2    0    0 -0.17763568394E-14 -0.71054273576E-14  0.94368957093E-15  0.91188000000E+02  0.91188000000E+02 0.  0.
    9900012    2    3    3    0    0  0.11590174697E+02  0.38970096170E+02 -0.40123209142E+00  0.50528910829E+02  0.30000154954E+02 0.  0.
         12    1    3    3    0    0 -0.11590174697E+02 -0.38970096170E+02  0.40123209142E+00  0.40659089171E+02  0.00000000000E+00 0. -1.
         11    1    4    4    0    0  0.22833662998E+01 -0.14222044773E+01  0.34063761394E-02  0.26900630288E+01  0.51100000000E-03 0. -1.
        -11    1    4    4    0    0  0.32734983337E+01  0.11380542170E+02  0.10927522740E+02  0.16113450435E+02  0.51100000000E-03 0.  1.
        -12    1    4    4    0    0  0.60333100640E+01  0.29011758478E+02 -0.11332161208E+02  0.31725397364E+02  0.00000000000E+00 0.  1.
</event>
<event>
 8    1  0.7977359E-012  0.9118800E+02  0.7816164E-02  0.1184000E+00
        -11   -1    0    0    0    0  0.00000000000E+00  0.00000000000E+00  0.45593999997E+02  0.45594000000E+02  0.51100000000E-03 0.  1.
         11   -1    0    0    0    0 -0.00000000000E+00 -0.00000000000E+00 -0.45593999997E+02  0.45594000000E+02  0.51100000000E-03 0. -1.
         23    2    1    2    0    0  0.71054273576E-14  0.35527136788E-14 -0.17763568394E-14  0.91188000000E+02  0.91188000000E+02 0.  0.
    9900012    2    3    3    0    0 -0.33033038360E+02 -0.23326574076E+02 -0.42254522265E+01  0.50528866611E+02  0.30000020551E+02 0.  0.
         12    1    3    3    0    0  0.33033038360E+02  0.23326574076E+02  0.42254522265E+01  0.40659133389E+02  0.00000000000E+00 0. -1.
         11    1    4    4    0    0 -0.84794585821E+01 -0.74919345411E+01  0.70464003064E+01  0.13329743379E+02  0.51100000000E-03 0. -1.
        -11    1    4    4    0    0 -0.13587045779E+02 -0.36166089401E+01  0.41647056855E+01  0.14663984688E+02  0.51100000000E-03 0.  1.
         12    1    4    4    0    0 -0.10966533999E+02 -0.12218030595E+02 -0.15436558218E+02  0.22535138544E+02  0.00000000000E+00 0. -1.
</event>
<event>
 8    1  0.7977359E-012  0.9118800E+02  0.7816164E-02  0.1184000E+00
        -11   -1    0    0    0    0  0.00000000000E+00  0.00000000000E+00  0.45593999997E+02  0.45594000000E+02  0.51100000000E-03 0. -1.
         11   -1    0    0    0    0 -0.00000000000E+00 -0.00000000000E+00 -0.45593999997E+02  0.45594000000E+02  0.51100000000E-03 0.  1.
         23    2    1    2    0    0  0.00000000000E+00  0.00000000000E+00  0.00000000000E+00  0.91188000000E+02  0.91188000000E+02 0.  0.
    9900012    2    3    3    0    0 -0.20321264633E+02  0.23112227837E+02 -0.26571357877E+02  0.50528856731E+02  0.29999990521E+02 0.  0.
         12    1    3    3    0    0  0.20321264633E+02 -0.23112227837E+02  0.26571357877E+02  0.40659143269E+02  0.00000000000E+00 0. -1.
         11    1    4    4    0    0 -0.28984314589E+01  0.83236334208E+01  0.18913564958E+01  0.90144887765E+01  0.51100000000E-03 0. -1.
        -11    1    4    4    0    0 -0.17742449686E+01  0.75250225865E+01  0.55948914610E+00  0.77515765172E+01  0.51100000000E-03 0.  1.
        -12    1    4    4    0    0 -0.15648588206E+02  0.72635718299E+01 -0.29022203519E+02  0.33762791438E+02  0.00000000000E+00 0.  1.
</event>
<event>
 8    1  0.7977359E-012  0.9118800E+02  0.7816164E-02  0.1184000E+00
        -11   -1    0    0    0    0  0.00000000000E+00  0.00000000000E+00  0.45593999997E+02  0.45594000000E+02  0.51100000000E-03 0. -1.
         11   -1    0    0    0    0 -0.00000000000E+00 -0.00000000000E+00 -0.45593999997E+02  0.45594000000E+02  0.51100000000E-03 0.  1.
         23    2    1    2    0    0  0.00000000000E+00  0.00000000000E+00  0.00000000000E+00  0.91188000000E+02  0.91188000000E+02 0.  0.
    9900012    2    3    3    0    0  0.25967454539E+02 -0.10227386377E+02 -0.29567818728E+02  0.50528880093E+02  0.30000061530E+02 0.  0.
         12    1    3    3    0    0 -0.25967454539E+02  0.10227386377E+02  0.29567818728E+02  0.40659119907E+02  0.00000000000E+00 0. -1.
         11    1    4    4    0    0  0.16450112286E+02 -0.29057276761E+01 -0.61258135197E+01  0.17792555721E+02  0.51100000000E-03 0. -1.
        -11    1    4    4    0    0  0.94969748147E+01  0.42646877909E+01 -0.15566118524E+02  0.18726562385E+02  0.51100000000E-03 0.  1.
        -12    1    4    4    0    0  0.20367437830E-01 -0.11586346492E+02 -0.78758866836E+01  0.14009761986E+02  0.00000000000E+00 0.  1.
</event>
<event>
 8    1  0.7977359E-012  0.9118800E+02  0.7816164E-02  0.1184000E+00
        -11   -1    0    0    0    0  0.00000000000E+00  0.00000000000E+00  0.45593999997E+02  0.45594000000E+02  0.51100000000E-03 0. -1.
         11   -1    0    0    0    0 -0.00000000000E+00 -0.00000000000E+00 -0.45593999997E+02  0.45594000000E+02  0.51100000000E-03 0.  1.
         23    2    1    2    0    0  0.00000000000E+00  0.00000000000E+00  0.00000000000E+00  0.91188000000E+02  0.91188000000E+02 0.  0.
    9900012    2    3    3    0    0  0.25061484857E+02  0.22839729967E+02  0.22437344884E+02  0.50528859163E+02  0.29999997911E+02 0.  0.
        -12    1    3    3    0    0 -0.25061484857E+02 -0.22839729967E+02 -0.22437344884E+02  0.40659140837E+02  0.00000000000E+00 0.  1.
         11    1    4    4    0    0 -0.14120492311E+01 -0.50770656353E+00  0.53617024702E+00  0.15934640820E+01  0.51100000000E-03 0. -1.
        -11    1    4    4    0    0  0.51757355772E+01  0.18630842939E+02  0.18678850362E+02  0.26884865603E+02  0.51100000000E-03 0.  1.
         12    1    4    4    0    0  0.21297798511E+02  0.47165935914E+01  0.32223242745E+01  0.22050529477E+02  0.00000000000E+00 0. -1.
</event>
<event>
 8    1  0.7977359E-012  0.9118800E+02  0.7816164E-02  0.1184000E+00
        -11   -1    0    0    0    0  0.00000000000E+00  0.00000000000E+00  0.45593999997E+02  0.45594000000E+02  0.51100000000E-03 0.  1.
         11   -1    0    0    0    0 -0.00000000000E+00 -0.00000000000E+00 -0.45593999997E+02  0.45594000000E+02  0.51100000000E-03 0. -1.
         23    2    1    2    0    0  0.00000000000E+00 -0.71054273576E-14 -0.17763568394E-14  0.91188000000E+02  0.91188000000E+02 0.  0.
    9900012    2    3    3    0    0 -0.16242628724E+02  0.35872435837E+02  0.10124779426E+02  0.50528858357E+02  0.29999995463E+02 0.  0.
        -12    1    3    3    0    0  0.16242628724E+02 -0.35872435837E+02 -0.10124779426E+02  0.40659141643E+02  0.00000000000E+00 0.  1.
         11    1    4    4    0    0 -0.16579842513E+02  0.90428739000E+01  0.17058061230E+01  0.18962450288E+02  0.51100000000E-03 0. -1.
        -11    1    4    4    0    0 -0.24016680146E+01  0.14973752079E+02 -0.23146249676E+01  0.15340754531E+02  0.51100000000E-03 0.  1.
        -12    1    4    4    0    0  0.27388818041E+01  0.11855809858E+02  0.10733598270E+02  0.16225653538E+02  0.00000000000E+00 0.  1.
</event>
<event>
 8    1  0.7977359E-012  0.9118800E+02  0.7816164E-02  0.1184000E+00
        -11   -1    0    0    0    0  0.00000000000E+00  0.00000000000E+00  0.45593999997E+02  0.45594000000E+02  0.51100000000E-03 0. -1.
         11   -1    0    0    0    0 -0.00000000000E+00 -0.00000000000E+00 -0.45593999997E+02  0.45594000000E+02  0.51100000000E-03 0.  1.
         23    2    1    2    0    0 -0.35527136788E-14  0.24980018054E-15  0.00000000000E+00  0.91188000000E+02  0.91188000000E+02 0.  0.
    9900012    2    3    3    0    0 -0.22577512960E+02 -0.10298061226E+00  0.33814360869E+02  0.50528859607E+02  0.29999999263E+02 0.  0.
        -12    1    3    3    0    0  0.22577512960E+02  0.10298061226E+00 -0.33814360869E+02  0.40659140393E+02  0.00000000000E+00 0.  1.
         11    1    4    4    0    0 -0.15684744514E+00  0.30250265649E+01  0.58403795320E+00  0.30848804565E+01  0.51100000000E-03 0. -1.
        -11    1    4    4    0    0  0.22134093115E+01  0.64561237365E+01  0.35271528453E+01  0.76825465789E+01  0.51100000000E-03 0.  1.
        -12    1    4    4    0    0 -0.24634074827E+02 -0.95841309136E+01  0.29703170071E+02  0.39761432572E+02  0.00000000000E+00 0.  1.
</event>
<event>
 8    1  0.1364906E-011  0.9118800E+02  0.7816164E-02  0.1184000E+00
        -11   -1    0    0    0    0  0.00000000000E+00  0.00000000000E+00  0.45593999997E+02  0.45594000000E+02  0.51100000000E-03 0. -1.
         11   -1    0    0    0    0 -0.00000000000E+00 -0.00000000000E+00 -0.45593999997E+02  0.45594000000E+02  0.51100000000E-03 0.  1.
         23    2    1    2    0    0  0.17763568394E-14 -0.17763568394E-14  0.00000000000E+00  0.91188000000E+02  0.91188000000E+02 0.  0.
    9900012    2    3    3    0    0 -0.13930786410E+02  0.13734890693E+02  0.35643396915E+02  0.50528858642E+02  0.29999996329E+02 0.  0.
        -12    1    3    3    0    0  0.13930786410E+02 -0.13734890693E+02 -0.35643396915E+02  0.40659141358E+02  0.00000000000E+00 0.  1.
         11    1    4    4    0    0 -0.10549312444E+02  0.25337119444E+01  0.25927870230E+02  0.28106265213E+02  0.51100000000E-03 0. -1.
        -11    1    4    4    0    0 -0.10068358743E+02  0.66075578663E+01  0.50052826546E+01  0.13041645734E+02  0.51100000000E-03 0.  1.
        -12    1    4    4    0    0  0.66868847778E+01  0.45936208826E+01  0.47102440297E+01  0.93809476954E+01  0.00000000000E+00 0.  1.
</event>
<event>
 8    1  0.7977359E-012  0.9118800E+02  0.7816164E-02  0.1184000E+00
        -11   -1    0    0    0    0  0.00000000000E+00  0.00000000000E+00  0.45593999997E+02  0.45594000000E+02  0.51100000000E-03 0. -1.
         11   -1    0    0    0    0 -0.00000000000E+00 -0.00000000000E+00 -0.45593999997E+02  0.45594000000E+02  0.51100000000E-03 0.  1.
         23    2    1    2    0    0 -0.44408920985E-15  0.00000000000E+00  0.00000000000E+00  0.91188000000E+02  0.91188000000E+02 0.  0.
    9900012    2    3    3    0    0 -0.13145694015E+01  0.20566259590E+02  0.35049465882E+02  0.50528878209E+02  0.30000055803E+02 0.  0.
        -12    1    3    3    0    0  0.13145694015E+01 -0.20566259590E+02 -0.35049465882E+02  0.40659121791E+02  0.00000000000E+00 0.  1.
         11    1    4    4    0    0  0.44313829539E+01  0.13449321698E+02  0.12651143242E+02  0.18988755478E+02  0.51100000000E-03 0. -1.
        -11    1    4    4    0    0  0.37302521645E+01  0.85566119390E+01  0.19347221119E+02  0.21481279161E+02  0.51100000000E-03 0.  1.
         12    1    4    4    0    0 -0.94762045199E+01 -0.14396740475E+01  0.30511015211E+01  0.10058843570E+02  0.00000000000E+00 0. -1.
</event>
<event>
 8    1  0.7977359E-012  0.9118800E+02  0.7816164E-02  0.1184000E+00
        -11   -1    0    0    0    0  0.00000000000E+00  0.00000000000E+00  0.45593999997E+02  0.45594000000E+02  0.51100000000E-03 0. -1.
         11   -1    0    0    0    0 -0.00000000000E+00 -0.00000000000E+00 -0.45593999997E+02  0.45594000000E+02  0.51100000000E-03 0.  1.
         23    2    1    2    0    0  0.00000000000E+00  0.00000000000E+00  0.35527136788E-14  0.91188000000E+02  0.91188000000E+02 0.  0.
    9900012    2    3    3    0    0 -0.26951079183E+02 -0.19241837985E+02  0.23591466980E+02  0.50528852045E+02  0.29999976275E+02 0.  0.
        -12    1    3    3    0    0  0.26951079183E+02  0.19241837985E+02 -0.23591466980E+02  0.40659147955E+02  0.00000000000E+00 0.  1.
         11    1    4    4    0    0 -0.10329818531E+02 -0.10085407831E+01  0.34852168820E+01  0.10948472147E+02  0.51100000000E-03 0. -1.
        -11    1    4    4    0    0 -0.14095875263E+02 -0.25053458980E+01  0.18753364986E+02  0.23593625327E+02  0.51100000000E-03 0.  1.
         12    1    4    4    0    0 -0.25253853902E+01 -0.15727951304E+02  0.13528851122E+01  0.15986754571E+02  0.00000000000E+00 0. -1.
</event>
<event>
 8    1  0.7977359E-012  0.9118800E+02  0.7816164E-02  0.1184000E+00
        -11   -1    0    0    0    0  0.00000000000E+00  0.00000000000E+00  0.45593999997E+02  0.45594000000E+02  0.51100000000E-03 0. -1.
         11   -1    0    0    0    0 -0.00000000000E+00 -0.00000000000E+00 -0.45593999997E+02  0.45594000000E+02  0.51100000000E-03 0.  1.
         23    2    1    2    0    0  0.00000000000E+00  0.00000000000E+00  0.00000000000E+00  0.91188000000E+02  0.91188000000E+02 0.  0.
    9900012    2    3    3    0    0 -0.11438374095E+02  0.15800090669E+02  0.35674723507E+02  0.50528866163E+02  0.30000019189E+02 0.  0.
        -12    1    3    3    0    0  0.11438374095E+02 -0.15800090669E+02 -0.35674723507E+02  0.40659133837E+02  0.00000000000E+00 0.  1.
         11    1    4    4    0    0 -0.75089812719E+01  0.20725206515E+02  0.20717382145E+02  0.30251097634E+02  0.51100000000E-03 0. -1.
        -11    1    4    4    0    0 -0.78803856003E+01 -0.18013437831E+01  0.62475417227E+01  0.10216510876E+02  0.51100000000E-03 0.  1.
        -12    1    4    4    0    0  0.39509927771E+01 -0.31237720630E+01  0.87097996389E+01  0.10061257654E+02  0.00000000000E+00 0.  1.
</event>
<event>
 8    1  0.7977359E-012  0.9118800E+02  0.7816164E-02  0.1184000E+00
        -11   -1    0    0    0    0  0.00000000000E+00  0.00000000000E+00  0.45593999997E+02  0.45594000000E+02  0.51100000000E-03 0. -1.
         11   -1    0    0    0    0 -0.00000000000E+00 -0.00000000000E+00 -0.45593999997E+02  0.45594000000E+02  0.51100000000E-03 0.  1.
         23    2    1    2    0    0  0.00000000000E+00  0.35527136788E-14  0.00000000000E+00  0.91188000000E+02  0.91188000000E+02 0.  0.
    9900012    2    3    3    0    0  0.24700302401E+02 -0.73494624586E+01 -0.31449122450E+02  0.50528845557E+02  0.29999956556E+02 0.  0.
         12    1    3    3    0    0 -0.24700302401E+02  0.73494624586E+01  0.31449122450E+02  0.40659154443E+02  0.00000000000E+00 0. -1.
         11    1    4    4    0    0 -0.38245707946E+00 -0.23859336421E+01 -0.10280645096E+00  0.24185785473E+01  0.51100000000E-03 0. -1.
        -11    1    4    4    0    0  0.16393992068E+02 -0.14147639497E+02 -0.27279408465E+02  0.34829367002E+02  0.51100000000E-03 0.  1.
        -12    1    4    4    0    0  0.86887674129E+01  0.91841106802E+01 -0.40669075334E+01  0.13280900008E+02  0.00000000000E+00 0.  1.
</event>
<event>
 8    1  0.7977359E-012  0.9118800E+02  0.7816164E-02  0.1184000E+00
        -11   -1    0    0    0    0  0.00000000000E+00  0.00000000000E+00  0.45593999997E+02  0.45594000000E+02  0.51100000000E-03 0. -1.
         11   -1    0    0    0    0 -0.00000000000E+00 -0.00000000000E+00 -0.45593999997E+02  0.45594000000E+02  0.51100000000E-03 0.  1.
         23    2    1    2    0    0 -0.17763568394E-14  0.00000000000E+00  0.88817841970E-15  0.91188000000E+02  0.91188000000E+02 0.  0.
    9900012    2    3    3    0    0  0.14098936905E+02  0.37985893370E+02  0.33854426830E+01  0.50528814824E+02  0.29999863140E+02 0.  0.
        -12    1    3    3    0    0 -0.14098936905E+02 -0.37985893370E+02 -0.33854426830E+01  0.40659185176E+02  0.00000000000E+00 0.  1.
         11    1    4    4    0    0  0.11726608496E+02  0.35374514987E+02  0.84908128805E+01  0.38222553041E+02  0.51100000000E-03 0. -1.
        -11    1    4    4    0    0  0.41427326818E+01  0.55492028361E+01 -0.10652405432E+01  0.70064701430E+01  0.51100000000E-03 0.  1.
        -12    1    4    4    0    0 -0.17704042726E+01 -0.29378244527E+01 -0.40401296543E+01  0.52997916400E+01  0.00000000000E+00 0.  1.
</event>
<event>
 8    1  0.7977359E-012  0.9118800E+02  0.7816164E-02  0.1184000E+00
        -11   -1    0    0    0    0  0.00000000000E+00  0.00000000000E+00  0.45593999997E+02  0.45594000000E+02  0.51100000000E-03 0. -1.
         11   -1    0    0    0    0 -0.00000000000E+00 -0.00000000000E+00 -0.45593999997E+02  0.45594000000E+02  0.51100000000E-03 0.  1.
         23    2    1    2    0    0  0.00000000000E+00  0.00000000000E+00 -0.17763568394E-14  0.91188000000E+02  0.91188000000E+02 0.  0.
    9900012    2    3    3    0    0 -0.27410696666E+02 -0.26036330155E+02 -0.14964240755E+02  0.50528864729E+02  0.30000014829E+02 0.  0.
         12    1    3    3    0    0  0.27410696666E+02  0.26036330155E+02  0.14964240755E+02  0.40659135271E+02  0.00000000000E+00 0. -1.
         11    1    4    4    0    0 -0.10505432052E+01  0.60049436686E+00 -0.96695791711E+01  0.97449985181E+01  0.51100000000E-03 0. -1.
        -11    1    4    4    0    0 -0.57464730324E+01 -0.63720170259E+01 -0.80253683853E+01  0.11748663382E+02  0.51100000000E-03 0.  1.
         12    1    4    4    0    0 -0.20613680428E+02 -0.20264807496E+02  0.27307068017E+01  0.29035202828E+02  0.00000000000E+00 0. -1.
</event>
<event>
 8    1  0.7977359E-012  0.9118800E+02  0.7816164E-02  0.1184000E+00
        -11   -1    0    0    0    0  0.00000000000E+00  0.00000000000E+00  0.45593999997E+02  0.45594000000E+02  0.51100000000E-03 0. -1.
         11   -1    0    0    0    0 -0.00000000000E+00 -0.00000000000E+00 -0.45593999997E+02  0.45594000000E+02  0.51100000000E-03 0.  1.
         23    2    1    2    0    0  0.00000000000E+00  0.00000000000E+00  0.35527136788E-14  0.91188000000E+02  0.91188000000E+02 0.  0.
    9900012    2    3    3    0    0  0.28056604873E+02  0.76319558808E+01  0.28420869010E+02  0.50528860525E+02  0.30000002052E+02 0.  0.
        -12    1    3    3    0    0 -0.28056604873E+02 -0.76319558808E+01 -0.28420869010E+02  0.40659139475E+02  0.00000000000E+00 0.  1.
         11    1    4    4    0    0  0.89720064956E+01  0.71549313801E+01  0.20310085861E+02  0.23327870275E+02  0.51100000000E-03 0.  1.
        -11    1    4    4    0    0  0.15419355669E+02  0.19020875719E+01  0.13464017652E+02  0.20558556320E+02  0.51100000000E-03 0. -1.
        -12    1    4    4    0    0  0.36652427086E+01 -0.14250630712E+01 -0.53532345033E+01  0.66424339302E+01  0.00000000000E+00 0.  1.
</event>
<event>
 8    1  0.7977359E-012  0.9118800E+02  0.7816164E-02  0.1184000E+00
        -11   -1    0    0    0    0  0.00000000000E+00  0.00000000000E+00  0.45593999997E+02  0.45594000000E+02  0.51100000000E-03 0. -1.
         11   -1    0    0    0    0 -0.00000000000E+00 -0.00000000000E+00 -0.45593999997E+02  0.45594000000E+02  0.51100000000E-03 0.  1.
         23    2    1    2    0    0  0.00000000000E+00  0.00000000000E+00 -0.71054273576E-14  0.91188000000E+02  0.91188000000E+02 0.  0.
    9900012    2    3    3    0    0  0.96800598274E+01 -0.16071847129E+02  0.36071562897E+02  0.50528862303E+02  0.30000007456E+02 0.  0.
        -12    1    3    3    0    0 -0.96800598274E+01  0.16071847129E+02 -0.36071562897E+02  0.40659137697E+02  0.00000000000E+00 0.  1.
         11    1    4    4    0    0 -0.23343172186E+00 -0.17406475424E+01  0.20412889023E+01  0.26928061348E+01  0.51100000000E-03 0. -1.
        -11    1    4    4    0    0  0.36759652567E+01 -0.73255153142E+00 -0.48772789057E+01  0.61511951765E+01  0.51100000000E-03 0.  1.
        -12    1    4    4    0    0  0.62375262926E+01 -0.13598648055E+02  0.38907552901E+02  0.41684860992E+02  0.00000000000E+00 0.  1.
</event>
<event>
 8    1  0.7977359E-012  0.9118800E+02  0.7816164E-02  0.1184000E+00
        -11   -1    0    0    0    0  0.00000000000E+00  0.00000000000E+00  0.45593999997E+02  0.45594000000E+02  0.51100000000E-03 0. -1.
         11   -1    0    0    0    0 -0.00000000000E+00 -0.00000000000E+00 -0.45593999997E+02  0.45594000000E+02  0.51100000000E-03 0.  1.
         23    2    1    2    0    0  0.00000000000E+00  0.35527136788E-14  0.00000000000E+00  0.91188000000E+02  0.91188000000E+02 0.  0.
    9900012    2    3    3    0    0 -0.26793127901E+02 -0.29728291030E+02  0.71780059125E+01  0.50528846552E+02  0.29999959578E+02 0.  0.
        -12    1    3    3    0    0  0.26793127901E+02  0.29728291030E+02 -0.71780059125E+01  0.40659153448E+02  0.00000000000E+00 0.  1.
         11    1    4    4    0    0  0.22186623100E+01 -0.16033889242E+01 -0.24427717260E+01  0.36688489277E+01  0.51100000000E-03 0. -1.
        -11    1    4    4    0    0 -0.50404163605E+01 -0.17740229988E+02  0.94784037825E+01  0.20735517732E+02  0.51100000000E-03 0.  1.
         12    1    4    4    0    0 -0.23971373851E+02 -0.10384672118E+02  0.14237385605E+00  0.26124479891E+02  0.00000000000E+00 0. -1.
</event>
<event>
 8    1  0.7977359E-012  0.9118800E+02  0.7816164E-02  0.1184000E+00
        -11   -1    0    0    0    0  0.00000000000E+00  0.00000000000E+00  0.45593999997E+02  0.45594000000E+02  0.51100000000E-03 0. -1.
         11   -1    0    0    0    0 -0.00000000000E+00 -0.00000000000E+00 -0.45593999997E+02  0.45594000000E+02  0.51100000000E-03 0.  1.
         23    2    1    2    0    0  0.00000000000E+00  0.00000000000E+00  0.35527136788E-14  0.91188000000E+02  0.91188000000E+02 0.  0.
    9900012    2    3    3    0    0  0.32525104620E+02  0.88314824046E+01  0.22743979673E+02  0.50528854370E+02  0.29999983342E+02 0.  0.
        -12    1    3    3    0    0 -0.32525104620E+02 -0.88314824046E+01 -0.22743979673E+02  0.40659145630E+02  0.00000000000E+00 0.  1.
         11    1    4    4    0    0  0.10445556050E+02  0.31097577780E+01 -0.28527160158E+01  0.11265798843E+02  0.51100000000E-03 0. -1.
        -11    1    4    4    0    0  0.61808986318E+01 -0.24815288316E+01 -0.14676192785E+01  0.68202199266E+01  0.51100000000E-03 0.  1.
         12    1    4    4    0    0  0.15898649938E+02  0.82032534581E+01  0.27064314967E+02  0.32442835600E+02  0.00000000000E+00 0. -1.
</event>
<event>
 8    1  0.7977359E-012  0.9118800E+02  0.7816164E-02  0.1184000E+00
        -11   -1    0    0    0    0  0.00000000000E+00  0.00000000000E+00  0.45593999997E+02  0.45594000000E+02  0.51100000000E-03 0. -1.
         11   -1    0    0    0    0 -0.00000000000E+00 -0.00000000000E+00 -0.45593999997E+02  0.45594000000E+02  0.51100000000E-03 0.  1.
         23    2    1    2    0    0  0.00000000000E+00  0.00000000000E+00  0.00000000000E+00  0.91188000000E+02  0.91188000000E+02 0.  0.
    9900012    2    3    3    0    0  0.34990532244E+02 -0.16423798207E+02  0.12612970048E+02  0.50528861941E+02  0.30000006356E+02 0.  0.
        -12    1    3    3    0    0 -0.34990532244E+02  0.16423798207E+02 -0.12612970048E+02  0.40659138059E+02  0.00000000000E+00 0.  1.
         11    1    4    4    0    0  0.24767149663E+02 -0.13148199693E+02  0.51897812302E+01  0.28517024513E+02  0.51100000000E-03 0. -1.
        -11    1    4    4    0    0 -0.97554074557E+00 -0.82964613720E+01  0.19746982350E+01  0.85838443849E+01  0.51100000000E-03 0.  1.
        -12    1    4    4    0    0  0.11198923326E+02  0.50208628586E+01  0.54484905833E+01  0.13427993043E+02  0.00000000000E+00 0.  1.
</event>
<event>
 8    1  0.7977359E-012  0.9118800E+02  0.7816164E-02  0.1184000E+00
        -11   -1    0    0    0    0  0.00000000000E+00  0.00000000000E+00  0.45593999997E+02  0.45594000000E+02  0.51100000000E-03 0. -1.
         11   -1    0    0    0    0 -0.00000000000E+00 -0.00000000000E+00 -0.45593999997E+02  0.45594000000E+02  0.51100000000E-03 0.  1.
         23    2    1    2    0    0  0.00000000000E+00  0.17763568394E-14  0.17763568394E-14  0.91188000000E+02  0.91188000000E+02 0.  0.
    9900012    2    3    3    0    0  0.36776163497E+02 -0.13234962506E+02 -0.11203370726E+02  0.50528856506E+02  0.29999989834E+02 0.  0.
         12    1    3    3    0    0 -0.36776163497E+02  0.13234962506E+02  0.11203370726E+02  0.40659143494E+02  0.00000000000E+00 0. -1.
         11    1    4    4    0    0  0.29712813676E+01 -0.69068126626E+01  0.64168280455E+01  0.98847486841E+01  0.51100000000E-03 0. -1.
        -11    1    4    4    0    0  0.16883057250E+02 -0.21808871486E+01 -0.18134965777E+01  0.17119657151E+02  0.51100000000E-03 0.  1.
        -12    1    4    4    0    0  0.16921824879E+02 -0.41472626946E+01 -0.15806702194E+02  0.23524450670E+02  0.00000000000E+00 0.  1.
</event>
<event>
 8    1  0.7977359E-012  0.9118800E+02  0.7816164E-02  0.1184000E+00
        -11   -1    0    0    0    0  0.00000000000E+00  0.00000000000E+00  0.45593999997E+02  0.45594000000E+02  0.51100000000E-03 0. -1.
         11   -1    0    0    0    0 -0.00000000000E+00 -0.00000000000E+00 -0.45593999997E+02  0.45594000000E+02  0.51100000000E-03 0.  1.
         23    2    1    2    0    0 -0.17763568394E-14  0.00000000000E+00  0.00000000000E+00  0.91188000000E+02  0.91188000000E+02 0.  0.
    9900012    2    3    3    0    0  0.32749699255E+01 -0.11509271723E+02  0.38858414910E+02  0.50528866058E+02  0.30000018870E+02 0.  0.
        -12    1    3    3    0    0 -0.32749699255E+01  0.11509271723E+02 -0.38858414910E+02  0.40659133942E+02  0.00000000000E+00 0.  1.
         11    1    4    4    0    0  0.15164540976E+02 -0.45423994539E+01  0.23458861568E+02  0.28300439610E+02  0.51100000000E-03 0. -1.
        -11    1    4    4    0    0  0.64943024782E+00 -0.26911001015E+01  0.23246179597E+01  0.36149174711E+01  0.51100000000E-03 0.  1.
        -12    1    4    4    0    0 -0.12539001298E+02 -0.42757721678E+01  0.13074935382E+02  0.18613508977E+02  0.00000000000E+00 0.  1.
</event>
<event>
 8    1  0.7977359E-012  0.9118800E+02  0.7816164E-02  0.1184000E+00
        -11   -1    0    0    0    0  0.00000000000E+00  0.00000000000E+00  0.45593999997E+02  0.45594000000E+02  0.51100000000E-03 0. -1.
         11   -1    0    0    0    0 -0.00000000000E+00 -0.00000000000E+00 -0.45593999997E+02  0.45594000000E+02  0.51100000000E-03 0.  1.
         23    2    1    2    0    0  0.00000000000E+00  0.00000000000E+00  0.71054273576E-14  0.91188000000E+02  0.91188000000E+02 0.  0.
    9900012    2    3    3    0    0 -0.20024187067E+02 -0.78314794168E+01 -0.34508915662E+02  0.50528863294E+02  0.30000010468E+02 0.  0.
         12    1    3    3    0    0  0.20024187067E+02  0.78314794168E+01  0.34508915662E+02  0.40659136706E+02  0.00000000000E+00 0. -1.
         11    1    4    4    0    0 -0.13171080685E+01  0.10520986977E+01  0.79162570271E+00  0.18623525037E+01  0.51100000000E-03 0. -1.
        -11    1    4    4    0    0 -0.32984818221E+00 -0.97520268840E+01 -0.10842185586E+01  0.98176554387E+01  0.51100000000E-03 0.  1.
        -12    1    4    4    0    0 -0.18377230816E+02  0.86844876946E+00 -0.34216322806E+02  0.38848855351E+02  0.00000000000E+00 0.  1.
</event>
<event>
 8    1  0.7977359E-012  0.9118800E+02  0.7816164E-02  0.1184000E+00
        -11   -1    0    0    0    0  0.00000000000E+00  0.00000000000E+00  0.45593999997E+02  0.45594000000E+02  0.51100000000E-03 0. -1.
         11   -1    0    0    0    0 -0.00000000000E+00 -0.00000000000E+00 -0.45593999997E+02  0.45594000000E+02  0.51100000000E-03 0.  1.
         23    2    1    2    0    0 -0.17763568394E-14  0.00000000000E+00  0.00000000000E+00  0.91188000000E+02  0.91188000000E+02 0.  0.
    9900012    2    3    3    0    0 -0.81310966846E+01 -0.11979362268E+02  0.37994022732E+02  0.50528860597E+02  0.30000002271E+02 0.  0.
        -12    1    3    3    0    0  0.81310966846E+01  0.11979362268E+02 -0.37994022732E+02  0.40659139403E+02  0.00000000000E+00 0.  1.
         11    1    4    4    0    0 -0.26037779143E+01 -0.19980155170E+01 -0.93022847237E+00  0.34113121676E+01  0.51100000000E-03 0. -1.
        -11    1    4    4    0    0 -0.11167299043E+02  0.34282509274E+01  0.13749758972E+02  0.18042099223E+02  0.51100000000E-03 0.  1.
         12    1    4    4    0    0  0.56399802727E+01 -0.13409597679E+02  0.25174492232E+02  0.29075449206E+02  0.00000000000E+00 0. -1.
</event>
<event>
 8    1  0.7977359E-012  0.9118800E+02  0.7816164E-02  0.1184000E+00
        -11   -1    0    0    0    0  0.00000000000E+00  0.00000000000E+00  0.45593999997E+02  0.45594000000E+02  0.51100000000E-03 0. -1.
         11   -1    0    0    0    0 -0.00000000000E+00 -0.00000000000E+00 -0.45593999997E+02  0.45594000000E+02  0.51100000000E-03 0.  1.
         23    2    1    2    0    0 -0.17763568394E-14  0.00000000000E+00  0.71054273576E-14  0.91188000000E+02  0.91188000000E+02 0.  0.
    9900012    2    3    3    0    0  0.11651000324E+02 -0.24860274828E+02 -0.29989772435E+02  0.50528861743E+02  0.30000005754E+02 0.  0.
         12    1    3    3    0    0 -0.11651000324E+02  0.24860274828E+02  0.29989772435E+02  0.40659138257E+02  0.00000000000E+00 0. -1.
         11    1    4    4    0    0  0.10430567244E+02 -0.16823433136E+02 -0.11549336292E+02  0.22917499963E+02  0.51100000000E-03 0. -1.
        -11    1    4    4    0    0  0.30961664769E+00 -0.12872523098E+02 -0.59459151313E+01  0.14182793109E+02  0.51100000000E-03 0.  1.
        -12    1    4    4    0    0  0.91081643287E+00  0.48356814055E+01 -0.12494521012E+02  0.13428568671E+02  0.00000000000E+00 0.  1.
</event>
<event>
 8    1  0.7977359E-012  0.9118800E+02  0.7816164E-02  0.1184000E+00
        -11   -1    0    0    0    0  0.00000000000E+00  0.00000000000E+00  0.45593999997E+02  0.45594000000E+02  0.51100000000E-03 0. -1.
         11   -1    0    0    0    0 -0.00000000000E+00 -0.00000000000E+00 -0.45593999997E+02  0.45594000000E+02  0.51100000000E-03 0.  1.
         23    2    1    2    0    0  0.00000000000E+00  0.00000000000E+00  0.00000000000E+00  0.91188000000E+02  0.91188000000E+02 0.  0.
    9900012    2    3    3    0    0 -0.28356387336E+02 -0.12202990234E+02  0.26460707669E+02  0.50528846986E+02  0.29999960899E+02 0.  0.
        -12    1    3    3    0    0  0.28356387336E+02  0.12202990234E+02 -0.26460707669E+02  0.40659153014E+02  0.00000000000E+00 0.  1.
         11    1    4    4    0    0 -0.21743041698E+01 -0.70511909393E+01 -0.23386930094E+01  0.77405670037E+01  0.51100000000E-03 0. -1.
        -11    1    4    4    0    0 -0.11052782846E+02 -0.45109616830E+01  0.21397032850E+01  0.12128112563E+02  0.51100000000E-03 0.  1.
         12    1    4    4    0    0 -0.15129300321E+02 -0.64083761197E+00  0.26659697394E+02  0.30660167419E+02  0.00000000000E+00 0. -1.
</event>
<event>
 8    1  0.7977359E-012  0.9118800E+02  0.7816164E-02  0.1184000E+00
        -11   -1    0    0    0    0  0.00000000000E+00  0.00000000000E+00  0.45593999997E+02  0.45594000000E+02  0.51100000000E-03 0. -1.
         11   -1    0    0    0    0 -0.00000000000E+00 -0.00000000000E+00 -0.45593999997E+02  0.45594000000E+02  0.51100000000E-03 0.  1.
         23    2    1    2    0    0  0.44408920985E-15  0.00000000000E+00  0.00000000000E+00  0.91188000000E+02  0.91188000000E+02 0.  0.
    9900012    2    3    3    0    0  0.25704523869E+01 -0.10344334780E+02 -0.39237150878E+02  0.50528849781E+02  0.29999969394E+02 0.  0.
         12    1    3    3    0    0 -0.25704523869E+01  0.10344334780E+02  0.39237150878E+02  0.40659150219E+02  0.00000000000E+00 0. -1.
         11    1    4    4    0    0 -0.61188185352E+01  0.77739598943E-01 -0.12113696691E+02  0.13571574393E+02  0.51100000000E-03 0. -1.
        -11    1    4    4    0    0 -0.53569278485E+01 -0.55220931944E+00 -0.15009522328E+02  0.15946390559E+02  0.51100000000E-03 0.  1.
         12    1    4    4    0    0  0.14046198771E+02 -0.98698650597E+01 -0.12113931859E+02  0.21010884829E+02  0.00000000000E+00 0. -1.
</event>
<event>
 8    1  0.7977359E-012  0.9118800E+02  0.7816164E-02  0.1184000E+00
        -11   -1    0    0    0    0  0.00000000000E+00  0.00000000000E+00  0.45593999997E+02  0.45594000000E+02  0.51100000000E-03 0. -1.
         11   -1    0    0    0    0 -0.00000000000E+00 -0.00000000000E+00 -0.45593999997E+02  0.45594000000E+02  0.51100000000E-03 0.  1.
         23    2    1    2    0    0  0.17763568394E-14 -0.35527136788E-14  0.35527136788E-14  0.91188000000E+02  0.91188000000E+02 0.  0.
    9900012    2    3    3    0    0 -0.66285049399E+01  0.30122229659E+02  0.26492995543E+02  0.50528872977E+02  0.30000039902E+02 0.  0.
        -12    1    3    3    0    0  0.66285049399E+01 -0.30122229659E+02 -0.26492995543E+02  0.40659127023E+02  0.00000000000E+00 0.  1.
         11    1    4    4    0    0 -0.42518757197E+01  0.58384479320E+01 -0.15258761527E+00  0.72242096199E+01  0.51100000000E-03 0. -1.
        -11    1    4    4    0    0 -0.82475305251E+01  0.21771736459E+02  0.97465571414E+01  0.25239366961E+02  0.51100000000E-03 0.  1.
        -12    1    4    4    0    0  0.58709013049E+01  0.25120452676E+01  0.16899026017E+02  0.18065296396E+02  0.00000000000E+00 0.  1.
</event>
<event>
 8    1  0.7977359E-012  0.9118800E+02  0.7816164E-02  0.1184000E+00
        -11   -1    0    0    0    0  0.00000000000E+00  0.00000000000E+00  0.45593999997E+02  0.45594000000E+02  0.51100000000E-03 0. -1.
         11   -1    0    0    0    0 -0.00000000000E+00 -0.00000000000E+00 -0.45593999997E+02  0.45594000000E+02  0.51100000000E-03 0.  1.
         23    2    1    2    0    0  0.00000000000E+00  0.00000000000E+00  0.71054273576E-14  0.91188000000E+02  0.91188000000E+02 0.  0.
    9900012    2    3    3    0    0  0.19163237237E+02  0.14370584565E+02  0.32854555961E+02  0.50528865608E+02  0.30000017501E+02 0.  0.
        -12    1    3    3    0    0 -0.19163237237E+02 -0.14370584565E+02 -0.32854555961E+02  0.40659134392E+02  0.00000000000E+00 0.  1.
         11    1    4    4    0    0  0.15637145417E+02 -0.38501620098E+01  0.10750673893E+02  0.19362878239E+02  0.51100000000E-03 0. -1.
        -11    1    4    4    0    0  0.60709896606E+01  0.36026747562E+01  0.59583758135E+01  0.92378798139E+01  0.51100000000E-03 0.  1.
        -12    1    4    4    0    0 -0.25448978406E+01  0.14618071818E+02  0.16145506254E+02  0.21928107554E+02  0.00000000000E+00 0.  1.
</event>
<event>
 8    1  0.7977359E-012  0.9118800E+02  0.7816164E-02  0.1184000E+00
        -11   -1    0    0    0    0  0.00000000000E+00  0.00000000000E+00  0.45593999997E+02  0.45594000000E+02  0.51100000000E-03 0. -1.
         11   -1    0    0    0    0 -0.00000000000E+00 -0.00000000000E+00 -0.45593999997E+02  0.45594000000E+02  0.51100000000E-03 0.  1.
         23    2    1    2    0    0  0.00000000000E+00  0.35527136788E-14  0.00000000000E+00  0.91188000000E+02  0.91188000000E+02 0.  0.
    9900012    2    3    3    0    0 -0.84773353912E+01  0.24813758713E+02  0.31073751184E+02  0.50528857738E+02  0.29999993582E+02 0.  0.
        -12    1    3    3    0    0  0.84773353912E+01 -0.24813758713E+02 -0.31073751184E+02  0.40659142262E+02  0.00000000000E+00 0.  1.
         11    1    4    4    0    0 -0.38529685909E+01  0.19884399834E+02  0.35364909737E+02  0.40754282777E+02  0.51100000000E-03 0. -1.
        -11    1    4    4    0    0 -0.12407509625E+01  0.85243574582E+00  0.13596540884E+01  0.20284893771E+01  0.51100000000E-03 0.  1.
        -12    1    4    4    0    0 -0.33836158378E+01  0.40769231333E+01 -0.56508126413E+01  0.77460855843E+01  0.00000000000E+00 0.  1.
</event>
<event>
 8    1  0.7977359E-012  0.9118800E+02  0.7816164E-02  0.1184000E+00
        -11   -1    0    0    0    0  0.00000000000E+00  0.00000000000E+00  0.45593999997E+02  0.45594000000E+02  0.51100000000E-03 0. -1.
         11   -1    0    0    0    0 -0.00000000000E+00 -0.00000000000E+00 -0.45593999997E+02  0.45594000000E+02  0.51100000000E-03 0.  1.
         23    2    1    2    0    0  0.00000000000E+00  0.00000000000E+00  0.00000000000E+00  0.91188000000E+02  0.91188000000E+02 0.  0.
    9900012    2    3    3    0    0  0.23426614038E+02 -0.20047465949E+02 -0.26503919007E+02  0.50528869919E+02  0.30000030605E+02 0.  0.
         12    1    3    3    0    0 -0.23426614038E+02  0.20047465949E+02  0.26503919007E+02  0.40659130081E+02  0.00000000000E+00 0. -1.
         11    1    4    4    0    0  0.77055105894E+01 -0.93453500667E+01  0.36032739354E+01  0.12637010906E+02  0.51100000000E-03 0. -1.
        -11    1    4    4    0    0  0.11181783602E+01  0.21678675926E+00  0.12046785248E+01  0.16578811639E+01  0.51100000000E-03 0.  1.
        -12    1    4    4    0    0  0.14602925088E+02 -0.10918902642E+02 -0.31311871467E+02  0.36233977849E+02  0.00000000000E+00 0.  1.
</event>
<event>
 8    1  0.9108989E-012  0.9118800E+02  0.7816164E-02  0.1184000E+00
        -11   -1    0    0    0    0  0.00000000000E+00  0.00000000000E+00  0.45593999997E+02  0.45594000000E+02  0.51100000000E-03 0. -1.
         11   -1    0    0    0    0 -0.00000000000E+00 -0.00000000000E+00 -0.45593999997E+02  0.45594000000E+02  0.51100000000E-03 0.  1.
         23    2    1    2    0    0  0.00000000000E+00  0.00000000000E+00  0.00000000000E+00  0.91188000000E+02  0.91188000000E+02 0.  0.
    9900012    2    3    3    0    0  0.37023250188E+02  0.13671392806E+02  0.97742278092E+01  0.50528885831E+02  0.30000078972E+02 0.  0.
        -12    1    3    3    0    0 -0.37023250188E+02 -0.13671392806E+02 -0.97742278092E+01  0.40659114169E+02  0.00000000000E+00 0.  1.
         11    1    4    4    0    0  0.26864664291E+02  0.89280229590E+01 -0.77024744929E+00  0.28319835149E+02  0.51100000000E-03 0. -1.
        -11    1    4    4    0    0  0.13655830199E+02  0.59284009319E+01  0.53154059020E+01  0.15807630315E+02  0.51100000000E-03 0.  1.
        -12    1    4    4    0    0 -0.34972443024E+01 -0.11850310847E+01  0.52290693565E+01  0.64014203672E+01  0.00000000000E+00 0.  1.
</event>
<event>
 8    1  0.7977359E-012  0.9118800E+02  0.7816164E-02  0.1184000E+00
        -11   -1    0    0    0    0  0.00000000000E+00  0.00000000000E+00  0.45593999997E+02  0.45594000000E+02  0.51100000000E-03 0. -1.
         11   -1    0    0    0    0 -0.00000000000E+00 -0.00000000000E+00 -0.45593999997E+02  0.45594000000E+02  0.51100000000E-03 0.  1.
         23    2    1    2    0    0  0.00000000000E+00  0.17763568394E-14  0.00000000000E+00  0.91188000000E+02  0.91188000000E+02 0.  0.
    9900012    2    3    3    0    0 -0.20362320930E+02  0.80594319594E+01  0.34257651047E+02  0.50528865572E+02  0.30000017394E+02 0.  0.
        -12    1    3    3    0    0  0.20362320930E+02 -0.80594319594E+01 -0.34257651047E+02  0.40659134428E+02  0.00000000000E+00 0.  1.
         11    1    4    4    0    0 -0.64857529706E+00 -0.18335922044E+01 -0.53370501020E+00  0.20168171922E+01  0.51100000000E-03 0. -1.
        -11    1    4    4    0    0 -0.44201038595E+01 -0.86372197888E+01  0.11545025451E+02  0.15080666323E+02  0.51100000000E-03 0.  1.
         12    1    4    4    0    0 -0.15293641774E+02  0.18530243952E+02  0.23246330606E+02  0.33431382057E+02  0.00000000000E+00 0. -1.
</event>
<event>
 8    1  0.7977359E-012  0.9118800E+02  0.7816164E-02  0.1184000E+00
        -11   -1    0    0    0    0  0.00000000000E+00  0.00000000000E+00  0.45593999997E+02  0.45594000000E+02  0.51100000000E-03 0. -1.
         11   -1    0    0    0    0 -0.00000000000E+00 -0.00000000000E+00 -0.45593999997E+02  0.45594000000E+02  0.51100000000E-03 0.  1.
         23    2    1    2    0    0 -0.35527136788E-14  0.17763568394E-14  0.00000000000E+00  0.91188000000E+02  0.91188000000E+02 0.  0.
    9900012    2    3    3    0    0  0.27294596287E+02 -0.11949736396E+02 -0.27665401289E+02  0.50528860623E+02  0.30000002349E+02 0.  0.
         12    1    3    3    0    0 -0.27294596287E+02  0.11949736396E+02  0.27665401289E+02  0.40659139377E+02  0.00000000000E+00 0. -1.
         11    1    4    4    0    0  0.38139871573E+01 -0.10714988295E+02 -0.13752540802E+02  0.17846283954E+02  0.51100000000E-03 0.  1.
        -11    1    4    4    0    0  0.40300996410E+01 -0.16211291196E+01 -0.12435317742E+02  0.13172201423E+02  0.51100000000E-03 0. -1.
         12    1    4    4    0    0  0.19450509489E+02  0.38638101901E+00 -0.14775427459E+01  0.19510375246E+02  0.00000000000E+00 0. -1.
</event>
<event>
 8    1  0.7977359E-012  0.9118800E+02  0.7816164E-02  0.1184000E+00
        -11   -1    0    0    0    0  0.00000000000E+00  0.00000000000E+00  0.45593999997E+02  0.45594000000E+02  0.51100000000E-03 0. -1.
         11   -1    0    0    0    0 -0.00000000000E+00 -0.00000000000E+00 -0.45593999997E+02  0.45594000000E+02  0.51100000000E-03 0.  1.
         23    2    1    2    0    0 -0.17763568394E-14  0.00000000000E+00 -0.71054273576E-14  0.91188000000E+02  0.91188000000E+02 0.  0.
    9900012    2    3    3    0    0  0.92038384882E+01  0.14947225894E+02  0.36674733165E+02  0.50528852719E+02  0.29999978325E+02 0.  0.
        -12    1    3    3    0    0 -0.92038384882E+01 -0.14947225894E+02 -0.36674733165E+02  0.40659147281E+02  0.00000000000E+00 0.  1.
         11    1    4    4    0    0 -0.87407784648E-01  0.14695646640E+01  0.20794581168E+02  0.20846627224E+02  0.51100000000E-03 0. -1.
        -11    1    4    4    0    0 -0.40739895721E+01 -0.15266943196E+01  0.56593556934E+01  0.71383817287E+01  0.51100000000E-03 0.  1.
        -12    1    4    4    0    0  0.13365235845E+02  0.15004355550E+02  0.10220796304E+02  0.22543843766E+02  0.00000000000E+00 0.  1.
</event>
<event>
 8    1  0.7977359E-012  0.9118800E+02  0.7816164E-02  0.1184000E+00
        -11   -1    0    0    0    0  0.00000000000E+00  0.00000000000E+00  0.45593999997E+02  0.45594000000E+02  0.51100000000E-03 0. -1.
         11   -1    0    0    0    0 -0.00000000000E+00 -0.00000000000E+00 -0.45593999997E+02  0.45594000000E+02  0.51100000000E-03 0.  1.
         23    2    1    2    0    0 -0.26645352591E-14  0.00000000000E+00  0.71054273576E-14  0.91188000000E+02  0.91188000000E+02 0.  0.
    9900012    2    3    3    0    0 -0.57232738057E+01  0.35114331649E+02  0.19682338756E+02  0.50528848396E+02  0.29999965185E+02 0.  0.
        -12    1    3    3    0    0  0.57232738057E+01 -0.35114331649E+02 -0.19682338756E+02  0.40659151604E+02  0.00000000000E+00 0.  1.
         11    1    4    4    0    0 -0.37310145003E+01  0.53378215433E+01  0.66381977975E+01  0.92993805326E+01  0.51100000000E-03 0. -1.
        -11    1    4    4    0    0 -0.10173275240E+02  0.97526560084E+01  0.13609393247E+02  0.19591462762E+02  0.51100000000E-03 0.  1.
        -12    1    4    4    0    0  0.81810159346E+01  0.20023854098E+02 -0.56525228835E+00  0.21638005102E+02  0.00000000000E+00 0.  1.
</event>
<event>
 8    1  0.7977359E-012  0.9118800E+02  0.7816164E-02  0.1184000E+00
        -11   -1    0    0    0    0  0.00000000000E+00  0.00000000000E+00  0.45593999997E+02  0.45594000000E+02  0.51100000000E-03 0. -1.
         11   -1    0    0    0    0 -0.00000000000E+00 -0.00000000000E+00 -0.45593999997E+02  0.45594000000E+02  0.51100000000E-03 0.  1.
         23    2    1    2    0    0  0.00000000000E+00 -0.17763568394E-14  0.00000000000E+00  0.91188000000E+02  0.91188000000E+02 0.  0.
    9900012    2    3    3    0    0  0.12425074222E+02  0.47987515863E+01  0.38415558097E+02  0.50528860927E+02  0.30000003274E+02 0.  0.
        -12    1    3    3    0    0 -0.12425074222E+02 -0.47987515863E+01 -0.38415558097E+02  0.40659139073E+02  0.00000000000E+00 0.  1.
         11    1    4    4    0    0 -0.68267232420E+01  0.52650325940E+01  0.66308509882E+01  0.10876254113E+02  0.51100000000E-03 0. -1.
        -11    1    4    4    0    0 -0.16249122813E+01  0.17435531930E+01  0.15457262765E+01  0.28407019628E+01  0.51100000000E-03 0.  1.
        -12    1    4    4    0    0  0.20876709745E+02 -0.22098342008E+01  0.30238980833E+02  0.36811904851E+02  0.00000000000E+00 0.  1.
</event>
<event>
 8    1  0.7977359E-012  0.9118800E+02  0.7816164E-02  0.1184000E+00
        -11   -1    0    0    0    0  0.00000000000E+00  0.00000000000E+00  0.45593999997E+02  0.45594000000E+02  0.51100000000E-03 0. -1.
         11   -1    0    0    0    0 -0.00000000000E+00 -0.00000000000E+00 -0.45593999997E+02  0.45594000000E+02  0.51100000000E-03 0.  1.
         23    2    1    2    0    0  0.00000000000E+00  0.00000000000E+00  0.71054273576E-14  0.91188000000E+02  0.91188000000E+02 0.  0.
    9900012    2    3    3    0    0 -0.22434857475E+02  0.61791547935E+01 -0.33341573438E+02  0.50528864456E+02  0.30000013999E+02 0.  0.
         12    1    3    3    0    0  0.22434857475E+02 -0.61791547935E+01  0.33341573438E+02  0.40659135544E+02  0.00000000000E+00 0. -1.
         11    1    4    4    0    0 -0.15546849884E+01 -0.42435775173E+01 -0.96632547143E+00  0.46215560947E+01  0.51100000000E-03 0. -1.
        -11    1    4    4    0    0 -0.54420987792E+01  0.52439489351E+01  0.20453340008E+01  0.78293569974E+01  0.51100000000E-03 0.  1.
        -12    1    4    4    0    0 -0.15438073707E+02  0.51787833757E+01 -0.34420581968E+02  0.38077951363E+02  0.00000000000E+00 0.  1.
</event>
<event>
 8    1  0.7977359E-012  0.9118800E+02  0.7816164E-02  0.1184000E+00
        -11   -1    0    0    0    0  0.00000000000E+00  0.00000000000E+00  0.45593999997E+02  0.45594000000E+02  0.51100000000E-03 0. -1.
         11   -1    0    0    0    0 -0.00000000000E+00 -0.00000000000E+00 -0.45593999997E+02  0.45594000000E+02  0.51100000000E-03 0.  1.
         23    2    1    2    0    0  0.00000000000E+00  0.00000000000E+00  0.00000000000E+00  0.91188000000E+02  0.91188000000E+02 0.  0.
    9900012    2    3    3    0    0 -0.19468311667E+02 -0.31020279320E+02  0.17660476174E+02  0.50528864410E+02  0.30000013860E+02 0.  0.
        -12    1    3    3    0    0  0.19468311667E+02  0.31020279320E+02 -0.17660476174E+02  0.40659135590E+02  0.00000000000E+00 0.  1.
         11    1    4    4    0    0  0.21726207848E+01  0.10015498450E+01 -0.32444585207E+00  0.24142594182E+01  0.51100000000E-03 0. -1.
        -11    1    4    4    0    0 -0.38463168207E+01 -0.83017804130E+00 -0.43178964481E+01  0.58418814318E+01  0.51100000000E-03 0.  1.
         12    1    4    4    0    0 -0.17794615632E+02 -0.31191651123E+02  0.22302818474E+02  0.42272723560E+02  0.00000000000E+00 0. -1.
</event>
<event>
 8    1  0.7977359E-012  0.9118800E+02  0.7816164E-02  0.1184000E+00
        -11   -1    0    0    0    0  0.00000000000E+00  0.00000000000E+00  0.45593999997E+02  0.45594000000E+02  0.51100000000E-03 0. -1.
         11   -1    0    0    0    0 -0.00000000000E+00 -0.00000000000E+00 -0.45593999997E+02  0.45594000000E+02  0.51100000000E-03 0.  1.
         23    2    1    2    0    0  0.00000000000E+00  0.00000000000E+00 -0.71054273576E-14  0.91188000000E+02  0.91188000000E+02 0.  0.
    9900012    2    3    3    0    0 -0.17235726059E+02  0.16865068907E+02 -0.32736296134E+02  0.50528857281E+02  0.29999992192E+02 0.  0.
         12    1    3    3    0    0  0.17235726059E+02 -0.16865068907E+02  0.32736296134E+02  0.40659142719E+02  0.00000000000E+00 0. -1.
         11    1    4    4    0    0  0.74122004948E+00 -0.27596466446E+01 -0.30525552099E+01  0.41812857276E+01  0.51100000000E-03 0. -1.
        -11    1    4    4    0    0 -0.14403478424E+01 -0.16090322467E+01  0.31961693535E+01  0.38573417629E+01  0.51100000000E-03 0.  1.
        -12    1    4    4    0    0 -0.16536598266E+02  0.21233747798E+02 -0.32879910278E+02  0.42490229791E+02  0.00000000000E+00 0.  1.
</event>
<event>
 8    1  0.7977359E-012  0.9118800E+02  0.7816164E-02  0.1184000E+00
        -11   -1    0    0    0    0  0.00000000000E+00  0.00000000000E+00  0.45593999997E+02  0.45594000000E+02  0.51100000000E-03 0.  1.
         11   -1    0    0    0    0 -0.00000000000E+00 -0.00000000000E+00 -0.45593999997E+02  0.45594000000E+02  0.51100000000E-03 0. -1.
         23    2    1    2    0    0  0.00000000000E+00  0.10824674490E-14  0.17763568394E-14  0.91188000000E+02  0.91188000000E+02 0.  0.
    9900012    2    3    3    0    0  0.37739449820E+02  0.11929770228E+00  0.15128959657E+02  0.50528859269E+02  0.29999998234E+02 0.  0.
        -12    1    3    3    0    0 -0.37739449820E+02 -0.11929770228E+00 -0.15128959657E+02  0.40659140731E+02  0.00000000000E+00 0.  1.
         11    1    4    4    0    0 -0.74788268730E+00 -0.53743783170E+01  0.13137965968E+01  0.55829501670E+01  0.51100000000E-03 0. -1.
        -11    1    4    4    0    0  0.52393567701E+01 -0.19621868686E+01 -0.36268205761E+01  0.66674481193E+01  0.51100000000E-03 0.  1.
         12    1    4    4    0    0  0.33247975738E+02  0.74558628879E+01  0.17441983636E+02  0.38278460983E+02  0.00000000000E+00 0. -1.
</event>
<event>
 8    1  0.7977359E-012  0.9118800E+02  0.7816164E-02  0.1184000E+00
        -11   -1    0    0    0    0  0.00000000000E+00  0.00000000000E+00  0.45593999997E+02  0.45594000000E+02  0.51100000000E-03 0. -1.
         11   -1    0    0    0    0 -0.00000000000E+00 -0.00000000000E+00 -0.45593999997E+02  0.45594000000E+02  0.51100000000E-03 0.  1.
         23    2    1    2    0    0  0.17763568394E-14  0.88817841970E-15  0.00000000000E+00  0.91188000000E+02  0.91188000000E+02 0.  0.
    9900012    2    3    3    0    0  0.82315235055E+01 -0.75923095895E+01  0.39086630287E+02  0.50528858208E+02  0.29999995008E+02 0.  0.
        -12    1    3    3    0    0 -0.82315235055E+01  0.75923095895E+01 -0.39086630287E+02  0.40659141792E+02  0.00000000000E+00 0.  1.
         11    1    4    4    0    0  0.51651818005E+01 -0.61294442989E+01  0.93802777093E+01  0.12338508849E+02  0.51100000000E-03 0. -1.
        -11    1    4    4    0    0 -0.82339218637E+01 -0.47096985871E+01  0.47619742023E+01  0.10613912031E+02  0.51100000000E-03 0.  1.
         12    1    4    4    0    0  0.11300263569E+02  0.32468332965E+01  0.24944378375E+02  0.27576437328E+02  0.00000000000E+00 0. -1.
</event>
<event>
 8    1  0.7977359E-012  0.9118800E+02  0.7816164E-02  0.1184000E+00
        -11   -1    0    0    0    0  0.00000000000E+00  0.00000000000E+00  0.45593999997E+02  0.45594000000E+02  0.51100000000E-03 0.  1.
         11   -1    0    0    0    0 -0.00000000000E+00 -0.00000000000E+00 -0.45593999997E+02  0.45594000000E+02  0.51100000000E-03 0. -1.
         23    2    1    2    0    0  0.00000000000E+00  0.00000000000E+00  0.00000000000E+00  0.91188000000E+02  0.91188000000E+02 0.  0.
    9900012    2    3    3    0    0 -0.32817488348E+02 -0.15406977597E+02 -0.18406612094E+02  0.50528857499E+02  0.29999992855E+02 0.  0.
         12    1    3    3    0    0  0.32817488348E+02  0.15406977597E+02  0.18406612094E+02  0.40659142501E+02  0.00000000000E+00 0. -1.
         11    1    4    4    0    0 -0.16981248756E+02 -0.49424643004E+01  0.86880335499E+00  0.17707218364E+02  0.51100000000E-03 0. -1.
        -11    1    4    4    0    0 -0.18783086181E+02 -0.75355490239E+01 -0.20168421475E+02  0.28571910168E+02  0.51100000000E-03 0.  1.
         12    1    4    4    0    0  0.29468465894E+01 -0.29289642725E+01  0.89300602667E+00  0.42497289672E+01  0.00000000000E+00 0. -1.
</event>
<event>
 8    1  0.7977359E-012  0.9118800E+02  0.7816164E-02  0.1184000E+00
        -11   -1    0    0    0    0  0.00000000000E+00  0.00000000000E+00  0.45593999997E+02  0.45594000000E+02  0.51100000000E-03 0. -1.
         11   -1    0    0    0    0 -0.00000000000E+00 -0.00000000000E+00 -0.45593999997E+02  0.45594000000E+02  0.51100000000E-03 0.  1.
         23    2    1    2    0    0  0.00000000000E+00 -0.88817841970E-15  0.00000000000E+00  0.91188000000E+02  0.91188000000E+02 0.  0.
    9900012    2    3    3    0    0  0.21278170883E+02  0.22339653905E+01  0.34574761573E+02  0.50528864553E+02  0.30000014296E+02 0.  0.
        -12    1    3    3    0    0 -0.21278170883E+02 -0.22339653905E+01 -0.34574761573E+02  0.40659135447E+02  0.00000000000E+00 0.  1.
         11    1    4    4    0    0  0.18908174425E+00 -0.41595885440E+01  0.12195137663E+02  0.12886400260E+02  0.51100000000E-03 0. -1.
        -11    1    4    4    0    0 -0.39975151283E+01  0.18658622643E+01  0.55778581753E+01  0.71115449288E+01  0.51100000000E-03 0.  1.
         12    1    4    4    0    0  0.25086604267E+02  0.45276916702E+01  0.16801765734E+02  0.30530919365E+02  0.00000000000E+00 0. -1.
</event>
<event>
 8    1  0.7977359E-012  0.9118800E+02  0.7816164E-02  0.1184000E+00
        -11   -1    0    0    0    0  0.00000000000E+00  0.00000000000E+00  0.45593999997E+02  0.45594000000E+02  0.51100000000E-03 0. -1.
         11   -1    0    0    0    0 -0.00000000000E+00 -0.00000000000E+00 -0.45593999997E+02  0.45594000000E+02  0.51100000000E-03 0.  1.
         23    2    1    2    0    0  0.00000000000E+00  0.00000000000E+00 -0.35527136788E-14  0.91188000000E+02  0.91188000000E+02 0.  0.
    9900012    2    3    3    0    0  0.34374817675E+02  0.85697435475E+01 -0.19952340332E+02  0.50528874586E+02  0.30000044793E+02 0.  0.
         12    1    3    3    0    0 -0.34374817675E+02 -0.85697435475E+01  0.19952340332E+02  0.40659125414E+02  0.00000000000E+00 0. -1.
         11    1    4    4    0    0  0.15954710574E+01 -0.12367014608E+01 -0.88829078851E+00  0.22054521496E+01  0.51100000000E-03 0. -1.
        -11    1    4    4    0    0  0.20283606080E+02 -0.78680414860E+01 -0.14659751764E+02  0.26234311016E+02  0.51100000000E-03 0.  1.
         12    1    4    4    0    0  0.12495740537E+02  0.17674486494E+02 -0.44042977795E+01  0.22089111420E+02  0.00000000000E+00 0. -1.
</event>
<event>
 8    1  0.7977359E-012  0.9118800E+02  0.7816164E-02  0.1184000E+00
        -11   -1    0    0    0    0  0.00000000000E+00  0.00000000000E+00  0.45593999997E+02  0.45594000000E+02  0.51100000000E-03 0.  1.
         11   -1    0    0    0    0 -0.00000000000E+00 -0.00000000000E+00 -0.45593999997E+02  0.45594000000E+02  0.51100000000E-03 0. -1.
         23    2    1    2    0    0 -0.71054273576E-14  0.00000000000E+00  0.00000000000E+00  0.91188000000E+02  0.91188000000E+02 0.  0.
    9900012    2    3    3    0    0 -0.30449771800E+02 -0.10392218260E+02 -0.24859254279E+02  0.50528814982E+02  0.29999863618E+02 0.  0.
         12    1    3    3    0    0  0.30449771800E+02  0.10392218260E+02  0.24859254279E+02  0.40659185018E+02  0.00000000000E+00 0. -1.
         11    1    4    4    0    0 -0.29032654699E+02 -0.11654493897E+02 -0.22395010971E+02  0.38474131355E+02  0.51100000000E-03 0. -1.
        -11    1    4    4    0    0 -0.50373589915E+01 -0.57647377178E+00 -0.51177640570E+01  0.72040833437E+01  0.51100000000E-03 0.  1.
         12    1    4    4    0    0  0.36202418902E+01  0.18387494091E+01  0.26535207498E+01  0.48506002827E+01  0.00000000000E+00 0. -1.
</event>
<event>
 8    1  0.7977359E-012  0.9118800E+02  0.7816164E-02  0.1184000E+00
        -11   -1    0    0    0    0  0.00000000000E+00  0.00000000000E+00  0.45593999997E+02  0.45594000000E+02  0.51100000000E-03 0. -1.
         11   -1    0    0    0    0 -0.00000000000E+00 -0.00000000000E+00 -0.45593999997E+02  0.45594000000E+02  0.51100000000E-03 0.  1.
         23    2    1    2    0    0  0.00000000000E+00  0.00000000000E+00 -0.35527136788E-14  0.91188000000E+02  0.91188000000E+02 0.  0.
    9900012    2    3    3    0    0 -0.25673167091E+02 -0.20251310252E+02 -0.24164837004E+02  0.50528850687E+02  0.29999972149E+02 0.  0.
         12    1    3    3    0    0  0.25673167091E+02  0.20251310252E+02  0.24164837004E+02  0.40659149313E+02  0.00000000000E+00 0. -1.
         11    1    4    4    0    0 -0.82696920615E+01 -0.13369258682E+02 -0.51243349290E+01  0.16534318650E+02  0.51100000000E-03 0. -1.
        -11    1    4    4    0    0 -0.46163852245E+00 -0.10230849157E+02 -0.36808518257E+01  0.10882649264E+02  0.51100000000E-03 0.  1.
        -12    1    4    4    0    0 -0.16941836507E+02  0.33487975868E+01 -0.15359650250E+02  0.23111882772E+02  0.00000000000E+00 0.  1.
</event>
<event>
 8    1  0.7977359E-012  0.9118800E+02  0.7816164E-02  0.1184000E+00
        -11   -1    0    0    0    0  0.00000000000E+00  0.00000000000E+00  0.45593999997E+02  0.45594000000E+02  0.51100000000E-03 0.  1.
         11   -1    0    0    0    0 -0.00000000000E+00 -0.00000000000E+00 -0.45593999997E+02  0.45594000000E+02  0.51100000000E-03 0. -1.
         23    2    1    2    0    0  0.00000000000E+00 -0.71054273576E-14 -0.35527136788E-14  0.91188000000E+02  0.91188000000E+02 0.  0.
    9900012    2    3    3    0    0  0.21329622955E+02 -0.34495951051E+02 -0.28708814430E+01  0.50528863087E+02  0.30000009838E+02 0.  0.
         12    1    3    3    0    0 -0.21329622955E+02  0.34495951051E+02  0.28708814430E+01  0.40659136913E+02  0.00000000000E+00 0. -1.
         11    1    4    4    0    0  0.18447011447E+02 -0.12653996910E+02  0.42505944559E+01  0.22770231062E+02  0.51100000000E-03 0. -1.
        -11    1    4    4    0    0  0.22505972626E+01 -0.48222080818E+01  0.46403065370E+01  0.70605469930E+01  0.51100000000E-03 0.  1.
         12    1    4    4    0    0  0.63201424532E+00 -0.17019746059E+02 -0.11761782436E+02  0.20698085032E+02  0.00000000000E+00 0. -1.
</event>
<event>
 8    1  0.7977359E-012  0.9118800E+02  0.7816164E-02  0.1184000E+00
        -11   -1    0    0    0    0  0.00000000000E+00  0.00000000000E+00  0.45593999997E+02  0.45594000000E+02  0.51100000000E-03 0. -1.
         11   -1    0    0    0    0 -0.00000000000E+00 -0.00000000000E+00 -0.45593999997E+02  0.45594000000E+02  0.51100000000E-03 0.  1.
         23    2    1    2    0    0 -0.17763568394E-14  0.00000000000E+00 -0.17763568394E-14  0.91188000000E+02  0.91188000000E+02 0.  0.
    9900012    2    3    3    0    0  0.97405176883E+01  0.37210103575E+02  0.13179398726E+02  0.50528855350E+02  0.29999986321E+02 0.  0.
        -12    1    3    3    0    0 -0.97405176883E+01 -0.37210103575E+02 -0.13179398726E+02  0.40659144650E+02  0.00000000000E+00 0.  1.
         11    1    4    4    0    0  0.17925822026E+02  0.19536579079E+02  0.56678324139E+01  0.27113416272E+02  0.51100000000E-03 0. -1.
        -11    1    4    4    0    0 -0.25617045803E+01  0.31941281336E+01 -0.26284703805E+01  0.48655566684E+01  0.51100000000E-03 0.  1.
        -12    1    4    4    0    0 -0.56235997573E+01  0.14479396362E+02  0.10140036693E+02  0.18549882409E+02  0.00000000000E+00 0.  1.
</event>
<event>
 8    1  0.7977359E-012  0.9118800E+02  0.7816164E-02  0.1184000E+00
        -11   -1    0    0    0    0  0.00000000000E+00  0.00000000000E+00  0.45593999997E+02  0.45594000000E+02  0.51100000000E-03 0. -1.
         11   -1    0    0    0    0 -0.00000000000E+00 -0.00000000000E+00 -0.45593999997E+02  0.45594000000E+02  0.51100000000E-03 0.  1.
         23    2    1    2    0    0 -0.71054273576E-14  0.00000000000E+00 -0.17763568394E-14  0.91188000000E+02  0.91188000000E+02 0.  0.
    9900012    2    3    3    0    0  0.38649201106E+02  0.90215355811E+01  0.88326818939E+01  0.50528866711E+02  0.30000020855E+02 0.  0.
        -12    1    3    3    0    0 -0.38649201106E+02 -0.90215355811E+01 -0.88326818939E+01  0.40659133289E+02  0.00000000000E+00 0.  1.
         11    1    4    4    0    0  0.17036070595E+02 -0.64808122309E+01  0.56348673914E+01  0.19078269295E+02  0.51100000000E-03 0. -1.
        -11    1    4    4    0    0  0.86646109219E+01  0.10523036884E+01  0.75787000495E+01  0.11559390995E+02  0.51100000000E-03 0.  1.
        -12    1    4    4    0    0  0.12948519589E+02  0.14450044123E+02 -0.43808855470E+01  0.19891206421E+02  0.00000000000E+00 0.  1.
</event>
<event>
 8    1  0.7977359E-012  0.9118800E+02  0.7816164E-02  0.1184000E+00
        -11   -1    0    0    0    0  0.00000000000E+00  0.00000000000E+00  0.45593999997E+02  0.45594000000E+02  0.51100000000E-03 0. -1.
         11   -1    0    0    0    0 -0.00000000000E+00 -0.00000000000E+00 -0.45593999997E+02  0.45594000000E+02  0.51100000000E-03 0.  1.
         23    2    1    2    0    0  0.27755575616E-14 -0.71054273576E-14  0.35527136788E-14  0.91188000000E+02  0.91188000000E+02 0.  0.
    9900012    2    3    3    0    0 -0.32290912140E+00 -0.30758916299E+02  0.26588534649E+02  0.50528863549E+02  0.30000011244E+02 0.  0.
        -12    1    3    3    0    0  0.32290912140E+00  0.30758916299E+02 -0.26588534649E+02  0.40659136451E+02  0.00000000000E+00 0.  1.
         11    1    4    4    0    0  0.64850401350E+00  0.21785606673E+01  0.87564806456E+01  0.90466920803E+01  0.51100000000E-03 0. -1.
        -11    1    4    4    0    0  0.80285471952E+01 -0.17140072934E+02  0.11901588028E+02  0.22358163343E+02  0.51100000000E-03 0.  1.
         12    1    4    4    0    0 -0.89999603301E+01 -0.15797404032E+02  0.59304659753E+01  0.19124008126E+02  0.00000000000E+00 0. -1.
</event>
<event>
 8    1  0.7977359E-012  0.9118800E+02  0.7816164E-02  0.1184000E+00
        -11   -1    0    0    0    0  0.00000000000E+00  0.00000000000E+00  0.45593999997E+02  0.45594000000E+02  0.51100000000E-03 0.  1.
         11   -1    0    0    0    0 -0.00000000000E+00 -0.00000000000E+00 -0.45593999997E+02  0.45594000000E+02  0.51100000000E-03 0. -1.
         23    2    1    2    0    0  0.00000000000E+00  0.00000000000E+00  0.00000000000E+00  0.91188000000E+02  0.91188000000E+02 0.  0.
    9900012    2    3    3    0    0 -0.37976206584E+02 -0.12878238646E+02 -0.67174316769E+01  0.50528865904E+02  0.30000018401E+02 0.  0.
         12    1    3    3    0    0  0.37976206584E+02  0.12878238646E+02  0.67174316769E+01  0.40659134096E+02  0.00000000000E+00 0. -1.
         11    1    4    4    0    0 -0.15223121154E+02  0.18241552246E+01 -0.80030434368E+01  0.17295076307E+02  0.51100000000E-03 0. -1.
        -11    1    4    4    0    0 -0.17156122295E+02 -0.20582427108E+01  0.64921518798E+01  0.18458519213E+02  0.51100000000E-03 0.  1.
        -12    1    4    4    0    0 -0.55969631355E+01 -0.12644151160E+02 -0.52065401200E+01  0.14775270384E+02  0.00000000000E+00 0.  1.
</event>
<event>
 8    1  0.7977359E-012  0.9118800E+02  0.7816164E-02  0.1184000E+00
        -11   -1    0    0    0    0  0.00000000000E+00  0.00000000000E+00  0.45593999997E+02  0.45594000000E+02  0.51100000000E-03 0.  1.
         11   -1    0    0    0    0 -0.00000000000E+00 -0.00000000000E+00 -0.45593999997E+02  0.45594000000E+02  0.51100000000E-03 0. -1.
         23    2    1    2    0    0  0.00000000000E+00 -0.71054273576E-14  0.00000000000E+00  0.91188000000E+02  0.91188000000E+02 0.  0.
    9900012    2    3    3    0    0 -0.14846114018E+02 -0.35174089640E+02 -0.13983615094E+02  0.50528866038E+02  0.30000018810E+02 0.  0.
         12    1    3    3    0    0  0.14846114018E+02  0.35174089640E+02  0.13983615094E+02  0.40659133962E+02  0.00000000000E+00 0. -1.
         11    1    4    4    0    0 -0.21990450579E+02 -0.27288250420E+02 -0.10275349522E+02  0.36521381898E+02  0.51100000000E-03 0. -1.
        -11    1    4    4    0    0 -0.11648828391E+01 -0.13754094736E+01 -0.29079047031E+01  0.34212005601E+01  0.51100000000E-03 0.  1.
        -12    1    4    4    0    0  0.83092194002E+01 -0.65104297463E+01 -0.80036086835E+00  0.10586283580E+02  0.00000000000E+00 0.  1.
</event>
<event>
 8    1  0.7977359E-012  0.9118800E+02  0.7816164E-02  0.1184000E+00
        -11   -1    0    0    0    0  0.00000000000E+00  0.00000000000E+00  0.45593999997E+02  0.45594000000E+02  0.51100000000E-03 0.  1.
         11   -1    0    0    0    0 -0.00000000000E+00 -0.00000000000E+00 -0.45593999997E+02  0.45594000000E+02  0.51100000000E-03 0. -1.
         23    2    1    2    0    0 -0.35527136788E-14  0.00000000000E+00  0.35527136788E-14  0.91188000000E+02  0.91188000000E+02 0.  0.
    9900012    2    3    3    0    0 -0.13240336942E+02 -0.35177653012E+02  0.15504591092E+02  0.50528854182E+02  0.29999982770E+02 0.  0.
        -12    1    3    3    0    0  0.13240336942E+02  0.35177653012E+02 -0.15504591092E+02  0.40659145818E+02  0.00000000000E+00 0.  1.
         11    1    4    4    0    0 -0.77416214442E+01 -0.13954012026E+02  0.92579379395E+01  0.18448755225E+02  0.51100000000E-03 0. -1.
        -11    1    4    4    0    0 -0.11280327581E+02 -0.66152499201E+01  0.93369474091E+01  0.16068164457E+02  0.51100000000E-03 0.  1.
        -12    1    4    4    0    0  0.57816120835E+01 -0.14608391066E+02 -0.30902942563E+01  0.16011934499E+02  0.00000000000E+00 0.  1.
</event>
<event>
 8    1  0.7977359E-012  0.9118800E+02  0.7816164E-02  0.1184000E+00
        -11   -1    0    0    0    0  0.00000000000E+00  0.00000000000E+00  0.45593999997E+02  0.45594000000E+02  0.51100000000E-03 0. -1.
         11   -1    0    0    0    0 -0.00000000000E+00 -0.00000000000E+00 -0.45593999997E+02  0.45594000000E+02  0.51100000000E-03 0.  1.
         23    2    1    2    0    0  0.00000000000E+00  0.00000000000E+00  0.35527136788E-14  0.91188000000E+02  0.91188000000E+02 0.  0.
    9900012    2    3    3    0    0  0.19714158000E+02  0.26903900090E+02 -0.23252858894E+02  0.50528888936E+02  0.30000088411E+02 0.  0.
         12    1    3    3    0    0 -0.19714158000E+02 -0.26903900090E+02  0.23252858894E+02  0.40659111064E+02  0.00000000000E+00 0. -1.
         11    1    4    4    0    0 -0.35929905868E+01  0.68383476904E+01  0.17433389058E+01  0.79190789422E+01  0.51100000000E-03 0. -1.
        -11    1    4    4    0    0  0.60901314524E+00  0.30499597746E+01  0.17946180895E+01  0.35907946177E+01  0.51100000000E-03 0.  1.
        -12    1    4    4    0    0  0.22698135442E+02  0.17015592625E+02 -0.26790815890E+02  0.39019015376E+02  0.00000000000E+00 0.  1.
</event>
<event>
 8    1  0.7977359E-012  0.9118800E+02  0.7816164E-02  0.1184000E+00
        -11   -1    0    0    0    0  0.00000000000E+00  0.00000000000E+00  0.45593999997E+02  0.45594000000E+02  0.51100000000E-03 0. -1.
         11   -1    0    0    0    0 -0.00000000000E+00 -0.00000000000E+00 -0.45593999997E+02  0.45594000000E+02  0.51100000000E-03 0.  1.
         23    2    1    2    0    0  0.00000000000E+00  0.35527136788E-14  0.00000000000E+00  0.91188000000E+02  0.91188000000E+02 0.  0.
    9900012    2    3    3    0    0  0.10882629719E+02 -0.17028002322E+02  0.35281457947E+02  0.50528858746E+02  0.29999996644E+02 0.  0.
        -12    1    3    3    0    0 -0.10882629719E+02  0.17028002322E+02 -0.35281457947E+02  0.40659141254E+02  0.00000000000E+00 0.  1.
         11    1    4    4    0    0 -0.66966750010E+00  0.91828225881E+00 -0.20911403758E+01  0.23800347056E+01  0.51100000000E-03 0.  1.
        -11    1    4    4    0    0  0.30653677445E+01  0.22542645855E+01 -0.10239568657E+01  0.39403903556E+01  0.51100000000E-03 0. -1.
         12    1    4    4    0    0  0.84869294743E+01 -0.20200549167E+02  0.38396555188E+02  0.44208433685E+02  0.00000000000E+00 0. -1.
</event>
<event>
 8    1  0.7977359E-012  0.9118800E+02  0.7816164E-02  0.1184000E+00
        -11   -1    0    0    0    0  0.00000000000E+00  0.00000000000E+00  0.45593999997E+02  0.45594000000E+02  0.51100000000E-03 0. -1.
         11   -1    0    0    0    0 -0.00000000000E+00 -0.00000000000E+00 -0.45593999997E+02  0.45594000000E+02  0.51100000000E-03 0.  1.
         23    2    1    2    0    0  0.22204460493E-15  0.00000000000E+00  0.00000000000E+00  0.91188000000E+02  0.91188000000E+02 0.  0.
    9900012    2    3    3    0    0 -0.10160444569E+01  0.92674791670E+01  0.39575889999E+02  0.50528811793E+02  0.29999853926E+02 0.  0.
        -12    1    3    3    0    0  0.10160444569E+01 -0.92674791670E+01 -0.39575889999E+02  0.40659188207E+02  0.00000000000E+00 0.  1.
         11    1    4    4    0    0 -0.56722997568E+01  0.10489973510E+01  0.19427949123E+02  0.20266242556E+02  0.51100000000E-03 0.  1.
        -11    1    4    4    0    0 -0.78064525863E+01  0.23037220535E+01  0.11102574838E+02  0.13766444914E+02  0.51100000000E-03 0. -1.
         12    1    4    4    0    0  0.12462707886E+02  0.59147597625E+01  0.90453660385E+01  0.16496124323E+02  0.00000000000E+00 0. -1.
</event>
<event>
 8    1  0.7977359E-012  0.9118800E+02  0.7816164E-02  0.1184000E+00
        -11   -1    0    0    0    0  0.00000000000E+00  0.00000000000E+00  0.45593999997E+02  0.45594000000E+02  0.51100000000E-03 0.  1.
         11   -1    0    0    0    0 -0.00000000000E+00 -0.00000000000E+00 -0.45593999997E+02  0.45594000000E+02  0.51100000000E-03 0. -1.
         23    2    1    2    0    0  0.00000000000E+00  0.17763568394E-14  0.00000000000E+00  0.91188000000E+02  0.91188000000E+02 0.  0.
    9900012    2    3    3    0    0  0.28567202235E+02 -0.10776969851E+02  0.26850284290E+02  0.50528857250E+02  0.29999992098E+02 0.  0.
         12    1    3    3    0    0 -0.28567202235E+02  0.10776969851E+02 -0.26850284290E+02  0.40659142750E+02  0.00000000000E+00 0. -1.
         11    1    4    4    0    0  0.11496617542E+02 -0.32285976308E+01  0.14248972565E+02  0.18591107470E+02  0.51100000000E-03 0. -1.
        -11    1    4    4    0    0  0.52807613100E+01  0.12544154498E+01  0.15949750661E+02  0.16847983397E+02  0.51100000000E-03 0.  1.
         12    1    4    4    0    0  0.11789823383E+02 -0.88027876698E+01 -0.33484389367E+01  0.15089766383E+02  0.00000000000E+00 0. -1.
</event>
<event>
 8    1  0.7977359E-012  0.9118800E+02  0.7816164E-02  0.1184000E+00
        -11   -1    0    0    0    0  0.00000000000E+00  0.00000000000E+00  0.45593999997E+02  0.45594000000E+02  0.51100000000E-03 0.  1.
         11   -1    0    0    0    0 -0.00000000000E+00 -0.00000000000E+00 -0.45593999997E+02  0.45594000000E+02  0.51100000000E-03 0. -1.
         23    2    1    2    0    0  0.00000000000E+00  0.00000000000E+00  0.00000000000E+00  0.91188000000E+02  0.91188000000E+02 0.  0.
    9900012    2    3    3    0    0 -0.39614476804E+02  0.64407061711E+01 -0.65092826071E+01  0.50528926862E+02  0.30000203688E+02 0.  0.
         12    1    3    3    0    0  0.39614476804E+02 -0.64407061711E+01  0.65092826071E+01  0.40659073138E+02  0.00000000000E+00 0. -1.
         11    1    4    4    0    0 -0.97758521805E+01 -0.16886388880E+01 -0.61782138271E+01  0.11687134529E+02  0.51100000000E-03 0. -1.
        -11    1    4    4    0    0 -0.20829770002E+02 -0.61483267582E+01 -0.23243405013E+01  0.21842248036E+02  0.51100000000E-03 0.  1.
        -12    1    4    4    0    0 -0.90088546216E+01  0.14277671817E+02  0.19932717213E+01  0.16999544296E+02  0.00000000000E+00 0.  1.
</event>
<event>
 8    1  0.7977359E-012  0.9118800E+02  0.7816164E-02  0.1184000E+00
        -11   -1    0    0    0    0  0.00000000000E+00  0.00000000000E+00  0.45593999997E+02  0.45594000000E+02  0.51100000000E-03 0. -1.
         11   -1    0    0    0    0 -0.00000000000E+00 -0.00000000000E+00 -0.45593999997E+02  0.45594000000E+02  0.51100000000E-03 0.  1.
         23    2    1    2    0    0  0.44408920985E-15  0.35527136788E-14  0.00000000000E+00  0.91188000000E+02  0.91188000000E+02 0.  0.
    9900012    2    3    3    0    0  0.38522735713E+01  0.30701027770E+02 -0.26377506226E+02  0.50528856471E+02  0.29999989728E+02 0.  0.
         12    1    3    3    0    0 -0.38522735713E+01 -0.30701027770E+02  0.26377506226E+02  0.40659143529E+02  0.00000000000E+00 0. -1.
         11    1    4    4    0    0 -0.66842661841E+01 -0.90250456798E+00 -0.50291988396E+00  0.67636423313E+01  0.51100000000E-03 0. -1.
        -11    1    4    4    0    0  0.32132021470E+01  0.95336627947E+00 -0.68261775853E+00  0.34204594086E+01  0.51100000000E-03 0.  1.
        -12    1    4    4    0    0  0.73233376084E+01  0.30650166059E+02 -0.25191968584E+02  0.40344754731E+02  0.00000000000E+00 0.  1.
</event>
<event>
 8    1  0.7977359E-012  0.9118800E+02  0.7816164E-02  0.1184000E+00
        -11   -1    0    0    0    0  0.00000000000E+00  0.00000000000E+00  0.45593999997E+02  0.45594000000E+02  0.51100000000E-03 0. -1.
         11   -1    0    0    0    0 -0.00000000000E+00 -0.00000000000E+00 -0.45593999997E+02  0.45594000000E+02  0.51100000000E-03 0.  1.
         23    2    1    2    0    0 -0.35527136788E-14  0.00000000000E+00  0.00000000000E+00  0.91188000000E+02  0.91188000000E+02 0.  0.
    9900012    2    3    3    0    0 -0.30554410036E+02 -0.19331756651E+02  0.18597650360E+02  0.50528912618E+02  0.30000160393E+02 0.  0.
        -12    1    3    3    0    0  0.30554410036E+02  0.19331756651E+02 -0.18597650360E+02  0.40659087382E+02  0.00000000000E+00 0.  1.
         11    1    4    4    0    0 -0.21901206922E+00 -0.63369582436E+01  0.90533991402E+01  0.11053010555E+02  0.51100000000E-03 0. -1.
        -11    1    4    4    0    0  0.18913893062E+01 -0.29871454603E+01  0.38967815643E+01  0.52616820818E+01  0.51100000000E-03 0.  1.
         12    1    4    4    0    0 -0.32226787273E+02 -0.10007652947E+02  0.56474696550E+01  0.34214219982E+02  0.00000000000E+00 0. -1.
</event>
<event>
 8    1  0.7977359E-012  0.9118800E+02  0.7816164E-02  0.1184000E+00
        -11   -1    0    0    0    0  0.00000000000E+00  0.00000000000E+00  0.45593999997E+02  0.45594000000E+02  0.51100000000E-03 0. -1.
         11   -1    0    0    0    0 -0.00000000000E+00 -0.00000000000E+00 -0.45593999997E+02  0.45594000000E+02  0.51100000000E-03 0.  1.
         23    2    1    2    0    0 -0.88817841970E-15  0.00000000000E+00  0.17763568394E-14  0.91188000000E+02  0.91188000000E+02 0.  0.
    9900012    2    3    3    0    0 -0.36759890774E+01  0.39793893210E+02  0.74898798894E+01  0.50528866546E+02  0.30000020353E+02 0.  0.
        -12    1    3    3    0    0  0.36759890774E+01 -0.39793893210E+02 -0.74898798894E+01  0.40659133454E+02  0.00000000000E+00 0.  1.
         11    1    4    4    0    0  0.88349134735E+00  0.19975220339E+02  0.80809625651E+01  0.21565990374E+02  0.51100000000E-03 0. -1.
        -11    1    4    4    0    0  0.77312040189E+01  0.10595526878E+02  0.23290072276E+01  0.13321448132E+02  0.51100000000E-03 0.  1.
        -12    1    4    4    0    0 -0.12290684444E+02  0.92231459929E+01 -0.29200899034E+01  0.15641428040E+02  0.00000000000E+00 0.  1.
</event>
<event>
 8    1  0.7977359E-012  0.9118800E+02  0.7816164E-02  0.1184000E+00
        -11   -1    0    0    0    0  0.00000000000E+00  0.00000000000E+00  0.45593999997E+02  0.45594000000E+02  0.51100000000E-03 0. -1.
         11   -1    0    0    0    0 -0.00000000000E+00 -0.00000000000E+00 -0.45593999997E+02  0.45594000000E+02  0.51100000000E-03 0.  1.
         23    2    1    2    0    0  0.00000000000E+00  0.35527136788E-14  0.00000000000E+00  0.91188000000E+02  0.91188000000E+02 0.  0.
    9900012    2    3    3    0    0  0.25481608698E+02 -0.25410226027E+02  0.18925500496E+02  0.50528849276E+02  0.29999967859E+02 0.  0.
        -12    1    3    3    0    0 -0.25481608698E+02  0.25410226027E+02 -0.18925500496E+02  0.40659150724E+02  0.00000000000E+00 0.  1.
         11    1    4    4    0    0  0.16676782604E+02 -0.15903543150E+02  0.11851728154E+02  0.25913340642E+02  0.51100000000E-03 0. -1.
        -11    1    4    4    0    0  0.12442093956E+02 -0.11483785427E+02  0.61380238505E+00  0.16942838705E+02  0.51100000000E-03 0.  1.
        -12    1    4    4    0    0 -0.36372678620E+01  0.19771025498E+01  0.64599699571E+01  0.76726699289E+01  0.00000000000E+00 0.  1.
</event>
<event>
 8    1  0.7977359E-012  0.9118800E+02  0.7816164E-02  0.1184000E+00
        -11   -1    0    0    0    0  0.00000000000E+00  0.00000000000E+00  0.45593999997E+02  0.45594000000E+02  0.51100000000E-03 0. -1.
         11   -1    0    0    0    0 -0.00000000000E+00 -0.00000000000E+00 -0.45593999997E+02  0.45594000000E+02  0.51100000000E-03 0.  1.
         23    2    1    2    0    0  0.00000000000E+00  0.00000000000E+00  0.35527136788E-14  0.91188000000E+02  0.91188000000E+02 0.  0.
    9900012    2    3    3    0    0  0.51504953178E+01 -0.28710643917E+02 -0.28325566543E+02  0.50528851016E+02  0.29999973147E+02 0.  0.
         12    1    3    3    0    0 -0.51504953178E+01  0.28710643917E+02  0.28325566543E+02  0.40659148984E+02  0.00000000000E+00 0. -1.
         11    1    4    4    0    0 -0.10592151977E+02 -0.39314385122E+01 -0.51976720121E+01  0.12436466012E+02  0.51100000000E-03 0. -1.
        -11    1    4    4    0    0  0.37284984137E+01 -0.16966468104E+01 -0.19260229026E+01  0.45265743451E+01  0.51100000000E-03 0.  1.
        -12    1    4    4    0    0  0.12014148881E+02 -0.23082558595E+02 -0.21201871628E+02  0.33565810658E+02  0.00000000000E+00 0.  1.
</event>
<event>
 8    1  0.7977359E-012  0.9118800E+02  0.7816164E-02  0.1184000E+00
        -11   -1    0    0    0    0  0.00000000000E+00  0.00000000000E+00  0.45593999997E+02  0.45594000000E+02  0.51100000000E-03 0. -1.
         11   -1    0    0    0    0 -0.00000000000E+00 -0.00000000000E+00 -0.45593999997E+02  0.45594000000E+02  0.51100000000E-03 0.  1.
         23    2    1    2    0    0  0.17763568394E-14  0.00000000000E+00 -0.71054273576E-14  0.91188000000E+02  0.91188000000E+02 0.  0.
    9900012    2    3    3    0    0  0.41455153648E+01  0.55126976210E+01 -0.40069821250E+02  0.50528859481E+02  0.29999998880E+02 0.  0.
         12    1    3    3    0    0 -0.41455153648E+01 -0.55126976210E+01  0.40069821250E+02  0.40659140519E+02  0.00000000000E+00 0. -1.
         11    1    4    4    0    0  0.96452651130E+01  0.53131040295E+00 -0.29081792292E+02  0.30644152346E+02  0.51100000000E-03 0. -1.
        -11    1    4    4    0    0  0.28646125446E+01  0.17562638847E+01 -0.10367774428E+02  0.10898679494E+02  0.51100000000E-03 0.  1.
         12    1    4    4    0    0 -0.83643622928E+01  0.32251233333E+01 -0.62025452975E+00  0.89860276408E+01  0.00000000000E+00 0. -1.
</event>
<event>
 8    1  0.7977359E-012  0.9118800E+02  0.7816164E-02  0.1184000E+00
        -11   -1    0    0    0    0  0.00000000000E+00  0.00000000000E+00  0.45593999997E+02  0.45594000000E+02  0.51100000000E-03 0. -1.
         11   -1    0    0    0    0 -0.00000000000E+00 -0.00000000000E+00 -0.45593999997E+02  0.45594000000E+02  0.51100000000E-03 0.  1.
         23    2    1    2    0    0  0.17763568394E-14  0.00000000000E+00  0.00000000000E+00  0.91188000000E+02  0.91188000000E+02 0.  0.
    9900012    2    3    3    0    0 -0.13072812783E+02  0.72645889045E+01 -0.37808639851E+02  0.50528856706E+02  0.29999990443E+02 0.  0.
         12    1    3    3    0    0  0.13072812783E+02 -0.72645889045E+01  0.37808639851E+02  0.40659143294E+02  0.00000000000E+00 0. -1.
         11    1    4    4    0    0 -0.88324224100E+01 -0.39671766402E+01 -0.15125294256E+02  0.17958972763E+02  0.51100000000E-03 0. -1.
        -11    1    4    4    0    0 -0.10064247394E+02 -0.68331607323E+00 -0.10512457953E+02  0.14569412100E+02  0.51100000000E-03 0.  1.
         12    1    4    4    0    0  0.58238570208E+01  0.11915081618E+02 -0.12170887642E+02  0.18000471843E+02  0.00000000000E+00 0. -1.
</event>
<event>
 8    1  0.7977359E-012  0.9118800E+02  0.7816164E-02  0.1184000E+00
        -11   -1    0    0    0    0  0.00000000000E+00  0.00000000000E+00  0.45593999997E+02  0.45594000000E+02  0.51100000000E-03 0.  1.
         11   -1    0    0    0    0 -0.00000000000E+00 -0.00000000000E+00 -0.45593999997E+02  0.45594000000E+02  0.51100000000E-03 0. -1.
         23    2    1    2    0    0  0.00000000000E+00  0.00000000000E+00  0.00000000000E+00  0.91188000000E+02  0.91188000000E+02 0.  0.
    9900012    2    3    3    0    0  0.14030078542E+02  0.34293808588E+02  0.16740883253E+02  0.50528861010E+02  0.30000003525E+02 0.  0.
         12    1    3    3    0    0 -0.14030078542E+02 -0.34293808588E+02 -0.16740883253E+02  0.40659138990E+02  0.00000000000E+00 0. -1.
         11    1    4    4    0    0 -0.12981302175E+01 -0.91245679201E+00  0.34043226582E+00  0.16228412885E+01  0.51100000000E-03 0.  1.
        -11    1    4    4    0    0 -0.91446080349E+00  0.20088364337E+02 -0.18241222797E+01  0.20191732037E+02  0.51100000000E-03 0. -1.
        -12    1    4    4    0    0  0.16242669563E+02  0.15117901043E+02  0.18224573267E+02  0.28714287685E+02  0.00000000000E+00 0.  1.
</event>
<event>
 8    1  0.7977359E-012  0.9118800E+02  0.7816164E-02  0.1184000E+00
        -11   -1    0    0    0    0  0.00000000000E+00  0.00000000000E+00  0.45593999997E+02  0.45594000000E+02  0.51100000000E-03 0. -1.
         11   -1    0    0    0    0 -0.00000000000E+00 -0.00000000000E+00 -0.45593999997E+02  0.45594000000E+02  0.51100000000E-03 0.  1.
         23    2    1    2    0    0  0.00000000000E+00  0.00000000000E+00  0.00000000000E+00  0.91188000000E+02  0.91188000000E+02 0.  0.
    9900012    2    3    3    0    0  0.32607011268E+01 -0.34130136672E+02 -0.21855638646E+02  0.50528839388E+02  0.29999937803E+02 0.  0.
         12    1    3    3    0    0 -0.32607011268E+01  0.34130136672E+02  0.21855638646E+02  0.40659160612E+02  0.00000000000E+00 0. -1.
         11    1    4    4    0    0 -0.37157381563E+01 -0.11621226885E+02 -0.31633800817E+01  0.12604229376E+02  0.51100000000E-03 0. -1.
        -11    1    4    4    0    0  0.28747369568E+01 -0.25367442346E+02 -0.90918509984E+01  0.27100424325E+02  0.51100000000E-03 0.  1.
        -12    1    4    4    0    0  0.41017023263E+01  0.28585325588E+01 -0.96004075655E+01  0.10824185687E+02  0.00000000000E+00 0.  1.
</event>
<event>
 8    1  0.7977359E-012  0.9118800E+02  0.7816164E-02  0.1184000E+00
        -11   -1    0    0    0    0  0.00000000000E+00  0.00000000000E+00  0.45593999997E+02  0.45594000000E+02  0.51100000000E-03 0. -1.
         11   -1    0    0    0    0 -0.00000000000E+00 -0.00000000000E+00 -0.45593999997E+02  0.45594000000E+02  0.51100000000E-03 0.  1.
         23    2    1    2    0    0  0.00000000000E+00  0.17763568394E-14  0.35527136788E-14  0.91188000000E+02  0.91188000000E+02 0.  0.
    9900012    2    3    3    0    0  0.20161849673E+02  0.15406039698E+02  0.31769800534E+02  0.50528850140E+02  0.29999970484E+02 0.  0.
        -12    1    3    3    0    0 -0.20161849673E+02 -0.15406039698E+02 -0.31769800534E+02  0.40659149860E+02  0.00000000000E+00 0.  1.
         11    1    4    4    0    0  0.12640090686E+02  0.20455213458E+01  0.25168679088E+02  0.28238598715E+02  0.51100000000E-03 0. -1.
        -11    1    4    4    0    0  0.57920182302E+01  0.79865820044E+01  0.11260005898E+02  0.14970661321E+02  0.51100000000E-03 0.  1.
        -12    1    4    4    0    0  0.17297407572E+01  0.53739363475E+01 -0.46588844517E+01  0.73195901039E+01  0.00000000000E+00 0.  1.
</event>
<event>
 8    1  0.7977359E-012  0.9118800E+02  0.7816164E-02  0.1184000E+00
        -11   -1    0    0    0    0  0.00000000000E+00  0.00000000000E+00  0.45593999997E+02  0.45594000000E+02  0.51100000000E-03 0. -1.
         11   -1    0    0    0    0 -0.00000000000E+00 -0.00000000000E+00 -0.45593999997E+02  0.45594000000E+02  0.51100000000E-03 0.  1.
         23    2    1    2    0    0  0.35527136788E-14  0.88817841970E-15 -0.71054273576E-14  0.91188000000E+02  0.91188000000E+02 0.  0.
    9900012    2    3    3    0    0  0.22348711062E+02 -0.74120069466E+01 -0.33147588788E+02  0.50528863566E+02  0.30000011295E+02 0.  0.
         12    1    3    3    0    0 -0.22348711062E+02  0.74120069466E+01  0.33147588788E+02  0.40659136434E+02  0.00000000000E+00 0. -1.
         11    1    4    4    0    0 -0.28217702269E+01  0.28085808932E+01 -0.24992163200E+01  0.47007016840E+01  0.51100000000E-03 0. -1.
        -11    1    4    4    0    0  0.17767929424E+02 -0.15380774577E+00 -0.27830143712E+02  0.33018780597E+02  0.51100000000E-03 0.  1.
        -12    1    4    4    0    0  0.74025518651E+01 -0.10066780094E+02 -0.28182287563E+01  0.12809381285E+02  0.00000000000E+00 0.  1.
</event>
<event>
 8    1  0.7977359E-012  0.9118800E+02  0.7816164E-02  0.1184000E+00
        -11   -1    0    0    0    0  0.00000000000E+00  0.00000000000E+00  0.45593999997E+02  0.45594000000E+02  0.51100000000E-03 0. -1.
         11   -1    0    0    0    0 -0.00000000000E+00 -0.00000000000E+00 -0.45593999997E+02  0.45594000000E+02  0.51100000000E-03 0.  1.
         23    2    1    2    0    0  0.00000000000E+00  0.17763568394E-14  0.71054273576E-14  0.91188000000E+02  0.91188000000E+02 0.  0.
    9900012    2    3    3    0    0  0.17771472339E+02 -0.14230758695E+02 -0.33687175185E+02  0.50528862108E+02  0.30000006865E+02 0.  0.
         12    1    3    3    0    0 -0.17771472339E+02  0.14230758695E+02  0.33687175185E+02  0.40659137892E+02  0.00000000000E+00 0. -1.
         11    1    4    4    0    0  0.51761091644E+01  0.10541443436E+01 -0.86074435765E+01  0.10099079738E+02  0.51100000000E-03 0. -1.
        -11    1    4    4    0    0  0.14558317573E+02 -0.33901569961E+01 -0.24067610433E+02  0.28331742749E+02  0.51100000000E-03 0.  1.
         12    1    4    4    0    0 -0.19629543980E+01 -0.11894746043E+02 -0.10121211755E+01  0.12098039621E+02  0.00000000000E+00 0. -1.
</event>
<event>
 8    1  0.7977359E-012  0.9118800E+02  0.7816164E-02  0.1184000E+00
        -11   -1    0    0    0    0  0.00000000000E+00  0.00000000000E+00  0.45593999997E+02  0.45594000000E+02  0.51100000000E-03 0. -1.
         11   -1    0    0    0    0 -0.00000000000E+00 -0.00000000000E+00 -0.45593999997E+02  0.45594000000E+02  0.51100000000E-03 0.  1.
         23    2    1    2    0    0  0.00000000000E+00  0.00000000000E+00  0.00000000000E+00  0.91188000000E+02  0.91188000000E+02 0.  0.
    9900012    2    3    3    0    0 -0.11628913106E+02 -0.33570942974E+02  0.19771836895E+02  0.50528863679E+02  0.30000011637E+02 0.  0.
        -12    1    3    3    0    0  0.11628913106E+02  0.33570942974E+02 -0.19771836895E+02  0.40659136321E+02  0.00000000000E+00 0.  1.
         11    1    4    4    0    0 -0.83085363954E+01 -0.35390631007E+01 -0.24185609645E+00  0.90341153024E+01  0.51100000000E-03 0. -1.
        -11    1    4    4    0    0 -0.67372598576E+01 -0.25401468245E+01  0.93705439044E+01  0.11817364749E+02  0.51100000000E-03 0.  1.
         12    1    4    4    0    0  0.34168831472E+01 -0.27491733049E+02  0.10643149087E+02  0.29677383627E+02  0.00000000000E+00 0. -1.
</event>
<event>
 8    1  0.7977359E-012  0.9118800E+02  0.7816164E-02  0.1184000E+00
        -11   -1    0    0    0    0  0.00000000000E+00  0.00000000000E+00  0.45593999997E+02  0.45594000000E+02  0.51100000000E-03 0. -1.
         11   -1    0    0    0    0 -0.00000000000E+00 -0.00000000000E+00 -0.45593999997E+02  0.45594000000E+02  0.51100000000E-03 0.  1.
         23    2    1    2    0    0  0.00000000000E+00  0.00000000000E+00  0.00000000000E+00  0.91188000000E+02  0.91188000000E+02 0.  0.
    9900012    2    3    3    0    0 -0.15342770110E+02 -0.19413638055E+02  0.32262565922E+02  0.50528891586E+02  0.30000096464E+02 0.  0.
        -12    1    3    3    0    0  0.15342770110E+02  0.19413638055E+02 -0.32262565922E+02  0.40659108414E+02  0.00000000000E+00 0.  1.
         11    1    4    4    0    0 -0.12901198226E+01  0.12643061677E+01 -0.93553451796E-01  0.18087652561E+01  0.51100000000E-03 0. -1.
        -11    1    4    4    0    0 -0.18721131322E+02 -0.67608582617E+01  0.10814993847E+02  0.22652903888E+02  0.51100000000E-03 0.  1.
         12    1    4    4    0    0  0.46684810347E+01 -0.13917085961E+02  0.21541125527E+02  0.26067222441E+02  0.00000000000E+00 0. -1.
</event>
<event>
 8    1  0.7977359E-012  0.9118800E+02  0.7816164E-02  0.1184000E+00
        -11   -1    0    0    0    0  0.00000000000E+00  0.00000000000E+00  0.45593999997E+02  0.45594000000E+02  0.51100000000E-03 0. -1.
         11   -1    0    0    0    0 -0.00000000000E+00 -0.00000000000E+00 -0.45593999997E+02  0.45594000000E+02  0.51100000000E-03 0.  1.
         23    2    1    2    0    0  0.35527136788E-14  0.88817841970E-15  0.71054273576E-14  0.91188000000E+02  0.91188000000E+02 0.  0.
    9900012    2    3    3    0    0 -0.17154604676E+02  0.24553548070E+01 -0.36781200897E+02  0.50528856278E+02  0.29999989143E+02 0.  0.
         12    1    3    3    0    0  0.17154604676E+02 -0.24553548070E+01  0.36781200897E+02  0.40659143722E+02  0.00000000000E+00 0. -1.
         11    1    4    4    0    0 -0.98113263502E+01  0.23870103778E+01 -0.61668032968E+01  0.11831711899E+02  0.51100000000E-03 0. -1.
        -11    1    4    4    0    0 -0.72353234657E+01  0.96915772379E+01 -0.91232954900E+01  0.15149623621E+02  0.51100000000E-03 0.  1.
         12    1    4    4    0    0 -0.10795485994E+00 -0.96232328087E+01 -0.21491102110E+02  0.23547520758E+02  0.00000000000E+00 0. -1.
</event>
<event>
 8    1  0.7977359E-012  0.9118800E+02  0.7816164E-02  0.1184000E+00
        -11   -1    0    0    0    0  0.00000000000E+00  0.00000000000E+00  0.45593999997E+02  0.45594000000E+02  0.51100000000E-03 0. -1.
         11   -1    0    0    0    0 -0.00000000000E+00 -0.00000000000E+00 -0.45593999997E+02  0.45594000000E+02  0.51100000000E-03 0.  1.
         23    2    1    2    0    0  0.00000000000E+00  0.00000000000E+00  0.00000000000E+00  0.91188000000E+02  0.91188000000E+02 0.  0.
    9900012    2    3    3    0    0 -0.43340031515E+01 -0.34846246457E+02  0.20496878008E+02  0.50528849940E+02  0.29999969879E+02 0.  0.
        -12    1    3    3    0    0  0.43340031515E+01  0.34846246457E+02 -0.20496878008E+02  0.40659150060E+02  0.00000000000E+00 0.  1.
         11    1    4    4    0    0 -0.38403817141E+01 -0.28574540108E+00  0.76074913611E+01  0.85266703475E+01  0.51100000000E-03 0. -1.
        -11    1    4    4    0    0 -0.46798952747E+01 -0.15595426572E+02  0.15409063871E+02  0.22417805410E+02  0.51100000000E-03 0.  1.
        -12    1    4    4    0    0  0.41862738373E+01 -0.18965074484E+02 -0.25196772241E+01  0.19584374183E+02  0.00000000000E+00 0.  1.
</event>
<event>
 8    1  0.7977359E-012  0.9118800E+02  0.7816164E-02  0.1184000E+00
        -11   -1    0    0    0    0  0.00000000000E+00  0.00000000000E+00  0.45593999997E+02  0.45594000000E+02  0.51100000000E-03 0. -1.
         11   -1    0    0    0    0 -0.00000000000E+00 -0.00000000000E+00 -0.45593999997E+02  0.45594000000E+02  0.51100000000E-03 0.  1.
         23    2    1    2    0    0  0.00000000000E+00  0.00000000000E+00  0.00000000000E+00  0.91188000000E+02  0.91188000000E+02 0.  0.
    9900012    2    3    3    0    0  0.44430841963E+01 -0.31348149215E+02 -0.25509231209E+02  0.50528827195E+02  0.29999900740E+02 0.  0.
         12    1    3    3    0    0 -0.44430841963E+01  0.31348149215E+02  0.25509231209E+02  0.40659172805E+02  0.00000000000E+00 0. -1.
         11    1    4    4    0    0 -0.50042706607E+01  0.31846330472E+01 -0.12048425292E+01  0.60527892969E+01  0.51100000000E-03 0. -1.
        -11    1    4    4    0    0  0.89961385522E+00 -0.11102952396E+01  0.95523284130E+00  0.17188748209E+01  0.51100000000E-03 0.  1.
        -12    1    4    4    0    0  0.85477410018E+01 -0.33422487022E+02 -0.25259621521E+02  0.42757163077E+02  0.00000000000E+00 0.  1.
</event>
<event>
 8    1  0.7977359E-012  0.9118800E+02  0.7816164E-02  0.1184000E+00
        -11   -1    0    0    0    0  0.00000000000E+00  0.00000000000E+00  0.45593999997E+02  0.45594000000E+02  0.51100000000E-03 0.  1.
         11   -1    0    0    0    0 -0.00000000000E+00 -0.00000000000E+00 -0.45593999997E+02  0.45594000000E+02  0.51100000000E-03 0. -1.
         23    2    1    2    0    0 -0.35527136788E-14  0.00000000000E+00 -0.35527136788E-14  0.91188000000E+02  0.91188000000E+02 0.  0.
    9900012    2    3    3    0    0  0.29910020037E+02  0.11015069552E+02 -0.25243289963E+02  0.50528871332E+02  0.30000034901E+02 0.  0.
         12    1    3    3    0    0 -0.29910020037E+02 -0.11015069552E+02  0.25243289963E+02  0.40659128668E+02  0.00000000000E+00 0. -1.
         11    1    4    4    0    0  0.22888125219E+02  0.25261556228E+01 -0.23547029459E+02  0.32934940943E+02  0.51100000000E-03 0. -1.
        -11    1    4    4    0    0  0.99206297274E+01  0.21309801446E+01  0.78903523749E+00  0.10177551151E+02  0.51100000000E-03 0.  1.
        -12    1    4    4    0    0 -0.28987349094E+01  0.63579337845E+01 -0.24852957416E+01  0.74163792383E+01  0.00000000000E+00 0.  1.
</event>
<event>
 8    1  0.7977359E-012  0.9118800E+02  0.7816164E-02  0.1184000E+00
        -11   -1    0    0    0    0  0.00000000000E+00  0.00000000000E+00  0.45593999997E+02  0.45594000000E+02  0.51100000000E-03 0.  1.
         11   -1    0    0    0    0 -0.00000000000E+00 -0.00000000000E+00 -0.45593999997E+02  0.45594000000E+02  0.51100000000E-03 0. -1.
         23    2    1    2    0    0 -0.35527136788E-14  0.35527136788E-14  0.00000000000E+00  0.91188000000E+02  0.91188000000E+02 0.  0.
    9900012    2    3    3    0    0  0.25704200024E+02 -0.31258538716E+02 -0.39198022278E+01  0.50528843699E+02  0.29999950908E+02 0.  0.
         12    1    3    3    0    0 -0.25704200024E+02  0.31258538716E+02  0.39198022278E+01  0.40659156301E+02  0.00000000000E+00 0. -1.
         11    1    4    4    0    0 -0.31892045082E+01  0.26555761650E+01 -0.41076130283E+01  0.58391433631E+01  0.51100000000E-03 0. -1.
        -11    1    4    4    0    0  0.30506457241E+01 -0.28523001035E+01 -0.88441088239E+00  0.42689856037E+01  0.51100000000E-03 0.  1.
         12    1    4    4    0    0  0.25842758809E+02 -0.31061814778E+02  0.10722216829E+01  0.40420714732E+02  0.00000000000E+00 0. -1.
</event>
<event>
 8    1  0.7977359E-012  0.9118800E+02  0.7816164E-02  0.1184000E+00
        -11   -1    0    0    0    0  0.00000000000E+00  0.00000000000E+00  0.45593999997E+02  0.45594000000E+02  0.51100000000E-03 0. -1.
         11   -1    0    0    0    0 -0.00000000000E+00 -0.00000000000E+00 -0.45593999997E+02  0.45594000000E+02  0.51100000000E-03 0.  1.
         23    2    1    2    0    0  0.00000000000E+00  0.00000000000E+00  0.35527136788E-14  0.91188000000E+02  0.91188000000E+02 0.  0.
    9900012    2    3    3    0    0 -0.22312494454E+02 -0.21003506735E+02  0.26723993873E+02  0.50528849094E+02  0.29999967305E+02 0.  0.
        -12    1    3    3    0    0  0.22312494454E+02  0.21003506735E+02 -0.26723993873E+02  0.40659150906E+02  0.00000000000E+00 0.  1.
         11    1    4    4    0    0 -0.15092418499E+01  0.27346527598E+01  0.43551987100E+01  0.53594675802E+01  0.51100000000E-03 0. -1.
        -11    1    4    4    0    0 -0.86967381291E+01 -0.19783165739E+02  0.27577866622E+01  0.21785598185E+02  0.51100000000E-03 0.  1.
         12    1    4    4    0    0 -0.12106514475E+02 -0.39549937560E+01  0.19611008500E+02  0.23383783328E+02  0.00000000000E+00 0. -1.
</event>
<event>
 8    1  0.7977359E-012  0.9118800E+02  0.7816164E-02  0.1184000E+00
        -11   -1    0    0    0    0  0.00000000000E+00  0.00000000000E+00  0.45593999997E+02  0.45594000000E+02  0.51100000000E-03 0. -1.
         11   -1    0    0    0    0 -0.00000000000E+00 -0.00000000000E+00 -0.45593999997E+02  0.45594000000E+02  0.51100000000E-03 0.  1.
         23    2    1    2    0    0  0.71054273576E-14  0.35527136788E-14 -0.13322676296E-14  0.91188000000E+02  0.91188000000E+02 0.  0.
    9900012    2    3    3    0    0  0.35022585610E+02  0.20461512811E+02 -0.28124708031E+01  0.50528868168E+02  0.30000025282E+02 0.  0.
         12    1    3    3    0    0 -0.35022585610E+02 -0.20461512811E+02  0.28124708031E+01  0.40659131832E+02  0.00000000000E+00 0. -1.
         11    1    4    4    0    0  0.19778422480E+02  0.16340755737E+02  0.26074434257E+01  0.25787691935E+02  0.51100000000E-03 0. -1.
        -11    1    4    4    0    0  0.13670542510E+02  0.61790676025E+01 -0.10990725125E+02  0.18597329055E+02  0.51100000000E-03 0.  1.
         12    1    4    4    0    0  0.15736206198E+01 -0.20583105286E+01  0.55708108964E+01  0.61438471767E+01  0.00000000000E+00 0. -1.
</event>
<event>
 8    1  0.7977359E-012  0.9118800E+02  0.7816164E-02  0.1184000E+00
        -11   -1    0    0    0    0  0.00000000000E+00  0.00000000000E+00  0.45593999997E+02  0.45594000000E+02  0.51100000000E-03 0.  1.
         11   -1    0    0    0    0 -0.00000000000E+00 -0.00000000000E+00 -0.45593999997E+02  0.45594000000E+02  0.51100000000E-03 0. -1.
         23    2    1    2    0    0 -0.71054273576E-14  0.00000000000E+00  0.17763568394E-14  0.91188000000E+02  0.91188000000E+02 0.  0.
    9900012    2    3    3    0    0 -0.36678099233E+02  0.11471927927E+02  0.13276952463E+02  0.50528861293E+02  0.30000004385E+02 0.  0.
        -12    1    3    3    0    0  0.36678099233E+02 -0.11471927927E+02 -0.13276952463E+02  0.40659138707E+02  0.00000000000E+00 0.  1.
         11    1    4    4    0    0 -0.27473922115E+02  0.68815237326E+01  0.37635135833E+01  0.28571590786E+02  0.51100000000E-03 0. -1.
        -11    1    4    4    0    0 -0.74250911380E+01  0.10132208503E+00 -0.34025104127E+01  0.81681896368E+01  0.51100000000E-03 0.  1.
        -12    1    4    4    0    0 -0.17790859795E+01  0.44890821090E+01  0.12915949293E+02  0.13789080870E+02  0.00000000000E+00 0.  1.
</event>
<event>
 8    1  0.7977359E-012  0.9118800E+02  0.7816164E-02  0.1184000E+00
        -11   -1    0    0    0    0  0.00000000000E+00  0.00000000000E+00  0.45593999997E+02  0.45594000000E+02  0.51100000000E-03 0. -1.
         11   -1    0    0    0    0 -0.00000000000E+00 -0.00000000000E+00 -0.45593999997E+02  0.45594000000E+02  0.51100000000E-03 0.  1.
         23    2    1    2    0    0  0.00000000000E+00  0.00000000000E+00 -0.35527136788E-14  0.91188000000E+02  0.91188000000E+02 0.  0.
    9900012    2    3    3    0    0 -0.35249720015E+02  0.40133932679E+01 -0.19862406604E+02  0.50528864707E+02  0.30000014763E+02 0.  0.
         12    1    3    3    0    0  0.35249720015E+02 -0.40133932679E+01  0.19862406604E+02  0.40659135293E+02  0.00000000000E+00 0. -1.
         11    1    4    4    0    0 -0.13950060935E+02  0.65363246492E+01 -0.13574581223E+02  0.20532827269E+02  0.51100000000E-03 0. -1.
        -11    1    4    4    0    0 -0.12024353761E+02  0.44973209230E+01 -0.11512758610E+02  0.17243972568E+02  0.51100000000E-03 0.  1.
         12    1    4    4    0    0 -0.92753053198E+01 -0.70202523044E+01  0.52249332296E+01  0.12752064870E+02  0.00000000000E+00 0. -1.
</event>
<event>
 8    1  0.1024048E-011  0.9118800E+02  0.7816164E-02  0.1184000E+00
        -11   -1    0    0    0    0  0.00000000000E+00  0.00000000000E+00  0.45593999997E+02  0.45594000000E+02  0.51100000000E-03 0. -1.
         11   -1    0    0    0    0 -0.00000000000E+00 -0.00000000000E+00 -0.45593999997E+02  0.45594000000E+02  0.51100000000E-03 0.  1.
         23    2    1    2    0    0  0.17763568394E-14  0.88817841970E-15  0.00000000000E+00  0.91188000000E+02  0.91188000000E+02 0.  0.
    9900012    2    3    3    0    0  0.10452285510E+02  0.48396186041E+01  0.38993545548E+02  0.50528821762E+02  0.29999884227E+02 0.  0.
        -12    1    3    3    0    0 -0.10452285510E+02 -0.48396186041E+01 -0.38993545548E+02  0.40659178238E+02  0.00000000000E+00 0.  1.
         11    1    4    4    0    0  0.75703531165E+01  0.76786461922E+01  0.28315562980E+02  0.30299223765E+02  0.51100000000E-03 0. -1.
        -11    1    4    4    0    0 -0.58770086066E+01  0.81591383249E-01  0.91438758109E+01  0.10869974812E+02  0.51100000000E-03 0.  1.
        -12    1    4    4    0    0  0.87589409997E+01 -0.29206189714E+01  0.15341067573E+01  0.93596231844E+01  0.00000000000E+00 0.  1.
</event>
<event>
 8    1  0.7977359E-012  0.9118800E+02  0.7816164E-02  0.1184000E+00
        -11   -1    0    0    0    0  0.00000000000E+00  0.00000000000E+00  0.45593999997E+02  0.45594000000E+02  0.51100000000E-03 0. -1.
         11   -1    0    0    0    0 -0.00000000000E+00 -0.00000000000E+00 -0.45593999997E+02  0.45594000000E+02  0.51100000000E-03 0.  1.
         23    2    1    2    0    0  0.00000000000E+00  0.00000000000E+00  0.00000000000E+00  0.91188000000E+02  0.91188000000E+02 0.  0.
    9900012    2    3    3    0    0  0.21770995297E+02  0.24679165768E+02 -0.23877389617E+02  0.50528841202E+02  0.29999943318E+02 0.  0.
         12    1    3    3    0    0 -0.21770995297E+02 -0.24679165768E+02  0.23877389617E+02  0.40659158798E+02  0.00000000000E+00 0. -1.
         11    1    4    4    0    0  0.64508017919E+01  0.84938324144E+01 -0.12747927750E+01  0.10741653957E+02  0.51100000000E-03 0. -1.
        -11    1    4    4    0    0  0.18637856248E+02  0.19193614036E+02 -0.14255950744E+02  0.30314957317E+02  0.51100000000E-03 0.  1.
         12    1    4    4    0    0 -0.33176627427E+01 -0.30082806819E+01 -0.83466460981E+01  0.94722299287E+01  0.00000000000E+00 0. -1.
</event>
<event>
 8    1  0.7977359E-012  0.9118800E+02  0.7816164E-02  0.1184000E+00
        -11   -1    0    0    0    0  0.00000000000E+00  0.00000000000E+00  0.45593999997E+02  0.45594000000E+02  0.51100000000E-03 0. -1.
         11   -1    0    0    0    0 -0.00000000000E+00 -0.00000000000E+00 -0.45593999997E+02  0.45594000000E+02  0.51100000000E-03 0.  1.
         23    2    1    2    0    0  0.11102230246E-15  0.35527136788E-14  0.00000000000E+00  0.91188000000E+02  0.91188000000E+02 0.  0.
    9900012    2    3    3    0    0 -0.99184910397E+00  0.24059031870E+02 -0.32762007269E+02  0.50528807934E+02  0.29999842195E+02 0.  0.
         12    1    3    3    0    0  0.99184910397E+00 -0.24059031870E+02  0.32762007269E+02  0.40659192066E+02  0.00000000000E+00 0. -1.
         11    1    4    4    0    0  0.13211399947E+01  0.13990241977E+02 -0.24181897591E+02  0.27968490356E+02  0.51100000000E-03 0. -1.
        -11    1    4    4    0    0  0.15946892848E+01  0.13675592289E+02 -0.10046582806E+02  0.17044021964E+02  0.51100000000E-03 0.  1.
         12    1    4    4    0    0 -0.39076783834E+01 -0.36068023949E+01  0.14664731277E+01  0.55162956138E+01  0.00000000000E+00 0. -1.
</event>
<event>
 8    1  0.7977359E-012  0.9118800E+02  0.7816164E-02  0.1184000E+00
        -11   -1    0    0    0    0  0.00000000000E+00  0.00000000000E+00  0.45593999997E+02  0.45594000000E+02  0.51100000000E-03 0. -1.
         11   -1    0    0    0    0 -0.00000000000E+00 -0.00000000000E+00 -0.45593999997E+02  0.45594000000E+02  0.51100000000E-03 0.  1.
         23    2    1    2    0    0 -0.17763568394E-14 -0.17763568394E-14  0.00000000000E+00  0.91188000000E+02  0.91188000000E+02 0.  0.
    9900012    2    3    3    0    0 -0.12318001655E+02 -0.64650297977E+01  0.38205174407E+02  0.50528866628E+02  0.30000020603E+02 0.  0.
        -12    1    3    3    0    0  0.12318001655E+02  0.64650297977E+01 -0.38205174407E+02  0.40659133372E+02  0.00000000000E+00 0.  1.
         11    1    4    4    0    0 -0.29581165362E+01  0.13745483115E+00  0.21943476615E+02  0.22142391775E+02  0.51100000000E-03 0. -1.
        -11    1    4    4    0    0 -0.14528686885E+02 -0.85930118508E+01  0.15265646381E+02  0.22758790718E+02  0.51100000000E-03 0.  1.
        -12    1    4    4    0    0  0.51688017658E+01  0.19905272219E+01  0.99605141141E+00  0.56276841355E+01  0.00000000000E+00 0.  1.
</event>
<event>
 8    1  0.7977359E-012  0.9118800E+02  0.7816164E-02  0.1184000E+00
        -11   -1    0    0    0    0  0.00000000000E+00  0.00000000000E+00  0.45593999997E+02  0.45594000000E+02  0.51100000000E-03 0. -1.
         11   -1    0    0    0    0 -0.00000000000E+00 -0.00000000000E+00 -0.45593999997E+02  0.45594000000E+02  0.51100000000E-03 0.  1.
         23    2    1    2    0    0  0.00000000000E+00  0.00000000000E+00  0.00000000000E+00  0.91188000000E+02  0.91188000000E+02 0.  0.
    9900012    2    3    3    0    0 -0.11602430692E+02  0.14807347320E+02 -0.36045680929E+02  0.50528867616E+02  0.30000023604E+02 0.  0.
         12    1    3    3    0    0  0.11602430692E+02 -0.14807347320E+02  0.36045680929E+02  0.40659132384E+02  0.00000000000E+00 0. -1.
         11    1    4    4    0    0  0.32095472881E+01  0.95818148643E+01 -0.17328725216E+02  0.20059837680E+02  0.51100000000E-03 0. -1.
        -11    1    4    4    0    0  0.18799875871E+01  0.25638078586E+01 -0.11774200816E+02  0.12195870989E+02  0.51100000000E-03 0.  1.
         12    1    4    4    0    0 -0.16691965567E+02  0.26617245974E+01 -0.69427548971E+01  0.18273158947E+02  0.00000000000E+00 0. -1.
</event>
<event>
 8    1  0.7977359E-012  0.9118800E+02  0.7816164E-02  0.1184000E+00
        -11   -1    0    0    0    0  0.00000000000E+00  0.00000000000E+00  0.45593999997E+02  0.45594000000E+02  0.51100000000E-03 0. -1.
         11   -1    0    0    0    0 -0.00000000000E+00 -0.00000000000E+00 -0.45593999997E+02  0.45594000000E+02  0.51100000000E-03 0.  1.
         23    2    1    2    0    0 -0.35527136788E-14  0.00000000000E+00  0.27755575616E-15  0.91188000000E+02  0.91188000000E+02 0.  0.
    9900012    2    3    3    0    0  0.31237488090E+02 -0.26022648007E+02 -0.45667862451E+00  0.50528838341E+02  0.29999934621E+02 0.  0.
        -12    1    3    3    0    0 -0.31237488090E+02  0.26022648007E+02  0.45667862451E+00  0.40659161659E+02  0.00000000000E+00 0.  1.
         11    1    4    4    0    0  0.74340825105E+01 -0.60440780527E+01  0.77337773364E+01  0.12312910884E+02  0.51100000000E-03 0. -1.
        -11    1    4    4    0    0  0.76239838680E+01 -0.43358572004E+01  0.68663259582E+01  0.11138726144E+02  0.51100000000E-03 0.  1.
        -12    1    4    4    0    0  0.16179421712E+02 -0.15642712753E+02 -0.15056781919E+02  0.27077201313E+02  0.00000000000E+00 0.  1.
</event>
<event>
 8    1  0.9171969E-012  0.9118800E+02  0.7816164E-02  0.1184000E+00
        -11   -1    0    0    0    0  0.00000000000E+00  0.00000000000E+00  0.45593999997E+02  0.45594000000E+02  0.51100000000E-03 0. -1.
         11   -1    0    0    0    0 -0.00000000000E+00 -0.00000000000E+00 -0.45593999997E+02  0.45594000000E+02  0.51100000000E-03 0.  1.
         23    2    1    2    0    0  0.00000000000E+00 -0.22204460493E-15  0.00000000000E+00  0.91188000000E+02  0.91188000000E+02 0.  0.
    9900012    2    3    3    0    0 -0.34321282517E+02 -0.13853759532E+01  0.21755295387E+02  0.50528897975E+02  0.30000115883E+02 0.  0.
        -12    1    3    3    0    0  0.34321282517E+02  0.13853759532E+01 -0.21755295387E+02  0.40659102025E+02  0.00000000000E+00 0.  1.
         11    1    4    4    0    0 -0.14150382495E+02 -0.52490331491E+00  0.10287695119E+02  0.17502728912E+02  0.51100000000E-03 0. -1.
        -11    1    4    4    0    0 -0.18104507823E+02  0.50503022795E+01  0.16486306712E+02  0.25001541270E+02  0.51100000000E-03 0.  1.
        -12    1    4    4    0    0 -0.20663921989E+01 -0.59107749178E+01 -0.50187064431E+01  0.80246277926E+01  0.00000000000E+00 0.  1.
</event>
<event>
 8    1  0.7977359E-012  0.9118800E+02  0.7816164E-02  0.1184000E+00
        -11   -1    0    0    0    0  0.00000000000E+00  0.00000000000E+00  0.45593999997E+02  0.45594000000E+02  0.51100000000E-03 0. -1.
         11   -1    0    0    0    0 -0.00000000000E+00 -0.00000000000E+00 -0.45593999997E+02  0.45594000000E+02  0.51100000000E-03 0.  1.
         23    2    1    2    0    0  0.17763568394E-14  0.00000000000E+00  0.35527136788E-14  0.91188000000E+02  0.91188000000E+02 0.  0.
    9900012    2    3    3    0    0  0.15312263384E+02 -0.28371962731E+02  0.24773625722E+02  0.50528853297E+02  0.29999980082E+02 0.  0.
        -12    1    3    3    0    0 -0.15312263384E+02  0.28371962731E+02 -0.24773625722E+02  0.40659146703E+02  0.00000000000E+00 0.  1.
         11    1    4    4    0    0  0.19054663900E+01 -0.19131939876E+02  0.17868554124E+02  0.26247802810E+02  0.51100000000E-03 0. -1.
        -11    1    4    4    0    0 -0.15279659987E+01  0.28280724784E+01 -0.12110424294E+01  0.34350106351E+01  0.51100000000E-03 0.  1.
         12    1    4    4    0    0  0.14934762992E+02 -0.12068095333E+02  0.81161140277E+01  0.20846039852E+02  0.00000000000E+00 0. -1.
</event>
<event>
 8    1  0.7977359E-012  0.9118800E+02  0.7816164E-02  0.1184000E+00
        -11   -1    0    0    0    0  0.00000000000E+00  0.00000000000E+00  0.45593999997E+02  0.45594000000E+02  0.51100000000E-03 0. -1.
         11   -1    0    0    0    0 -0.00000000000E+00 -0.00000000000E+00 -0.45593999997E+02  0.45594000000E+02  0.51100000000E-03 0.  1.
         23    2    1    2    0    0  0.00000000000E+00  0.00000000000E+00  0.35527136788E-14  0.91188000000E+02  0.91188000000E+02 0.  0.
    9900012    2    3    3    0    0  0.10803659048E+02 -0.33543657464E+02  0.20279777409E+02  0.50528863552E+02  0.30000011254E+02 0.  0.
        -12    1    3    3    0    0 -0.10803659048E+02  0.33543657464E+02 -0.20279777409E+02  0.40659136448E+02  0.00000000000E+00 0.  1.
         11    1    4    4    0    0  0.64267525919E+01 -0.20869873704E+00  0.25876753063E+01  0.69312890426E+01  0.51100000000E-03 0. -1.
        -11    1    4    4    0    0  0.81433968037E+00 -0.11047730429E+02  0.17871940294E+02  0.21026691297E+02  0.51100000000E-03 0.  1.
        -12    1    4    4    0    0  0.35625667753E+01 -0.22287228298E+02 -0.17983819097E+00  0.22570883213E+02  0.00000000000E+00 0.  1.
</event>
<event>
 8    1  0.8457652E-012  0.9118800E+02  0.7816164E-02  0.1184000E+00
        -11   -1    0    0    0    0  0.00000000000E+00  0.00000000000E+00  0.45593999997E+02  0.45594000000E+02  0.51100000000E-03 0. -1.
         11   -1    0    0    0    0 -0.00000000000E+00 -0.00000000000E+00 -0.45593999997E+02  0.45594000000E+02  0.51100000000E-03 0.  1.
         23    2    1    2    0    0  0.17763568394E-14  0.35527136788E-14 -0.35527136788E-14  0.91188000000E+02  0.91188000000E+02 0.  0.
    9900012    2    3    3    0    0 -0.15006342997E+02 -0.28881064372E+02  0.24369226182E+02  0.50528863338E+02  0.30000010603E+02 0.  0.
        -12    1    3    3    0    0  0.15006342997E+02  0.28881064372E+02 -0.24369226182E+02  0.40659136662E+02  0.00000000000E+00 0.  1.
         11    1    4    4    0    0 -0.60181250142E+01 -0.25630781356E+02  0.17373814265E+02  0.31543687229E+02  0.51100000000E-03 0. -1.
        -11    1    4    4    0    0  0.29317056030E+01 -0.46117472160E+01  0.34979666671E+01  0.64883650631E+01  0.51100000000E-03 0.  1.
        -12    1    4    4    0    0 -0.11919923586E+02  0.13614642003E+01  0.34974452500E+01  0.12496811046E+02  0.00000000000E+00 0.  1.
</event>
<event>
 8    1  0.7977359E-012  0.9118800E+02  0.7816164E-02  0.1184000E+00
        -11   -1    0    0    0    0  0.00000000000E+00  0.00000000000E+00  0.45593999997E+02  0.45594000000E+02  0.51100000000E-03 0. -1.
         11   -1    0    0    0    0 -0.00000000000E+00 -0.00000000000E+00 -0.45593999997E+02  0.45594000000E+02  0.51100000000E-03 0.  1.
         23    2    1    2    0    0 -0.35527136788E-14  0.53290705182E-14 -0.35527136788E-14  0.91188000000E+02  0.91188000000E+02 0.  0.
    9900012    2    3    3    0    0 -0.25204336076E+02  0.14891580178E+02 -0.28216088410E+02  0.50528863728E+02  0.30000011787E+02 0.  0.
         12    1    3    3    0    0  0.25204336076E+02 -0.14891580178E+02  0.28216088410E+02  0.40659136272E+02  0.00000000000E+00 0. -1.
         11    1    4    4    0    0  0.31249917226E+01 -0.20498714717E+01 -0.19017493999E+00  0.37421535359E+01  0.51100000000E-03 0. -1.
        -11    1    4    4    0    0 -0.13207047609E+02 -0.46618574105E+00 -0.48047447356E+01  0.14061614698E+02  0.51100000000E-03 0.  1.
        -12    1    4    4    0    0 -0.15122280190E+02  0.17407637390E+02 -0.23221168735E+02  0.32725095494E+02  0.00000000000E+00 0.  1.
</event>
<event>
 8    1  0.7977359E-012  0.9118800E+02  0.7816164E-02  0.1184000E+00
        -11   -1    0    0    0    0  0.00000000000E+00  0.00000000000E+00  0.45593999997E+02  0.45594000000E+02  0.51100000000E-03 0. -1.
         11   -1    0    0    0    0 -0.00000000000E+00 -0.00000000000E+00 -0.45593999997E+02  0.45594000000E+02  0.51100000000E-03 0.  1.
         23    2    1    2    0    0  0.00000000000E+00  0.17763568394E-14  0.00000000000E+00  0.91188000000E+02  0.91188000000E+02 0.  0.
    9900012    2    3    3    0    0  0.16277962453E+02  0.11204254603E+02  0.35533911004E+02  0.50528853254E+02  0.29999979952E+02 0.  0.
        -12    1    3    3    0    0 -0.16277962453E+02 -0.11204254603E+02 -0.35533911004E+02  0.40659146746E+02  0.00000000000E+00 0.  1.
         11    1    4    4    0    0  0.20800443368E+01  0.12351883531E+02  0.89919013094E+01  0.15419140723E+02  0.51100000000E-03 0. -1.
        -11    1    4    4    0    0  0.14274343419E+01  0.52874900267E+01  0.62903909339E+00  0.55127860493E+01  0.51100000000E-03 0.  1.
         12    1    4    4    0    0  0.12770483774E+02 -0.64351189553E+01  0.25912970602E+02  0.29596926482E+02  0.00000000000E+00 0. -1.
</event>
<event>
 8    1  0.7977359E-012  0.9118800E+02  0.7816164E-02  0.1184000E+00
        -11   -1    0    0    0    0  0.00000000000E+00  0.00000000000E+00  0.45593999997E+02  0.45594000000E+02  0.51100000000E-03 0.  1.
         11   -1    0    0    0    0 -0.00000000000E+00 -0.00000000000E+00 -0.45593999997E+02  0.45594000000E+02  0.51100000000E-03 0. -1.
         23    2    1    2    0    0  0.00000000000E+00  0.71054273576E-14  0.17763568394E-14  0.91188000000E+02  0.91188000000E+02 0.  0.
    9900012    2    3    3    0    0 -0.99617790354E+01 -0.37493875071E+02 -0.12171203923E+02  0.50528856940E+02  0.29999991156E+02 0.  0.
         12    1    3    3    0    0  0.99617790354E+01  0.37493875071E+02  0.12171203923E+02  0.40659143060E+02  0.00000000000E+00 0. -1.
         11    1    4    4    0    0 -0.37374431112E+01 -0.19322191275E+02 -0.70546530373E+01  0.20906546497E+02  0.51100000000E-03 0. -1.
        -11    1    4    4    0    0 -0.93898480936E+01 -0.20902785976E+02 -0.82953606723E+01  0.24370242464E+02  0.51100000000E-03 0.  1.
        -12    1    4    4    0    0  0.31655121694E+01  0.27311021801E+01  0.31788097863E+01  0.52520679803E+01  0.00000000000E+00 0.  1.
</event>
<event>
 8    1  0.7977359E-012  0.9118800E+02  0.7816164E-02  0.1184000E+00
        -11   -1    0    0    0    0  0.00000000000E+00  0.00000000000E+00  0.45593999997E+02  0.45594000000E+02  0.51100000000E-03 0. -1.
         11   -1    0    0    0    0 -0.00000000000E+00 -0.00000000000E+00 -0.45593999997E+02  0.45594000000E+02  0.51100000000E-03 0.  1.
         23    2    1    2    0    0  0.35527136788E-14 -0.71054273576E-14  0.00000000000E+00  0.91188000000E+02  0.91188000000E+02 0.  0.
    9900012    2    3    3    0    0 -0.17981327224E+02  0.25454015869E+02  0.26113773843E+02  0.50528877568E+02  0.30000053856E+02 0.  0.
        -12    1    3    3    0    0  0.17981327224E+02 -0.25454015869E+02 -0.26113773843E+02  0.40659122432E+02  0.00000000000E+00 0.  1.
         11    1    4    4    0    0  0.10147513609E+00  0.16346998479E+02  0.16179605968E+02  0.23000310998E+02  0.51100000000E-03 0. -1.
        -11    1    4    4    0    0 -0.24448359903E+01  0.20977765623E+01  0.98795626549E+01  0.10391518082E+02  0.51100000000E-03 0.  1.
        -12    1    4    4    0    0 -0.15637966370E+02  0.70092408270E+01  0.54605220876E-01  0.17137048488E+02  0.00000000000E+00 0.  1.
</event>
<event>
 8    1  0.7977359E-012  0.9118800E+02  0.7816164E-02  0.1184000E+00
        -11   -1    0    0    0    0  0.00000000000E+00  0.00000000000E+00  0.45593999997E+02  0.45594000000E+02  0.51100000000E-03 0. -1.
         11   -1    0    0    0    0 -0.00000000000E+00 -0.00000000000E+00 -0.45593999997E+02  0.45594000000E+02  0.51100000000E-03 0.  1.
         23    2    1    2    0    0  0.00000000000E+00 -0.35527136788E-14  0.00000000000E+00  0.91188000000E+02  0.91188000000E+02 0.  0.
    9900012    2    3    3    0    0  0.10189752999E+02  0.16151987673E+02 -0.35894929566E+02  0.50528883673E+02  0.30000072412E+02 0.  0.
         12    1    3    3    0    0 -0.10189752999E+02 -0.16151987673E+02  0.35894929566E+02  0.40659116327E+02  0.00000000000E+00 0. -1.
         11    1    4    4    0    0 -0.93779434142E+00 -0.61057194732E+01 -0.22586475711E+01  0.65772910551E+01  0.51100000000E-03 0. -1.
        -11    1    4    4    0    0  0.11886773972E+02  0.89235731095E+01 -0.16158105655E+02  0.21954724574E+02  0.51100000000E-03 0.  1.
        -12    1    4    4    0    0 -0.75922663134E+00  0.13334134036E+02 -0.17478176340E+02  0.21996868044E+02  0.00000000000E+00 0.  1.
</event>
<event>
 8    1  0.7977359E-012  0.9118800E+02  0.7816164E-02  0.1184000E+00
        -11   -1    0    0    0    0  0.00000000000E+00  0.00000000000E+00  0.45593999997E+02  0.45594000000E+02  0.51100000000E-03 0. -1.
         11   -1    0    0    0    0 -0.00000000000E+00 -0.00000000000E+00 -0.45593999997E+02  0.45594000000E+02  0.51100000000E-03 0.  1.
         23    2    1    2    0    0  0.17763568394E-14 -0.35527136788E-14  0.00000000000E+00  0.91188000000E+02  0.91188000000E+02 0.  0.
    9900012    2    3    3    0    0 -0.57360874133E+01  0.22616937814E+02 -0.33297703563E+02  0.50528860346E+02  0.30000001507E+02 0.  0.
         12    1    3    3    0    0  0.57360874133E+01 -0.22616937814E+02  0.33297703563E+02  0.40659139654E+02  0.00000000000E+00 0. -1.
         11    1    4    4    0    0 -0.72976265163E+01  0.12855556662E+02 -0.75550311011E+01  0.16601180231E+02  0.51100000000E-03 0. -1.
        -11    1    4    4    0    0 -0.50332148679E+01  0.32764755668E+01 -0.23708828124E+02  0.24457658828E+02  0.51100000000E-03 0.  1.
        -12    1    4    4    0    0  0.65947539709E+01  0.64849055856E+01 -0.20338443370E+01  0.94700212871E+01  0.00000000000E+00 0.  1.
</event>
<event>
 8    1  0.7977359E-012  0.9118800E+02  0.7816164E-02  0.1184000E+00
        -11   -1    0    0    0    0  0.00000000000E+00  0.00000000000E+00  0.45593999997E+02  0.45594000000E+02  0.51100000000E-03 0. -1.
         11   -1    0    0    0    0 -0.00000000000E+00 -0.00000000000E+00 -0.45593999997E+02  0.45594000000E+02  0.51100000000E-03 0.  1.
         23    2    1    2    0    0 -0.88817841970E-15  0.35527136788E-14  0.00000000000E+00  0.91188000000E+02  0.91188000000E+02 0.  0.
    9900012    2    3    3    0    0 -0.72154009790E+01  0.22007934469E+02 -0.33417875458E+02  0.50528860916E+02  0.30000003241E+02 0.  0.
         12    1    3    3    0    0  0.72154009790E+01 -0.22007934469E+02  0.33417875458E+02  0.40659139084E+02  0.00000000000E+00 0. -1.
         11    1    4    4    0    0 -0.56265208941E+01  0.58748143592E+01 -0.10527557191E+02  0.13304158816E+02  0.51100000000E-03 0. -1.
        -11    1    4    4    0    0 -0.44525108534E+01  0.86893435408E+01 -0.26668384782E+02  0.28399512165E+02  0.51100000000E-03 0.  1.
         12    1    4    4    0    0  0.28636307684E+01  0.74437765690E+01  0.37780665156E+01  0.88251899347E+01  0.00000000000E+00 0. -1.
</event>
<event>
 8    1  0.7977359E-012  0.9118800E+02  0.7816164E-02  0.1184000E+00
        -11   -1    0    0    0    0  0.00000000000E+00  0.00000000000E+00  0.45593999997E+02  0.45594000000E+02  0.51100000000E-03 0. -1.
         11   -1    0    0    0    0 -0.00000000000E+00 -0.00000000000E+00 -0.45593999997E+02  0.45594000000E+02  0.51100000000E-03 0.  1.
         23    2    1    2    0    0  0.17763568394E-14  0.00000000000E+00  0.35527136788E-14  0.91188000000E+02  0.91188000000E+02 0.  0.
    9900012    2    3    3    0    0 -0.10549543257E+02  0.22984123192E+02 -0.31837131157E+02  0.50528859550E+02  0.29999999088E+02 0.  0.
         12    1    3    3    0    0  0.10549543257E+02 -0.22984123192E+02  0.31837131157E+02  0.40659140450E+02  0.00000000000E+00 0. -1.
         11    1    4    4    0    0 -0.30535084341E+01  0.91059585298E+00 -0.10805747548E+02  0.11265756917E+02  0.51100000000E-03 0. -1.
        -11    1    4    4    0    0  0.22182933501E+01  0.19903458797E+00 -0.14198812457E+02  0.14372429008E+02  0.51100000000E-03 0.  1.
         12    1    4    4    0    0 -0.97143281727E+01  0.21874492751E+02 -0.68325711518E+01  0.24890673625E+02  0.00000000000E+00 0. -1.
</event>
<event>
 8    1  0.7977359E-012  0.9118800E+02  0.7816164E-02  0.1184000E+00
        -11   -1    0    0    0    0  0.00000000000E+00  0.00000000000E+00  0.45593999997E+02  0.45594000000E+02  0.51100000000E-03 0. -1.
         11   -1    0    0    0    0 -0.00000000000E+00 -0.00000000000E+00 -0.45593999997E+02  0.45594000000E+02  0.51100000000E-03 0.  1.
         23    2    1    2    0    0  0.00000000000E+00  0.35527136788E-14 -0.35527136788E-14  0.91188000000E+02  0.91188000000E+02 0.  0.
    9900012    2    3    3    0    0  0.21786237501E+02  0.21362168949E+02 -0.26873458842E+02  0.50528865765E+02  0.30000017978E+02 0.  0.
         12    1    3    3    0    0 -0.21786237501E+02 -0.21362168949E+02  0.26873458842E+02  0.40659134235E+02  0.00000000000E+00 0. -1.
         11    1    4    4    0    0 -0.45117544849E+01  0.71755822392E+01 -0.41870482941E+01  0.94539030396E+01  0.51100000000E-03 0. -1.
        -11    1    4    4    0    0  0.18646974765E+02  0.17715905646E+02 -0.18374855776E+02  0.31610098162E+02  0.51100000000E-03 0.  1.
         12    1    4    4    0    0  0.76510172203E+01 -0.35293189356E+01 -0.43115547713E+01  0.94648645632E+01  0.00000000000E+00 0. -1.
</event>
<event>
 8    1  0.7977359E-012  0.9118800E+02  0.7816164E-02  0.1184000E+00
        -11   -1    0    0    0    0  0.00000000000E+00  0.00000000000E+00  0.45593999997E+02  0.45594000000E+02  0.51100000000E-03 0. -1.
         11   -1    0    0    0    0 -0.00000000000E+00 -0.00000000000E+00 -0.45593999997E+02  0.45594000000E+02  0.51100000000E-03 0.  1.
         23    2    1    2    0    0 -0.17763568394E-14 -0.17763568394E-14  0.71054273576E-14  0.91188000000E+02  0.91188000000E+02 0.  0.
    9900012    2    3    3    0    0  0.12556910976E+02 -0.91233590218E+01  0.37580008612E+02  0.50528822188E+02  0.29999885521E+02 0.  0.
        -12    1    3    3    0    0 -0.12556910976E+02  0.91233590218E+01 -0.37580008612E+02  0.40659177812E+02  0.00000000000E+00 0.  1.
         11    1    4    4    0    0  0.52556309356E+01  0.33698659865E+01  0.34207372297E+01  0.71189252528E+01  0.51100000000E-03 0. -1.
        -11    1    4    4    0    0  0.78058599668E+01  0.28590300626E+01  0.33094999107E+01  0.89475299743E+01  0.51100000000E-03 0.  1.
         12    1    4    4    0    0 -0.50457992659E+00 -0.15352255071E+02  0.30849771472E+02  0.34462366961E+02  0.00000000000E+00 0. -1.
</event>
<event>
 8    1  0.7977359E-012  0.9118800E+02  0.7816164E-02  0.1184000E+00
        -11   -1    0    0    0    0  0.00000000000E+00  0.00000000000E+00  0.45593999997E+02  0.45594000000E+02  0.51100000000E-03 0.  1.
         11   -1    0    0    0    0 -0.00000000000E+00 -0.00000000000E+00 -0.45593999997E+02  0.45594000000E+02  0.51100000000E-03 0. -1.
         23    2    1    2    0    0  0.00000000000E+00  0.00000000000E+00 -0.44408920985E-15  0.91188000000E+02  0.91188000000E+02 0.  0.
    9900012    2    3    3    0    0 -0.35982378378E+02 -0.18688882260E+02  0.30264738000E+01  0.50528863050E+02  0.30000009727E+02 0.  0.
         12    1    3    3    0    0  0.35982378378E+02  0.18688882260E+02 -0.30264738000E+01  0.40659136950E+02  0.00000000000E+00 0. -1.
         11    1    4    4    0    0 -0.34393660761E+01  0.92943555250E+00  0.39855311622E+01  0.53457972612E+01  0.51100000000E-03 0. -1.
        -11    1    4    4    0    0 -0.82884156538E+00 -0.86041287750E+01  0.64717450988E+01  0.10798217223E+02  0.51100000000E-03 0.  1.
        -12    1    4    4    0    0 -0.31714170736E+02 -0.11014189038E+02 -0.74308024610E+01  0.34384848565E+02  0.00000000000E+00 0.  1.
</event>
<event>
 8    1  0.7977359E-012  0.9118800E+02  0.7816164E-02  0.1184000E+00
        -11   -1    0    0    0    0  0.00000000000E+00  0.00000000000E+00  0.45593999997E+02  0.45594000000E+02  0.51100000000E-03 0. -1.
         11   -1    0    0    0    0 -0.00000000000E+00 -0.00000000000E+00 -0.45593999997E+02  0.45594000000E+02  0.51100000000E-03 0.  1.
         23    2    1    2    0    0  0.35527136788E-14  0.00000000000E+00  0.00000000000E+00  0.91188000000E+02  0.91188000000E+02 0.  0.
    9900012    2    3    3    0    0 -0.18841297541E+02 -0.20444880913E+02  0.29667808358E+02  0.50528849722E+02  0.29999969214E+02 0.  0.
        -12    1    3    3    0    0  0.18841297541E+02  0.20444880913E+02 -0.29667808358E+02  0.40659150278E+02  0.00000000000E+00 0.  1.
         11    1    4    4    0    0  0.14151783764E+01 -0.43397258204E+01  0.68514434604E+01  0.82327533538E+01  0.51100000000E-03 0. -1.
        -11    1    4    4    0    0 -0.24221707814E+01 -0.14237400085E+02  0.19163385387E+02  0.23995954080E+02  0.51100000000E-03 0.  1.
         12    1    4    4    0    0 -0.17834305136E+02 -0.18677550082E+01  0.36529795109E+01  0.18300142288E+02  0.00000000000E+00 0. -1.
</event>
<event>
 8    1  0.7977359E-012  0.9118800E+02  0.7816164E-02  0.1184000E+00
        -11   -1    0    0    0    0  0.00000000000E+00  0.00000000000E+00  0.45593999997E+02  0.45594000000E+02  0.51100000000E-03 0. -1.
         11   -1    0    0    0    0 -0.00000000000E+00 -0.00000000000E+00 -0.45593999997E+02  0.45594000000E+02  0.51100000000E-03 0.  1.
         23    2    1    2    0    0  0.35527136788E-14 -0.17763568394E-14  0.35527136788E-14  0.91188000000E+02  0.91188000000E+02 0.  0.
    9900012    2    3    3    0    0  0.21182544665E+02 -0.14261121772E+02  0.31640001122E+02  0.50528813293E+02  0.29999858485E+02 0.  0.
        -12    1    3    3    0    0 -0.21182544665E+02  0.14261121772E+02 -0.31640001122E+02  0.40659186707E+02  0.00000000000E+00 0.  1.
         11    1    4    4    0    0  0.85061653723E+01 -0.11682389520E+02  0.88796808720E+01  0.16961185303E+02  0.51100000000E-03 0. -1.
        -11    1    4    4    0    0  0.55002888599E+00 -0.10218523737E+02  0.79557981954E+01  0.12962078704E+02  0.51100000000E-03 0.  1.
         12    1    4    4    0    0  0.12126350407E+02  0.76397914847E+01  0.14804522054E+02  0.20605549286E+02  0.00000000000E+00 0. -1.
</event>
<event>
 8    1  0.7977359E-012  0.9118800E+02  0.7816164E-02  0.1184000E+00
        -11   -1    0    0    0    0  0.00000000000E+00  0.00000000000E+00  0.45593999997E+02  0.45594000000E+02  0.51100000000E-03 0.  1.
         11   -1    0    0    0    0 -0.00000000000E+00 -0.00000000000E+00 -0.45593999997E+02  0.45594000000E+02  0.51100000000E-03 0. -1.
         23    2    1    2    0    0 -0.71054273576E-14  0.44408920985E-15  0.17763568394E-14  0.91188000000E+02  0.91188000000E+02 0.  0.
    9900012    2    3    3    0    0 -0.39994804982E+02  0.28583784520E+01  0.67386998302E+01  0.50528870296E+02  0.30000031752E+02 0.  0.
         12    1    3    3    0    0  0.39994804982E+02 -0.28583784520E+01 -0.67386998302E+01  0.40659129704E+02  0.00000000000E+00 0. -1.
         11    1    4    4    0    0  0.22550216864E+01 -0.26379059344E+01  0.80761524306E+00  0.35631324936E+01  0.51100000000E-03 0. -1.
        -11    1    4    4    0    0 -0.26928092922E+02  0.11525397576E+02  0.80185892233E+01  0.30368647502E+02  0.51100000000E-03 0.  1.
         12    1    4    4    0    0 -0.15321733746E+02 -0.60291131898E+01 -0.20875046361E+01  0.16597090300E+02  0.00000000000E+00 0. -1.
</event>
<event>
 8    1  0.7977359E-012  0.9118800E+02  0.7816164E-02  0.1184000E+00
        -11   -1    0    0    0    0  0.00000000000E+00  0.00000000000E+00  0.45593999997E+02  0.45594000000E+02  0.51100000000E-03 0. -1.
         11   -1    0    0    0    0 -0.00000000000E+00 -0.00000000000E+00 -0.45593999997E+02  0.45594000000E+02  0.51100000000E-03 0.  1.
         23    2    1    2    0    0 -0.17763568394E-14  0.00000000000E+00  0.17763568394E-14  0.91188000000E+02  0.91188000000E+02 0.  0.
    9900012    2    3    3    0    0  0.10278825630E+02 -0.37280814893E+02 -0.12555971433E+02  0.50528857928E+02  0.29999994158E+02 0.  0.
         12    1    3    3    0    0 -0.10278825630E+02  0.37280814893E+02  0.12555971433E+02  0.40659142072E+02  0.00000000000E+00 0. -1.
         11    1    4    4    0    0 -0.21036598540E+01 -0.82669078326E+01  0.22176785036E+01  0.88139235361E+01  0.51100000000E-03 0. -1.
        -11    1    4    4    0    0 -0.66786562236E+01 -0.99318788068E+01 -0.33873189686E+01  0.12438673388E+02  0.51100000000E-03 0.  1.
        -12    1    4    4    0    0  0.19061141708E+02 -0.19082028253E+02 -0.11386330968E+02  0.29276261004E+02  0.00000000000E+00 0.  1.
</event>
<event>
 8    1  0.1626804E-011  0.9118800E+02  0.7816164E-02  0.1184000E+00
        -11   -1    0    0    0    0  0.00000000000E+00  0.00000000000E+00  0.45593999997E+02  0.45594000000E+02  0.51100000000E-03 0. -1.
         11   -1    0    0    0    0 -0.00000000000E+00 -0.00000000000E+00 -0.45593999997E+02  0.45594000000E+02  0.51100000000E-03 0.  1.
         23    2    1    2    0    0  0.00000000000E+00  0.00000000000E+00  0.00000000000E+00  0.91188000000E+02  0.91188000000E+02 0.  0.
    9900012    2    3    3    0    0 -0.13780849836E+02 -0.18222234809E+02  0.33633380858E+02  0.50528856237E+02  0.29999989017E+02 0.  0.
        -12    1    3    3    0    0  0.13780849836E+02  0.18222234809E+02 -0.33633380858E+02  0.40659143763E+02  0.00000000000E+00 0.  1.
         11    1    4    4    0    0 -0.10644652669E+02 -0.16689619336E+02  0.21317900657E+02  0.29091320230E+02  0.51100000000E-03 0. -1.
        -11    1    4    4    0    0  0.39028638225E-01 -0.54517475005E+01  0.14830837568E+02  0.15801165061E+02  0.51100000000E-03 0.  1.
        -12    1    4    4    0    0 -0.31752258054E+01  0.39191320270E+01 -0.25153573672E+01  0.56363709464E+01  0.00000000000E+00 0.  1.
</event>
<event>
 8    1  0.7977359E-012  0.9118800E+02  0.7816164E-02  0.1184000E+00
        -11   -1    0    0    0    0  0.00000000000E+00  0.00000000000E+00  0.45593999997E+02  0.45594000000E+02  0.51100000000E-03 0. -1.
         11   -1    0    0    0    0 -0.00000000000E+00 -0.00000000000E+00 -0.45593999997E+02  0.45594000000E+02  0.51100000000E-03 0.  1.
         23    2    1    2    0    0 -0.35527136788E-14 -0.88817841970E-15  0.71054273576E-14  0.91188000000E+02  0.91188000000E+02 0.  0.
    9900012    2    3    3    0    0  0.20143557505E+02  0.64327242470E+01 -0.34727823981E+02  0.50528872997E+02  0.30000039963E+02 0.  0.
         12    1    3    3    0    0 -0.20143557505E+02 -0.64327242470E+01  0.34727823981E+02  0.40659127003E+02  0.00000000000E+00 0. -1.
         11    1    4    4    0    0  0.10857908533E+02 -0.16469375347E+01 -0.96844671990E+01  0.14642250037E+02  0.51100000000E-03 0. -1.
        -11    1    4    4    0    0  0.87223460500E+01 -0.65131542614E+01 -0.13013026964E+02  0.16965829484E+02  0.51100000000E-03 0.  1.
        -12    1    4    4    0    0  0.56330292116E+00  0.14592816043E+02 -0.12030329817E+02  0.18920793476E+02  0.00000000000E+00 0.  1.
</event>
<event>
 8    1  0.7977359E-012  0.9118800E+02  0.7816164E-02  0.1184000E+00
        -11   -1    0    0    0    0  0.00000000000E+00  0.00000000000E+00  0.45593999997E+02  0.45594000000E+02  0.51100000000E-03 0.  1.
         11   -1    0    0    0    0 -0.00000000000E+00 -0.00000000000E+00 -0.45593999997E+02  0.45594000000E+02  0.51100000000E-03 0. -1.
         23    2    1    2    0    0  0.00000000000E+00  0.71054273576E-14 -0.17763568394E-14  0.91188000000E+02  0.91188000000E+02 0.  0.
    9900012    2    3    3    0    0 -0.16456572018E+02 -0.35431989540E+02  0.11265925864E+02  0.50528859196E+02  0.29999998013E+02 0.  0.
        -12    1    3    3    0    0  0.16456572018E+02  0.35431989540E+02 -0.11265925864E+02  0.40659140804E+02  0.00000000000E+00 0.  1.
         11    1    4    4    0    0 -0.14156025732E+02 -0.20085756494E+02  0.65922557751E+01  0.25441865397E+02  0.51100000000E-03 0. -1.
        -11    1    4    4    0    0 -0.73852823200E+01 -0.12271620915E+01 -0.31980533303E+01  0.81409991469E+01  0.51100000000E-03 0.  1.
         12    1    4    4    0    0  0.50847360339E+01 -0.14119070954E+02  0.78717234197E+01  0.16945994652E+02  0.00000000000E+00 0. -1.
</event>
<event>
 8    1  0.7977359E-012  0.9118800E+02  0.7816164E-02  0.1184000E+00
        -11   -1    0    0    0    0  0.00000000000E+00  0.00000000000E+00  0.45593999997E+02  0.45594000000E+02  0.51100000000E-03 0. -1.
         11   -1    0    0    0    0 -0.00000000000E+00 -0.00000000000E+00 -0.45593999997E+02  0.45594000000E+02  0.51100000000E-03 0.  1.
         23    2    1    2    0    0  0.00000000000E+00  0.00000000000E+00 -0.71054273576E-14  0.91188000000E+02  0.91188000000E+02 0.  0.
    9900012    2    3    3    0    0 -0.18743835066E+02  0.15772920604E+01 -0.36046448690E+02  0.50528859990E+02  0.30000000424E+02 0.  0.
         12    1    3    3    0    0  0.18743835066E+02 -0.15772920604E+01  0.36046448690E+02  0.40659140010E+02  0.00000000000E+00 0. -1.
         11    1    4    4    0    0 -0.43803198331E+01  0.21423297719E+01 -0.31334855418E+01  0.57961634374E+01  0.51100000000E-03 0. -1.
        -11    1    4    4    0    0 -0.20171219624E+02  0.61295761113E+01 -0.19916715187E+02  0.29002161101E+02  0.51100000000E-03 0.  1.
         12    1    4    4    0    0  0.58077043903E+01 -0.66946138228E+01 -0.12996247961E+02  0.15730535451E+02  0.00000000000E+00 0. -1.
</event>
<event>
 8    1  0.7977359E-012  0.9118800E+02  0.7816164E-02  0.1184000E+00
        -11   -1    0    0    0    0  0.00000000000E+00  0.00000000000E+00  0.45593999997E+02  0.45594000000E+02  0.51100000000E-03 0.  1.
         11   -1    0    0    0    0 -0.00000000000E+00 -0.00000000000E+00 -0.45593999997E+02  0.45594000000E+02  0.51100000000E-03 0. -1.
         23    2    1    2    0    0  0.00000000000E+00  0.35527136788E-14  0.00000000000E+00  0.91188000000E+02  0.91188000000E+02 0.  0.
    9900012    2    3    3    0    0 -0.30956689921E+02  0.23620545527E+02  0.11701203924E+02  0.50528868245E+02  0.30000025516E+02 0.  0.
        -12    1    3    3    0    0  0.30956689921E+02 -0.23620545527E+02 -0.11701203924E+02  0.40659131755E+02  0.00000000000E+00 0.  1.
         11    1    4    4    0    0 -0.26320100658E+02  0.14360871372E+02  0.12018458444E+02  0.32302100069E+02  0.51100000000E-03 0. -1.
        -11    1    4    4    0    0 -0.44879967719E+01  0.32155444952E+01  0.68837087407E+01  0.88242443140E+01  0.51100000000E-03 0.  1.
        -12    1    4    4    0    0 -0.14859249046E+00  0.60441296603E+01 -0.72009632614E+01  0.94025238617E+01  0.00000000000E+00 0.  1.
</event>
<event>
 8    1  0.7977359E-012  0.9118800E+02  0.7816164E-02  0.1184000E+00
        -11   -1    0    0    0    0  0.00000000000E+00  0.00000000000E+00  0.45593999997E+02  0.45594000000E+02  0.51100000000E-03 0.  1.
         11   -1    0    0    0    0 -0.00000000000E+00 -0.00000000000E+00 -0.45593999997E+02  0.45594000000E+02  0.51100000000E-03 0. -1.
         23    2    1    2    0    0  0.35527136788E-14  0.00000000000E+00  0.00000000000E+00  0.91188000000E+02  0.91188000000E+02 0.  0.
    9900012    2    3    3    0    0 -0.18917570392E+02  0.32375603475E+02 -0.15719769622E+02  0.50528864165E+02  0.30000013115E+02 0.  0.
         12    1    3    3    0    0  0.18917570392E+02 -0.32375603475E+02  0.15719769622E+02  0.40659135835E+02  0.00000000000E+00 0. -1.
         11    1    4    4    0    0 -0.81938978042E+01  0.19761048271E+02 -0.18033510653E+02  0.27979394145E+02  0.51100000000E-03 0. -1.
        -11    1    4    4    0    0 -0.62352870595E+00  0.12251849189E+02  0.47489334877E+00  0.12276893767E+02  0.51100000000E-03 0.  1.
        -12    1    4    4    0    0 -0.10100143882E+02  0.36270601484E+00  0.18388476819E+01  0.10272576254E+02  0.00000000000E+00 0.  1.
</event>
<event>
 8    1  0.7977359E-012  0.9118800E+02  0.7816164E-02  0.1184000E+00
        -11   -1    0    0    0    0  0.00000000000E+00  0.00000000000E+00  0.45593999997E+02  0.45594000000E+02  0.51100000000E-03 0.  1.
         11   -1    0    0    0    0 -0.00000000000E+00 -0.00000000000E+00 -0.45593999997E+02  0.45594000000E+02  0.51100000000E-03 0. -1.
         23    2    1    2    0    0  0.00000000000E+00  0.00000000000E+00  0.00000000000E+00  0.91188000000E+02  0.91188000000E+02 0.  0.
    9900012    2    3    3    0    0  0.19074273688E+02  0.30743555516E+02  0.18551898432E+02  0.50528842877E+02  0.29999948410E+02 0.  0.
         12    1    3    3    0    0 -0.19074273688E+02 -0.30743555516E+02 -0.18551898432E+02  0.40659157123E+02  0.00000000000E+00 0. -1.
         11    1    4    4    0    0  0.53141418686E+01  0.20392635447E+01  0.13128403539E+02  0.14309216588E+02  0.51100000000E-03 0. -1.
        -11    1    4    4    0    0  0.21268634878E+01  0.53696812374E+01  0.81660847079E+01  0.10002098010E+02  0.51100000000E-03 0.  1.
        -12    1    4    4    0    0  0.11633268331E+02  0.23334610734E+02 -0.27425898151E+01  0.26217528279E+02  0.00000000000E+00 0.  1.
</event>
<event>
 8    1  0.7977359E-012  0.9118800E+02  0.7816164E-02  0.1184000E+00
        -11   -1    0    0    0    0  0.00000000000E+00  0.00000000000E+00  0.45593999997E+02  0.45594000000E+02  0.51100000000E-03 0. -1.
         11   -1    0    0    0    0 -0.00000000000E+00 -0.00000000000E+00 -0.45593999997E+02  0.45594000000E+02  0.51100000000E-03 0.  1.
         23    2    1    2    0    0 -0.35527136788E-14 -0.35527136788E-14  0.00000000000E+00  0.91188000000E+02  0.91188000000E+02 0.  0.
    9900012    2    3    3    0    0  0.11825973287E+02  0.26651269768E+02  0.28337644683E+02  0.50528856740E+02  0.29999990547E+02 0.  0.
        -12    1    3    3    0    0 -0.11825973287E+02 -0.26651269768E+02 -0.28337644683E+02  0.40659143260E+02  0.00000000000E+00 0.  1.
         11    1    4    4    0    0 -0.54176478386E+00  0.91288742789E+01  0.19841876819E+02  0.21847881606E+02  0.51100000000E-03 0. -1.
        -11    1    4    4    0    0  0.11327524922E+02  0.20179999149E+02  0.10272317124E+02  0.25319274987E+02  0.51100000000E-03 0.  1.
        -12    1    4    4    0    0  0.10402131489E+01 -0.26576036596E+01 -0.17765492603E+01  0.33617001474E+01  0.00000000000E+00 0.  1.
</event>
<event>
 8    1  0.7977359E-012  0.9118800E+02  0.7816164E-02  0.1184000E+00
        -11   -1    0    0    0    0  0.00000000000E+00  0.00000000000E+00  0.45593999997E+02  0.45594000000E+02  0.51100000000E-03 0. -1.
         11   -1    0    0    0    0 -0.00000000000E+00 -0.00000000000E+00 -0.45593999997E+02  0.45594000000E+02  0.51100000000E-03 0.  1.
         23    2    1    2    0    0 -0.35527136788E-14 -0.88817841970E-15  0.00000000000E+00  0.91188000000E+02  0.91188000000E+02 0.  0.
    9900012    2    3    3    0    0  0.30248093040E+02  0.48450332070E+01  0.26734700423E+02  0.50528859748E+02  0.29999999691E+02 0.  0.
        -12    1    3    3    0    0 -0.30248093040E+02 -0.48450332070E+01 -0.26734700423E+02  0.40659140252E+02  0.00000000000E+00 0.  1.
         11    1    4    4    0    0  0.17545212585E+02 -0.75895213436E+00  0.18334980150E+02  0.25388619308E+02  0.51100000000E-03 0. -1.
        -11    1    4    4    0    0  0.14046355664E+02  0.48827187682E+01  0.13335431209E+02  0.19974352951E+02  0.51100000000E-03 0.  1.
        -12    1    4    4    0    0 -0.13434752093E+01  0.72126657318E+00 -0.49357109366E+01  0.51658874898E+01  0.00000000000E+00 0.  1.
</event>
<event>
 8    1  0.7977359E-012  0.9118800E+02  0.7816164E-02  0.1184000E+00
        -11   -1    0    0    0    0  0.00000000000E+00  0.00000000000E+00  0.45593999997E+02  0.45594000000E+02  0.51100000000E-03 0. -1.
         11   -1    0    0    0    0 -0.00000000000E+00 -0.00000000000E+00 -0.45593999997E+02  0.45594000000E+02  0.51100000000E-03 0.  1.
         23    2    1    2    0    0  0.00000000000E+00  0.17763568394E-14  0.00000000000E+00  0.91188000000E+02  0.91188000000E+02 0.  0.
    9900012    2    3    3    0    0 -0.30663279132E+02 -0.15803682626E+02  0.21521452790E+02  0.50528855864E+02  0.29999987884E+02 0.  0.
        -12    1    3    3    0    0  0.30663279132E+02  0.15803682626E+02 -0.21521452790E+02  0.40659144136E+02  0.00000000000E+00 0.  1.
         11    1    4    4    0    0 -0.21043197454E+02  0.39376568886E+01  0.10440978972E+02  0.23818802300E+02  0.51100000000E-03 0.  1.
        -11    1    4    4    0    0 -0.26401495237E+01 -0.14528875085E+01  0.56372783350E+01  0.63921967200E+01  0.51100000000E-03 0. -1.
        -12    1    4    4    0    0 -0.69799321551E+01 -0.18288452006E+02  0.54431954832E+01  0.20317856844E+02  0.00000000000E+00 0.  1.
</event>
<event>
 8    1  0.7977359E-012  0.9118800E+02  0.7816164E-02  0.1184000E+00
        -11   -1    0    0    0    0  0.00000000000E+00  0.00000000000E+00  0.45593999997E+02  0.45594000000E+02  0.51100000000E-03 0. -1.
         11   -1    0    0    0    0 -0.00000000000E+00 -0.00000000000E+00 -0.45593999997E+02  0.45594000000E+02  0.51100000000E-03 0.  1.
         23    2    1    2    0    0 -0.22204460493E-15  0.71054273576E-14  0.00000000000E+00  0.91188000000E+02  0.91188000000E+02 0.  0.
    9900012    2    3    3    0    0 -0.15516561579E+01  0.38956612811E+02 -0.11538870118E+02  0.50528796341E+02  0.29999806958E+02 0.  0.
         12    1    3    3    0    0  0.15516561579E+01 -0.38956612811E+02  0.11538870118E+02  0.40659203659E+02  0.00000000000E+00 0. -1.
         11    1    4    4    0    0  0.82519883808E+00 -0.27359390952E+01 -0.24285709717E+00  0.28679776299E+01  0.51100000000E-03 0. -1.
        -11    1    4    4    0    0  0.22073676289E+01  0.29269714958E+01 -0.76155602729E+01  0.84520052364E+01  0.51100000000E-03 0.  1.
        -12    1    4    4    0    0 -0.45842226248E+01  0.38765580411E+02 -0.36804527482E+01  0.39208813475E+02  0.00000000000E+00 0.  1.
</event>
<event>
 8    1  0.7977359E-012  0.9118800E+02  0.7816164E-02  0.1184000E+00
        -11   -1    0    0    0    0  0.00000000000E+00  0.00000000000E+00  0.45593999997E+02  0.45594000000E+02  0.51100000000E-03 0. -1.
         11   -1    0    0    0    0 -0.00000000000E+00 -0.00000000000E+00 -0.45593999997E+02  0.45594000000E+02  0.51100000000E-03 0.  1.
         23    2    1    2    0    0 -0.88817841970E-15  0.00000000000E+00  0.71054273576E-14  0.91188000000E+02  0.91188000000E+02 0.  0.
    9900012    2    3    3    0    0 -0.61356418268E+01 -0.31974920308E+01 -0.40066166703E+02  0.50528834119E+02  0.29999921788E+02 0.  0.
         12    1    3    3    0    0  0.61356418268E+01  0.31974920308E+01  0.40066166703E+02  0.40659165881E+02  0.00000000000E+00 0. -1.
         11    1    4    4    0    0 -0.31937930750E+01 -0.14368729022E+01 -0.24589507176E+01  0.42791771213E+01  0.51100000000E-03 0. -1.
        -11    1    4    4    0    0 -0.49444857113E+01 -0.91453464472E+01 -0.30199189096E+01  0.10826135556E+02  0.51100000000E-03 0.  1.
        -12    1    4    4    0    0  0.20026369595E+01  0.73847273186E+01 -0.34587297075E+02  0.35423521442E+02  0.00000000000E+00 0.  1.
</event>
<event>
 8    1  0.1221977E-011  0.9118800E+02  0.7816164E-02  0.1184000E+00
        -11   -1    0    0    0    0  0.00000000000E+00  0.00000000000E+00  0.45593999997E+02  0.45594000000E+02  0.51100000000E-03 0. -1.
         11   -1    0    0    0    0 -0.00000000000E+00 -0.00000000000E+00 -0.45593999997E+02  0.45594000000E+02  0.51100000000E-03 0.  1.
         23    2    1    2    0    0  0.00000000000E+00  0.00000000000E+00  0.35527136788E-14  0.91188000000E+02  0.91188000000E+02 0.  0.
    9900012    2    3    3    0    0 -0.25324143725E+02 -0.18822992761E+02  0.25642724734E+02  0.50528847972E+02  0.29999963894E+02 0.  0.
        -12    1    3    3    0    0  0.25324143725E+02  0.18822992761E+02 -0.25642724734E+02  0.40659152028E+02  0.00000000000E+00 0.  1.
         11    1    4    4    0    0 -0.97764828110E+01 -0.65477425019E+01  0.11722812615E+02  0.16609541953E+02  0.51100000000E-03 0. -1.
        -11    1    4    4    0    0 -0.21128677138E+02 -0.66949662081E+01  0.65264522973E+01  0.23104937784E+02  0.51100000000E-03 0.  1.
        -12    1    4    4    0    0  0.55810162240E+01 -0.55802840507E+01  0.73934598215E+01  0.10814368234E+02  0.00000000000E+00 0.  1.
</event>
<event>
 8    1  0.7977359E-012  0.9118800E+02  0.7816164E-02  0.1184000E+00
        -11   -1    0    0    0    0  0.00000000000E+00  0.00000000000E+00  0.45593999997E+02  0.45594000000E+02  0.51100000000E-03 0. -1.
         11   -1    0    0    0    0 -0.00000000000E+00 -0.00000000000E+00 -0.45593999997E+02  0.45594000000E+02  0.51100000000E-03 0.  1.
         23    2    1    2    0    0  0.00000000000E+00  0.00000000000E+00  0.00000000000E+00  0.91188000000E+02  0.91188000000E+02 0.  0.
    9900012    2    3    3    0    0 -0.88913039292E+01 -0.22394942293E+02  0.32750215095E+02  0.50528864315E+02  0.30000013571E+02 0.  0.
        -12    1    3    3    0    0  0.88913039292E+01  0.22394942293E+02 -0.32750215095E+02  0.40659135685E+02  0.00000000000E+00 0.  1.
         11    1    4    4    0    0  0.40881562037E+01 -0.15588506764E+02  0.18929496763E+01  0.16226454419E+02  0.51100000000E-03 0. -1.
        -11    1    4    4    0    0 -0.83854067638E+00  0.27536780721E+00  0.25361026113E+01  0.26852922767E+01  0.51100000000E-03 0.  1.
         12    1    4    4    0    0 -0.12140919457E+02 -0.70818033363E+01  0.28321162808E+02  0.31617117619E+02  0.00000000000E+00 0. -1.
</event>
<event>
 8    1  0.7977359E-012  0.9118800E+02  0.7816164E-02  0.1184000E+00
        -11   -1    0    0    0    0  0.00000000000E+00  0.00000000000E+00  0.45593999997E+02  0.45594000000E+02  0.51100000000E-03 0.  1.
         11   -1    0    0    0    0 -0.00000000000E+00 -0.00000000000E+00 -0.45593999997E+02  0.45594000000E+02  0.51100000000E-03 0. -1.
         23    2    1    2    0    0  0.35527136788E-14  0.00000000000E+00  0.00000000000E+00  0.91188000000E+02  0.91188000000E+02 0.  0.
    9900012    2    3    3    0    0  0.31545454551E+02 -0.10973910057E+02  0.23186698680E+02  0.50528863260E+02  0.30000010366E+02 0.  0.
        -12    1    3    3    0    0 -0.31545454551E+02  0.10973910057E+02 -0.23186698680E+02  0.40659136740E+02  0.00000000000E+00 0.  1.
         11    1    4    4    0    0  0.17368680452E+02  0.38492548491E+00 -0.19731012172E+01  0.17484632022E+02  0.51100000000E-03 0. -1.
        -11    1    4    4    0    0 -0.11637063550E+01 -0.41419511290E+01  0.35494450479E+01  0.55775023124E+01  0.51100000000E-03 0.  1.
        -12    1    4    4    0    0  0.15340480454E+02 -0.72168844132E+01  0.21610354849E+02  0.27466728926E+02  0.00000000000E+00 0.  1.
</event>
<event>
 8    1  0.7977359E-012  0.9118800E+02  0.7816164E-02  0.1184000E+00
        -11   -1    0    0    0    0  0.00000000000E+00  0.00000000000E+00  0.45593999997E+02  0.45594000000E+02  0.51100000000E-03 0. -1.
         11   -1    0    0    0    0 -0.00000000000E+00 -0.00000000000E+00 -0.45593999997E+02  0.45594000000E+02  0.51100000000E-03 0.  1.
         23    2    1    2    0    0  0.00000000000E+00 -0.35527136788E-14  0.00000000000E+00  0.91188000000E+02  0.91188000000E+02 0.  0.
    9900012    2    3    3    0    0 -0.66431413667E+01 -0.11159810836E+02  0.38529126391E+02  0.50528852376E+02  0.29999977281E+02 0.  0.
        -12    1    3    3    0    0  0.66431413667E+01  0.11159810836E+02 -0.38529126391E+02  0.40659147624E+02  0.00000000000E+00 0.  1.
         11    1    4    4    0    0 -0.27628356490E+01 -0.15238769397E+02  0.17076947420E+02  0.23053752125E+02  0.51100000000E-03 0. -1.
        -11    1    4    4    0    0 -0.14257193260E+01 -0.39615793780E+01 -0.23361156578E+00  0.42167951563E+01  0.51100000000E-03 0.  1.
        -12    1    4    4    0    0 -0.24545863917E+01  0.80405379396E+01  0.21685790536E+02  0.23258305095E+02  0.00000000000E+00 0.  1.
</event>
<event>
 8    1  0.7977359E-012  0.9118800E+02  0.7816164E-02  0.1184000E+00
        -11   -1    0    0    0    0  0.00000000000E+00  0.00000000000E+00  0.45593999997E+02  0.45594000000E+02  0.51100000000E-03 0.  1.
         11   -1    0    0    0    0 -0.00000000000E+00 -0.00000000000E+00 -0.45593999997E+02  0.45594000000E+02  0.51100000000E-03 0. -1.
         23    2    1    2    0    0 -0.17763568394E-14  0.00000000000E+00 -0.35527136788E-14  0.91188000000E+02  0.91188000000E+02 0.  0.
    9900012    2    3    3    0    0 -0.15343864238E+02 -0.21202710124E+02 -0.31115538577E+02  0.50528858011E+02  0.29999994409E+02 0.  0.
         12    1    3    3    0    0  0.15343864238E+02  0.21202710124E+02  0.31115538577E+02  0.40659141989E+02  0.00000000000E+00 0. -1.
         11    1    4    4    0    0 -0.38069519899E+01 -0.10965168107E+02 -0.16286013730E+02  0.19999050941E+02  0.51100000000E-03 0. -1.
        -11    1    4    4    0    0  0.13245889817E+01 -0.11884895024E+02 -0.12602810050E+02  0.17373430494E+02  0.51100000000E-03 0.  1.
         12    1    4    4    0    0 -0.12861501230E+02  0.16473530063E+01 -0.22267147968E+01  0.13156376576E+02  0.00000000000E+00 0. -1.
</event>
<event>
 8    1  0.7977359E-012  0.9118800E+02  0.7816164E-02  0.1184000E+00
        -11   -1    0    0    0    0  0.00000000000E+00  0.00000000000E+00  0.45593999997E+02  0.45594000000E+02  0.51100000000E-03 0. -1.
         11   -1    0    0    0    0 -0.00000000000E+00 -0.00000000000E+00 -0.45593999997E+02  0.45594000000E+02  0.51100000000E-03 0.  1.
         23    2    1    2    0    0  0.00000000000E+00  0.17763568394E-14 -0.71054273576E-14  0.91188000000E+02  0.91188000000E+02 0.  0.
    9900012    2    3    3    0    0  0.46524996664E+01  0.14165025756E+02  0.37826907903E+02  0.50528823061E+02  0.29999888176E+02 0.  0.
        -12    1    3    3    0    0 -0.46524996664E+01 -0.14165025756E+02 -0.37826907903E+02  0.40659176939E+02  0.00000000000E+00 0.  1.
         11    1    4    4    0    0 -0.17290590387E+01  0.16202051804E+02  0.10786278189E+02  0.19540724788E+02  0.51100000000E-03 0. -1.
        -11    1    4    4    0    0  0.35594009312E+01 -0.23969793659E+01  0.52840636857E+00  0.43236626396E+01  0.51100000000E-03 0.  1.
         12    1    4    4    0    0  0.28221577739E+01  0.35995331840E+00  0.26512223346E+02  0.26664435633E+02  0.00000000000E+00 0. -1.
</event>
<event>
 8    1  0.7977359E-012  0.9118800E+02  0.7816164E-02  0.1184000E+00
        -11   -1    0    0    0    0  0.00000000000E+00  0.00000000000E+00  0.45593999997E+02  0.45594000000E+02  0.51100000000E-03 0. -1.
         11   -1    0    0    0    0 -0.00000000000E+00 -0.00000000000E+00 -0.45593999997E+02  0.45594000000E+02  0.51100000000E-03 0.  1.
         23    2    1    2    0    0  0.00000000000E+00  0.00000000000E+00  0.71054273576E-14  0.91188000000E+02  0.91188000000E+02 0.  0.
    9900012    2    3    3    0    0 -0.20311998610E+01 -0.52721835934E+01 -0.40264673504E+02  0.50528860498E+02  0.30000001968E+02 0.  0.
         12    1    3    3    0    0  0.20311998610E+01  0.52721835934E+01  0.40264673504E+02  0.40659139502E+02  0.00000000000E+00 0. -1.
         11    1    4    4    0    0 -0.21351242968E+01  0.70989517258E+01 -0.96551712744E+01  0.12172764845E+02  0.51100000000E-03 0. -1.
        -11    1    4    4    0    0  0.96711396873E+01 -0.66158168507E+01 -0.18373099342E+02  0.21791529436E+02  0.51100000000E-03 0.  1.
         12    1    4    4    0    0 -0.95672152515E+01 -0.57553184685E+01 -0.12236402887E+02  0.16564566217E+02  0.00000000000E+00 0. -1.
</event>
<event>
 8    1  0.7977359E-012  0.9118800E+02  0.7816164E-02  0.1184000E+00
        -11   -1    0    0    0    0  0.00000000000E+00  0.00000000000E+00  0.45593999997E+02  0.45594000000E+02  0.51100000000E-03 0. -1.
         11   -1    0    0    0    0 -0.00000000000E+00 -0.00000000000E+00 -0.45593999997E+02  0.45594000000E+02  0.51100000000E-03 0.  1.
         23    2    1    2    0    0  0.00000000000E+00  0.00000000000E+00 -0.71054273576E-14  0.91188000000E+02  0.91188000000E+02 0.  0.
    9900012    2    3    3    0    0 -0.14769556161E+02  0.19248207962E+02  0.32627171243E+02  0.50528860778E+02  0.30000002821E+02 0.  0.
        -12    1    3    3    0    0  0.14769556161E+02 -0.19248207962E+02 -0.32627171243E+02  0.40659139222E+02  0.00000000000E+00 0.  1.
         11    1    4    4    0    0 -0.14254428408E+02  0.25242906256E+01  0.19078628609E+02  0.23949005037E+02  0.51100000000E-03 0. -1.
        -11    1    4    4    0    0 -0.33878172183E+01  0.61245496292E+01 -0.22389857788E+01  0.73485012924E+01  0.51100000000E-03 0.  1.
         12    1    4    4    0    0  0.28726894652E+01  0.10599367707E+02  0.15787528413E+02  0.19231354449E+02  0.00000000000E+00 0. -1.
</event>
<event>
 8    1  0.7977359E-012  0.9118800E+02  0.7816164E-02  0.1184000E+00
        -11   -1    0    0    0    0  0.00000000000E+00  0.00000000000E+00  0.45593999997E+02  0.45594000000E+02  0.51100000000E-03 0. -1.
         11   -1    0    0    0    0 -0.00000000000E+00 -0.00000000000E+00 -0.45593999997E+02  0.45594000000E+02  0.51100000000E-03 0.  1.
         23    2    1    2    0    0 -0.17763568394E-14 -0.17763568394E-14 -0.71054273576E-14  0.91188000000E+02  0.91188000000E+02 0.  0.
    9900012    2    3    3    0    0  0.12920606771E+02  0.94053032487E+01  0.37386688389E+02  0.50528852478E+02  0.29999977592E+02 0.  0.
        -12    1    3    3    0    0 -0.12920606771E+02 -0.94053032487E+01 -0.37386688389E+02  0.40659147522E+02  0.00000000000E+00 0.  1.
         11    1    4    4    0    0 -0.21892614872E+01  0.63326145720E+01  0.22475934912E+01  0.70672873112E+01  0.51100000000E-03 0. -1.
        -11    1    4    4    0    0  0.16531143033E+01 -0.21441091554E+01 -0.21626208221E+01  0.34651002946E+01  0.51100000000E-03 0.  1.
        -12    1    4    4    0    0  0.13456753955E+02  0.52167978321E+01  0.37301715720E+02  0.39996464872E+02  0.00000000000E+00 0.  1.
</event>
<event>
 8    1  0.7977359E-012  0.9118800E+02  0.7816164E-02  0.1184000E+00
        -11   -1    0    0    0    0  0.00000000000E+00  0.00000000000E+00  0.45593999997E+02  0.45594000000E+02  0.51100000000E-03 0. -1.
         11   -1    0    0    0    0 -0.00000000000E+00 -0.00000000000E+00 -0.45593999997E+02  0.45594000000E+02  0.51100000000E-03 0.  1.
         23    2    1    2    0    0  0.00000000000E+00 -0.17763568394E-14  0.14210854715E-13  0.91188000000E+02  0.91188000000E+02 0.  0.
    9900012    2    3    3    0    0 -0.17916706612E+02  0.10798142312E+02  0.34864862173E+02  0.50528845219E+02  0.29999955526E+02 0.  0.
        -12    1    3    3    0    0  0.17916706612E+02 -0.10798142312E+02 -0.34864862173E+02  0.40659154781E+02  0.00000000000E+00 0.  1.
         11    1    4    4    0    0 -0.14419706302E+02  0.86190643230E+01  0.37375168998E+02  0.40977060138E+02  0.51100000000E-03 0. -1.
        -11    1    4    4    0    0 -0.65699020552E+00 -0.26674138559E+01  0.10050164803E+01  0.29251993428E+01  0.51100000000E-03 0.  1.
        -12    1    4    4    0    0 -0.28400101045E+01  0.48464918447E+01 -0.35153233058E+01  0.66265857377E+01  0.00000000000E+00 0.  1.
</event>
<event>
 8    1  0.7977359E-012  0.9118800E+02  0.7816164E-02  0.1184000E+00
        -11   -1    0    0    0    0  0.00000000000E+00  0.00000000000E+00  0.45593999997E+02  0.45594000000E+02  0.51100000000E-03 0. -1.
         11   -1    0    0    0    0 -0.00000000000E+00 -0.00000000000E+00 -0.45593999997E+02  0.45594000000E+02  0.51100000000E-03 0.  1.
         23    2    1    2    0    0  0.71054273576E-14 -0.17763568394E-14  0.35527136788E-14  0.91188000000E+02  0.91188000000E+02 0.  0.
    9900012    2    3    3    0    0  0.38134128809E+02 -0.52678371507E+01  0.13084531010E+02  0.50528845556E+02  0.29999956553E+02 0.  0.
        -12    1    3    3    0    0 -0.38134128809E+02  0.52678371507E+01 -0.13084531010E+02  0.40659154444E+02  0.00000000000E+00 0.  1.
         11    1    4    4    0    0  0.19984465656E+02 -0.11143925432E+02  0.12541901999E+02  0.26093394712E+02  0.51100000000E-03 0. -1.
        -11    1    4    4    0    0  0.26690564116E+00 -0.39902224778E+01  0.29516632117E+00  0.40100171399E+01  0.51100000000E-03 0.  1.
        -12    1    4    4    0    0  0.17882757513E+02  0.98663107587E+01  0.24746268986E+00  0.20425433705E+02  0.00000000000E+00 0.  1.
</event>
<event>
 8    1  0.7977359E-012  0.9118800E+02  0.7816164E-02  0.1184000E+00
        -11   -1    0    0    0    0  0.00000000000E+00  0.00000000000E+00  0.45593999997E+02  0.45594000000E+02  0.51100000000E-03 0. -1.
         11   -1    0    0    0    0 -0.00000000000E+00 -0.00000000000E+00 -0.45593999997E+02  0.45594000000E+02  0.51100000000E-03 0.  1.
         23    2    1    2    0    0  0.35527136788E-14  0.17763568394E-14 -0.35527136788E-14  0.91188000000E+02  0.91188000000E+02 0.  0.
    9900012    2    3    3    0    0  0.29486252738E+02  0.14457507738E+02 -0.23973298297E+02  0.50528712479E+02  0.29999552047E+02 0.  0.
         12    1    3    3    0    0 -0.29486252738E+02 -0.14457507738E+02  0.23973298297E+02  0.40659287521E+02  0.00000000000E+00 0. -1.
         11    1    4    4    0    0 -0.25413634339E+01  0.28759832197E+00 -0.15963904892E+01  0.30149135565E+01  0.51100000000E-03 0. -1.
        -11    1    4    4    0    0  0.20362223072E+02 -0.35157779703E+01 -0.97300065751E+01  0.22839742805E+02  0.51100000000E-03 0.  1.
         12    1    4    4    0    0  0.11665393100E+02  0.17685687386E+02 -0.12646901232E+02  0.24674056117E+02  0.00000000000E+00 0. -1.
</event>
<event>
 8    1  0.7977359E-012  0.9118800E+02  0.7816164E-02  0.1184000E+00
        -11   -1    0    0    0    0  0.00000000000E+00  0.00000000000E+00  0.45593999997E+02  0.45594000000E+02  0.51100000000E-03 0. -1.
         11   -1    0    0    0    0 -0.00000000000E+00 -0.00000000000E+00 -0.45593999997E+02  0.45594000000E+02  0.51100000000E-03 0.  1.
         23    2    1    2    0    0  0.17763568394E-14  0.88817841970E-15  0.00000000000E+00  0.91188000000E+02  0.91188000000E+02 0.  0.
    9900012    2    3    3    0    0  0.10035992552E+02  0.22943478824E+01  0.39334149333E+02  0.50528923738E+02  0.30000194194E+02 0.  0.
        -12    1    3    3    0    0 -0.10035992552E+02 -0.22943478824E+01 -0.39334149333E+02  0.40659076262E+02  0.00000000000E+00 0.  1.
         11    1    4    4    0    0  0.20018339997E+01 -0.48133152476E+01  0.72271353411E+01  0.89110509220E+01  0.51100000000E-03 0. -1.
        -11    1    4    4    0    0  0.27321299983E+00 -0.19106531065E+01 -0.35431145633E+01  0.40347120971E+01  0.51100000000E-03 0.  1.
         12    1    4    4    0    0  0.77609455523E+01  0.90183162365E+01  0.35650128555E+02  0.37583160719E+02  0.00000000000E+00 0. -1.
</event>
<event>
 8    1  0.7977359E-012  0.9118800E+02  0.7816164E-02  0.1184000E+00
        -11   -1    0    0    0    0  0.00000000000E+00  0.00000000000E+00  0.45593999997E+02  0.45594000000E+02  0.51100000000E-03 0. -1.
         11   -1    0    0    0    0 -0.00000000000E+00 -0.00000000000E+00 -0.45593999997E+02  0.45594000000E+02  0.51100000000E-03 0.  1.
         23    2    1    2    0    0  0.17763568394E-14  0.00000000000E+00  0.35527136788E-14  0.91188000000E+02  0.91188000000E+02 0.  0.
    9900012    2    3    3    0    0 -0.14415884162E+02 -0.23513331021E+02 -0.29874259200E+02  0.50528858166E+02  0.29999994882E+02 0.  0.
         12    1    3    3    0    0  0.14415884162E+02  0.23513331021E+02  0.29874259200E+02  0.40659141834E+02  0.00000000000E+00 0. -1.
         11    1    4    4    0    0 -0.74810065875E+01 -0.18539596566E+02 -0.13173375805E+02  0.23942011835E+02  0.51100000000E-03 0. -1.
        -11    1    4    4    0    0 -0.19005554189E+01 -0.11275579286E+02 -0.14009995904E+02  0.18083992497E+02  0.51100000000E-03 0.  1.
         12    1    4    4    0    0 -0.50343221556E+01  0.63018448304E+01 -0.26908874918E+01  0.85028538342E+01  0.00000000000E+00 0. -1.
</event>
<event>
 8    1  0.7977359E-012  0.9118800E+02  0.7816164E-02  0.1184000E+00
        -11   -1    0    0    0    0  0.00000000000E+00  0.00000000000E+00  0.45593999997E+02  0.45594000000E+02  0.51100000000E-03 0. -1.
         11   -1    0    0    0    0 -0.00000000000E+00 -0.00000000000E+00 -0.45593999997E+02  0.45594000000E+02  0.51100000000E-03 0.  1.
         23    2    1    2    0    0  0.00000000000E+00  0.00000000000E+00  0.00000000000E+00  0.91188000000E+02  0.91188000000E+02 0.  0.
    9900012    2    3    3    0    0  0.35852943243E+02 -0.60390373469E+01  0.18200606652E+02  0.50528860882E+02  0.30000003138E+02 0.  0.
        -12    1    3    3    0    0 -0.35852943243E+02  0.60390373469E+01 -0.18200606652E+02  0.40659139118E+02  0.00000000000E+00 0.  1.
         11    1    4    4    0    0  0.87620827443E+01 -0.53194888697E+01  0.15671941535E+02  0.18726473442E+02  0.51100000000E-03 0. -1.
        -11    1    4    4    0    0  0.39588157427E+01 -0.24568267682E+01  0.67722965126E+01  0.82202323672E+01  0.51100000000E-03 0.  1.
         12    1    4    4    0    0  0.23132044756E+02  0.17372782911E+01 -0.42436313954E+01  0.23582155073E+02  0.00000000000E+00 0. -1.
</event>
<event>
 8    1  0.7977359E-012  0.9118800E+02  0.7816164E-02  0.1184000E+00
        -11   -1    0    0    0    0  0.00000000000E+00  0.00000000000E+00  0.45593999997E+02  0.45594000000E+02  0.51100000000E-03 0.  1.
         11   -1    0    0    0    0 -0.00000000000E+00 -0.00000000000E+00 -0.45593999997E+02  0.45594000000E+02  0.51100000000E-03 0. -1.
         23    2    1    2    0    0  0.00000000000E+00  0.00000000000E+00  0.71054273576E-14  0.91188000000E+02  0.91188000000E+02 0.  0.
    9900012    2    3    3    0    0  0.25500383542E+02 -0.10906541828E+02  0.29731190786E+02  0.50528856859E+02  0.29999990908E+02 0.  0.
        -12    1    3    3    0    0 -0.25500383542E+02  0.10906541828E+02 -0.29731190786E+02  0.40659143141E+02  0.00000000000E+00 0.  1.
         11    1    4    4    0    0  0.12986488282E+01 -0.43103396742E+00  0.50123804130E+01  0.51957902888E+01  0.51100000000E-03 0. -1.
        -11    1    4    4    0    0 -0.49097590800E+01  0.28486571479E+01  0.59408423718E+01  0.82167019002E+01  0.51100000000E-03 0.  1.
         12    1    4    4    0    0  0.29111493793E+02 -0.13324165009E+02  0.18777968001E+02  0.37116364670E+02  0.00000000000E+00 0. -1.
</event>
<event>
 8    1  0.7977359E-012  0.9118800E+02  0.7816164E-02  0.1184000E+00
        -11   -1    0    0    0    0  0.00000000000E+00  0.00000000000E+00  0.45593999997E+02  0.45594000000E+02  0.51100000000E-03 0.  1.
         11   -1    0    0    0    0 -0.00000000000E+00 -0.00000000000E+00 -0.45593999997E+02  0.45594000000E+02  0.51100000000E-03 0. -1.
         23    2    1    2    0    0  0.00000000000E+00  0.35527136788E-14  0.00000000000E+00  0.91188000000E+02  0.91188000000E+02 0.  0.
    9900012    2    3    3    0    0 -0.18484213752E+02 -0.28513404394E+02 -0.22326791771E+02  0.50528855654E+02  0.29999987246E+02 0.  0.
         12    1    3    3    0    0  0.18484213752E+02  0.28513404394E+02  0.22326791771E+02  0.40659144346E+02  0.00000000000E+00 0. -1.
         11    1    4    4    0    0 -0.15451473847E+02 -0.69349340574E+01 -0.13152089966E+02  0.21443386513E+02  0.51100000000E-03 0. -1.
        -11    1    4    4    0    0 -0.62050398460E+01 -0.30284580631E+01 -0.74960968922E+01  0.10191444775E+02  0.51100000000E-03 0.  1.
        -12    1    4    4    0    0  0.31722999412E+01 -0.18550012274E+02 -0.16786049127E+01  0.18894024365E+02  0.00000000000E+00 0.  1.
</event>
<event>
 8    1  0.7977359E-012  0.9118800E+02  0.7816164E-02  0.1184000E+00
        -11   -1    0    0    0    0  0.00000000000E+00  0.00000000000E+00  0.45593999997E+02  0.45594000000E+02  0.51100000000E-03 0. -1.
         11   -1    0    0    0    0 -0.00000000000E+00 -0.00000000000E+00 -0.45593999997E+02  0.45594000000E+02  0.51100000000E-03 0.  1.
         23    2    1    2    0    0  0.00000000000E+00  0.11102230246E-15  0.00000000000E+00  0.91188000000E+02  0.91188000000E+02 0.  0.
    9900012    2    3    3    0    0 -0.31458614159E+02 -0.17642732491E+00 -0.25758291949E+02  0.50528866518E+02  0.30000020268E+02 0.  0.
         12    1    3    3    0    0  0.31458614159E+02  0.17642732491E+00  0.25758291949E+02  0.40659133482E+02  0.00000000000E+00 0. -1.
         11    1    4    4    0    0 -0.71408671063E+01  0.88147283058E+00 -0.16019428589E+02  0.17561066880E+02  0.51100000000E-03 0. -1.
        -11    1    4    4    0    0 -0.25177273773E+02 -0.39404116611E+01 -0.12935207905E+02  0.28578690707E+02  0.51100000000E-03 0.  1.
        -12    1    4    4    0    0  0.85952672117E+00  0.28825115056E+01  0.31963445444E+01  0.43891089314E+01  0.00000000000E+00 0.  1.
</event>
<event>
 8    1  0.7977359E-012  0.9118800E+02  0.7816164E-02  0.1184000E+00
        -11   -1    0    0    0    0  0.00000000000E+00  0.00000000000E+00  0.45593999997E+02  0.45594000000E+02  0.51100000000E-03 0.  1.
         11   -1    0    0    0    0 -0.00000000000E+00 -0.00000000000E+00 -0.45593999997E+02  0.45594000000E+02  0.51100000000E-03 0. -1.
         23    2    1    2    0    0 -0.88817841970E-15  0.00000000000E+00 -0.35527136788E-14  0.91188000000E+02  0.91188000000E+02 0.  0.
    9900012    2    3    3    0    0  0.45774825681E+01  0.34480029505E+02 -0.21055648111E+02  0.50528854673E+02  0.29999984265E+02 0.  0.
         12    1    3    3    0    0 -0.45774825681E+01 -0.34480029505E+02  0.21055648111E+02  0.40659145327E+02  0.00000000000E+00 0. -1.
         11    1    4    4    0    0 -0.12463150937E+00  0.66932675169E+01  0.49966880429E+01  0.83535773610E+01  0.51100000000E-03 0. -1.
        -11    1    4    4    0    0  0.32901430988E+01  0.22262728123E+02 -0.90737801005E+01  0.24264945717E+02  0.51100000000E-03 0.  1.
         12    1    4    4    0    0  0.14119709786E+01  0.55240338652E+01 -0.16978556054E+02  0.17910331595E+02  0.00000000000E+00 0. -1.
</event>
<event>
 8    1  0.7977359E-012  0.9118800E+02  0.7816164E-02  0.1184000E+00
        -11   -1    0    0    0    0  0.00000000000E+00  0.00000000000E+00  0.45593999997E+02  0.45594000000E+02  0.51100000000E-03 0. -1.
         11   -1    0    0    0    0 -0.00000000000E+00 -0.00000000000E+00 -0.45593999997E+02  0.45594000000E+02  0.51100000000E-03 0.  1.
         23    2    1    2    0    0  0.11102230246E-15  0.00000000000E+00  0.00000000000E+00  0.91188000000E+02  0.91188000000E+02 0.  0.
    9900012    2    3    3    0    0  0.86546716121E+00  0.76587034186E+01 -0.39921934285E+02  0.50528860701E+02  0.30000002587E+02 0.  0.
         12    1    3    3    0    0 -0.86546716121E+00 -0.76587034186E+01  0.39921934285E+02  0.40659139299E+02  0.00000000000E+00 0. -1.
         11    1    4    4    0    0  0.23624708097E+01  0.82666620186E+01 -0.12105371190E+02  0.14847861165E+02  0.51100000000E-03 0.  1.
        -11    1    4    4    0    0 -0.18390584323E+01  0.88676936847E+00 -0.31565052390E+02  0.31631013712E+02  0.51100000000E-03 0. -1.
         12    1    4    4    0    0  0.34205478385E+00 -0.14947279685E+01  0.37484892953E+01  0.40499858236E+01  0.00000000000E+00 0. -1.
</event>
<event>
 8    1  0.7977359E-012  0.9118800E+02  0.7816164E-02  0.1184000E+00
        -11   -1    0    0    0    0  0.00000000000E+00  0.00000000000E+00  0.45593999997E+02  0.45594000000E+02  0.51100000000E-03 0. -1.
         11   -1    0    0    0    0 -0.00000000000E+00 -0.00000000000E+00 -0.45593999997E+02  0.45594000000E+02  0.51100000000E-03 0.  1.
         23    2    1    2    0    0  0.00000000000E+00  0.00000000000E+00  0.00000000000E+00  0.91188000000E+02  0.91188000000E+02 0.  0.
    9900012    2    3    3    0    0 -0.11295226302E+02  0.57605985093E+01  0.38631580380E+02  0.50528860375E+02  0.30000001597E+02 0.  0.
        -12    1    3    3    0    0  0.11295226302E+02 -0.57605985093E+01 -0.38631580380E+02  0.40659139625E+02  0.00000000000E+00 0.  1.
         11    1    4    4    0    0  0.91652949917E+01 -0.25231200623E+01  0.12889968320E+02  0.16016243339E+02  0.51100000000E-03 0. -1.
        -11    1    4    4    0    0 -0.96407755189E+01  0.67286268458E+01  0.16110059703E+02  0.19943745780E+02  0.51100000000E-03 0.  1.
        -12    1    4    4    0    0 -0.10819745774E+02  0.15550917258E+01  0.96315523564E+01  0.14568871257E+02  0.00000000000E+00 0.  1.
</event>
<event>
 8    1  0.7977359E-012  0.9118800E+02  0.7816164E-02  0.1184000E+00
        -11   -1    0    0    0    0  0.00000000000E+00  0.00000000000E+00  0.45593999997E+02  0.45594000000E+02  0.51100000000E-03 0. -1.
         11   -1    0    0    0    0 -0.00000000000E+00 -0.00000000000E+00 -0.45593999997E+02  0.45594000000E+02  0.51100000000E-03 0.  1.
         23    2    1    2    0    0  0.00000000000E+00  0.35527136788E-14  0.00000000000E+00  0.91188000000E+02  0.91188000000E+02 0.  0.
    9900012    2    3    3    0    0 -0.93500007290E+01  0.29019990144E+02 -0.26899510206E+02  0.50528855999E+02  0.29999988294E+02 0.  0.
         12    1    3    3    0    0  0.93500007290E+01 -0.29019990144E+02  0.26899510206E+02  0.40659144001E+02  0.00000000000E+00 0. -1.
         11    1    4    4    0    0  0.32360975269E+01  0.93313109939E+01 -0.13893306593E+01  0.99737621794E+01  0.51100000000E-03 0. -1.
        -11    1    4    4    0    0  0.31330580418E+01 -0.26848537641E+01 -0.25519173241E+01  0.48514713972E+01  0.51100000000E-03 0.  1.
        -12    1    4    4    0    0 -0.15719156298E+02  0.22373532914E+02 -0.22958262223E+02  0.35703622422E+02  0.00000000000E+00 0.  1.
</event>
<event>
 8    1  0.7977359E-012  0.9118800E+02  0.7816164E-02  0.1184000E+00
        -11   -1    0    0    0    0  0.00000000000E+00  0.00000000000E+00  0.45593999997E+02  0.45594000000E+02  0.51100000000E-03 0. -1.
         11   -1    0    0    0    0 -0.00000000000E+00 -0.00000000000E+00 -0.45593999997E+02  0.45594000000E+02  0.51100000000E-03 0.  1.
         23    2    1    2    0    0  0.35527136788E-14 -0.71054273576E-14 -0.35527136788E-14  0.91188000000E+02  0.91188000000E+02 0.  0.
    9900012    2    3    3    0    0 -0.22433607671E+02  0.32201287923E+02  0.10628995096E+02  0.50528865310E+02  0.30000016596E+02 0.  0.
        -12    1    3    3    0    0  0.22433607671E+02 -0.32201287923E+02 -0.10628995096E+02  0.40659134690E+02  0.00000000000E+00 0.  1.
         11    1    4    4    0    0  0.26816484135E+01  0.10435216465E+02 -0.44191205629E+01  0.11645325573E+02  0.51100000000E-03 0. -1.
        -11    1    4    4    0    0 -0.58467998516E+00  0.25429994704E+01 -0.20661543197E+01  0.33283165302E+01  0.51100000000E-03 0.  1.
         12    1    4    4    0    0 -0.24530576099E+02  0.19223071987E+02  0.17114269978E+02  0.35555223207E+02  0.00000000000E+00 0. -1.
</event>
<event>
 8    1  0.7977359E-012  0.9118800E+02  0.7816164E-02  0.1184000E+00
        -11   -1    0    0    0    0  0.00000000000E+00  0.00000000000E+00  0.45593999997E+02  0.45594000000E+02  0.51100000000E-03 0. -1.
         11   -1    0    0    0    0 -0.00000000000E+00 -0.00000000000E+00 -0.45593999997E+02  0.45594000000E+02  0.51100000000E-03 0.  1.
         23    2    1    2    0    0  0.35527136788E-14  0.00000000000E+00  0.00000000000E+00  0.91188000000E+02  0.91188000000E+02 0.  0.
    9900012    2    3    3    0    0 -0.25353868114E+02 -0.29328386961E+02  0.12255327755E+02  0.50528856275E+02  0.29999989133E+02 0.  0.
        -12    1    3    3    0    0  0.25353868114E+02  0.29328386961E+02 -0.12255327755E+02  0.40659143725E+02  0.00000000000E+00 0.  1.
         11    1    4    4    0    0  0.18332977968E+01  0.35971570473E+01  0.11647760087E+01  0.42020498624E+01  0.51100000000E-03 0. -1.
        -11    1    4    4    0    0  0.48727434823E+00 -0.45188908108E+01  0.39682355572E+01  0.60336310916E+01  0.51100000000E-03 0.  1.
         12    1    4    4    0    0 -0.27674440259E+02 -0.28406653198E+02  0.71223161887E+01  0.40293175321E+02  0.00000000000E+00 0. -1.
</event>
<event>
 8    1  0.7977359E-012  0.9118800E+02  0.7816164E-02  0.1184000E+00
        -11   -1    0    0    0    0  0.00000000000E+00  0.00000000000E+00  0.45593999997E+02  0.45594000000E+02  0.51100000000E-03 0. -1.
         11   -1    0    0    0    0 -0.00000000000E+00 -0.00000000000E+00 -0.45593999997E+02  0.45594000000E+02  0.51100000000E-03 0.  1.
         23    2    1    2    0    0 -0.71054273576E-14 -0.13322676296E-14  0.00000000000E+00  0.91188000000E+02  0.91188000000E+02 0.  0.
    9900012    2    3    3    0    0  0.35927449313E+02  0.34975658545E+01  0.18712344778E+02  0.50528850622E+02  0.29999971951E+02 0.  0.
        -12    1    3    3    0    0 -0.35927449313E+02 -0.34975658545E+01 -0.18712344778E+02  0.40659149378E+02  0.00000000000E+00 0.  1.
         11    1    4    4    0    0  0.15994569790E+02 -0.13478956019E+01  0.98922156754E+01  0.18854681555E+02  0.51100000000E-03 0. -1.
        -11    1    4    4    0    0  0.21936640345E+02  0.57807690466E+01  0.13570260405E+02  0.26434550272E+02  0.51100000000E-03 0.  1.
        -12    1    4    4    0    0 -0.20037608221E+01 -0.93530759013E+00 -0.47501313023E+01  0.52396187943E+01  0.00000000000E+00 0.  1.
</event>
<event>
 8    1  0.7977359E-012  0.9118800E+02  0.7816164E-02  0.1184000E+00
        -11   -1    0    0    0    0  0.00000000000E+00  0.00000000000E+00  0.45593999997E+02  0.45594000000E+02  0.51100000000E-03 0. -1.
         11   -1    0    0    0    0 -0.00000000000E+00 -0.00000000000E+00 -0.45593999997E+02  0.45594000000E+02  0.51100000000E-03 0.  1.
         23    2    1    2    0    0  0.00000000000E+00  0.35527136788E-14  0.00000000000E+00  0.91188000000E+02  0.91188000000E+02 0.  0.
    9900012    2    3    3    0    0 -0.76002301200E+01  0.17850187069E+02  0.35731952626E+02  0.50528866773E+02  0.30000021045E+02 0.  0.
        -12    1    3    3    0    0  0.76002301200E+01 -0.17850187069E+02 -0.35731952626E+02  0.40659133227E+02  0.00000000000E+00 0.  1.
         11    1    4    4    0    0 -0.13256611553E+01  0.16781227790E+02  0.13552794956E+02  0.21611229373E+02  0.51100000000E-03 0. -1.
        -11    1    4    4    0    0  0.60032955167E+00 -0.14794807705E+01 -0.26140044381E+01  0.30630505031E+01  0.51100000000E-03 0.  1.
         12    1    4    4    0    0 -0.68748985164E+01  0.25484400492E+01  0.24793162109E+02  0.25854586898E+02  0.00000000000E+00 0. -1.
</event>
<event>
 8    1  0.7977359E-012  0.9118800E+02  0.7816164E-02  0.1184000E+00
        -11   -1    0    0    0    0  0.00000000000E+00  0.00000000000E+00  0.45593999997E+02  0.45594000000E+02  0.51100000000E-03 0. -1.
         11   -1    0    0    0    0 -0.00000000000E+00 -0.00000000000E+00 -0.45593999997E+02  0.45594000000E+02  0.51100000000E-03 0.  1.
         23    2    1    2    0    0  0.88817841970E-15  0.35527136788E-14  0.00000000000E+00  0.91188000000E+02  0.91188000000E+02 0.  0.
    9900012    2    3    3    0    0  0.68883090883E+01  0.13515827437E+02  0.37723188127E+02  0.50528864300E+02  0.30000013525E+02 0.  0.
        -12    1    3    3    0    0 -0.68883090883E+01 -0.13515827437E+02 -0.37723188127E+02  0.40659135700E+02  0.00000000000E+00 0.  1.
         11    1    4    4    0    0 -0.47890841414E+01  0.35369193764E+01  0.10766275344E+02  0.12302756221E+02  0.51100000000E-03 0. -1.
        -11    1    4    4    0    0  0.42171715546E+01  0.16310475705E+02  0.13503987474E+02  0.21591059066E+02  0.51100000000E-03 0.  1.
        -12    1    4    4    0    0  0.74602216750E+01 -0.63315676439E+01  0.13452925310E+02  0.16635049013E+02  0.00000000000E+00 0.  1.
</event>
<event>
 8    1  0.7977359E-012  0.9118800E+02  0.7816164E-02  0.1184000E+00
        -11   -1    0    0    0    0  0.00000000000E+00  0.00000000000E+00  0.45593999997E+02  0.45594000000E+02  0.51100000000E-03 0. -1.
         11   -1    0    0    0    0 -0.00000000000E+00 -0.00000000000E+00 -0.45593999997E+02  0.45594000000E+02  0.51100000000E-03 0.  1.
         23    2    1    2    0    0  0.00000000000E+00 -0.71054273576E-14  0.00000000000E+00  0.91188000000E+02  0.91188000000E+02 0.  0.
    9900012    2    3    3    0    0  0.59029882219E+01  0.37742364361E+02  0.13922442051E+02  0.50528859205E+02  0.29999998040E+02 0.  0.
        -12    1    3    3    0    0 -0.59029882219E+01 -0.37742364361E+02 -0.13922442051E+02  0.40659140795E+02  0.00000000000E+00 0.  1.
         11    1    4    4    0    0  0.30495169035E+01  0.11938930782E+02  0.11667085519E+02  0.16969340186E+02  0.51100000000E-03 0. -1.
        -11    1    4    4    0    0 -0.14226842751E+01  0.22027658959E+01  0.84001810832E+01  0.87999574221E+01  0.51100000000E-03 0.  1.
         12    1    4    4    0    0  0.42761555935E+01  0.23600667683E+02 -0.61448245509E+01  0.24759561598E+02  0.00000000000E+00 0. -1.
</event>
<event>
 8    1  0.7977359E-012  0.9118800E+02  0.7816164E-02  0.1184000E+00
        -11   -1    0    0    0    0  0.00000000000E+00  0.00000000000E+00  0.45593999997E+02  0.45594000000E+02  0.51100000000E-03 0.  1.
         11   -1    0    0    0    0 -0.00000000000E+00 -0.00000000000E+00 -0.45593999997E+02  0.45594000000E+02  0.51100000000E-03 0. -1.
         23    2    1    2    0    0  0.88817841970E-15  0.00000000000E+00  0.00000000000E+00  0.91188000000E+02  0.91188000000E+02 0.  0.
    9900012    2    3    3    0    0  0.62734555446E+01  0.31882622064E+02  0.24439872937E+02  0.50528865439E+02  0.30000016987E+02 0.  0.
        -12    1    3    3    0    0 -0.62734555446E+01 -0.31882622064E+02 -0.24439872937E+02  0.40659134561E+02  0.00000000000E+00 0.  1.
         11    1    4    4    0    0  0.10782540872E+02  0.19825252414E+02  0.10546922242E+02  0.24910668196E+02  0.51100000000E-03 0. -1.
        -11    1    4    4    0    0  0.37471336885E+01  0.64590613449E+01  0.13744298090E+02  0.15641809824E+02  0.51100000000E-03 0.  1.
         12    1    4    4    0    0 -0.82562190161E+01  0.55983083048E+01  0.14865260428E+00  0.99763874180E+01  0.00000000000E+00 0. -1.
</event>
<event>
 8    1  0.7977359E-012  0.9118800E+02  0.7816164E-02  0.1184000E+00
        -11   -1    0    0    0    0  0.00000000000E+00  0.00000000000E+00  0.45593999997E+02  0.45594000000E+02  0.51100000000E-03 0. -1.
         11   -1    0    0    0    0 -0.00000000000E+00 -0.00000000000E+00 -0.45593999997E+02  0.45594000000E+02  0.51100000000E-03 0.  1.
         23    2    1    2    0    0  0.00000000000E+00  0.22204460493E-15  0.00000000000E+00  0.91188000000E+02  0.91188000000E+02 0.  0.
    9900012    2    3    3    0    0  0.87802912167E+01  0.41265011354E+00 -0.39697633451E+02  0.50528857171E+02  0.29999991858E+02 0.  0.
         12    1    3    3    0    0 -0.87802912167E+01 -0.41265011354E+00  0.39697633451E+02  0.40659142829E+02  0.00000000000E+00 0. -1.
         11    1    4    4    0    0  0.55884449349E+01 -0.21266881572E+01 -0.12221863164E+02  0.13606155180E+02  0.51100000000E-03 0. -1.
        -11    1    4    4    0    0  0.13443496440E+02  0.34923020249E+00 -0.19778312849E+02  0.23917174116E+02  0.51100000000E-03 0.  1.
        -12    1    4    4    0    0 -0.10251650158E+02  0.21901080682E+01 -0.76974574375E+01  0.13005527876E+02  0.00000000000E+00 0.  1.
</event>
<event>
 8    1  0.7977359E-012  0.9118800E+02  0.7816164E-02  0.1184000E+00
        -11   -1    0    0    0    0  0.00000000000E+00  0.00000000000E+00  0.45593999997E+02  0.45594000000E+02  0.51100000000E-03 0. -1.
         11   -1    0    0    0    0 -0.00000000000E+00 -0.00000000000E+00 -0.45593999997E+02  0.45594000000E+02  0.51100000000E-03 0.  1.
         23    2    1    2    0    0 -0.17763568394E-14  0.71054273576E-14 -0.17763568394E-14  0.91188000000E+02  0.91188000000E+02 0.  0.
    9900012    2    3    3    0    0 -0.74591638770E+01  0.36829198648E+02 -0.15528579517E+02  0.50528858585E+02  0.29999996154E+02 0.  0.
         12    1    3    3    0    0  0.74591638770E+01 -0.36829198648E+02  0.15528579517E+02  0.40659141415E+02  0.00000000000E+00 0. -1.
         11    1    4    4    0    0 -0.11122702503E+02  0.28128915788E+02 -0.27134445418E+01  0.30369609743E+02  0.51100000000E-03 0. -1.
        -11    1    4    4    0    0  0.47766955475E+01  0.10829894199E+01  0.34802927056E+00  0.49102760688E+01  0.51100000000E-03 0.  1.
        -12    1    4    4    0    0 -0.11131569214E+01  0.76172934403E+01 -0.13163164246E+02  0.15248972773E+02  0.00000000000E+00 0.  1.
</event>
<event>
 8    1  0.7977359E-012  0.9118800E+02  0.7816164E-02  0.1184000E+00
        -11   -1    0    0    0    0  0.00000000000E+00  0.00000000000E+00  0.45593999997E+02  0.45594000000E+02  0.51100000000E-03 0.  1.
         11   -1    0    0    0    0 -0.00000000000E+00 -0.00000000000E+00 -0.45593999997E+02  0.45594000000E+02  0.51100000000E-03 0. -1.
         23    2    1    2    0    0  0.00000000000E+00  0.22204460493E-15  0.00000000000E+00  0.91188000000E+02  0.91188000000E+02 0.  0.
    9900012    2    3    3    0    0 -0.38376136192E+02 -0.12415860111E+01 -0.13375214763E+02  0.50528859149E+02  0.29999997869E+02 0.  0.
         12    1    3    3    0    0  0.38376136192E+02  0.12415860111E+01  0.13375214763E+02  0.40659140851E+02  0.00000000000E+00 0. -1.
         11    1    4    4    0    0  0.12018799106E+01 -0.15110834029E+01 -0.55235530721E+01  0.58512842326E+01  0.51100000000E-03 0. -1.
        -11    1    4    4    0    0 -0.18417137501E+02 -0.57434687570E+01  0.39812672609E+01  0.19698448577E+02  0.51100000000E-03 0.  1.
         12    1    4    4    0    0 -0.21160878601E+02  0.60129661488E+01 -0.11832928951E+02  0.24979126339E+02  0.00000000000E+00 0. -1.
</event>
<event>
 8    1  0.7977359E-012  0.9118800E+02  0.7816164E-02  0.1184000E+00
        -11   -1    0    0    0    0  0.00000000000E+00  0.00000000000E+00  0.45593999997E+02  0.45594000000E+02  0.51100000000E-03 0. -1.
         11   -1    0    0    0    0 -0.00000000000E+00 -0.00000000000E+00 -0.45593999997E+02  0.45594000000E+02  0.51100000000E-03 0.  1.
         23    2    1    2    0    0 -0.17763568394E-14  0.00000000000E+00  0.00000000000E+00  0.91188000000E+02  0.91188000000E+02 0.  0.
    9900012    2    3    3    0    0  0.13154489732E+02  0.14514390600E+02  0.35629433689E+02  0.50528872125E+02  0.30000037310E+02 0.  0.
        -12    1    3    3    0    0 -0.13154489732E+02 -0.14514390600E+02 -0.35629433689E+02  0.40659127875E+02  0.00000000000E+00 0.  1.
         11    1    4    4    0    0 -0.30217454765E+01  0.40073112934E+01  0.95732189257E+01  0.10809070746E+02  0.51100000000E-03 0. -1.
        -11    1    4    4    0    0 -0.58154032233E+01  0.38981644982E+01  0.66203556830E+01  0.96355441328E+01  0.51100000000E-03 0.  1.
         12    1    4    4    0    0  0.21991638432E+02  0.66089148082E+01  0.19435859080E+02  0.30084257246E+02  0.00000000000E+00 0. -1.
</event>
<event>
 8    1  0.7977359E-012  0.9118800E+02  0.7816164E-02  0.1184000E+00
        -11   -1    0    0    0    0  0.00000000000E+00  0.00000000000E+00  0.45593999997E+02  0.45594000000E+02  0.51100000000E-03 0. -1.
         11   -1    0    0    0    0 -0.00000000000E+00 -0.00000000000E+00 -0.45593999997E+02  0.45594000000E+02  0.51100000000E-03 0.  1.
         23    2    1    2    0    0  0.00000000000E+00 -0.17763568394E-14  0.00000000000E+00  0.91188000000E+02  0.91188000000E+02 0.  0.
    9900012    2    3    3    0    0  0.57244802287E+01 -0.79502527041E+01 -0.39461235233E+02  0.50528864765E+02  0.30000014941E+02 0.  0.
         12    1    3    3    0    0 -0.57244802287E+01  0.79502527041E+01  0.39461235233E+02  0.40659135235E+02  0.00000000000E+00 0. -1.
         11    1    4    4    0    0  0.14403481389E+01 -0.69929272431E+01 -0.73679100672E+01  0.10259714090E+02  0.51100000000E-03 0. -1.
        -11    1    4    4    0    0 -0.49080725869E+01 -0.88597278163E+01 -0.22949552929E+02  0.25085173577E+02  0.51100000000E-03 0.  1.
         12    1    4    4    0    0  0.91922046767E+01  0.79024023554E+01 -0.91437722365E+01  0.15183977098E+02  0.00000000000E+00 0. -1.
</event>
<event>
 8    1  0.7977359E-012  0.9118800E+02  0.7816164E-02  0.1184000E+00
        -11   -1    0    0    0    0  0.00000000000E+00  0.00000000000E+00  0.45593999997E+02  0.45594000000E+02  0.51100000000E-03 0. -1.
         11   -1    0    0    0    0 -0.00000000000E+00 -0.00000000000E+00 -0.45593999997E+02  0.45594000000E+02  0.51100000000E-03 0.  1.
         23    2    1    2    0    0  0.00000000000E+00 -0.35527136788E-14  0.00000000000E+00  0.91188000000E+02  0.91188000000E+02 0.  0.
    9900012    2    3    3    0    0  0.24087492133E+02 -0.27453127712E+02  0.17868520416E+02  0.50528861786E+02  0.30000005886E+02 0.  0.
        -12    1    3    3    0    0 -0.24087492133E+02  0.27453127712E+02 -0.17868520416E+02  0.40659138214E+02  0.00000000000E+00 0.  1.
         11    1    4    4    0    0  0.20364958053E+01 -0.45536474145E+01  0.19448678375E+01  0.53540200884E+01  0.51100000000E-03 0. -1.
        -11    1    4    4    0    0 -0.43484700379E+01 -0.16367274021E+00 -0.32275656950E+01  0.54178557579E+01  0.51100000000E-03 0.  1.
         12    1    4    4    0    0  0.26399466366E+02 -0.22735807557E+02  0.19151218274E+02  0.39756985940E+02  0.00000000000E+00 0. -1.
</event>
<event>
 8    1  0.7977359E-012  0.9118800E+02  0.7816164E-02  0.1184000E+00
        -11   -1    0    0    0    0  0.00000000000E+00  0.00000000000E+00  0.45593999997E+02  0.45594000000E+02  0.51100000000E-03 0. -1.
         11   -1    0    0    0    0 -0.00000000000E+00 -0.00000000000E+00 -0.45593999997E+02  0.45594000000E+02  0.51100000000E-03 0.  1.
         23    2    1    2    0    0  0.00000000000E+00  0.33306690739E-15  0.00000000000E+00  0.91188000000E+02  0.91188000000E+02 0.  0.
    9900012    2    3    3    0    0  0.36741790111E+02  0.51295179412E+00 -0.17405256787E+02  0.50528865430E+02  0.30000016962E+02 0.  0.
         12    1    3    3    0    0 -0.36741790111E+02 -0.51295179412E+00  0.17405256787E+02  0.40659134570E+02  0.00000000000E+00 0. -1.
         11    1    4    4    0    0  0.11509290465E+01 -0.13446986053E+01 -0.44495249381E+01  0.47886453664E+01  0.51100000000E-03 0. -1.
        -11    1    4    4    0    0  0.63452896757E+01 -0.82162974668E+00 -0.14993442962E+02  0.16301567673E+02  0.51100000000E-03 0.  1.
         12    1    4    4    0    0  0.29245571389E+02  0.26792801461E+01  0.20377111127E+01  0.29438652390E+02  0.00000000000E+00 0. -1.
</event>
<event>
 8    1  0.7977359E-012  0.9118800E+02  0.7816164E-02  0.1184000E+00
        -11   -1    0    0    0    0  0.00000000000E+00  0.00000000000E+00  0.45593999997E+02  0.45594000000E+02  0.51100000000E-03 0. -1.
         11   -1    0    0    0    0 -0.00000000000E+00 -0.00000000000E+00 -0.45593999997E+02  0.45594000000E+02  0.51100000000E-03 0.  1.
         23    2    1    2    0    0  0.00000000000E+00  0.17763568394E-14 -0.71054273576E-14  0.91188000000E+02  0.91188000000E+02 0.  0.
    9900012    2    3    3    0    0 -0.82323221346E+01  0.84107989867E+01 -0.38918529090E+02  0.50528873425E+02  0.30000041262E+02 0.  0.
         12    1    3    3    0    0  0.82323221346E+01 -0.84107989867E+01  0.38918529090E+02  0.40659126575E+02  0.00000000000E+00 0. -1.
         11    1    4    4    0    0  0.32237188326E+01 -0.16980864976E+01 -0.15632355582E+02  0.16051367611E+02  0.51100000000E-03 0. -1.
        -11    1    4    4    0    0 -0.12005637000E+02  0.13184249993E+02 -0.25157365661E+02  0.30835901396E+02  0.51100000000E-03 0.  1.
         12    1    4    4    0    0  0.54959603286E+00 -0.30753645091E+01  0.18711921530E+01  0.36416044180E+01  0.00000000000E+00 0. -1.
</event>
<event>
 8    1  0.7977359E-012  0.9118800E+02  0.7816164E-02  0.1184000E+00
        -11   -1    0    0    0    0  0.00000000000E+00  0.00000000000E+00  0.45593999997E+02  0.45594000000E+02  0.51100000000E-03 0. -1.
         11   -1    0    0    0    0 -0.00000000000E+00 -0.00000000000E+00 -0.45593999997E+02  0.45594000000E+02  0.51100000000E-03 0.  1.
         23    2    1    2    0    0 -0.88817841970E-15  0.00000000000E+00  0.00000000000E+00  0.91188000000E+02  0.91188000000E+02 0.  0.
    9900012    2    3    3    0    0  0.34015775989E+01  0.30066575758E+02 -0.27158730720E+02  0.50528851432E+02  0.29999974413E+02 0.  0.
         12    1    3    3    0    0 -0.34015775989E+01 -0.30066575758E+02  0.27158730720E+02  0.40659148568E+02  0.00000000000E+00 0. -1.
         11    1    4    4    0    0 -0.28764022097E+01  0.24802729845E+02 -0.14463418720E+02  0.28855494776E+02  0.51100000000E-03 0. -1.
        -11    1    4    4    0    0  0.46703031384E+01  0.97401079706E+01 -0.35589086827E+01  0.11373093948E+02  0.51100000000E-03 0.  1.
        -12    1    4    4    0    0  0.16076766703E+01 -0.44762620577E+01 -0.91364033169E+01  0.10300262708E+02  0.00000000000E+00 0.  1.
</event>
<event>
 8    1  0.7977359E-012  0.9118800E+02  0.7816164E-02  0.1184000E+00
        -11   -1    0    0    0    0  0.00000000000E+00  0.00000000000E+00  0.45593999997E+02  0.45594000000E+02  0.51100000000E-03 0. -1.
         11   -1    0    0    0    0 -0.00000000000E+00 -0.00000000000E+00 -0.45593999997E+02  0.45594000000E+02  0.51100000000E-03 0.  1.
         23    2    1    2    0    0  0.00000000000E+00  0.00000000000E+00  0.71054273576E-14  0.91188000000E+02  0.91188000000E+02 0.  0.
    9900012    2    3    3    0    0  0.78982239459E+01 -0.50162947214E+01  0.39567806011E+02  0.50528973612E+02  0.30000345790E+02 0.  0.
        -12    1    3    3    0    0 -0.78982239459E+01  0.50162947214E+01 -0.39567806011E+02  0.40659026388E+02  0.00000000000E+00 0.  1.
         11    1    4    4    0    0  0.12049434783E+01 -0.83244444031E+01  0.72951494094E+01  0.11134067926E+02  0.51100000000E-03 0. -1.
        -11    1    4    4    0    0 -0.14211327882E+01  0.10795102715E+02  0.20770123376E+02  0.23451052990E+02  0.51100000000E-03 0.  1.
         12    1    4    4    0    0  0.81144132558E+01 -0.74869530331E+01  0.11502533226E+02  0.15943852697E+02  0.00000000000E+00 0. -1.
</event>
<event>
 8    1  0.7977359E-012  0.9118800E+02  0.7816164E-02  0.1184000E+00
        -11   -1    0    0    0    0  0.00000000000E+00  0.00000000000E+00  0.45593999997E+02  0.45594000000E+02  0.51100000000E-03 0. -1.
         11   -1    0    0    0    0 -0.00000000000E+00 -0.00000000000E+00 -0.45593999997E+02  0.45594000000E+02  0.51100000000E-03 0.  1.
         23    2    1    2    0    0  0.22204460493E-15  0.00000000000E+00  0.00000000000E+00  0.91188000000E+02  0.91188000000E+02 0.  0.
    9900012    2    3    3    0    0  0.16039380915E+01 -0.12583212956E+02 -0.38629726700E+02  0.50528860184E+02  0.30000001015E+02 0.  0.
         12    1    3    3    0    0 -0.16039380915E+01  0.12583212956E+02  0.38629726700E+02  0.40659139816E+02  0.00000000000E+00 0. -1.
         11    1    4    4    0    0  0.94608698308E+00 -0.57982511261E+01 -0.12695341305E+02  0.13988798655E+02  0.51100000000E-03 0.  1.
        -11    1    4    4    0    0 -0.49968677711E+01  0.79332713629E+01 -0.13614201894E+02  0.16530335009E+02  0.51100000000E-03 0. -1.
         12    1    4    4    0    0  0.56547188795E+01 -0.14718233192E+02 -0.12320183500E+02  0.20009726520E+02  0.00000000000E+00 0. -1.
</event>
<event>
 8    1  0.7977359E-012  0.9118800E+02  0.7816164E-02  0.1184000E+00
        -11   -1    0    0    0    0  0.00000000000E+00  0.00000000000E+00  0.45593999997E+02  0.45594000000E+02  0.51100000000E-03 0. -1.
         11   -1    0    0    0    0 -0.00000000000E+00 -0.00000000000E+00 -0.45593999997E+02  0.45594000000E+02  0.51100000000E-03 0.  1.
         23    2    1    2    0    0  0.00000000000E+00  0.00000000000E+00 -0.71054273576E-14  0.91188000000E+02  0.91188000000E+02 0.  0.
    9900012    2    3    3    0    0 -0.13372272324E+02  0.22816266844E+02 -0.30883094727E+02  0.50528865237E+02  0.30000016373E+02 0.  0.
         12    1    3    3    0    0  0.13372272324E+02 -0.22816266844E+02  0.30883094727E+02  0.40659134763E+02  0.00000000000E+00 0. -1.
         11    1    4    4    0    0  0.16879090558E+01  0.93784486968E+01 -0.37473851875E+01  0.10239493784E+02  0.51100000000E-03 0.  1.
        -11    1    4    4    0    0  0.56635020755E+01  0.14840912066E+01 -0.55130320855E+01  0.80418471451E+01  0.51100000000E-03 0. -1.
         12    1    4    4    0    0 -0.20723683455E+02  0.11953726941E+02 -0.21622677454E+02  0.32247524308E+02  0.00000000000E+00 0. -1.
</event>
<event>
 8    1  0.7977359E-012  0.9118800E+02  0.7816164E-02  0.1184000E+00
        -11   -1    0    0    0    0  0.00000000000E+00  0.00000000000E+00  0.45593999997E+02  0.45594000000E+02  0.51100000000E-03 0. -1.
         11   -1    0    0    0    0 -0.00000000000E+00 -0.00000000000E+00 -0.45593999997E+02  0.45594000000E+02  0.51100000000E-03 0.  1.
         23    2    1    2    0    0 -0.44408920985E-15  0.00000000000E+00  0.00000000000E+00  0.91188000000E+02  0.91188000000E+02 0.  0.
    9900012    2    3    3    0    0 -0.25187173759E+01  0.32600065870E+02  0.24167262747E+02  0.50528870391E+02  0.30000032039E+02 0.  0.
        -12    1    3    3    0    0  0.25187173759E+01 -0.32600065870E+02 -0.24167262747E+02  0.40659129609E+02  0.00000000000E+00 0.  1.
         11    1    4    4    0    0 -0.54833065048E+01  0.15470434733E+02  0.51621523491E+01  0.17206069225E+02  0.51100000000E-03 0. -1.
        -11    1    4    4    0    0  0.92680630487E+00  0.18258233626E+02  0.47637744992E+01  0.18892210374E+02  0.51100000000E-03 0.  1.
        -12    1    4    4    0    0  0.20377828240E+01 -0.11286024892E+01  0.14241335899E+02  0.14430590792E+02  0.00000000000E+00 0.  1.
</event>
<event>
 8    1  0.7977359E-012  0.9118800E+02  0.7816164E-02  0.1184000E+00
        -11   -1    0    0    0    0  0.00000000000E+00  0.00000000000E+00  0.45593999997E+02  0.45594000000E+02  0.51100000000E-03 0. -1.
         11   -1    0    0    0    0 -0.00000000000E+00 -0.00000000000E+00 -0.45593999997E+02  0.45594000000E+02  0.51100000000E-03 0.  1.
         23    2    1    2    0    0  0.88817841970E-15  0.00000000000E+00  0.71054273576E-14  0.91188000000E+02  0.91188000000E+02 0.  0.
    9900012    2    3    3    0    0  0.11921308449E+01 -0.18143860754E+02  0.36366814826E+02  0.50528854909E+02  0.29999984980E+02 0.  0.
        -12    1    3    3    0    0 -0.11921308449E+01  0.18143860754E+02 -0.36366814826E+02  0.40659145091E+02  0.00000000000E+00 0.  1.
         11    1    4    4    0    0  0.14429577437E+02 -0.12297790769E+02  0.25833332308E+02  0.32043867138E+02  0.51100000000E-03 0. -1.
        -11    1    4    4    0    0 -0.46086632105E+00  0.68819479636E+00  0.41897248681E+00  0.92819612660E+00  0.51100000000E-03 0.  1.
        -12    1    4    4    0    0 -0.12776580271E+02 -0.65342647818E+01  0.10114510031E+02  0.17556791644E+02  0.00000000000E+00 0.  1.
</event>
<event>
 8    1  0.7977359E-012  0.9118800E+02  0.7816164E-02  0.1184000E+00
        -11   -1    0    0    0    0  0.00000000000E+00  0.00000000000E+00  0.45593999997E+02  0.45594000000E+02  0.51100000000E-03 0. -1.
         11   -1    0    0    0    0 -0.00000000000E+00 -0.00000000000E+00 -0.45593999997E+02  0.45594000000E+02  0.51100000000E-03 0.  1.
         23    2    1    2    0    0 -0.35527136788E-14  0.17763568394E-14 -0.35527136788E-14  0.91188000000E+02  0.91188000000E+02 0.  0.
    9900012    2    3    3    0    0  0.25342353669E+02 -0.12824049128E+02  0.29094238886E+02  0.50528857586E+02  0.29999993118E+02 0.  0.
        -12    1    3    3    0    0 -0.25342353669E+02  0.12824049128E+02 -0.29094238886E+02  0.40659142414E+02  0.00000000000E+00 0.  1.
         11    1    4    4    0    0 -0.19740844185E+01 -0.66726097422E+01  0.25237446085E+01  0.74020279095E+01  0.51100000000E-03 0. -1.
        -11    1    4    4    0    0  0.67595135942E+01 -0.56081850913E+01 -0.88099781466E+00  0.88271695044E+01  0.51100000000E-03 0.  1.
         12    1    4    4    0    0  0.20556924493E+02 -0.54325429427E+00  0.27451492092E+02  0.34299660172E+02  0.00000000000E+00 0. -1.
</event>
<event>
 8    1  0.7977359E-012  0.9118800E+02  0.7816164E-02  0.1184000E+00
        -11   -1    0    0    0    0  0.00000000000E+00  0.00000000000E+00  0.45593999997E+02  0.45594000000E+02  0.51100000000E-03 0. -1.
         11   -1    0    0    0    0 -0.00000000000E+00 -0.00000000000E+00 -0.45593999997E+02  0.45594000000E+02  0.51100000000E-03 0.  1.
         23    2    1    2    0    0  0.00000000000E+00 -0.17763568394E-14  0.71054273576E-14  0.91188000000E+02  0.91188000000E+02 0.  0.
    9900012    2    3    3    0    0  0.13652989990E+02  0.13192357271E+02 -0.35954460824E+02  0.50528859832E+02  0.29999999945E+02 0.  0.
         12    1    3    3    0    0 -0.13652989990E+02 -0.13192357271E+02  0.35954460824E+02  0.40659140168E+02  0.00000000000E+00 0. -1.
         11    1    4    4    0    0 -0.20314861628E+01 -0.18754297415E+01 -0.13738861134E+02  0.14014295496E+02  0.51100000000E-03 0. -1.
        -11    1    4    4    0    0  0.40285292874E+01  0.56882004121E+01 -0.20260714456E+02  0.21426180777E+02  0.51100000000E-03 0.  1.
         12    1    4    4    0    0  0.11655946866E+02  0.93795866008E+01 -0.19548852342E+01  0.15088383559E+02  0.00000000000E+00 0. -1.
</event>
<event>
 8    1  0.7977359E-012  0.9118800E+02  0.7816164E-02  0.1184000E+00
        -11   -1    0    0    0    0  0.00000000000E+00  0.00000000000E+00  0.45593999997E+02  0.45594000000E+02  0.51100000000E-03 0. -1.
         11   -1    0    0    0    0 -0.00000000000E+00 -0.00000000000E+00 -0.45593999997E+02  0.45594000000E+02  0.51100000000E-03 0.  1.
         23    2    1    2    0    0  0.35527136788E-14 -0.71054273576E-14  0.17763568394E-14  0.91188000000E+02  0.91188000000E+02 0.  0.
    9900012    2    3    3    0    0  0.16951186674E+02 -0.34612364719E+02  0.12954065430E+02  0.50528851802E+02  0.29999975536E+02 0.  0.
        -12    1    3    3    0    0 -0.16951186674E+02  0.34612364719E+02 -0.12954065430E+02  0.40659148198E+02  0.00000000000E+00 0.  1.
         11    1    4    4    0    0  0.11582505652E+02 -0.22716590784E+02  0.59894625289E+01  0.26192968440E+02  0.51100000000E-03 0. -1.
        -11    1    4    4    0    0  0.17660213079E+01 -0.78119997441E+01 -0.61745237666E+01  0.10112908349E+02  0.51100000000E-03 0.  1.
         12    1    4    4    0    0  0.36026597138E+01 -0.40837741903E+01  0.13139126667E+02  0.14222975013E+02  0.00000000000E+00 0. -1.
</event>
<event>
 8    1  0.7977359E-012  0.9118800E+02  0.7816164E-02  0.1184000E+00
        -11   -1    0    0    0    0  0.00000000000E+00  0.00000000000E+00  0.45593999997E+02  0.45594000000E+02  0.51100000000E-03 0.  1.
         11   -1    0    0    0    0 -0.00000000000E+00 -0.00000000000E+00 -0.45593999997E+02  0.45594000000E+02  0.51100000000E-03 0. -1.
         23    2    1    2    0    0  0.00000000000E+00  0.35527136788E-14  0.00000000000E+00  0.91188000000E+02  0.91188000000E+02 0.  0.
    9900012    2    3    3    0    0  0.23964400386E+02 -0.30407613132E+02 -0.12419691583E+02  0.50528878498E+02  0.30000056684E+02 0.  0.
         12    1    3    3    0    0 -0.23964400386E+02  0.30407613132E+02  0.12419691583E+02  0.40659121502E+02  0.00000000000E+00 0. -1.
         11    1    4    4    0    0  0.19970028258E+01 -0.11306462789E+02  0.65888341941E+01  0.13237705896E+02  0.51100000000E-03 0. -1.
        -11    1    4    4    0    0  0.42934933053E+01  0.76966111778E+00  0.38260706134E+00  0.43786814709E+01  0.51100000000E-03 0.  1.
        -12    1    4    4    0    0  0.17673904255E+02 -0.19870811461E+02 -0.19391132838E+02  0.32912491132E+02  0.00000000000E+00 0.  1.
</event>
<event>
 8    1  0.7977359E-012  0.9118800E+02  0.7816164E-02  0.1184000E+00
        -11   -1    0    0    0    0  0.00000000000E+00  0.00000000000E+00  0.45593999997E+02  0.45594000000E+02  0.51100000000E-03 0. -1.
         11   -1    0    0    0    0 -0.00000000000E+00 -0.00000000000E+00 -0.45593999997E+02  0.45594000000E+02  0.51100000000E-03 0.  1.
         23    2    1    2    0    0  0.00000000000E+00  0.44408920985E-15 -0.71054273576E-14  0.91188000000E+02  0.91188000000E+02 0.  0.
    9900012    2    3    3    0    0 -0.18523579753E+02  0.31138991548E+01 -0.36060320109E+02  0.50528855135E+02  0.29999985669E+02 0.  0.
         12    1    3    3    0    0  0.18523579753E+02 -0.31138991548E+01  0.36060320109E+02  0.40659144865E+02  0.00000000000E+00 0. -1.
         11    1    4    4    0    0 -0.69494920541E+01  0.13233281889E+01  0.86552507392E+00  0.71271152103E+01  0.51100000000E-03 0. -1.
        -11    1    4    4    0    0 -0.60851919374E+00  0.42099018867E+01  0.54134940221E+00  0.42879632626E+01  0.51100000000E-03 0.  1.
        -12    1    4    4    0    0 -0.10965568505E+02 -0.24193309208E+01 -0.37467194585E+02  0.39113776662E+02  0.00000000000E+00 0.  1.
</event>
<event>
 8    1  0.7977359E-012  0.9118800E+02  0.7816164E-02  0.1184000E+00
        -11   -1    0    0    0    0  0.00000000000E+00  0.00000000000E+00  0.45593999997E+02  0.45594000000E+02  0.51100000000E-03 0. -1.
         11   -1    0    0    0    0 -0.00000000000E+00 -0.00000000000E+00 -0.45593999997E+02  0.45594000000E+02  0.51100000000E-03 0.  1.
         23    2    1    2    0    0  0.00000000000E+00  0.00000000000E+00  0.00000000000E+00  0.91188000000E+02  0.91188000000E+02 0.  0.
    9900012    2    3    3    0    0  0.22479781515E+02  0.22548871397E+01 -0.33804448706E+02  0.50528857789E+02  0.29999993736E+02 0.  0.
         12    1    3    3    0    0 -0.22479781515E+02 -0.22548871397E+01  0.33804448706E+02  0.40659142211E+02  0.00000000000E+00 0. -1.
         11    1    4    4    0    0  0.14659893753E+01 -0.20298119557E+01 -0.19647458205E+02  0.19806359474E+02  0.51100000000E-03 0.  1.
        -11    1    4    4    0    0  0.10003617897E+01  0.43054843844E+01 -0.90438153435E+01  0.10066206620E+02  0.51100000000E-03 0. -1.
         12    1    4    4    0    0  0.20013430350E+02 -0.20785288915E-01 -0.51131751577E+01  0.20656291695E+02  0.00000000000E+00 0. -1.
</event>
<event>
 8    1  0.7977359E-012  0.9118800E+02  0.7816164E-02  0.1184000E+00
        -11   -1    0    0    0    0  0.00000000000E+00  0.00000000000E+00  0.45593999997E+02  0.45594000000E+02  0.51100000000E-03 0. -1.
         11   -1    0    0    0    0 -0.00000000000E+00 -0.00000000000E+00 -0.45593999997E+02  0.45594000000E+02  0.51100000000E-03 0.  1.
         23    2    1    2    0    0  0.00000000000E+00  0.88817841970E-15  0.00000000000E+00  0.91188000000E+02  0.91188000000E+02 0.  0.
    9900012    2    3    3    0    0 -0.34261470335E+02 -0.53536082205E+01 -0.21228692322E+02  0.50528845456E+02  0.29999956249E+02 0.  0.
         12    1    3    3    0    0  0.34261470335E+02  0.53536082205E+01  0.21228692322E+02  0.40659154544E+02  0.00000000000E+00 0. -1.
         11    1    4    4    0    0 -0.13839528017E+02 -0.33811652033E+01  0.22785603479E+01  0.14427634990E+02  0.51100000000E-03 0. -1.
        -11    1    4    4    0    0 -0.70695134335E+01 -0.57104213902E+01 -0.33091472103E+00  0.90937581590E+01  0.51100000000E-03 0.  1.
        -12    1    4    4    0    0 -0.13352428884E+02  0.37379783731E+01 -0.23176337949E+02  0.27007452308E+02  0.00000000000E+00 0.  1.
</event>
<event>
 8    1  0.7977359E-012  0.9118800E+02  0.7816164E-02  0.1184000E+00
        -11   -1    0    0    0    0  0.00000000000E+00  0.00000000000E+00  0.45593999997E+02  0.45594000000E+02  0.51100000000E-03 0. -1.
         11   -1    0    0    0    0 -0.00000000000E+00 -0.00000000000E+00 -0.45593999997E+02  0.45594000000E+02  0.51100000000E-03 0.  1.
         23    2    1    2    0    0  0.00000000000E+00  0.00000000000E+00  0.00000000000E+00  0.91188000000E+02  0.91188000000E+02 0.  0.
    9900012    2    3    3    0    0  0.82843313396E+01  0.32431144933E+02 -0.23081518737E+02  0.50528858167E+02  0.29999994885E+02 0.  0.
         12    1    3    3    0    0 -0.82843313396E+01 -0.32431144933E+02  0.23081518737E+02  0.40659141833E+02  0.00000000000E+00 0. -1.
         11    1    4    4    0    0  0.16785712946E+02  0.30632568879E+02 -0.21466266545E+02  0.40998963826E+02  0.51100000000E-03 0.  1.
        -11    1    4    4    0    0 -0.16928298187E+01  0.17980836542E+01  0.21707632624E+00  0.24790925790E+01  0.51100000000E-03 0. -1.
        -12    1    4    4    0    0 -0.68085517874E+01  0.49239967971E-03 -0.18323285182E+01  0.70508017617E+01  0.00000000000E+00 0.  1.
</event>
<event>
 8    1  0.7977359E-012  0.9118800E+02  0.7816164E-02  0.1184000E+00
        -11   -1    0    0    0    0  0.00000000000E+00  0.00000000000E+00  0.45593999997E+02  0.45594000000E+02  0.51100000000E-03 0.  1.
         11   -1    0    0    0    0 -0.00000000000E+00 -0.00000000000E+00 -0.45593999997E+02  0.45594000000E+02  0.51100000000E-03 0. -1.
         23    2    1    2    0    0  0.00000000000E+00 -0.71054273576E-14  0.00000000000E+00  0.91188000000E+02  0.91188000000E+02 0.  0.
    9900012    2    3    3    0    0 -0.19957538271E+02 -0.33075242038E+02 -0.12684374963E+02  0.50528827137E+02  0.29999900567E+02 0.  0.
         12    1    3    3    0    0  0.19957538271E+02  0.33075242038E+02  0.12684374963E+02  0.40659172863E+02  0.00000000000E+00 0. -1.
         11    1    4    4    0    0 -0.18206455856E+02 -0.11874041635E+02 -0.10729255082E+02  0.24240148813E+02  0.51100000000E-03 0. -1.
        -11    1    4    4    0    0 -0.18382040857E+01 -0.20475653963E+02 -0.65962891001E+01  0.21590331855E+02  0.51100000000E-03 0.  1.
         12    1    4    4    0    0  0.87121671181E-01 -0.72554643938E+00  0.46411692194E+01  0.46983464692E+01  0.00000000000E+00 0. -1.
</event>
<event>
 8    1  0.7977359E-012  0.9118800E+02  0.7816164E-02  0.1184000E+00
        -11   -1    0    0    0    0  0.00000000000E+00  0.00000000000E+00  0.45593999997E+02  0.45594000000E+02  0.51100000000E-03 0. -1.
         11   -1    0    0    0    0 -0.00000000000E+00 -0.00000000000E+00 -0.45593999997E+02  0.45594000000E+02  0.51100000000E-03 0.  1.
         23    2    1    2    0    0  0.00000000000E+00  0.00000000000E+00 -0.35527136788E-14  0.91188000000E+02  0.91188000000E+02 0.  0.
    9900012    2    3    3    0    0  0.21119801505E+02 -0.19684565530E+02  0.28629304140E+02  0.50528865833E+02  0.30000018185E+02 0.  0.
        -12    1    3    3    0    0 -0.21119801505E+02  0.19684565530E+02 -0.28629304140E+02  0.40659134167E+02  0.00000000000E+00 0.  1.
         11    1    4    4    0    0  0.16963063378E+02 -0.23018913157E+02  0.16754037127E+02  0.33140815355E+02  0.51100000000E-03 0. -1.
        -11    1    4    4    0    0  0.42330729881E+01 -0.37224188901E+01  0.55636071739E+01  0.79201663090E+01  0.51100000000E-03 0.  1.
        -12    1    4    4    0    0 -0.76334860829E-01  0.70567665179E+01  0.63116598392E+01  0.94678841683E+01  0.00000000000E+00 0.  1.
</event>
<event>
 8    1  0.7977359E-012  0.9118800E+02  0.7816164E-02  0.1184000E+00
        -11   -1    0    0    0    0  0.00000000000E+00  0.00000000000E+00  0.45593999997E+02  0.45594000000E+02  0.51100000000E-03 0. -1.
         11   -1    0    0    0    0 -0.00000000000E+00 -0.00000000000E+00 -0.45593999997E+02  0.45594000000E+02  0.51100000000E-03 0.  1.
         23    2    1    2    0    0 -0.17763568394E-14 -0.10658141036E-13 -0.71054273576E-14  0.91188000000E+02  0.91188000000E+02 0.  0.
    9900012    2    3    3    0    0 -0.12567857517E+02 -0.28859192945E+02 -0.25736386638E+02  0.50528860103E+02  0.30000000768E+02 0.  0.
         12    1    3    3    0    0  0.12567857517E+02  0.28859192945E+02  0.25736386638E+02  0.40659139897E+02  0.00000000000E+00 0. -1.
         11    1    4    4    0    0 -0.64681522224E+01 -0.17648110063E+02 -0.23268496450E+01  0.18939562073E+02  0.51100000000E-03 0. -1.
        -11    1    4    4    0    0 -0.50152043416E+01 -0.15545454608E+02 -0.15572151823E+02  0.22567794447E+02  0.51100000000E-03 0.  1.
        -12    1    4    4    0    0 -0.10845009533E+01  0.43343717264E+01 -0.78373851704E+01  0.90215035825E+01  0.00000000000E+00 0.  1.
</event>
<event>
 8    1  0.7977359E-012  0.9118800E+02  0.7816164E-02  0.1184000E+00
        -11   -1    0    0    0    0  0.00000000000E+00  0.00000000000E+00  0.45593999997E+02  0.45594000000E+02  0.51100000000E-03 0. -1.
         11   -1    0    0    0    0 -0.00000000000E+00 -0.00000000000E+00 -0.45593999997E+02  0.45594000000E+02  0.51100000000E-03 0.  1.
         23    2    1    2    0    0 -0.35527136788E-14  0.00000000000E+00  0.71054273576E-14  0.91188000000E+02  0.91188000000E+02 0.  0.
    9900012    2    3    3    0    0  0.14568931514E+02 -0.28577148668E+01 -0.37851619581E+02  0.50528863208E+02  0.30000010207E+02 0.  0.
         12    1    3    3    0    0 -0.14568931514E+02  0.28577148668E+01  0.37851619581E+02  0.40659136792E+02  0.00000000000E+00 0. -1.
         11    1    4    4    0    0  0.58639782989E+01  0.43402622096E+01 -0.21382176302E+02  0.22592511618E+02  0.51100000000E-03 0. -1.
        -11    1    4    4    0    0  0.14340050370E+02 -0.84784861885E+01 -0.13482571611E+02  0.21431320776E+02  0.51100000000E-03 0.  1.
         12    1    4    4    0    0 -0.56350971552E+01  0.12805091121E+01 -0.29868716680E+01  0.65050308144E+01  0.00000000000E+00 0. -1.
</event>
<event>
 8    1  0.7977359E-012  0.9118800E+02  0.7816164E-02  0.1184000E+00
        -11   -1    0    0    0    0  0.00000000000E+00  0.00000000000E+00  0.45593999997E+02  0.45594000000E+02  0.51100000000E-03 0. -1.
         11   -1    0    0    0    0 -0.00000000000E+00 -0.00000000000E+00 -0.45593999997E+02  0.45594000000E+02  0.51100000000E-03 0.  1.
         23    2    1    2    0    0  0.00000000000E+00 -0.88817841970E-15  0.00000000000E+00  0.91188000000E+02  0.91188000000E+02 0.  0.
    9900012    2    3    3    0    0  0.18943940191E+02 -0.48366942976E+01 -0.35649647626E+02  0.50528882234E+02  0.30000068038E+02 0.  0.
         12    1    3    3    0    0 -0.18943940191E+02  0.48366942976E+01  0.35649647626E+02  0.40659117766E+02  0.00000000000E+00 0. -1.
         11    1    4    4    0    0 -0.16004007544E+01  0.82755271509E+00  0.31242159246E+01  0.36065012790E+01  0.51100000000E-03 0. -1.
        -11    1    4    4    0    0  0.17233447342E+02 -0.77527858678E+01 -0.19120348457E+02  0.26882803451E+02  0.51100000000E-03 0.  1.
        -12    1    4    4    0    0  0.33108936032E+01  0.20885388552E+01 -0.19653515094E+02  0.20039577504E+02  0.00000000000E+00 0.  1.
</event>
<event>
 8    1  0.7977359E-012  0.9118800E+02  0.7816164E-02  0.1184000E+00
        -11   -1    0    0    0    0  0.00000000000E+00  0.00000000000E+00  0.45593999997E+02  0.45594000000E+02  0.51100000000E-03 0. -1.
         11   -1    0    0    0    0 -0.00000000000E+00 -0.00000000000E+00 -0.45593999997E+02  0.45594000000E+02  0.51100000000E-03 0.  1.
         23    2    1    2    0    0 -0.71054273576E-14  0.17763568394E-14  0.17763568394E-14  0.91188000000E+02  0.91188000000E+02 0.  0.
    9900012    2    3    3    0    0 -0.37636256729E+02  0.11139350606E+02 -0.10610963624E+02  0.50528862017E+02  0.30000006587E+02 0.  0.
         12    1    3    3    0    0  0.37636256729E+02 -0.11139350606E+02  0.10610963624E+02  0.40659137983E+02  0.00000000000E+00 0. -1.
         11    1    4    4    0    0  0.14066492036E+01  0.19445520037E+01  0.26428525093E+01  0.35699599612E+01  0.51100000000E-03 0. -1.
        -11    1    4    4    0    0 -0.97721208077E+01 -0.24814390741E+01 -0.11646393500E+02  0.15404232106E+02  0.51100000000E-03 0.  1.
        -12    1    4    4    0    0 -0.29270785125E+02  0.11676237677E+02 -0.16074226325E+01  0.31554669950E+02  0.00000000000E+00 0.  1.
</event>
<event>
 8    1  0.7977359E-012  0.9118800E+02  0.7816164E-02  0.1184000E+00
        -11   -1    0    0    0    0  0.00000000000E+00  0.00000000000E+00  0.45593999997E+02  0.45594000000E+02  0.51100000000E-03 0. -1.
         11   -1    0    0    0    0 -0.00000000000E+00 -0.00000000000E+00 -0.45593999997E+02  0.45594000000E+02  0.51100000000E-03 0.  1.
         23    2    1    2    0    0  0.35527136788E-14 -0.15543122345E-14  0.71054273576E-14  0.91188000000E+02  0.91188000000E+02 0.  0.
    9900012    2    3    3    0    0 -0.21278278420E+02 -0.87623417820E+00 -0.34635721461E+02  0.50528854412E+02  0.29999983470E+02 0.  0.
         12    1    3    3    0    0  0.21278278420E+02  0.87623417820E+00  0.34635721461E+02  0.40659145588E+02  0.00000000000E+00 0. -1.
         11    1    4    4    0    0 -0.56331617420E+01 -0.12483492398E+01 -0.22396664488E+02  0.23127936949E+02  0.51100000000E-03 0.  1.
        -11    1    4    4    0    0  0.10976872569E+01  0.60574907130E+01 -0.61455728188E+01  0.86986307304E+01  0.51100000000E-03 0. -1.
        -12    1    4    4    0    0 -0.16742803935E+02 -0.56853756514E+01 -0.60934841538E+01  0.18702286733E+02  0.00000000000E+00 0.  1.
</event>
<event>
 8    1  0.7977359E-012  0.9118800E+02  0.7816164E-02  0.1184000E+00
        -11   -1    0    0    0    0  0.00000000000E+00  0.00000000000E+00  0.45593999997E+02  0.45594000000E+02  0.51100000000E-03 0.  1.
         11   -1    0    0    0    0 -0.00000000000E+00 -0.00000000000E+00 -0.45593999997E+02  0.45594000000E+02  0.51100000000E-03 0. -1.
         23    2    1    2    0    0  0.00000000000E+00 -0.71054273576E-14  0.00000000000E+00  0.91188000000E+02  0.91188000000E+02 0.  0.
    9900012    2    3    3    0    0  0.20249111196E+02 -0.32861535371E+02 -0.12777279682E+02  0.50528857274E+02  0.29999992170E+02 0.  0.
         12    1    3    3    0    0 -0.20249111196E+02  0.32861535371E+02  0.12777279682E+02  0.40659142726E+02  0.00000000000E+00 0. -1.
         11    1    4    4    0    0  0.39238432009E+00  0.12591251097E+00 -0.34314702126E+01  0.34561260823E+01  0.51100000000E-03 0. -1.
        -11    1    4    4    0    0 -0.42054847955E+01 -0.12725757920E+01  0.30833418229E+01  0.53677321626E+01  0.51100000000E-03 0.  1.
        -12    1    4    4    0    0  0.24062211671E+02 -0.31714872089E+02 -0.12429151293E+02  0.41704999029E+02  0.00000000000E+00 0.  1.
</event>
<event>
 8    1  0.7977359E-012  0.9118800E+02  0.7816164E-02  0.1184000E+00
        -11   -1    0    0    0    0  0.00000000000E+00  0.00000000000E+00  0.45593999997E+02  0.45594000000E+02  0.51100000000E-03 0. -1.
         11   -1    0    0    0    0 -0.00000000000E+00 -0.00000000000E+00 -0.45593999997E+02  0.45594000000E+02  0.51100000000E-03 0.  1.
         23    2    1    2    0    0  0.00000000000E+00 -0.35527136788E-14  0.00000000000E+00  0.91188000000E+02  0.91188000000E+02 0.  0.
    9900012    2    3    3    0    0  0.13645915486E+02 -0.18221009988E+02 -0.33689010193E+02  0.50528860533E+02  0.30000002077E+02 0.  0.
         12    1    3    3    0    0 -0.13645915486E+02  0.18221009988E+02  0.33689010193E+02  0.40659139467E+02  0.00000000000E+00 0. -1.
         11    1    4    4    0    0  0.79837607031E+01 -0.92367859056E+00  0.11737830258E+00  0.80378725438E+01  0.51100000000E-03 0. -1.
        -11    1    4    4    0    0  0.61605067460E+00 -0.91765156961E+00 -0.21165391655E+02  0.21194230513E+02  0.51100000000E-03 0.  1.
         12    1    4    4    0    0  0.50461041083E+01 -0.16379679828E+02 -0.12640996840E+02  0.21296757477E+02  0.00000000000E+00 0. -1.
</event>
<event>
 8    1  0.7977359E-012  0.9118800E+02  0.7816164E-02  0.1184000E+00
        -11   -1    0    0    0    0  0.00000000000E+00  0.00000000000E+00  0.45593999997E+02  0.45594000000E+02  0.51100000000E-03 0. -1.
         11   -1    0    0    0    0 -0.00000000000E+00 -0.00000000000E+00 -0.45593999997E+02  0.45594000000E+02  0.51100000000E-03 0.  1.
         23    2    1    2    0    0  0.00000000000E+00 -0.17763568394E-14  0.00000000000E+00  0.91188000000E+02  0.91188000000E+02 0.  0.
    9900012    2    3    3    0    0  0.18943217656E+02 -0.14885927457E+02 -0.32752501724E+02  0.50528896461E+02  0.30000111283E+02 0.  0.
         12    1    3    3    0    0 -0.18943217656E+02  0.14885927457E+02  0.32752501724E+02  0.40659103539E+02  0.00000000000E+00 0. -1.
         11    1    4    4    0    0  0.43576880046E+01 -0.12534849905E+01 -0.26079304825E+02  0.26470564969E+02  0.51100000000E-03 0. -1.
        -11    1    4    4    0    0  0.46331338077E+01  0.10150928878E+01 -0.38857878769E+01  0.61315324460E+01  0.51100000000E-03 0.  1.
         12    1    4    4    0    0  0.99523958441E+01 -0.14647535354E+02 -0.27874090219E+01  0.17926799046E+02  0.00000000000E+00 0. -1.
</event>
<event>
 8    1  0.7977359E-012  0.9118800E+02  0.7816164E-02  0.1184000E+00
        -11   -1    0    0    0    0  0.00000000000E+00  0.00000000000E+00  0.45593999997E+02  0.45594000000E+02  0.51100000000E-03 0.  1.
         11   -1    0    0    0    0 -0.00000000000E+00 -0.00000000000E+00 -0.45593999997E+02  0.45594000000E+02  0.51100000000E-03 0. -1.
         23    2    1    2    0    0 -0.17763568394E-14 -0.71054273576E-14  0.00000000000E+00  0.91188000000E+02  0.91188000000E+02 0.  0.
    9900012    2    3    3    0    0  0.10284986533E+02  0.38867705990E+02 -0.60569623655E+01  0.50528852075E+02  0.29999976367E+02 0.  0.
        -12    1    3    3    0    0 -0.10284986533E+02 -0.38867705990E+02  0.60569623655E+01  0.40659147925E+02  0.00000000000E+00 0.  1.
         11    1    4    4    0    0  0.96760927655E+01  0.12692591420E+02 -0.29091967611E+01  0.16223195561E+02  0.51100000000E-03 0. -1.
        -11    1    4    4    0    0  0.20787330963E+01 -0.36843529542E+01 -0.90490587120E+00  0.43260192873E+01  0.51100000000E-03 0.  1.
        -12    1    4    4    0    0 -0.14698393283E+01  0.29859467524E+02 -0.22428597332E+01  0.29979637226E+02  0.00000000000E+00 0.  1.
</event>
<event>
 8    1  0.7977359E-012  0.9118800E+02  0.7816164E-02  0.1184000E+00
        -11   -1    0    0    0    0  0.00000000000E+00  0.00000000000E+00  0.45593999997E+02  0.45594000000E+02  0.51100000000E-03 0. -1.
         11   -1    0    0    0    0 -0.00000000000E+00 -0.00000000000E+00 -0.45593999997E+02  0.45594000000E+02  0.51100000000E-03 0.  1.
         23    2    1    2    0    0  0.00000000000E+00  0.00000000000E+00 -0.88817841970E-15  0.91188000000E+02  0.91188000000E+02 0.  0.
    9900012    2    3    3    0    0  0.22162253748E+02  0.33482720912E+02 -0.63956178845E+01  0.50528904843E+02  0.30000136759E+02 0.  0.
        -12    1    3    3    0    0 -0.22162253748E+02 -0.33482720912E+02  0.63956178845E+01  0.40659095157E+02  0.00000000000E+00 0.  1.
         11    1    4    4    0    0  0.98467729556E+01  0.22415988045E+01  0.75600838591E+01  0.12615013716E+02  0.51100000000E-03 0. -1.
        -11    1    4    4    0    0  0.35727368733E+00 -0.68393581153E+00  0.46195512299E+00  0.89934169187E+00  0.51100000000E-03 0.  1.
        -12    1    4    4    0    0  0.11958207105E+02  0.31925057919E+02 -0.14417656867E+02  0.37014549435E+02  0.00000000000E+00 0.  1.
</event>
<event>
 8    1  0.7977359E-012  0.9118800E+02  0.7816164E-02  0.1184000E+00
        -11   -1    0    0    0    0  0.00000000000E+00  0.00000000000E+00  0.45593999997E+02  0.45594000000E+02  0.51100000000E-03 0.  1.
         11   -1    0    0    0    0 -0.00000000000E+00 -0.00000000000E+00 -0.45593999997E+02  0.45594000000E+02  0.51100000000E-03 0. -1.
         23    2    1    2    0    0  0.00000000000E+00  0.00000000000E+00  0.00000000000E+00  0.91188000000E+02  0.91188000000E+02 0.  0.
    9900012    2    3    3    0    0  0.25668385175E+02 -0.25204963257E+02  0.18947525664E+02  0.50528869426E+02  0.30000029106E+02 0.  0.
        -12    1    3    3    0    0 -0.25668385175E+02  0.25204963257E+02 -0.18947525664E+02  0.40659130574E+02  0.00000000000E+00 0.  1.
         11    1    4    4    0    0  0.55807339503E+01 -0.79791352146E+00 -0.84230643921E+00  0.57000647199E+01  0.51100000000E-03 0. -1.
        -11    1    4    4    0    0  0.19298069654E+02 -0.40558787310E+01  0.11591313162E+02  0.22874094206E+02  0.51100000000E-03 0.  1.
        -12    1    4    4    0    0  0.78958157025E+00 -0.20351171004E+02  0.81985189414E+01  0.21954710500E+02  0.00000000000E+00 0.  1.
</event>
<event>
 8    1  0.7977359E-012  0.9118800E+02  0.7816164E-02  0.1184000E+00
        -11   -1    0    0    0    0  0.00000000000E+00  0.00000000000E+00  0.45593999997E+02  0.45594000000E+02  0.51100000000E-03 0. -1.
         11   -1    0    0    0    0 -0.00000000000E+00 -0.00000000000E+00 -0.45593999997E+02  0.45594000000E+02  0.51100000000E-03 0.  1.
         23    2    1    2    0    0 -0.22204460493E-14  0.00000000000E+00  0.00000000000E+00  0.91188000000E+02  0.91188000000E+02 0.  0.
    9900012    2    3    3    0    0  0.34133368346E+01  0.18323878538E+02 -0.36135155680E+02  0.50528869794E+02  0.30000030227E+02 0.  0.
         12    1    3    3    0    0 -0.34133368346E+01 -0.18323878538E+02  0.36135155680E+02  0.40659130206E+02  0.00000000000E+00 0. -1.
         11    1    4    4    0    0  0.83448335415E+00 -0.60554861030E+01 -0.75042503200E+01  0.96787937026E+01  0.51100000000E-03 0. -1.
        -11    1    4    4    0    0  0.72856200623E+01  0.70561735840E+01 -0.15836423947E+02  0.18805907822E+02  0.51100000000E-03 0.  1.
         12    1    4    4    0    0 -0.47067665818E+01  0.17323191057E+02 -0.12794481414E+02  0.22044168270E+02  0.00000000000E+00 0. -1.
</event>
<event>
 8    1  0.7977359E-012  0.9118800E+02  0.7816164E-02  0.1184000E+00
        -11   -1    0    0    0    0  0.00000000000E+00  0.00000000000E+00  0.45593999997E+02  0.45594000000E+02  0.51100000000E-03 0. -1.
         11   -1    0    0    0    0 -0.00000000000E+00 -0.00000000000E+00 -0.45593999997E+02  0.45594000000E+02  0.51100000000E-03 0.  1.
         23    2    1    2    0    0  0.00000000000E+00  0.00000000000E+00  0.00000000000E+00  0.91188000000E+02  0.91188000000E+02 0.  0.
    9900012    2    3    3    0    0  0.30973883485E+02 -0.40326008314E+01  0.26029268916E+02  0.50528853822E+02  0.29999981677E+02 0.  0.
        -12    1    3    3    0    0 -0.30973883485E+02  0.40326008314E+01 -0.26029268916E+02  0.40659146178E+02  0.00000000000E+00 0.  1.
         11    1    4    4    0    0  0.23705284641E+02 -0.84730485923E+01  0.75483824227E+01  0.26281384093E+02  0.51100000000E-03 0. -1.
        -11    1    4    4    0    0  0.55499580515E+01 -0.34785765956E+01  0.40612575538E+01  0.77069022755E+01  0.51100000000E-03 0.  1.
        -12    1    4    4    0    0  0.17186407928E+01  0.79190243564E+01  0.14419628940E+02  0.16540567454E+02  0.00000000000E+00 0.  1.
</event>
<event>
 8    1  0.7977359E-012  0.9118800E+02  0.7816164E-02  0.1184000E+00
        -11   -1    0    0    0    0  0.00000000000E+00  0.00000000000E+00  0.45593999997E+02  0.45594000000E+02  0.51100000000E-03 0. -1.
         11   -1    0    0    0    0 -0.00000000000E+00 -0.00000000000E+00 -0.45593999997E+02  0.45594000000E+02  0.51100000000E-03 0.  1.
         23    2    1    2    0    0  0.88817841970E-15  0.00000000000E+00 -0.71054273576E-14  0.91188000000E+02  0.91188000000E+02 0.  0.
    9900012    2    3    3    0    0  0.72410889066E+01 -0.58048985642E+01 -0.39585799776E+02  0.50528858841E+02  0.29999996934E+02 0.  0.
         12    1    3    3    0    0 -0.72410889066E+01  0.58048985642E+01  0.39585799776E+02  0.40659141159E+02  0.00000000000E+00 0. -1.
         11    1    4    4    0    0  0.13328044242E+02 -0.10583010070E+01 -0.24947071423E+02  0.28303942079E+02  0.51100000000E-03 0. -1.
        -11    1    4    4    0    0 -0.36549765193E+00  0.18915451055E+01  0.23922091706E+01  0.30715136979E+01  0.51100000000E-03 0.  1.
        -12    1    4    4    0    0 -0.57214576838E+01 -0.66381426627E+01 -0.17030937523E+02  0.19153403064E+02  0.00000000000E+00 0.  1.
</event>
<event>
 8    1  0.7977359E-012  0.9118800E+02  0.7816164E-02  0.1184000E+00
        -11   -1    0    0    0    0  0.00000000000E+00  0.00000000000E+00  0.45593999997E+02  0.45594000000E+02  0.51100000000E-03 0. -1.
         11   -1    0    0    0    0 -0.00000000000E+00 -0.00000000000E+00 -0.45593999997E+02  0.45594000000E+02  0.51100000000E-03 0.  1.
         23    2    1    2    0    0 -0.35527136788E-14 -0.35527136788E-14 -0.17763568394E-14  0.91188000000E+02  0.91188000000E+02 0.  0.
    9900012    2    3    3    0    0  0.30099472381E+02  0.25586639991E+02  0.96182944582E+01  0.50528856232E+02  0.29999989003E+02 0.  0.
        -12    1    3    3    0    0 -0.30099472381E+02 -0.25586639991E+02 -0.96182944582E+01  0.40659143768E+02  0.00000000000E+00 0.  1.
         11    1    4    4    0    0  0.32610199877E+01 -0.25680662354E+01 -0.10531017561E+01  0.42823170270E+01  0.51100000000E-03 0.  1.
        -11    1    4    4    0    0  0.18935239865E+02  0.27677585195E+02  0.73708404890E+00  0.33543036895E+02  0.51100000000E-03 0. -1.
         12    1    4    4    0    0  0.79032125286E+01  0.47712103154E+00  0.99343121654E+01  0.12703502310E+02  0.00000000000E+00 0. -1.
</event>
<event>
 8    1  0.7977359E-012  0.9118800E+02  0.7816164E-02  0.1184000E+00
        -11   -1    0    0    0    0  0.00000000000E+00  0.00000000000E+00  0.45593999997E+02  0.45594000000E+02  0.51100000000E-03 0. -1.
         11   -1    0    0    0    0 -0.00000000000E+00 -0.00000000000E+00 -0.45593999997E+02  0.45594000000E+02  0.51100000000E-03 0.  1.
         23    2    1    2    0    0  0.00000000000E+00  0.00000000000E+00  0.00000000000E+00  0.91188000000E+02  0.91188000000E+02 0.  0.
    9900012    2    3    3    0    0  0.11526451999E+02 -0.13080503015E+02 -0.36731578726E+02  0.50528837066E+02  0.29999930745E+02 0.  0.
         12    1    3    3    0    0 -0.11526451999E+02  0.13080503015E+02  0.36731578726E+02  0.40659162934E+02  0.00000000000E+00 0. -1.
         11    1    4    4    0    0  0.24353869575E+01 -0.38398910526E+00  0.30789464916E+01  0.39444225211E+01  0.51100000000E-03 0. -1.
        -11    1    4    4    0    0  0.11405429488E+02 -0.19101945521E+01 -0.11997898831E+02  0.16663800336E+02  0.51100000000E-03 0.  1.
        -12    1    4    4    0    0 -0.23143644463E+01 -0.10786319357E+02 -0.27812626387E+02  0.29920614208E+02  0.00000000000E+00 0.  1.
</event>
<event>
 8    1  0.7977359E-012  0.9118800E+02  0.7816164E-02  0.1184000E+00
        -11   -1    0    0    0    0  0.00000000000E+00  0.00000000000E+00  0.45593999997E+02  0.45594000000E+02  0.51100000000E-03 0. -1.
         11   -1    0    0    0    0 -0.00000000000E+00 -0.00000000000E+00 -0.45593999997E+02  0.45594000000E+02  0.51100000000E-03 0.  1.
         23    2    1    2    0    0  0.00000000000E+00  0.00000000000E+00  0.00000000000E+00  0.91188000000E+02  0.91188000000E+02 0.  0.
    9900012    2    3    3    0    0 -0.28080420501E+02 -0.91344728485E+01  0.27950266361E+02  0.50528855895E+02  0.29999987977E+02 0.  0.
        -12    1    3    3    0    0  0.28080420501E+02  0.91344728485E+01 -0.27950266361E+02  0.40659144105E+02  0.00000000000E+00 0.  1.
         11    1    4    4    0    0 -0.58180792509E+01  0.17265386957E+01  0.18875814085E+02  0.19827439060E+02  0.51100000000E-03 0. -1.
        -11    1    4    4    0    0 -0.41822762845E+01  0.33555693141E+01  0.50231590510E+01  0.73473401618E+01  0.51100000000E-03 0.  1.
        -12    1    4    4    0    0 -0.18080064965E+02 -0.14216580858E+02  0.40512932254E+01  0.23354076673E+02  0.00000000000E+00 0.  1.
</event>
<event>
 8    1  0.7977359E-012  0.9118800E+02  0.7816164E-02  0.1184000E+00
        -11   -1    0    0    0    0  0.00000000000E+00  0.00000000000E+00  0.45593999997E+02  0.45594000000E+02  0.51100000000E-03 0. -1.
         11   -1    0    0    0    0 -0.00000000000E+00 -0.00000000000E+00 -0.45593999997E+02  0.45594000000E+02  0.51100000000E-03 0.  1.
         23    2    1    2    0    0  0.00000000000E+00 -0.77715611724E-15  0.00000000000E+00  0.91188000000E+02  0.91188000000E+02 0.  0.
    9900012    2    3    3    0    0 -0.11338900324E+02 -0.37901757439E+00 -0.39044227819E+02  0.50528855385E+02  0.29999986427E+02 0.  0.
         12    1    3    3    0    0  0.11338900324E+02  0.37901757439E+00  0.39044227819E+02  0.40659144615E+02  0.00000000000E+00 0. -1.
         11    1    4    4    0    0 -0.38915333114E+01  0.22967463286E+01 -0.65012381384E+01  0.79173968452E+01  0.51100000000E-03 0. -1.
        -11    1    4    4    0    0 -0.11194929618E+02  0.58793140888E+01 -0.51209315210E+01  0.13642460306E+02  0.51100000000E-03 0.  1.
         12    1    4    4    0    0  0.37475626057E+01 -0.85550779918E+01 -0.27422058159E+02  0.28968998233E+02  0.00000000000E+00 0. -1.
</event>
<event>
 8    1  0.7977359E-012  0.9118800E+02  0.7816164E-02  0.1184000E+00
        -11   -1    0    0    0    0  0.00000000000E+00  0.00000000000E+00  0.45593999997E+02  0.45594000000E+02  0.51100000000E-03 0. -1.
         11   -1    0    0    0    0 -0.00000000000E+00 -0.00000000000E+00 -0.45593999997E+02  0.45594000000E+02  0.51100000000E-03 0.  1.
         23    2    1    2    0    0  0.17763568394E-14  0.00000000000E+00  0.71054273576E-14  0.91188000000E+02  0.91188000000E+02 0.  0.
    9900012    2    3    3    0    0  0.22235123409E+01  0.82585706940E+01  0.39749435062E+02  0.50528860993E+02  0.30000003475E+02 0.  0.
        -12    1    3    3    0    0 -0.22235123409E+01 -0.82585706940E+01 -0.39749435062E+02  0.40659139007E+02  0.00000000000E+00 0.  1.
         11    1    4    4    0    0  0.56396630883E+01  0.61360647834E+01  0.12597047318E+02  0.15104393142E+02  0.51100000000E-03 0. -1.
        -11    1    4    4    0    0  0.55965369826E+01  0.61106386019E+01  0.21660493828E+01  0.85646307865E+01  0.51100000000E-03 0.  1.
        -12    1    4    4    0    0 -0.90126877300E+01 -0.39881326913E+01  0.24986338361E+02  0.26859837065E+02  0.00000000000E+00 0.  1.
</event>
<event>
 8    1  0.7977359E-012  0.9118800E+02  0.7816164E-02  0.1184000E+00
        -11   -1    0    0    0    0  0.00000000000E+00  0.00000000000E+00  0.45593999997E+02  0.45594000000E+02  0.51100000000E-03 0. -1.
         11   -1    0    0    0    0 -0.00000000000E+00 -0.00000000000E+00 -0.45593999997E+02  0.45594000000E+02  0.51100000000E-03 0.  1.
         23    2    1    2    0    0 -0.35527136788E-14  0.71054273576E-14 -0.71054273576E-14  0.91188000000E+02  0.91188000000E+02 0.  0.
    9900012    2    3    3    0    0 -0.18037355924E+02  0.16620228964E+02 -0.32428140553E+02  0.50528898691E+02  0.30000118061E+02 0.  0.
         12    1    3    3    0    0  0.18037355924E+02 -0.16620228964E+02  0.32428140553E+02  0.40659101309E+02  0.00000000000E+00 0. -1.
         11    1    4    4    0    0  0.47245378405E+00  0.10746329560E+02 -0.61432578319E+01  0.12387349540E+02  0.51100000000E-03 0. -1.
        -11    1    4    4    0    0 -0.10862809807E+02  0.87661524815E+01 -0.26512587265E+02  0.29962699311E+02  0.51100000000E-03 0.  1.
         12    1    4    4    0    0 -0.76469999008E+01 -0.28922530770E+01  0.22770454446E+00  0.81788498399E+01  0.00000000000E+00 0. -1.
</event>
<event>
 8    1  0.7977359E-012  0.9118800E+02  0.7816164E-02  0.1184000E+00
        -11   -1    0    0    0    0  0.00000000000E+00  0.00000000000E+00  0.45593999997E+02  0.45594000000E+02  0.51100000000E-03 0. -1.
         11   -1    0    0    0    0 -0.00000000000E+00 -0.00000000000E+00 -0.45593999997E+02  0.45594000000E+02  0.51100000000E-03 0.  1.
         23    2    1    2    0    0  0.00000000000E+00  0.00000000000E+00 -0.44408920985E-15  0.91188000000E+02  0.91188000000E+02 0.  0.
    9900012    2    3    3    0    0 -0.17808363141E+02 -0.36408564805E+02  0.32317827973E+01  0.50528858236E+02  0.29999995096E+02 0.  0.
         12    1    3    3    0    0  0.17808363141E+02  0.36408564805E+02 -0.32317827973E+01  0.40659141764E+02  0.00000000000E+00 0. -1.
         11    1    4    4    0    0 -0.10400738161E+01 -0.14180735602E+02  0.77795194368E+01  0.16207897417E+02  0.51100000000E-03 0. -1.
        -11    1    4    4    0    0  0.16949516942E+01  0.10955371079E+01  0.30147660176E+01  0.36279301540E+01  0.51100000000E-03 0.  1.
        -12    1    4    4    0    0 -0.18463241019E+02 -0.23323366311E+02 -0.75625026571E+01  0.30693030665E+02  0.00000000000E+00 0.  1.
</event>
<event>
 8    1  0.7977359E-012  0.9118800E+02  0.7816164E-02  0.1184000E+00
        -11   -1    0    0    0    0  0.00000000000E+00  0.00000000000E+00  0.45593999997E+02  0.45594000000E+02  0.51100000000E-03 0. -1.
         11   -1    0    0    0    0 -0.00000000000E+00 -0.00000000000E+00 -0.45593999997E+02  0.45594000000E+02  0.51100000000E-03 0.  1.
         23    2    1    2    0    0  0.00000000000E+00  0.00000000000E+00  0.00000000000E+00  0.91188000000E+02  0.91188000000E+02 0.  0.
    9900012    2    3    3    0    0  0.11263609441E+02  0.20076597641E+02 -0.33514579192E+02  0.50528859712E+02  0.29999999582E+02 0.  0.
         12    1    3    3    0    0 -0.11263609441E+02 -0.20076597641E+02  0.33514579192E+02  0.40659140288E+02  0.00000000000E+00 0. -1.
         11    1    4    4    0    0 -0.29031180647E+01 -0.37187174922E+01 -0.16632187560E+02  0.17288337617E+02  0.51100000000E-03 0. -1.
        -11    1    4    4    0    0  0.61245314319E+01  0.61683339623E+01 -0.84075128635E+01  0.12093159304E+02  0.51100000000E-03 0.  1.
        -12    1    4    4    0    0  0.80421960741E+01  0.17626981171E+02 -0.84748787692E+01  0.21147362792E+02  0.00000000000E+00 0.  1.
</event>
<event>
 8    1  0.7977359E-012  0.9118800E+02  0.7816164E-02  0.1184000E+00
        -11   -1    0    0    0    0  0.00000000000E+00  0.00000000000E+00  0.45593999997E+02  0.45594000000E+02  0.51100000000E-03 0. -1.
         11   -1    0    0    0    0 -0.00000000000E+00 -0.00000000000E+00 -0.45593999997E+02  0.45594000000E+02  0.51100000000E-03 0.  1.
         23    2    1    2    0    0  0.00000000000E+00  0.00000000000E+00  0.00000000000E+00  0.91188000000E+02  0.91188000000E+02 0.  0.
    9900012    2    3    3    0    0  0.82497371883E+01  0.15857052715E+02 -0.36519337243E+02  0.50528852479E+02  0.29999977594E+02 0.  0.
         12    1    3    3    0    0 -0.82497371883E+01 -0.15857052715E+02  0.36519337243E+02  0.40659147521E+02  0.00000000000E+00 0. -1.
         11    1    4    4    0    0 -0.39123235795E+01  0.13728623021E+02 -0.90675910107E+01  0.16911610593E+02  0.51100000000E-03 0. -1.
        -11    1    4    4    0    0  0.29982849584E+01 -0.47950628965E+01 -0.25683774001E+01  0.62111918022E+01  0.51100000000E-03 0.  1.
        -12    1    4    4    0    0  0.91637758094E+01  0.69234925905E+01 -0.24883368832E+02  0.27406050083E+02  0.00000000000E+00 0.  1.
</event>
<event>
 8    1  0.7977359E-012  0.9118800E+02  0.7816164E-02  0.1184000E+00
        -11   -1    0    0    0    0  0.00000000000E+00  0.00000000000E+00  0.45593999997E+02  0.45594000000E+02  0.51100000000E-03 0. -1.
         11   -1    0    0    0    0 -0.00000000000E+00 -0.00000000000E+00 -0.45593999997E+02  0.45594000000E+02  0.51100000000E-03 0.  1.
         23    2    1    2    0    0  0.00000000000E+00  0.00000000000E+00  0.35527136788E-14  0.91188000000E+02  0.91188000000E+02 0.  0.
    9900012    2    3    3    0    0  0.21819910827E+02  0.17791725255E+02  0.29334521460E+02  0.50528829505E+02  0.29999907763E+02 0.  0.
        -12    1    3    3    0    0 -0.21819910827E+02 -0.17791725255E+02 -0.29334521460E+02  0.40659170495E+02  0.00000000000E+00 0.  1.
         11    1    4    4    0    0 -0.67212028630E+00 -0.21178802002E+01  0.30867932045E+01  0.38033478371E+01  0.51100000000E-03 0. -1.
        -11    1    4    4    0    0 -0.43666480418E+01  0.15038386181E+01  0.84220097286E+01  0.96051753675E+01  0.51100000000E-03 0.  1.
         12    1    4    4    0    0  0.26858679155E+02  0.18405766837E+02  0.17825718527E+02  0.37120306300E+02  0.00000000000E+00 0. -1.
</event>
<event>
 8    1  0.7977359E-012  0.9118800E+02  0.7816164E-02  0.1184000E+00
        -11   -1    0    0    0    0  0.00000000000E+00  0.00000000000E+00  0.45593999997E+02  0.45594000000E+02  0.51100000000E-03 0. -1.
         11   -1    0    0    0    0 -0.00000000000E+00 -0.00000000000E+00 -0.45593999997E+02  0.45594000000E+02  0.51100000000E-03 0.  1.
         23    2    1    2    0    0  0.00000000000E+00 -0.71054273576E-14 -0.35527136788E-14  0.91188000000E+02  0.91188000000E+02 0.  0.
    9900012    2    3    3    0    0 -0.62708534119E+01  0.27660746980E+02  0.29132886513E+02  0.50528860775E+02  0.30000002810E+02 0.  0.
        -12    1    3    3    0    0  0.62708534119E+01 -0.27660746980E+02 -0.29132886513E+02  0.40659139225E+02  0.00000000000E+00 0.  1.
         11    1    4    4    0    0  0.18758170250E+01  0.11399357648E+02 -0.47037410818E+00  0.11562235786E+02  0.51100000000E-03 0. -1.
        -11    1    4    4    0    0 -0.31972237715E+01  0.73796632847E+01  0.40949943511E+00  0.80529100385E+01  0.51100000000E-03 0.  1.
         12    1    4    4    0    0 -0.49494466654E+01  0.88817260472E+01  0.29193761186E+02  0.30913714950E+02  0.00000000000E+00 0. -1.
</event>
<event>
 8    1  0.7977359E-012  0.9118800E+02  0.7816164E-02  0.1184000E+00
        -11   -1    0    0    0    0  0.00000000000E+00  0.00000000000E+00  0.45593999997E+02  0.45594000000E+02  0.51100000000E-03 0. -1.
         11   -1    0    0    0    0 -0.00000000000E+00 -0.00000000000E+00 -0.45593999997E+02  0.45594000000E+02  0.51100000000E-03 0.  1.
         23    2    1    2    0    0  0.00000000000E+00  0.00000000000E+00  0.00000000000E+00  0.91188000000E+02  0.91188000000E+02 0.  0.
    9900012    2    3    3    0    0  0.13665051156E+02  0.23791781450E+02 -0.30006358568E+02  0.50528879963E+02  0.30000061135E+02 0.  0.
         12    1    3    3    0    0 -0.13665051156E+02 -0.23791781450E+02  0.30006358568E+02  0.40659120037E+02  0.00000000000E+00 0. -1.
         11    1    4    4    0    0  0.34503189102E+01  0.38868883146E+01  0.31299422731E+01  0.60670536710E+01  0.51100000000E-03 0. -1.
        -11    1    4    4    0    0 -0.28390170436E+01  0.43056150860E+01 -0.19009900940E+02  0.19697072703E+02  0.51100000000E-03 0.  1.
         12    1    4    4    0    0  0.13053749290E+02  0.15599278049E+02 -0.14126399901E+02  0.24764753589E+02  0.00000000000E+00 0. -1.
</event>
<event>
 8    1  0.1028846E-011  0.9118800E+02  0.7816164E-02  0.1184000E+00
        -11   -1    0    0    0    0  0.00000000000E+00  0.00000000000E+00  0.45593999997E+02  0.45594000000E+02  0.51100000000E-03 0. -1.
         11   -1    0    0    0    0 -0.00000000000E+00 -0.00000000000E+00 -0.45593999997E+02  0.45594000000E+02  0.51100000000E-03 0.  1.
         23    2    1    2    0    0  0.17763568394E-14 -0.44408920985E-15  0.00000000000E+00  0.91188000000E+02  0.91188000000E+02 0.  0.
    9900012    2    3    3    0    0 -0.11405936650E+01  0.24898368254E+01  0.40566801236E+02  0.50528860759E+02  0.30000002763E+02 0.  0.
        -12    1    3    3    0    0  0.11405936650E+01 -0.24898368254E+01 -0.40566801236E+02  0.40659139241E+02  0.00000000000E+00 0.  1.
         11    1    4    4    0    0 -0.67611360953E+00  0.80954025425E+01  0.25712792920E+02  0.26965540825E+02  0.51100000000E-03 0. -1.
        -11    1    4    4    0    0  0.81302903106E+01 -0.20304376768E+00  0.69365574596E+01  0.10689185046E+02  0.51100000000E-03 0.  1.
        -12    1    4    4    0    0 -0.85947703661E+01 -0.54025219495E+01  0.79174508556E+01  0.12874134888E+02  0.00000000000E+00 0.  1.
</event>
<event>
 8    1  0.7977359E-012  0.9118800E+02  0.7816164E-02  0.1184000E+00
        -11   -1    0    0    0    0  0.00000000000E+00  0.00000000000E+00  0.45593999997E+02  0.45594000000E+02  0.51100000000E-03 0.  1.
         11   -1    0    0    0    0 -0.00000000000E+00 -0.00000000000E+00 -0.45593999997E+02  0.45594000000E+02  0.51100000000E-03 0. -1.
         23    2    1    2    0    0  0.00000000000E+00  0.71054273576E-14  0.00000000000E+00  0.91188000000E+02  0.91188000000E+02 0.  0.
    9900012    2    3    3    0    0  0.45845680308E+01 -0.39513831310E+02 -0.84145307665E+01  0.50528862566E+02  0.30000008256E+02 0.  0.
         12    1    3    3    0    0 -0.45845680308E+01  0.39513831310E+02  0.84145307665E+01  0.40659137434E+02  0.00000000000E+00 0. -1.
         11    1    4    4    0    0 -0.58939262152E+01 -0.67734452689E+01 -0.73574023372E+01  0.11608156462E+02  0.51100000000E-03 0. -1.
        -11    1    4    4    0    0  0.41601357442E+00 -0.14477563225E+02 -0.84847293046E+01  0.16785813530E+02  0.51100000000E-03 0.  1.
         12    1    4    4    0    0  0.10062480672E+02 -0.18262822816E+02  0.74276008752E+01  0.22134892574E+02  0.00000000000E+00 0. -1.
</event>
<event>
 8    1  0.7977359E-012  0.9118800E+02  0.7816164E-02  0.1184000E+00
        -11   -1    0    0    0    0  0.00000000000E+00  0.00000000000E+00  0.45593999997E+02  0.45594000000E+02  0.51100000000E-03 0. -1.
         11   -1    0    0    0    0 -0.00000000000E+00 -0.00000000000E+00 -0.45593999997E+02  0.45594000000E+02  0.51100000000E-03 0.  1.
         23    2    1    2    0    0 -0.35527136788E-14  0.00000000000E+00  0.00000000000E+00  0.91188000000E+02  0.91188000000E+02 0.  0.
    9900012    2    3    3    0    0  0.29203513321E+02 -0.28245507703E+02 -0.15848243870E+01  0.50528861248E+02  0.30000004250E+02 0.  0.
         12    1    3    3    0    0 -0.29203513321E+02  0.28245507703E+02  0.15848243870E+01  0.40659138752E+02  0.00000000000E+00 0. -1.
         11    1    4    4    0    0  0.99424817468E+01 -0.12621452135E+01 -0.94927048739E+01  0.13804252965E+02  0.51100000000E-03 0. -1.
        -11    1    4    4    0    0  0.80610867351E+01 -0.76375825958E+01 -0.34799147100E+01  0.11637164341E+02  0.51100000000E-03 0.  1.
         12    1    4    4    0    0  0.11199944839E+02 -0.19345779894E+02  0.11387795197E+02  0.25087443942E+02  0.00000000000E+00 0. -1.
</event>
<event>
 8    1  0.7977359E-012  0.9118800E+02  0.7816164E-02  0.1184000E+00
        -11   -1    0    0    0    0  0.00000000000E+00  0.00000000000E+00  0.45593999997E+02  0.45594000000E+02  0.51100000000E-03 0.  1.
         11   -1    0    0    0    0 -0.00000000000E+00 -0.00000000000E+00 -0.45593999997E+02  0.45594000000E+02  0.51100000000E-03 0. -1.
         23    2    1    2    0    0  0.00000000000E+00  0.17763568394E-14  0.00000000000E+00  0.91188000000E+02  0.91188000000E+02 0.  0.
    9900012    2    3    3    0    0 -0.37591945400E+02  0.82394526947E+01 -0.13119560289E+02  0.50528858324E+02  0.29999995360E+02 0.  0.
         12    1    3    3    0    0  0.37591945400E+02 -0.82394526947E+01  0.13119560289E+02  0.40659141676E+02  0.00000000000E+00 0. -1.
         11    1    4    4    0    0 -0.22054746058E+02 -0.62811283148E+01 -0.14568569809E+02  0.27168136173E+02  0.51100000000E-03 0. -1.
        -11    1    4    4    0    0 -0.26156902710E+01  0.59563057893E+01  0.40196435301E+01  0.76470222061E+01  0.51100000000E-03 0.  1.
        -12    1    4    4    0    0 -0.12921509071E+02  0.85642752202E+01 -0.25706340104E+01  0.15713699944E+02  0.00000000000E+00 0.  1.
</event>
<event>
 8    1  0.7977359E-012  0.9118800E+02  0.7816164E-02  0.1184000E+00
        -11   -1    0    0    0    0  0.00000000000E+00  0.00000000000E+00  0.45593999997E+02  0.45594000000E+02  0.51100000000E-03 0. -1.
         11   -1    0    0    0    0 -0.00000000000E+00 -0.00000000000E+00 -0.45593999997E+02  0.45594000000E+02  0.51100000000E-03 0.  1.
         23    2    1    2    0    0  0.00000000000E+00  0.35527136788E-14  0.10658141036E-13  0.91188000000E+02  0.91188000000E+02 0.  0.
    9900012    2    3    3    0    0  0.11712242973E+02  0.28302171220E+02  0.26739037818E+02  0.50528859887E+02  0.30000000113E+02 0.  0.
        -12    1    3    3    0    0 -0.11712242973E+02 -0.28302171220E+02 -0.26739037818E+02  0.40659140113E+02  0.00000000000E+00 0.  1.
         11    1    4    4    0    0 -0.22462289220E+01 -0.38873786898E+00  0.43578858555E+00  0.23208992768E+01  0.51100000000E-03 0.  1.
        -11    1    4    4    0    0 -0.43270041371E+01  0.18297347281E+02  0.16446062411E+02  0.24979768842E+02  0.51100000000E-03 0. -1.
         12    1    4    4    0    0  0.18285476032E+02  0.10393561808E+02  0.98571868220E+01  0.23228191768E+02  0.00000000000E+00 0. -1.
</event>
<event>
 8    1  0.7977359E-012  0.9118800E+02  0.7816164E-02  0.1184000E+00
        -11   -1    0    0    0    0  0.00000000000E+00  0.00000000000E+00  0.45593999997E+02  0.45594000000E+02  0.51100000000E-03 0. -1.
         11   -1    0    0    0    0 -0.00000000000E+00 -0.00000000000E+00 -0.45593999997E+02  0.45594000000E+02  0.51100000000E-03 0.  1.
         23    2    1    2    0    0  0.00000000000E+00 -0.88817841970E-15  0.00000000000E+00  0.91188000000E+02  0.91188000000E+02 0.  0.
    9900012    2    3    3    0    0  0.32286994104E+01  0.52306071193E+01 -0.40191806236E+02  0.50528867701E+02  0.30000023865E+02 0.  0.
         12    1    3    3    0    0 -0.32286994104E+01 -0.52306071193E+01  0.40191806236E+02  0.40659132299E+02  0.00000000000E+00 0. -1.
         11    1    4    4    0    0  0.22395387828E+01  0.85963654541E+00  0.10668120173E+01  0.26253756096E+01  0.51100000000E-03 0. -1.
        -11    1    4    4    0    0 -0.20889444033E+01 -0.60301130019E+01 -0.13182592394E+01  0.65164222714E+01  0.51100000000E-03 0.  1.
        -12    1    4    4    0    0  0.30781050309E+01  0.10401083576E+02 -0.39940359014E+02  0.41387069821E+02  0.00000000000E+00 0.  1.
</event>
<event>
 8    1  0.7977359E-012  0.9118800E+02  0.7816164E-02  0.1184000E+00
        -11   -1    0    0    0    0  0.00000000000E+00  0.00000000000E+00  0.45593999997E+02  0.45594000000E+02  0.51100000000E-03 0. -1.
         11   -1    0    0    0    0 -0.00000000000E+00 -0.00000000000E+00 -0.45593999997E+02  0.45594000000E+02  0.51100000000E-03 0.  1.
         23    2    1    2    0    0 -0.88817841970E-15  0.71054273576E-14  0.35527136788E-14  0.91188000000E+02  0.91188000000E+02 0.  0.
    9900012    2    3    3    0    0  0.46341833359E+01 -0.32723956832E+02 -0.23681891630E+02  0.50528868220E+02  0.30000025443E+02 0.  0.
         12    1    3    3    0    0 -0.46341833359E+01  0.32723956832E+02  0.23681891630E+02  0.40659131780E+02  0.00000000000E+00 0. -1.
         11    1    4    4    0    0 -0.42199101191E+01 -0.36116887845E+01 -0.12635010863E+02  0.13802008443E+02  0.51100000000E-03 0. -1.
        -11    1    4    4    0    0  0.52863209770E+01 -0.16947977749E+02 -0.15216454751E+02  0.23382036582E+02  0.51100000000E-03 0.  1.
         12    1    4    4    0    0  0.35677724779E+01 -0.12164290298E+02  0.41695739845E+01  0.13344823195E+02  0.00000000000E+00 0. -1.
</event>
<event>
 8    1  0.7977359E-012  0.9118800E+02  0.7816164E-02  0.1184000E+00
        -11   -1    0    0    0    0  0.00000000000E+00  0.00000000000E+00  0.45593999997E+02  0.45594000000E+02  0.51100000000E-03 0. -1.
         11   -1    0    0    0    0 -0.00000000000E+00 -0.00000000000E+00 -0.45593999997E+02  0.45594000000E+02  0.51100000000E-03 0.  1.
         23    2    1    2    0    0 -0.35527136788E-14 -0.35527136788E-14 -0.44408920985E-15  0.91188000000E+02  0.91188000000E+02 0.  0.
    9900012    2    3    3    0    0 -0.28915664423E+02 -0.28374843750E+02 -0.34522289057E+01  0.50528864603E+02  0.30000014446E+02 0.  0.
        -12    1    3    3    0    0  0.28915664423E+02  0.28374843750E+02  0.34522289057E+01  0.40659135397E+02  0.00000000000E+00 0.  1.
         11    1    4    4    0    0 -0.18099189639E+02 -0.45716463916E+01 -0.34186047148E+01  0.18978078795E+02  0.51100000000E-03 0. -1.
        -11    1    4    4    0    0  0.45011269344E+01 -0.44269933463E+01 -0.23643247070E+01  0.67415462135E+01  0.51100000000E-03 0.  1.
         12    1    4    4    0    0 -0.15317601718E+02 -0.19376204012E+02  0.23307005161E+01  0.24809239594E+02  0.00000000000E+00 0. -1.
</event>
<event>
 8    1  0.7977359E-012  0.9118800E+02  0.7816164E-02  0.1184000E+00
        -11   -1    0    0    0    0  0.00000000000E+00  0.00000000000E+00  0.45593999997E+02  0.45594000000E+02  0.51100000000E-03 0. -1.
         11   -1    0    0    0    0 -0.00000000000E+00 -0.00000000000E+00 -0.45593999997E+02  0.45594000000E+02  0.51100000000E-03 0.  1.
         23    2    1    2    0    0  0.13322676296E-14  0.00000000000E+00 -0.35527136788E-14  0.91188000000E+02  0.91188000000E+02 0.  0.
    9900012    2    3    3    0    0  0.67341525144E+00 -0.32472232089E+02  0.24459445302E+02  0.50528882825E+02  0.30000069836E+02 0.  0.
        -12    1    3    3    0    0 -0.67341525144E+00  0.32472232089E+02 -0.24459445302E+02  0.40659117175E+02  0.00000000000E+00 0.  1.
         11    1    4    4    0    0 -0.33284583252E+01 -0.84700712558E+01  0.52633084047E+01  0.10512999454E+02  0.51100000000E-03 0.  1.
        -11    1    4    4    0    0  0.10414018845E+02 -0.27410253639E+00  0.42643083697E+01  0.11256609030E+02  0.51100000000E-03 0. -1.
         12    1    4    4    0    0 -0.64121452688E+01 -0.23728058297E+02  0.14931828527E+02  0.28759274342E+02  0.00000000000E+00 0. -1.
</event>
<event>
 8    1  0.7977359E-012  0.9118800E+02  0.7816164E-02  0.1184000E+00
        -11   -1    0    0    0    0  0.00000000000E+00  0.00000000000E+00  0.45593999997E+02  0.45594000000E+02  0.51100000000E-03 0. -1.
         11   -1    0    0    0    0 -0.00000000000E+00 -0.00000000000E+00 -0.45593999997E+02  0.45594000000E+02  0.51100000000E-03 0.  1.
         23    2    1    2    0    0  0.00000000000E+00 -0.17763568394E-14  0.00000000000E+00  0.91188000000E+02  0.91188000000E+02 0.  0.
    9900012    2    3    3    0    0 -0.50813107185E+01 -0.12067953930E+02  0.38493033190E+02  0.50528821026E+02  0.29999881991E+02 0.  0.
        -12    1    3    3    0    0  0.50813107185E+01  0.12067953930E+02 -0.38493033190E+02  0.40659178974E+02  0.00000000000E+00 0.  1.
         11    1    4    4    0    0  0.49864598447E+01 -0.15905803075E+02  0.22144884951E+02  0.27717418404E+02  0.51100000000E-03 0. -1.
        -11    1    4    4    0    0 -0.14483529916E+01 -0.39619873643E+01  0.53032097790E+01  0.67763636624E+01  0.51100000000E-03 0.  1.
        -12    1    4    4    0    0 -0.86194175716E+01  0.77998365099E+01  0.11044938460E+02  0.16035038959E+02  0.00000000000E+00 0.  1.
</event>
<event>
 8    1  0.7977359E-012  0.9118800E+02  0.7816164E-02  0.1184000E+00
        -11   -1    0    0    0    0  0.00000000000E+00  0.00000000000E+00  0.45593999997E+02  0.45594000000E+02  0.51100000000E-03 0. -1.
         11   -1    0    0    0    0 -0.00000000000E+00 -0.00000000000E+00 -0.45593999997E+02  0.45594000000E+02  0.51100000000E-03 0.  1.
         23    2    1    2    0    0 -0.88817841970E-15 -0.71054273576E-14  0.53290705182E-14  0.91188000000E+02  0.91188000000E+02 0.  0.
    9900012    2    3    3    0    0  0.15365217907E+01  0.38311987394E+02 -0.13527620008E+02  0.50528858588E+02  0.29999996164E+02 0.  0.
         12    1    3    3    0    0 -0.15365217907E+01 -0.38311987394E+02  0.13527620008E+02  0.40659141412E+02  0.00000000000E+00 0. -1.
         11    1    4    4    0    0 -0.37902622882E+01  0.19167831725E+01 -0.49660914584E+01  0.65346928449E+01  0.51100000000E-03 0. -1.
        -11    1    4    4    0    0 -0.54343643062E+01  0.19499133576E+02 -0.12199961611E+02  0.23634457667E+02  0.51100000000E-03 0.  1.
         12    1    4    4    0    0  0.10761148385E+02  0.16896070645E+02  0.36384330614E+01  0.20359708076E+02  0.00000000000E+00 0. -1.
</event>
<event>
 8    1  0.7977359E-012  0.9118800E+02  0.7816164E-02  0.1184000E+00
        -11   -1    0    0    0    0  0.00000000000E+00  0.00000000000E+00  0.45593999997E+02  0.45594000000E+02  0.51100000000E-03 0. -1.
         11   -1    0    0    0    0 -0.00000000000E+00 -0.00000000000E+00 -0.45593999997E+02  0.45594000000E+02  0.51100000000E-03 0.  1.
         23    2    1    2    0    0  0.00000000000E+00 -0.88817841970E-15  0.71054273576E-14  0.91188000000E+02  0.91188000000E+02 0.  0.
    9900012    2    3    3    0    0 -0.19931644832E+02  0.60554110781E+01 -0.34917438639E+02  0.50528856008E+02  0.29999988322E+02 0.  0.
         12    1    3    3    0    0  0.19931644832E+02 -0.60554110781E+01  0.34917438639E+02  0.40659143992E+02  0.00000000000E+00 0. -1.
         11    1    4    4    0    0 -0.20789666761E+01 -0.58431840666E+01 -0.73603287288E+01  0.96249333366E+01  0.51100000000E-03 0. -1.
        -11    1    4    4    0    0 -0.23145590573E+01 -0.60557142328E+01 -0.57856390960E+01  0.86892162195E+01  0.51100000000E-03 0.  1.
         12    1    4    4    0    0 -0.15538119099E+02  0.17954309378E+02 -0.21771470814E+02  0.32214706452E+02  0.00000000000E+00 0. -1.
</event>
<event>
 8    1  0.7977359E-012  0.9118800E+02  0.7816164E-02  0.1184000E+00
        -11   -1    0    0    0    0  0.00000000000E+00  0.00000000000E+00  0.45593999997E+02  0.45594000000E+02  0.51100000000E-03 0. -1.
         11   -1    0    0    0    0 -0.00000000000E+00 -0.00000000000E+00 -0.45593999997E+02  0.45594000000E+02  0.51100000000E-03 0.  1.
         23    2    1    2    0    0  0.35527136788E-14  0.35527136788E-14  0.00000000000E+00  0.91188000000E+02  0.91188000000E+02 0.  0.
    9900012    2    3    3    0    0  0.19144045426E+02  0.26572755591E+02 -0.24094805230E+02  0.50528862601E+02  0.30000008361E+02 0.  0.
         12    1    3    3    0    0 -0.19144045426E+02 -0.26572755591E+02  0.24094805230E+02  0.40659137399E+02  0.00000000000E+00 0. -1.
         11    1    4    4    0    0  0.40581609057E+01  0.58918974237E+01  0.43779962113E+01  0.83874892712E+01  0.51100000000E-03 0. -1.
        -11    1    4    4    0    0  0.42758668812E+01  0.18972200610E+01  0.17127763454E+01  0.49815745118E+01  0.51100000000E-03 0.  1.
        -12    1    4    4    0    0  0.10810017639E+02  0.18783638107E+02 -0.30185577786E+02  0.37159798818E+02  0.00000000000E+00 0.  1.
</event>
<event>
 8    1  0.7977359E-012  0.9118800E+02  0.7816164E-02  0.1184000E+00
        -11   -1    0    0    0    0  0.00000000000E+00  0.00000000000E+00  0.45593999997E+02  0.45594000000E+02  0.51100000000E-03 0. -1.
         11   -1    0    0    0    0 -0.00000000000E+00 -0.00000000000E+00 -0.45593999997E+02  0.45594000000E+02  0.51100000000E-03 0.  1.
         23    2    1    2    0    0  0.00000000000E+00  0.00000000000E+00  0.00000000000E+00  0.91188000000E+02  0.91188000000E+02 0.  0.
    9900012    2    3    3    0    0  0.11490106219E+02  0.37550323261E+02  0.10541223932E+02  0.50528847034E+02  0.29999961044E+02 0.  0.
        -12    1    3    3    0    0 -0.11490106219E+02 -0.37550323261E+02 -0.10541223932E+02  0.40659152966E+02  0.00000000000E+00 0.  1.
         11    1    4    4    0    0 -0.51821004386E+01  0.24999493876E+01  0.72418758224E+01  0.92492528122E+01  0.51100000000E-03 0. -1.
        -11    1    4    4    0    0 -0.64318756111E+00  0.44806905952E+01  0.41431590791E+01  0.61364522214E+01  0.51100000000E-03 0.  1.
        -12    1    4    4    0    0  0.17315394219E+02  0.30569683278E+02 -0.84381096987E+00  0.35143142000E+02  0.00000000000E+00 0.  1.
</event>
<event>
 8    1  0.7977359E-012  0.9118800E+02  0.7816164E-02  0.1184000E+00
        -11   -1    0    0    0    0  0.00000000000E+00  0.00000000000E+00  0.45593999997E+02  0.45594000000E+02  0.51100000000E-03 0. -1.
         11   -1    0    0    0    0 -0.00000000000E+00 -0.00000000000E+00 -0.45593999997E+02  0.45594000000E+02  0.51100000000E-03 0.  1.
         23    2    1    2    0    0  0.35527136788E-14 -0.35527136788E-14  0.00000000000E+00  0.91188000000E+02  0.91188000000E+02 0.  0.
    9900012    2    3    3    0    0 -0.30003626341E+02  0.25200876626E+02 -0.10856510205E+02  0.50528860927E+02  0.30000003274E+02 0.  0.
         12    1    3    3    0    0  0.30003626341E+02 -0.25200876626E+02  0.10856510205E+02  0.40659139073E+02  0.00000000000E+00 0. -1.
         11    1    4    4    0    0 -0.14011964282E+02  0.14509223534E+02  0.65868029621E+01  0.21218828528E+02  0.51100000000E-03 0. -1.
        -11    1    4    4    0    0  0.16336978729E+01  0.27086623121E+01 -0.61256785342E+01  0.68941829122E+01  0.51100000000E-03 0.  1.
        -12    1    4    4    0    0 -0.17625359932E+02  0.79829907798E+01 -0.11317634633E+02  0.22415849486E+02  0.00000000000E+00 0.  1.
</event>
<event>
 8    1  0.7977359E-012  0.9118800E+02  0.7816164E-02  0.1184000E+00
        -11   -1    0    0    0    0  0.00000000000E+00  0.00000000000E+00  0.45593999997E+02  0.45594000000E+02  0.51100000000E-03 0. -1.
         11   -1    0    0    0    0 -0.00000000000E+00 -0.00000000000E+00 -0.45593999997E+02  0.45594000000E+02  0.51100000000E-03 0.  1.
         23    2    1    2    0    0  0.00000000000E+00 -0.71054273576E-14  0.17763568394E-14  0.91188000000E+02  0.91188000000E+02 0.  0.
    9900012    2    3    3    0    0  0.19854636410E+02  0.32190559874E+02 -0.14924083945E+02  0.50528843423E+02  0.29999950067E+02 0.  0.
         12    1    3    3    0    0 -0.19854636410E+02 -0.32190559874E+02  0.14924083945E+02  0.40659156577E+02  0.00000000000E+00 0. -1.
         11    1    4    4    0    0  0.10821368475E+02  0.11422669490E+01 -0.57597892693E+01  0.12311862659E+02  0.51100000000E-03 0. -1.
        -11    1    4    4    0    0  0.12068058458E+02  0.12750533953E+02 -0.88639726923E+01  0.19666829007E+02  0.51100000000E-03 0.  1.
         12    1    4    4    0    0 -0.30347905224E+01  0.18297758972E+02 -0.30032198344E+00  0.18550151756E+02  0.00000000000E+00 0. -1.
</event>
<event>
 8    1  0.7977359E-012  0.9118800E+02  0.7816164E-02  0.1184000E+00
        -11   -1    0    0    0    0  0.00000000000E+00  0.00000000000E+00  0.45593999997E+02  0.45594000000E+02  0.51100000000E-03 0. -1.
         11   -1    0    0    0    0 -0.00000000000E+00 -0.00000000000E+00 -0.45593999997E+02  0.45594000000E+02  0.51100000000E-03 0.  1.
         23    2    1    2    0    0  0.00000000000E+00  0.00000000000E+00  0.00000000000E+00  0.91188000000E+02  0.91188000000E+02 0.  0.
    9900012    2    3    3    0    0 -0.21195922557E+02  0.69289801076E+01  0.33998359693E+02  0.50528851458E+02  0.29999974491E+02 0.  0.
        -12    1    3    3    0    0  0.21195922557E+02 -0.69289801076E+01 -0.33998359693E+02  0.40659148542E+02  0.00000000000E+00 0.  1.
         11    1    4    4    0    0 -0.14461625488E+00 -0.21046411602E+01  0.56273903435E+01  0.60098211799E+01  0.51100000000E-03 0. -1.
        -11    1    4    4    0    0 -0.30220594561E+01 -0.52651623454E+01 -0.20210412998E+01  0.63983893345E+01  0.51100000000E-03 0.  1.
        -12    1    4    4    0    0 -0.18029246846E+02  0.14298783613E+02  0.30392010649E+02  0.38120640943E+02  0.00000000000E+00 0.  1.
</event>
<event>
 8    1  0.7977359E-012  0.9118800E+02  0.7816164E-02  0.1184000E+00
        -11   -1    0    0    0    0  0.00000000000E+00  0.00000000000E+00  0.45593999997E+02  0.45594000000E+02  0.51100000000E-03 0. -1.
         11   -1    0    0    0    0 -0.00000000000E+00 -0.00000000000E+00 -0.45593999997E+02  0.45594000000E+02  0.51100000000E-03 0.  1.
         23    2    1    2    0    0 -0.35527136788E-14  0.35527136788E-14 -0.35527136788E-14  0.91188000000E+02  0.91188000000E+02 0.  0.
    9900012    2    3    3    0    0 -0.17382323589E+02  0.30716150939E+02 -0.20187581351E+02  0.50528861511E+02  0.30000005049E+02 0.  0.
         12    1    3    3    0    0  0.17382323589E+02 -0.30716150939E+02  0.20187581351E+02  0.40659138489E+02  0.00000000000E+00 0. -1.
         11    1    4    4    0    0 -0.20385164795E+01  0.12954441442E+01  0.49929675048E+01  0.55464808423E+01  0.51100000000E-03 0. -1.
        -11    1    4    4    0    0 -0.10107416789E+02  0.14795127752E+02 -0.34132491439E+01  0.18240228873E+02  0.51100000000E-03 0.  1.
        -12    1    4    4    0    0 -0.52363903206E+01  0.14625579042E+02 -0.21767299712E+02  0.26742151796E+02  0.00000000000E+00 0.  1.
</event>
<event>
 8    1  0.7977359E-012  0.9118800E+02  0.7816164E-02  0.1184000E+00
        -11   -1    0    0    0    0  0.00000000000E+00  0.00000000000E+00  0.45593999997E+02  0.45594000000E+02  0.51100000000E-03 0. -1.
         11   -1    0    0    0    0 -0.00000000000E+00 -0.00000000000E+00 -0.45593999997E+02  0.45594000000E+02  0.51100000000E-03 0.  1.
         23    2    1    2    0    0 -0.88817841970E-15  0.17763568394E-14  0.00000000000E+00  0.91188000000E+02  0.91188000000E+02 0.  0.
    9900012    2    3    3    0    0 -0.21618638481E+01  0.13867791583E+02 -0.38159889671E+02  0.50528850004E+02  0.29999970073E+02 0.  0.
         12    1    3    3    0    0  0.21618638481E+01 -0.13867791583E+02  0.38159889671E+02  0.40659149996E+02  0.00000000000E+00 0. -1.
         11    1    4    4    0    0 -0.81390446587E+01  0.14909269064E+01 -0.79952285552E+01  0.11506111024E+02  0.51100000000E-03 0. -1.
        -11    1    4    4    0    0 -0.73980788115E+01  0.29225631593E+01 -0.13412004809E+02  0.15593422292E+02  0.51100000000E-03 0.  1.
         12    1    4    4    0    0  0.13375259622E+02  0.94543015177E+01 -0.16752656307E+02  0.23429316688E+02  0.00000000000E+00 0. -1.
</event>
<event>
 8    1  0.7977359E-012  0.9118800E+02  0.7816164E-02  0.1184000E+00
        -11   -1    0    0    0    0  0.00000000000E+00  0.00000000000E+00  0.45593999997E+02  0.45594000000E+02  0.51100000000E-03 0. -1.
         11   -1    0    0    0    0 -0.00000000000E+00 -0.00000000000E+00 -0.45593999997E+02  0.45594000000E+02  0.51100000000E-03 0.  1.
         23    2    1    2    0    0  0.17763568394E-14  0.35527136788E-14  0.00000000000E+00  0.91188000000E+02  0.91188000000E+02 0.  0.
    9900012    2    3    3    0    0  0.14148629231E+02  0.29358171808E+02  0.24312125648E+02  0.50528863086E+02  0.30000009837E+02 0.  0.
        -12    1    3    3    0    0 -0.14148629231E+02 -0.29358171808E+02 -0.24312125648E+02  0.40659136914E+02  0.00000000000E+00 0.  1.
         11    1    4    4    0    0  0.15527133529E+02  0.83912942576E+01  0.51934456695E+01  0.18397760003E+02  0.51100000000E-03 0.  1.
        -11    1    4    4    0    0  0.18754157236E+01  0.11917624613E+02  0.16313830412E+01  0.12174086061E+02  0.51100000000E-03 0. -1.
        -12    1    4    4    0    0 -0.32539200211E+01  0.90492529381E+01  0.17487296937E+02  0.19957017022E+02  0.00000000000E+00 0.  1.
</event>
<event>
 8    1  0.7977359E-012  0.9118800E+02  0.7816164E-02  0.1184000E+00
        -11   -1    0    0    0    0  0.00000000000E+00  0.00000000000E+00  0.45593999997E+02  0.45594000000E+02  0.51100000000E-03 0. -1.
         11   -1    0    0    0    0 -0.00000000000E+00 -0.00000000000E+00 -0.45593999997E+02  0.45594000000E+02  0.51100000000E-03 0.  1.
         23    2    1    2    0    0  0.00000000000E+00  0.00000000000E+00  0.00000000000E+00  0.91188000000E+02  0.91188000000E+02 0.  0.
    9900012    2    3    3    0    0 -0.56005038253E+01  0.18082685347E+02  0.35983579207E+02  0.50528842052E+02  0.29999945901E+02 0.  0.
        -12    1    3    3    0    0  0.56005038253E+01 -0.18082685347E+02 -0.35983579207E+02  0.40659157948E+02  0.00000000000E+00 0.  1.
         11    1    4    4    0    0 -0.60004157370E+01 -0.72087828161E+01  0.13616842109E+02  0.16534507189E+02  0.51100000000E-03 0. -1.
        -11    1    4    4    0    0 -0.91010530968E+00  0.25222739279E+01  0.34086069415E+01  0.43369066148E+01  0.51100000000E-03 0.  1.
         12    1    4    4    0    0  0.13100172213E+01  0.22769194235E+02  0.18958130157E+02  0.29657428248E+02  0.00000000000E+00 0. -1.
</event>
<event>
 8    1  0.7977359E-012  0.9118800E+02  0.7816164E-02  0.1184000E+00
        -11   -1    0    0    0    0  0.00000000000E+00  0.00000000000E+00  0.45593999997E+02  0.45594000000E+02  0.51100000000E-03 0. -1.
         11   -1    0    0    0    0 -0.00000000000E+00 -0.00000000000E+00 -0.45593999997E+02  0.45594000000E+02  0.51100000000E-03 0.  1.
         23    2    1    2    0    0  0.00000000000E+00  0.00000000000E+00  0.00000000000E+00  0.91188000000E+02  0.91188000000E+02 0.  0.
    9900012    2    3    3    0    0  0.41565058550E+01 -0.91210744973E+01  0.39404223713E+02  0.50528888016E+02  0.30000085613E+02 0.  0.
        -12    1    3    3    0    0 -0.41565058550E+01  0.91210744973E+01 -0.39404223713E+02  0.40659111984E+02  0.00000000000E+00 0.  1.
         11    1    4    4    0    0  0.14959148985E+01  0.42044877826E+01  0.13135269385E+01  0.46519707842E+01  0.51100000000E-03 0. -1.
        -11    1    4    4    0    0 -0.62798935495E+01  0.18682311743E+01  0.45226739885E+01  0.79612769692E+01  0.51100000000E-03 0.  1.
         12    1    4    4    0    0  0.89404845060E+01 -0.15193793454E+02  0.33568022786E+02  0.37915640262E+02  0.00000000000E+00 0. -1.
</event>
<event>
 8    1  0.7977359E-012  0.9118800E+02  0.7816164E-02  0.1184000E+00
        -11   -1    0    0    0    0  0.00000000000E+00  0.00000000000E+00  0.45593999997E+02  0.45594000000E+02  0.51100000000E-03 0. -1.
         11   -1    0    0    0    0 -0.00000000000E+00 -0.00000000000E+00 -0.45593999997E+02  0.45594000000E+02  0.51100000000E-03 0.  1.
         23    2    1    2    0    0  0.00000000000E+00  0.00000000000E+00  0.26645352591E-14  0.91188000000E+02  0.91188000000E+02 0.  0.
    9900012    2    3    3    0    0 -0.99316819508E+01  0.39351004305E+02 -0.24550840434E+01  0.50528840099E+02  0.29999939964E+02 0.  0.
        -12    1    3    3    0    0  0.99316819508E+01 -0.39351004305E+02  0.24550840434E+01  0.40659159901E+02  0.00000000000E+00 0.  1.
         11    1    4    4    0    0  0.59601727107E+00  0.17796321233E+01  0.60080772898E+01  0.62943879817E+01  0.51100000000E-03 0. -1.
        -11    1    4    4    0    0  0.39563919062E+01  0.87254263463E+01  0.29076985700E+01  0.10012033414E+02  0.51100000000E-03 0.  1.
         12    1    4    4    0    0 -0.14484091128E+02  0.28845945836E+02 -0.11370859903E+02  0.34222418703E+02  0.00000000000E+00 0. -1.
</event>
<event>
 8    1  0.7977359E-012  0.9118800E+02  0.7816164E-02  0.1184000E+00
        -11   -1    0    0    0    0  0.00000000000E+00  0.00000000000E+00  0.45593999997E+02  0.45594000000E+02  0.51100000000E-03 0. -1.
         11   -1    0    0    0    0 -0.00000000000E+00 -0.00000000000E+00 -0.45593999997E+02  0.45594000000E+02  0.51100000000E-03 0.  1.
         23    2    1    2    0    0 -0.88817841970E-15  0.00000000000E+00  0.00000000000E+00  0.91188000000E+02  0.91188000000E+02 0.  0.
    9900012    2    3    3    0    0  0.39982814016E+01 -0.25634044940E+02 -0.31306170756E+02  0.50528845538E+02  0.29999956498E+02 0.  0.
         12    1    3    3    0    0 -0.39982814016E+01  0.25634044940E+02  0.31306170756E+02  0.40659154462E+02  0.00000000000E+00 0. -1.
         11    1    4    4    0    0 -0.84361869604E+00 -0.98708253857E+01  0.32466558135E+01  0.10425241510E+02  0.51100000000E-03 0. -1.
        -11    1    4    4    0    0  0.12325400623E+01 -0.10984665949E+02 -0.10252747148E+02  0.15076500435E+02  0.51100000000E-03 0.  1.
        -12    1    4    4    0    0  0.36093600353E+01 -0.47785536047E+01 -0.24300079421E+02  0.25027103594E+02  0.00000000000E+00 0.  1.
</event>
<event>
 8    1  0.7977359E-012  0.9118800E+02  0.7816164E-02  0.1184000E+00
        -11   -1    0    0    0    0  0.00000000000E+00  0.00000000000E+00  0.45593999997E+02  0.45594000000E+02  0.51100000000E-03 0.  1.
         11   -1    0    0    0    0 -0.00000000000E+00 -0.00000000000E+00 -0.45593999997E+02  0.45594000000E+02  0.51100000000E-03 0. -1.
         23    2    1    2    0    0  0.17763568394E-14  0.71054273576E-14  0.00000000000E+00  0.91188000000E+02  0.91188000000E+02 0.  0.
    9900012    2    3    3    0    0 -0.27827583254E+01 -0.38968998142E+02 -0.11262308101E+02  0.50528854119E+02  0.29999982579E+02 0.  0.
         12    1    3    3    0    0  0.27827583254E+01  0.38968998142E+02  0.11262308101E+02  0.40659145881E+02  0.00000000000E+00 0. -1.
         11    1    4    4    0    0 -0.26005456360E+01 -0.99189409720E+01  0.19988681716E+01  0.10447186312E+02  0.51100000000E-03 0. -1.
        -11    1    4    4    0    0 -0.44865028403E+01 -0.27924131328E+02 -0.24468541307E+01  0.28387900831E+02  0.51100000000E-03 0.  1.
         12    1    4    4    0    0  0.43042901510E+01 -0.11259258412E+01 -0.10814322141E+02  0.11693766976E+02  0.00000000000E+00 0. -1.
</event>
<event>
 8    1  0.7977359E-012  0.9118800E+02  0.7816164E-02  0.1184000E+00
        -11   -1    0    0    0    0  0.00000000000E+00  0.00000000000E+00  0.45593999997E+02  0.45594000000E+02  0.51100000000E-03 0. -1.
         11   -1    0    0    0    0 -0.00000000000E+00 -0.00000000000E+00 -0.45593999997E+02  0.45594000000E+02  0.51100000000E-03 0.  1.
         23    2    1    2    0    0 -0.17763568394E-14  0.00000000000E+00 -0.31086244690E-14  0.91188000000E+02  0.91188000000E+02 0.  0.
    9900012    2    3    3    0    0 -0.11297233030E+02 -0.39004294892E+02 -0.20502018523E+01  0.50528858079E+02  0.29999994616E+02 0.  0.
        -12    1    3    3    0    0  0.11297233030E+02  0.39004294892E+02  0.20502018523E+01  0.40659141921E+02  0.00000000000E+00 0.  1.
         11    1    4    4    0    0  0.15164817171E+01 -0.37203188536E+01 -0.78146799421E+00  0.40928207459E+01  0.51100000000E-03 0. -1.
        -11    1    4    4    0    0 -0.37524784392E+01 -0.32759982132E+02 -0.90886311361E+01  0.34203811775E+02  0.51100000000E-03 0.  1.
         12    1    4    4    0    0 -0.90612363080E+01 -0.25239939059E+01  0.78198972780E+01  0.12232225558E+02  0.00000000000E+00 0. -1.
</event>
<event>
 8    1  0.7977359E-012  0.9118800E+02  0.7816164E-02  0.1184000E+00
        -11   -1    0    0    0    0  0.00000000000E+00  0.00000000000E+00  0.45593999997E+02  0.45594000000E+02  0.51100000000E-03 0. -1.
         11   -1    0    0    0    0 -0.00000000000E+00 -0.00000000000E+00 -0.45593999997E+02  0.45594000000E+02  0.51100000000E-03 0.  1.
         23    2    1    2    0    0  0.17763568394E-14  0.00000000000E+00 -0.35527136788E-14  0.91188000000E+02  0.91188000000E+02 0.  0.
    9900012    2    3    3    0    0  0.11849172533E+02  0.22423840645E+02 -0.31779453290E+02  0.50528866089E+02  0.30000018964E+02 0.  0.
         12    1    3    3    0    0 -0.11849172533E+02 -0.22423840645E+02  0.31779453290E+02  0.40659133911E+02  0.00000000000E+00 0. -1.
         11    1    4    4    0    0 -0.48393078673E+01 -0.53674455183E+00  0.58787104083E+00  0.49043437859E+01  0.51100000000E-03 0. -1.
        -11    1    4    4    0    0  0.44568586143E+01 -0.51182759744E+00 -0.10259206938E+01  0.46019636817E+01  0.51100000000E-03 0.  1.
        -12    1    4    4    0    0  0.12231621786E+02  0.23472412794E+02 -0.31341403637E+02  0.41022558621E+02  0.00000000000E+00 0.  1.
</event>
<event>
 8    1  0.7977359E-012  0.9118800E+02  0.7816164E-02  0.1184000E+00
        -11   -1    0    0    0    0  0.00000000000E+00  0.00000000000E+00  0.45593999997E+02  0.45594000000E+02  0.51100000000E-03 0. -1.
         11   -1    0    0    0    0 -0.00000000000E+00 -0.00000000000E+00 -0.45593999997E+02  0.45594000000E+02  0.51100000000E-03 0.  1.
         23    2    1    2    0    0  0.00000000000E+00  0.00000000000E+00  0.00000000000E+00  0.91188000000E+02  0.91188000000E+02 0.  0.
    9900012    2    3    3    0    0  0.17392431897E+02  0.34611077321E+02 -0.12358917508E+02  0.50528853396E+02  0.29999980382E+02 0.  0.
         12    1    3    3    0    0 -0.17392431897E+02 -0.34611077321E+02  0.12358917508E+02  0.40659146604E+02  0.00000000000E+00 0. -1.
         11    1    4    4    0    0 -0.10143581891E+01  0.67628156964E+01 -0.59381264899E+01  0.90568176061E+01  0.51100000000E-03 0. -1.
        -11    1    4    4    0    0 -0.51590967853E+01  0.10487699616E+01 -0.12653831087E+01  0.54145537901E+01  0.51100000000E-03 0.  1.
        -12    1    4    4    0    0  0.23565886871E+02  0.26799491663E+02 -0.51554079089E+01  0.36057482000E+02  0.00000000000E+00 0.  1.
</event>
<event>
 8    1  0.7977359E-012  0.9118800E+02  0.7816164E-02  0.1184000E+00
        -11   -1    0    0    0    0  0.00000000000E+00  0.00000000000E+00  0.45593999997E+02  0.45594000000E+02  0.51100000000E-03 0. -1.
         11   -1    0    0    0    0 -0.00000000000E+00 -0.00000000000E+00 -0.45593999997E+02  0.45594000000E+02  0.51100000000E-03 0.  1.
         23    2    1    2    0    0  0.00000000000E+00 -0.35527136788E-14  0.71054273576E-14  0.91188000000E+02  0.91188000000E+02 0.  0.
    9900012    2    3    3    0    0 -0.43503538239E+01 -0.76915038831E+01 -0.39687286612E+02  0.50528861679E+02  0.30000005560E+02 0.  0.
         12    1    3    3    0    0  0.43503538239E+01  0.76915038831E+01  0.39687286612E+02  0.40659138321E+02  0.00000000000E+00 0. -1.
         11    1    4    4    0    0  0.68807753813E+00 -0.17511571511E+01 -0.43528316833E+01  0.47420613652E+01  0.51100000000E-03 0. -1.
        -11    1    4    4    0    0 -0.10616180891E+01 -0.97864447839E+01 -0.38275613390E+02  0.39521185649E+02  0.51100000000E-03 0.  1.
         12    1    4    4    0    0 -0.39768132729E+01  0.38460980520E+01  0.29411584616E+01  0.62656146649E+01  0.00000000000E+00 0. -1.
</event>
<event>
 8    1  0.7977359E-012  0.9118800E+02  0.7816164E-02  0.1184000E+00
        -11   -1    0    0    0    0  0.00000000000E+00  0.00000000000E+00  0.45593999997E+02  0.45594000000E+02  0.51100000000E-03 0. -1.
         11   -1    0    0    0    0 -0.00000000000E+00 -0.00000000000E+00 -0.45593999997E+02  0.45594000000E+02  0.51100000000E-03 0.  1.
         23    2    1    2    0    0  0.00000000000E+00  0.17763568394E-14  0.71054273576E-14  0.91188000000E+02  0.91188000000E+02 0.  0.
    9900012    2    3    3    0    0 -0.77593347326E+01  0.12416265706E+02 -0.37931453513E+02  0.50528854717E+02  0.29999984398E+02 0.  0.
         12    1    3    3    0    0  0.77593347326E+01 -0.12416265706E+02  0.37931453513E+02  0.40659145283E+02  0.00000000000E+00 0. -1.
         11    1    4    4    0    0 -0.16104792953E+01  0.46322691479E+01 -0.61352333129E+01  0.78544668237E+01  0.51100000000E-03 0. -1.
        -11    1    4    4    0    0 -0.33642246547E+01  0.81164621254E+01 -0.36311361662E+02  0.37359201690E+02  0.51100000000E-03 0.  1.
         12    1    4    4    0    0 -0.27846307826E+01 -0.33246556773E+00  0.45151414619E+01  0.53151862028E+01  0.00000000000E+00 0. -1.
</event>
<event>
 8    1  0.7977359E-012  0.9118800E+02  0.7816164E-02  0.1184000E+00
        -11   -1    0    0    0    0  0.00000000000E+00  0.00000000000E+00  0.45593999997E+02  0.45594000000E+02  0.51100000000E-03 0.  1.
         11   -1    0    0    0    0 -0.00000000000E+00 -0.00000000000E+00 -0.45593999997E+02  0.45594000000E+02  0.51100000000E-03 0. -1.
         23    2    1    2    0    0  0.00000000000E+00 -0.88817841970E-15  0.00000000000E+00  0.91188000000E+02  0.91188000000E+02 0.  0.
    9900012    2    3    3    0    0  0.29289783520E+02  0.76173354113E+01 -0.27152362923E+02  0.50528855522E+02  0.29999986844E+02 0.  0.
         12    1    3    3    0    0 -0.29289783520E+02 -0.76173354113E+01  0.27152362923E+02  0.40659144478E+02  0.00000000000E+00 0. -1.
         11    1    4    4    0    0  0.93812406931E+01 -0.23331085989E+01 -0.22228172223E+02  0.24239280380E+02  0.51100000000E-03 0. -1.
        -11    1    4    4    0    0  0.14625960228E+01  0.43836774158E+00 -0.53168650946E+01  0.55317635613E+01  0.51100000000E-03 0.  1.
        -12    1    4    4    0    0  0.18445946804E+02  0.95120762686E+01  0.39267439492E+00  0.20757811580E+02  0.00000000000E+00 0.  1.
</event>
<event>
 8    1  0.7977359E-012  0.9118800E+02  0.7816164E-02  0.1184000E+00
        -11   -1    0    0    0    0  0.00000000000E+00  0.00000000000E+00  0.45593999997E+02  0.45594000000E+02  0.51100000000E-03 0.  1.
         11   -1    0    0    0    0 -0.00000000000E+00 -0.00000000000E+00 -0.45593999997E+02  0.45594000000E+02  0.51100000000E-03 0. -1.
         23    2    1    2    0    0  0.00000000000E+00  0.44408920985E-15  0.31086244690E-14  0.91188000000E+02  0.91188000000E+02 0.  0.
    9900012    2    3    3    0    0 -0.40505182041E+02  0.20327509190E+01 -0.28918440894E+01  0.50528872972E+02  0.30000039884E+02 0.  0.
         12    1    3    3    0    0  0.40505182041E+02 -0.20327509190E+01  0.28918440894E+01  0.40659127028E+02  0.00000000000E+00 0. -1.
         11    1    4    4    0    0 -0.82174562551E+01 -0.42186104115E+01 -0.86246682237E+01  0.12637569519E+02  0.51100000000E-03 0. -1.
        -11    1    4    4    0    0 -0.15926196816E+02 -0.29307872531E+00 -0.56631558250E+01  0.16905649183E+02  0.51100000000E-03 0.  1.
        -12    1    4    4    0    0 -0.16361528970E+02  0.65444400558E+01  0.11395979959E+02  0.20985654270E+02  0.00000000000E+00 0.  1.
</event>
<event>
 8    1  0.7977359E-012  0.9118800E+02  0.7816164E-02  0.1184000E+00
        -11   -1    0    0    0    0  0.00000000000E+00  0.00000000000E+00  0.45593999997E+02  0.45594000000E+02  0.51100000000E-03 0. -1.
         11   -1    0    0    0    0 -0.00000000000E+00 -0.00000000000E+00 -0.45593999997E+02  0.45594000000E+02  0.51100000000E-03 0.  1.
         23    2    1    2    0    0  0.71054273576E-14  0.00000000000E+00 -0.35527136788E-14  0.91188000000E+02  0.91188000000E+02 0.  0.
    9900012    2    3    3    0    0 -0.32012487634E+02 -0.18051355237E+02  0.17392896937E+02  0.50528884734E+02  0.30000075636E+02 0.  0.
        -12    1    3    3    0    0  0.32012487634E+02  0.18051355237E+02 -0.17392896937E+02  0.40659115266E+02  0.00000000000E+00 0.  1.
         11    1    4    4    0    0 -0.92583982644E+01 -0.14062847216E+02  0.10506528270E+02  0.19846126746E+02  0.51100000000E-03 0. -1.
        -11    1    4    4    0    0 -0.23184023216E+02  0.18634946734E+01  0.82141092850E+01  0.24666640154E+02  0.51100000000E-03 0.  1.
         12    1    4    4    0    0  0.42993384658E+00 -0.58520026942E+01 -0.13277406184E+01  0.60161178342E+01  0.00000000000E+00 0. -1.
</event>
<event>
 8    1  0.7977359E-012  0.9118800E+02  0.7816164E-02  0.1184000E+00
        -11   -1    0    0    0    0  0.00000000000E+00  0.00000000000E+00  0.45593999997E+02  0.45594000000E+02  0.51100000000E-03 0. -1.
         11   -1    0    0    0    0 -0.00000000000E+00 -0.00000000000E+00 -0.45593999997E+02  0.45594000000E+02  0.51100000000E-03 0.  1.
         23    2    1    2    0    0  0.00000000000E+00  0.17763568394E-14  0.00000000000E+00  0.91188000000E+02  0.91188000000E+02 0.  0.
    9900012    2    3    3    0    0 -0.20728296143E+02 -0.89849739257E+01 -0.33804942783E+02  0.50528853747E+02  0.29999981450E+02 0.  0.
         12    1    3    3    0    0  0.20728296143E+02  0.89849739257E+01  0.33804942783E+02  0.40659146253E+02  0.00000000000E+00 0. -1.
         11    1    4    4    0    0 -0.33734856436E+01  0.69578377266E+00 -0.10721725951E+02  0.11261435436E+02  0.51100000000E-03 0. -1.
        -11    1    4    4    0    0 -0.70291516262E+01  0.54081821200E+01 -0.18350121749E+02  0.20380980715E+02  0.51100000000E-03 0.  1.
         12    1    4    4    0    0 -0.10325658874E+02 -0.15088939818E+02 -0.47330950823E+01  0.18886437596E+02  0.00000000000E+00 0. -1.
</event>
<event>
 8    1  0.7977359E-012  0.9118800E+02  0.7816164E-02  0.1184000E+00
        -11   -1    0    0    0    0  0.00000000000E+00  0.00000000000E+00  0.45593999997E+02  0.45594000000E+02  0.51100000000E-03 0. -1.
         11   -1    0    0    0    0 -0.00000000000E+00 -0.00000000000E+00 -0.45593999997E+02  0.45594000000E+02  0.51100000000E-03 0.  1.
         23    2    1    2    0    0  0.00000000000E+00  0.00000000000E+00  0.71054273576E-14  0.91188000000E+02  0.91188000000E+02 0.  0.
    9900012    2    3    3    0    0  0.14563764110E+02 -0.10738511492E+02  0.36410803549E+02  0.50528862414E+02  0.30000007794E+02 0.  0.
        -12    1    3    3    0    0 -0.14563764110E+02  0.10738511492E+02 -0.36410803549E+02  0.40659137586E+02  0.00000000000E+00 0.  1.
         11    1    4    4    0    0  0.28437432793E+01 -0.15704667719E+02  0.32810175488E+02  0.36486039519E+02  0.51100000000E-03 0. -1.
        -11    1    4    4    0    0 -0.30881789835E+00 -0.23560627320E-01 -0.31744357829E+00  0.44350229314E+00  0.51100000000E-03 0.  1.
         12    1    4    4    0    0  0.12028838729E+02  0.49897168541E+01  0.39180716395E+01  0.13599320602E+02  0.00000000000E+00 0. -1.
</event>
<event>
 8    1  0.7977359E-012  0.9118800E+02  0.7816164E-02  0.1184000E+00
        -11   -1    0    0    0    0  0.00000000000E+00  0.00000000000E+00  0.45593999997E+02  0.45594000000E+02  0.51100000000E-03 0. -1.
         11   -1    0    0    0    0 -0.00000000000E+00 -0.00000000000E+00 -0.45593999997E+02  0.45594000000E+02  0.51100000000E-03 0.  1.
         23    2    1    2    0    0 -0.35527136788E-14  0.00000000000E+00 -0.71054273576E-14  0.91188000000E+02  0.91188000000E+02 0.  0.
    9900012    2    3    3    0    0 -0.14671269467E+02 -0.18924533880E+02 -0.32860030389E+02  0.50528859238E+02  0.29999998138E+02 0.  0.
         12    1    3    3    0    0  0.14671269467E+02  0.18924533880E+02  0.32860030389E+02  0.40659140762E+02  0.00000000000E+00 0. -1.
         11    1    4    4    0    0  0.63487243465E+01 -0.26607178203E+01 -0.69711163568E+01  0.97970497430E+01  0.51100000000E-03 0. -1.
        -11    1    4    4    0    0 -0.10522289416E+02 -0.12944176041E+02 -0.24492339886E+02  0.29633511120E+02  0.51100000000E-03 0.  1.
        -12    1    4    4    0    0 -0.10497704397E+02 -0.33196400190E+01 -0.13965741464E+01  0.11098298375E+02  0.00000000000E+00 0.  1.
</event>
<event>
 8    1  0.7977359E-012  0.9118800E+02  0.7816164E-02  0.1184000E+00
        -11   -1    0    0    0    0  0.00000000000E+00  0.00000000000E+00  0.45593999997E+02  0.45594000000E+02  0.51100000000E-03 0. -1.
         11   -1    0    0    0    0 -0.00000000000E+00 -0.00000000000E+00 -0.45593999997E+02  0.45594000000E+02  0.51100000000E-03 0.  1.
         23    2    1    2    0    0  0.00000000000E+00  0.00000000000E+00  0.00000000000E+00  0.91188000000E+02  0.91188000000E+02 0.  0.
    9900012    2    3    3    0    0 -0.19525462036E+02  0.35340090802E+02  0.47957833288E+01  0.50528865438E+02  0.30000016985E+02 0.  0.
         12    1    3    3    0    0  0.19525462036E+02 -0.35340090802E+02 -0.47957833288E+01  0.40659134562E+02  0.00000000000E+00 0. -1.
         11    1    4    4    0    0 -0.15474193195E+02  0.11855031000E+02  0.12018799057E+02  0.22900741169E+02  0.51100000000E-03 0. -1.
        -11    1    4    4    0    0 -0.64051682418E+01  0.77619859462E+01 -0.59220194874E+01  0.11676682795E+02  0.51100000000E-03 0.  1.
         12    1    4    4    0    0  0.23538994006E+01  0.15723073856E+02 -0.13009962407E+01  0.15951441474E+02  0.00000000000E+00 0. -1.
</event>
<event>
 8    1  0.7977359E-012  0.9118800E+02  0.7816164E-02  0.1184000E+00
        -11   -1    0    0    0    0  0.00000000000E+00  0.00000000000E+00  0.45593999997E+02  0.45594000000E+02  0.51100000000E-03 0.  1.
         11   -1    0    0    0    0 -0.00000000000E+00 -0.00000000000E+00 -0.45593999997E+02  0.45594000000E+02  0.51100000000E-03 0. -1.
         23    2    1    2    0    0  0.35527136788E-14  0.00000000000E+00  0.35527136788E-14  0.91188000000E+02  0.91188000000E+02 0.  0.
    9900012    2    3    3    0    0  0.27966742143E+02  0.23549263221E+02  0.17789434448E+02  0.50528801258E+02  0.29999821904E+02 0.  0.
        -12    1    3    3    0    0 -0.27966742143E+02 -0.23549263221E+02 -0.17789434448E+02  0.40659198742E+02  0.00000000000E+00 0.  1.
         11    1    4    4    0    0 -0.36617974689E+00 -0.10887239630E+01  0.19865437203E+01  0.22947251880E+01  0.51100000000E-03 0. -1.
        -11    1    4    4    0    0  0.14009847856E+02 -0.30308266645E+01  0.36488488911E+01  0.14791073177E+02  0.51100000000E-03 0.  1.
         12    1    4    4    0    0  0.14323074033E+02  0.27668813849E+02  0.12154041837E+02  0.33443002893E+02  0.00000000000E+00 0. -1.
</event>
<event>
 8    1  0.7977359E-012  0.9118800E+02  0.7816164E-02  0.1184000E+00
        -11   -1    0    0    0    0  0.00000000000E+00  0.00000000000E+00  0.45593999997E+02  0.45594000000E+02  0.51100000000E-03 0. -1.
         11   -1    0    0    0    0 -0.00000000000E+00 -0.00000000000E+00 -0.45593999997E+02  0.45594000000E+02  0.51100000000E-03 0.  1.
         23    2    1    2    0    0  0.00000000000E+00 -0.17763568394E-14  0.00000000000E+00  0.91188000000E+02  0.91188000000E+02 0.  0.
    9900012    2    3    3    0    0  0.34230261707E+02 -0.12754820862E+02  0.17854117844E+02  0.50528858398E+02  0.29999995588E+02 0.  0.
        -12    1    3    3    0    0 -0.34230261707E+02  0.12754820862E+02 -0.17854117844E+02  0.40659141602E+02  0.00000000000E+00 0.  1.
         11    1    4    4    0    0  0.94092539752E+01 -0.19748923144E+01  0.21948294076E+01  0.98616193606E+01  0.51100000000E-03 0. -1.
        -11    1    4    4    0    0  0.11864171882E+02  0.81253078945E+01  0.38587366636E+01  0.14888554387E+02  0.51100000000E-03 0.  1.
        -12    1    4    4    0    0  0.12956835850E+02 -0.18905236442E+02  0.11800551773E+02  0.25778684651E+02  0.00000000000E+00 0.  1.
</event>
<event>
 8    1  0.7977359E-012  0.9118800E+02  0.7816164E-02  0.1184000E+00
        -11   -1    0    0    0    0  0.00000000000E+00  0.00000000000E+00  0.45593999997E+02  0.45594000000E+02  0.51100000000E-03 0. -1.
         11   -1    0    0    0    0 -0.00000000000E+00 -0.00000000000E+00 -0.45593999997E+02  0.45594000000E+02  0.51100000000E-03 0.  1.
         23    2    1    2    0    0  0.35527136788E-14 -0.71054273576E-14  0.26645352591E-14  0.91188000000E+02  0.91188000000E+02 0.  0.
    9900012    2    3    3    0    0 -0.17624818250E+02  0.36570909458E+02 -0.22588323767E+01  0.50528831776E+02  0.29999914667E+02 0.  0.
         12    1    3    3    0    0  0.17624818250E+02 -0.36570909458E+02  0.22588323767E+01  0.40659168224E+02  0.00000000000E+00 0. -1.
         11    1    4    4    0    0  0.28974187342E+01  0.17249084215E+01 -0.10853861855E+01  0.35423731899E+01  0.51100000000E-03 0. -1.
        -11    1    4    4    0    0 -0.72315018845E+01  0.21509615330E+02  0.10318168502E+02  0.24928352787E+02  0.51100000000E-03 0.  1.
        -12    1    4    4    0    0 -0.13290735099E+02  0.13336385707E+02 -0.11491614693E+02  0.22058105799E+02  0.00000000000E+00 0.  1.
</event>
<event>
 8    1  0.7977359E-012  0.9118800E+02  0.7816164E-02  0.1184000E+00
        -11   -1    0    0    0    0  0.00000000000E+00  0.00000000000E+00  0.45593999997E+02  0.45594000000E+02  0.51100000000E-03 0. -1.
         11   -1    0    0    0    0 -0.00000000000E+00 -0.00000000000E+00 -0.45593999997E+02  0.45594000000E+02  0.51100000000E-03 0.  1.
         23    2    1    2    0    0  0.88817841970E-15 -0.19428902931E-15 -0.71054273576E-14  0.91188000000E+02  0.91188000000E+02 0.  0.
    9900012    2    3    3    0    0 -0.32989140937E+01  0.42422270243E-01  0.40525140768E+02  0.50528786184E+02  0.29999776085E+02 0.  0.
        -12    1    3    3    0    0  0.32989140937E+01 -0.42422270243E-01 -0.40525140768E+02  0.40659213816E+02  0.00000000000E+00 0.  1.
         11    1    4    4    0    0 -0.71997240480E+01  0.11844804376E+02  0.28159132294E+02  0.31385859060E+02  0.51100000000E-03 0. -1.
        -11    1    4    4    0    0 -0.19683795683E+01 -0.82026446483E+00  0.22461757877E+01  0.30972016156E+01  0.51100000000E-03 0.  1.
         12    1    4    4    0    0  0.58691895227E+01 -0.10982117641E+02  0.10119832686E+02  0.16045725509E+02  0.00000000000E+00 0. -1.
</event>
<event>
 8    1  0.7977359E-012  0.9118800E+02  0.7816164E-02  0.1184000E+00
        -11   -1    0    0    0    0  0.00000000000E+00  0.00000000000E+00  0.45593999997E+02  0.45594000000E+02  0.51100000000E-03 0. -1.
         11   -1    0    0    0    0 -0.00000000000E+00 -0.00000000000E+00 -0.45593999997E+02  0.45594000000E+02  0.51100000000E-03 0.  1.
         23    2    1    2    0    0  0.00000000000E+00  0.00000000000E+00 -0.35527136788E-14  0.91188000000E+02  0.91188000000E+02 0.  0.
    9900012    2    3    3    0    0  0.20420588582E+02  0.24614283354E+02 -0.25105818844E+02  0.50528861754E+02  0.30000005788E+02 0.  0.
         12    1    3    3    0    0 -0.20420588582E+02 -0.24614283354E+02  0.25105818844E+02  0.40659138246E+02  0.00000000000E+00 0. -1.
         11    1    4    4    0    0  0.15630962735E+02  0.53121818981E+01 -0.10219448324E+02  0.19416060281E+02  0.51100000000E-03 0.  1.
        -11    1    4    4    0    0  0.10122447996E+02  0.46315091247E+01 -0.31067155943E+01  0.11557097917E+02  0.51100000000E-03 0. -1.
        -12    1    4    4    0    0 -0.53328221488E+01  0.14670592331E+02 -0.11779654925E+02  0.19555703556E+02  0.00000000000E+00 0.  1.
</event>
<event>
 8    1  0.7977359E-012  0.9118800E+02  0.7816164E-02  0.1184000E+00
        -11   -1    0    0    0    0  0.00000000000E+00  0.00000000000E+00  0.45593999997E+02  0.45594000000E+02  0.51100000000E-03 0. -1.
         11   -1    0    0    0    0 -0.00000000000E+00 -0.00000000000E+00 -0.45593999997E+02  0.45594000000E+02  0.51100000000E-03 0.  1.
         23    2    1    2    0    0  0.88817841970E-15 -0.72164496601E-15  0.00000000000E+00  0.91188000000E+02  0.91188000000E+02 0.  0.
    9900012    2    3    3    0    0  0.56272965648E+01  0.26538855661E+00 -0.40266965609E+02  0.50528863056E+02  0.30000009745E+02 0.  0.
         12    1    3    3    0    0 -0.56272965648E+01 -0.26538855661E+00  0.40266965609E+02  0.40659136944E+02  0.00000000000E+00 0. -1.
         11    1    4    4    0    0 -0.40099234500E+01  0.39646870714E+01 -0.91724084966E+01  0.10767140175E+02  0.51100000000E-03 0. -1.
        -11    1    4    4    0    0  0.12789076840E+01  0.83534073854E+01 -0.18841152557E+02  0.20649553258E+02  0.51100000000E-03 0.  1.
        -12    1    4    4    0    0  0.83583123308E+01 -0.12052705900E+02 -0.12253404555E+02  0.19112169624E+02  0.00000000000E+00 0.  1.
</event>
<event>
 8    1  0.7977359E-012  0.9118800E+02  0.7816164E-02  0.1184000E+00
        -11   -1    0    0    0    0  0.00000000000E+00  0.00000000000E+00  0.45593999997E+02  0.45594000000E+02  0.51100000000E-03 0. -1.
         11   -1    0    0    0    0 -0.00000000000E+00 -0.00000000000E+00 -0.45593999997E+02  0.45594000000E+02  0.51100000000E-03 0.  1.
         23    2    1    2    0    0  0.71054273576E-14  0.88817841970E-15  0.53290705182E-14  0.91188000000E+02  0.91188000000E+02 0.  0.
    9900012    2    3    3    0    0 -0.37781212966E+02 -0.63341156047E+01 -0.13624409900E+02  0.50528860575E+02  0.30000002204E+02 0.  0.
         12    1    3    3    0    0  0.37781212966E+02  0.63341156047E+01  0.13624409900E+02  0.40659139425E+02  0.00000000000E+00 0. -1.
         11    1    4    4    0    0 -0.16235865696E+02 -0.43183874735E+01 -0.20612041350E+02  0.26591503420E+02  0.51100000000E-03 0.  1.
        -11    1    4    4    0    0 -0.15523647902E+00  0.12423428195E+01  0.50793347120E+00  0.13511146205E+01  0.51100000000E-03 0. -1.
        -12    1    4    4    0    0 -0.21390110790E+02 -0.32580709507E+01  0.64796979779E+01  0.22586242535E+02  0.00000000000E+00 0.  1.
</event>
<event>
 8    1  0.7977359E-012  0.9118800E+02  0.7816164E-02  0.1184000E+00
        -11   -1    0    0    0    0  0.00000000000E+00  0.00000000000E+00  0.45593999997E+02  0.45594000000E+02  0.51100000000E-03 0. -1.
         11   -1    0    0    0    0 -0.00000000000E+00 -0.00000000000E+00 -0.45593999997E+02  0.45594000000E+02  0.51100000000E-03 0.  1.
         23    2    1    2    0    0  0.00000000000E+00  0.17763568394E-14  0.00000000000E+00  0.91188000000E+02  0.91188000000E+02 0.  0.
    9900012    2    3    3    0    0 -0.34142087713E+01  0.99341048804E+01  0.39278789065E+02  0.50528849348E+02  0.29999968078E+02 0.  0.
        -12    1    3    3    0    0  0.34142087713E+01 -0.99341048804E+01 -0.39278789065E+02  0.40659150652E+02  0.00000000000E+00 0.  1.
         11    1    4    4    0    0  0.37489348764E+01  0.20478587267E+01  0.20042689932E+02  0.20492868468E+02  0.51100000000E-03 0. -1.
        -11    1    4    4    0    0  0.44541957854E+01  0.10096089648E+02  0.11299321434E+02  0.15793845365E+02  0.51100000000E-03 0.  1.
         12    1    4    4    0    0 -0.11617339433E+02 -0.22098434947E+01  0.79367776998E+01  0.14242135515E+02  0.00000000000E+00 0. -1.
</event>
<event>
 8    1  0.7977359E-012  0.9118800E+02  0.7816164E-02  0.1184000E+00
        -11   -1    0    0    0    0  0.00000000000E+00  0.00000000000E+00  0.45593999997E+02  0.45594000000E+02  0.51100000000E-03 0. -1.
         11   -1    0    0    0    0 -0.00000000000E+00 -0.00000000000E+00 -0.45593999997E+02  0.45594000000E+02  0.51100000000E-03 0.  1.
         23    2    1    2    0    0  0.71054273576E-14  0.88817841970E-15  0.00000000000E+00  0.91188000000E+02  0.91188000000E+02 0.  0.
    9900012    2    3    3    0    0  0.37376969686E+02  0.45490814428E+01 -0.15343650800E+02  0.50528934286E+02  0.30000226256E+02 0.  0.
         12    1    3    3    0    0 -0.37376969686E+02 -0.45490814428E+01  0.15343650800E+02  0.40659065714E+02  0.00000000000E+00 0. -1.
         11    1    4    4    0    0  0.58104570563E+01 -0.47742641405E+01  0.11390352510E+01  0.76060772314E+01  0.51100000000E-03 0. -1.
        -11    1    4    4    0    0  0.62278459506E+01 -0.69034609394E+01 -0.59742000189E+01  0.11051466159E+02  0.51100000000E-03 0.  1.
        -12    1    4    4    0    0  0.25338666679E+02  0.16226806523E+02 -0.10508486032E+02  0.31871390896E+02  0.00000000000E+00 0.  1.
</event>
<event>
 8    1  0.8652658E-012  0.9118800E+02  0.7816164E-02  0.1184000E+00
        -11   -1    0    0    0    0  0.00000000000E+00  0.00000000000E+00  0.45593999997E+02  0.45594000000E+02  0.51100000000E-03 0. -1.
         11   -1    0    0    0    0 -0.00000000000E+00 -0.00000000000E+00 -0.45593999997E+02  0.45594000000E+02  0.51100000000E-03 0.  1.
         23    2    1    2    0    0  0.00000000000E+00 -0.20539125956E-14  0.00000000000E+00  0.91188000000E+02  0.91188000000E+02 0.  0.
    9900012    2    3    3    0    0  0.17648036707E+02 -0.29990858144E+00  0.36628125337E+02  0.50528896339E+02  0.30000110913E+02 0.  0.
        -12    1    3    3    0    0 -0.17648036707E+02  0.29990858144E+00 -0.36628125337E+02  0.40659103661E+02  0.00000000000E+00 0.  1.
         11    1    4    4    0    0 -0.18127204020E+00  0.27795034061E+01  0.11359505300E+02  0.11696018966E+02  0.51100000000E-03 0. -1.
        -11    1    4    4    0    0  0.10587358909E+02  0.97957862873E+01  0.15207569803E+02  0.20959956518E+02  0.51100000000E-03 0.  1.
        -12    1    4    4    0    0  0.72419498382E+01 -0.12875198275E+02  0.10061050234E+02  0.17872920855E+02  0.00000000000E+00 0.  1.
</event>
<event>
 8    1  0.7977359E-012  0.9118800E+02  0.7816164E-02  0.1184000E+00
        -11   -1    0    0    0    0  0.00000000000E+00  0.00000000000E+00  0.45593999997E+02  0.45594000000E+02  0.51100000000E-03 0. -1.
         11   -1    0    0    0    0 -0.00000000000E+00 -0.00000000000E+00 -0.45593999997E+02  0.45594000000E+02  0.51100000000E-03 0.  1.
         23    2    1    2    0    0  0.35527136788E-14  0.00000000000E+00  0.00000000000E+00  0.91188000000E+02  0.91188000000E+02 0.  0.
    9900012    2    3    3    0    0  0.18773167299E+02  0.26847472267E+02  0.24082079756E+02  0.50528866426E+02  0.30000019990E+02 0.  0.
        -12    1    3    3    0    0 -0.18773167299E+02 -0.26847472267E+02 -0.24082079756E+02  0.40659133574E+02  0.00000000000E+00 0.  1.
         11    1    4    4    0    0 -0.39413677685E+01  0.38652665837E+00  0.86111776274E+01  0.94781940863E+01  0.51100000000E-03 0. -1.
        -11    1    4    4    0    0  0.37776213793E+01  0.12958470766E+02  0.73555650856E+00  0.13517893013E+02  0.51100000000E-03 0.  1.
        -12    1    4    4    0    0  0.18936913688E+02  0.13502474843E+02  0.14735345620E+02  0.27532779327E+02  0.00000000000E+00 0.  1.
</event>
<event>
 8    1  0.7977359E-012  0.9118800E+02  0.7816164E-02  0.1184000E+00
        -11   -1    0    0    0    0  0.00000000000E+00  0.00000000000E+00  0.45593999997E+02  0.45594000000E+02  0.51100000000E-03 0. -1.
         11   -1    0    0    0    0 -0.00000000000E+00 -0.00000000000E+00 -0.45593999997E+02  0.45594000000E+02  0.51100000000E-03 0.  1.
         23    2    1    2    0    0  0.00000000000E+00  0.00000000000E+00  0.00000000000E+00  0.91188000000E+02  0.91188000000E+02 0.  0.
    9900012    2    3    3    0    0  0.39867894291E+01 -0.22589864859E+02 -0.33570345557E+02  0.50528873286E+02  0.30000040841E+02 0.  0.
         12    1    3    3    0    0 -0.39867894291E+01  0.22589864859E+02  0.33570345557E+02  0.40659126714E+02  0.00000000000E+00 0. -1.
         11    1    4    4    0    0  0.95862853163E+01 -0.75755839729E+01 -0.10235445653E+02  0.15938967554E+02  0.51100000000E-03 0. -1.
        -11    1    4    4    0    0  0.69525881402E+01 -0.16246392553E+01 -0.56802219416E+01  0.91237523051E+01  0.51100000000E-03 0.  1.
        -12    1    4    4    0    0 -0.12552084027E+02 -0.13389641631E+02 -0.17654677962E+02  0.25466153427E+02  0.00000000000E+00 0.  1.
</event>
<event>
 8    1  0.7977359E-012  0.9118800E+02  0.7816164E-02  0.1184000E+00
        -11   -1    0    0    0    0  0.00000000000E+00  0.00000000000E+00  0.45593999997E+02  0.45594000000E+02  0.51100000000E-03 0. -1.
         11   -1    0    0    0    0 -0.00000000000E+00 -0.00000000000E+00 -0.45593999997E+02  0.45594000000E+02  0.51100000000E-03 0.  1.
         23    2    1    2    0    0  0.00000000000E+00  0.00000000000E+00  0.00000000000E+00  0.91188000000E+02  0.91188000000E+02 0.  0.
    9900012    2    3    3    0    0  0.33036378185E+02 -0.16221347199E+02 -0.17280930866E+02  0.50528868675E+02  0.30000026824E+02 0.  0.
         12    1    3    3    0    0 -0.33036378185E+02  0.16221347199E+02  0.17280930866E+02  0.40659131325E+02  0.00000000000E+00 0. -1.
         11    1    4    4    0    0 -0.13293572949E+01 -0.16691941567E+01 -0.13879175102E+01  0.25455284768E+01  0.51100000000E-03 0. -1.
        -11    1    4    4    0    0  0.13862549957E+02  0.30769620405E+01 -0.15387793994E+02  0.20938533640E+02  0.51100000000E-03 0.  1.
         12    1    4    4    0    0  0.20503185523E+02 -0.17629115083E+02 -0.50521936140E+00  0.27044806558E+02  0.00000000000E+00 0. -1.
</event>
<event>
 8    1  0.7977359E-012  0.9118800E+02  0.7816164E-02  0.1184000E+00
        -11   -1    0    0    0    0  0.00000000000E+00  0.00000000000E+00  0.45593999997E+02  0.45594000000E+02  0.51100000000E-03 0. -1.
         11   -1    0    0    0    0 -0.00000000000E+00 -0.00000000000E+00 -0.45593999997E+02  0.45594000000E+02  0.51100000000E-03 0.  1.
         23    2    1    2    0    0  0.00000000000E+00  0.00000000000E+00  0.00000000000E+00  0.91188000000E+02  0.91188000000E+02 0.  0.
    9900012    2    3    3    0    0 -0.39461873511E+02  0.85027039440E+01 -0.48611439672E+01  0.50528853968E+02  0.29999982122E+02 0.  0.
         12    1    3    3    0    0  0.39461873511E+02 -0.85027039440E+01  0.48611439672E+01  0.40659146032E+02  0.00000000000E+00 0. -1.
         11    1    4    4    0    0  0.25508413108E+01  0.53096462342E+00 -0.29688140590E+01  0.39500091142E+01  0.51100000000E-03 0. -1.
        -11    1    4    4    0    0 -0.35254917137E+01 -0.47667288619E+01  0.61636988488E+00  0.59607640418E+01  0.51100000000E-03 0.  1.
        -12    1    4    4    0    0 -0.38487223108E+02  0.12738468182E+02 -0.25086997931E+01  0.40618080812E+02  0.00000000000E+00 0.  1.
</event>
<event>
 8    1  0.7977359E-012  0.9118800E+02  0.7816164E-02  0.1184000E+00
        -11   -1    0    0    0    0  0.00000000000E+00  0.00000000000E+00  0.45593999997E+02  0.45594000000E+02  0.51100000000E-03 0. -1.
         11   -1    0    0    0    0 -0.00000000000E+00 -0.00000000000E+00 -0.45593999997E+02  0.45594000000E+02  0.51100000000E-03 0.  1.
         23    2    1    2    0    0  0.00000000000E+00  0.00000000000E+00  0.35527136788E-14  0.91188000000E+02  0.91188000000E+02 0.  0.
    9900012    2    3    3    0    0 -0.83887130118E+01  0.32784938643E+02 -0.22537651277E+02  0.50528825969E+02  0.29999897014E+02 0.  0.
         12    1    3    3    0    0  0.83887130118E+01 -0.32784938643E+02  0.22537651277E+02  0.40659174031E+02  0.00000000000E+00 0. -1.
         11    1    4    4    0    0 -0.25237826526E+01 -0.24430738381E+01 -0.58955249195E+01  0.68626017657E+01  0.51100000000E-03 0. -1.
        -11    1    4    4    0    0  0.40008779686E+01  0.21990116211E+02 -0.15332323175E+02  0.27104471397E+02  0.51100000000E-03 0.  1.
        -12    1    4    4    0    0 -0.98658083279E+01  0.13237896271E+02 -0.13098031816E+01  0.16561752806E+02  0.00000000000E+00 0.  1.
</event>
<event>
 8    1  0.7977359E-012  0.9118800E+02  0.7816164E-02  0.1184000E+00
        -11   -1    0    0    0    0  0.00000000000E+00  0.00000000000E+00  0.45593999997E+02  0.45594000000E+02  0.51100000000E-03 0. -1.
         11   -1    0    0    0    0 -0.00000000000E+00 -0.00000000000E+00 -0.45593999997E+02  0.45594000000E+02  0.51100000000E-03 0.  1.
         23    2    1    2    0    0  0.12767564783E-14 -0.71054273576E-14  0.88817841970E-15  0.91188000000E+02  0.91188000000E+02 0.  0.
    9900012    2    3    3    0    0 -0.38410900918E+00  0.40173221745E+02 -0.62554209172E+01  0.50528861102E+02  0.30000003805E+02 0.  0.
         12    1    3    3    0    0  0.38410900918E+00 -0.40173221745E+02  0.62554209172E+01  0.40659138898E+02  0.00000000000E+00 0. -1.
         11    1    4    4    0    0 -0.70398879299E+01  0.24085112517E+02 -0.75121437952E+01  0.26193223774E+02  0.51100000000E-03 0.  1.
        -11    1    4    4    0    0 -0.39191702491E+01  0.22234931922E+01  0.47550922699E+01  0.65509327713E+01  0.51100000000E-03 0. -1.
        -12    1    4    4    0    0  0.10574949170E+02  0.13864616035E+02 -0.34983693920E+01  0.17784704556E+02  0.00000000000E+00 0.  1.
</event>
<event>
 8    1  0.7977359E-012  0.9118800E+02  0.7816164E-02  0.1184000E+00
        -11   -1    0    0    0    0  0.00000000000E+00  0.00000000000E+00  0.45593999997E+02  0.45594000000E+02  0.51100000000E-03 0. -1.
         11   -1    0    0    0    0 -0.00000000000E+00 -0.00000000000E+00 -0.45593999997E+02  0.45594000000E+02  0.51100000000E-03 0.  1.
         23    2    1    2    0    0  0.00000000000E+00  0.00000000000E+00  0.35527136788E-14  0.91188000000E+02  0.91188000000E+02 0.  0.
    9900012    2    3    3    0    0  0.10898608959E+02 -0.34009360425E+02  0.19435751570E+02  0.50528871715E+02  0.30000036066E+02 0.  0.
        -12    1    3    3    0    0 -0.10898608959E+02  0.34009360425E+02 -0.19435751570E+02  0.40659128285E+02  0.00000000000E+00 0.  1.
         11    1    4    4    0    0  0.61137678524E+01 -0.14394991050E+02  0.15656399492E+01  0.15717670100E+02  0.51100000000E-03 0. -1.
        -11    1    4    4    0    0  0.12393099407E+02 -0.53250705337E+01  0.61449196207E+01  0.14822460204E+02  0.51100000000E-03 0.  1.
         12    1    4    4    0    0 -0.76082583000E+01 -0.14289298842E+02  0.11725192001E+02  0.19988741411E+02  0.00000000000E+00 0. -1.
</event>
<event>
 8    1  0.7977359E-012  0.9118800E+02  0.7816164E-02  0.1184000E+00
        -11   -1    0    0    0    0  0.00000000000E+00  0.00000000000E+00  0.45593999997E+02  0.45594000000E+02  0.51100000000E-03 0.  1.
         11   -1    0    0    0    0 -0.00000000000E+00 -0.00000000000E+00 -0.45593999997E+02  0.45594000000E+02  0.51100000000E-03 0. -1.
         23    2    1    2    0    0 -0.71054273576E-14  0.88817841970E-15  0.00000000000E+00  0.91188000000E+02  0.91188000000E+02 0.  0.
    9900012    2    3    3    0    0 -0.38026155475E+02  0.76137394403E+01 -0.12215068305E+02  0.50528862993E+02  0.30000009552E+02 0.  0.
         12    1    3    3    0    0  0.38026155475E+02 -0.76137394403E+01  0.12215068305E+02  0.40659137007E+02  0.00000000000E+00 0. -1.
         11    1    4    4    0    0 -0.18275004113E+02  0.74985916847E+01  0.30416166370E+01  0.19986397489E+02  0.51100000000E-03 0. -1.
        -11    1    4    4    0    0 -0.95790039464E+01 -0.63522186065E+01 -0.52239054560E+00  0.11505689461E+02  0.51100000000E-03 0.  1.
         12    1    4    4    0    0 -0.10172147416E+02  0.64673663621E+01 -0.14734294397E+02  0.19036776042E+02  0.00000000000E+00 0. -1.
</event>
<event>
 8    1  0.7977359E-012  0.9118800E+02  0.7816164E-02  0.1184000E+00
        -11   -1    0    0    0    0  0.00000000000E+00  0.00000000000E+00  0.45593999997E+02  0.45594000000E+02  0.51100000000E-03 0. -1.
         11   -1    0    0    0    0 -0.00000000000E+00 -0.00000000000E+00 -0.45593999997E+02  0.45594000000E+02  0.51100000000E-03 0.  1.
         23    2    1    2    0    0  0.00000000000E+00  0.88817841970E-15 -0.71054273576E-14  0.91188000000E+02  0.91188000000E+02 0.  0.
    9900012    2    3    3    0    0 -0.24364825881E+02  0.64912501898E+01 -0.31896484088E+02  0.50528846462E+02  0.29999959307E+02 0.  0.
         12    1    3    3    0    0  0.24364825881E+02 -0.64912501898E+01  0.31896484088E+02  0.40659153538E+02  0.00000000000E+00 0. -1.
         11    1    4    4    0    0 -0.95525776284E+01  0.13865435198E+01 -0.16103009385E+02  0.18774481452E+02  0.51100000000E-03 0.  1.
        -11    1    4    4    0    0 -0.19055312373E+02  0.78189908385E+00 -0.17034510033E+02  0.25571289137E+02  0.51100000000E-03 0. -1.
         12    1    4    4    0    0  0.42430641203E+01  0.43228075862E+01  0.12410353306E+01  0.61830758728E+01  0.00000000000E+00 0. -1.
</event>
<event>
 8    1  0.7977359E-012  0.9118800E+02  0.7816164E-02  0.1184000E+00
        -11   -1    0    0    0    0  0.00000000000E+00  0.00000000000E+00  0.45593999997E+02  0.45594000000E+02  0.51100000000E-03 0. -1.
         11   -1    0    0    0    0 -0.00000000000E+00 -0.00000000000E+00 -0.45593999997E+02  0.45594000000E+02  0.51100000000E-03 0.  1.
         23    2    1    2    0    0  0.88817841970E-15  0.00000000000E+00  0.00000000000E+00  0.91188000000E+02  0.91188000000E+02 0.  0.
    9900012    2    3    3    0    0  0.56334370200E+01  0.34499204939E+02  0.20766182006E+02  0.50528867334E+02  0.30000022748E+02 0.  0.
        -12    1    3    3    0    0 -0.56334370200E+01 -0.34499204939E+02 -0.20766182006E+02  0.40659132666E+02  0.00000000000E+00 0.  1.
         11    1    4    4    0    0  0.41494738016E+01  0.49259931034E+01  0.15953380081E+01  0.66354083903E+01  0.51100000000E-03 0. -1.
        -11    1    4    4    0    0 -0.44396593708E+00  0.28281142955E+01 -0.62937534689E+01  0.69142367048E+01  0.51100000000E-03 0.  1.
        -12    1    4    4    0    0  0.19279291555E+01  0.26745097540E+02  0.25464597467E+02  0.36979222239E+02  0.00000000000E+00 0.  1.
</event>
<event>
 8    1  0.7977359E-012  0.9118800E+02  0.7816164E-02  0.1184000E+00
        -11   -1    0    0    0    0  0.00000000000E+00  0.00000000000E+00  0.45593999997E+02  0.45594000000E+02  0.51100000000E-03 0.  1.
         11   -1    0    0    0    0 -0.00000000000E+00 -0.00000000000E+00 -0.45593999997E+02  0.45594000000E+02  0.51100000000E-03 0. -1.
         23    2    1    2    0    0  0.00000000000E+00  0.35527136788E-14 -0.44408920985E-15  0.91188000000E+02  0.91188000000E+02 0.  0.
    9900012    2    3    3    0    0  0.37048886331E+02  0.16367387772E+02  0.35572788973E+01  0.50528860879E+02  0.30000003129E+02 0.  0.
         12    1    3    3    0    0 -0.37048886331E+02 -0.16367387772E+02 -0.35572788973E+01  0.40659139121E+02  0.00000000000E+00 0. -1.
         11    1    4    4    0    0  0.32205965020E+02  0.76975316370E+01 -0.58315952573E+01  0.33622666159E+02  0.51100000000E-03 0. -1.
        -11    1    4    4    0    0  0.57182245810E+01  0.77788478779E+00  0.21407424490E+01  0.61551584542E+01  0.51100000000E-03 0.  1.
        -12    1    4    4    0    0 -0.87530326968E+00  0.78919713476E+01  0.72481317056E+01  0.10751036266E+02  0.00000000000E+00 0.  1.
</event>
<event>
 8    1  0.7977359E-012  0.9118800E+02  0.7816164E-02  0.1184000E+00
        -11   -1    0    0    0    0  0.00000000000E+00  0.00000000000E+00  0.45593999997E+02  0.45594000000E+02  0.51100000000E-03 0. -1.
         11   -1    0    0    0    0 -0.00000000000E+00 -0.00000000000E+00 -0.45593999997E+02  0.45594000000E+02  0.51100000000E-03 0.  1.
         23    2    1    2    0    0  0.00000000000E+00  0.44408920985E-15 -0.71054273576E-14  0.91188000000E+02  0.91188000000E+02 0.  0.
    9900012    2    3    3    0    0  0.20976389657E+02  0.31669451531E+01 -0.34686162220E+02  0.50528827429E+02  0.29999901452E+02 0.  0.
         12    1    3    3    0    0 -0.20976389657E+02 -0.31669451531E+01  0.34686162220E+02  0.40659172571E+02  0.00000000000E+00 0. -1.
         11    1    4    4    0    0  0.39561757672E+00  0.74127692250E-02 -0.43197377061E+01  0.43378223023E+01  0.51100000000E-03 0. -1.
        -11    1    4    4    0    0 -0.10494109633E+01 -0.31006509579E+01 -0.21885556206E+02  0.22129005184E+02  0.51100000000E-03 0.  1.
         12    1    4    4    0    0  0.21630183043E+02  0.62601833418E+01 -0.84808683080E+01  0.24061999942E+02  0.00000000000E+00 0. -1.
</event>
<event>
 8    1  0.7977359E-012  0.9118800E+02  0.7816164E-02  0.1184000E+00
        -11   -1    0    0    0    0  0.00000000000E+00  0.00000000000E+00  0.45593999997E+02  0.45594000000E+02  0.51100000000E-03 0. -1.
         11   -1    0    0    0    0 -0.00000000000E+00 -0.00000000000E+00 -0.45593999997E+02  0.45594000000E+02  0.51100000000E-03 0.  1.
         23    2    1    2    0    0 -0.71054273576E-14  0.27755575616E-15 -0.22204460493E-15  0.91188000000E+02  0.91188000000E+02 0.  0.
    9900012    2    3    3    0    0 -0.40649488071E+02 -0.35862783378E+00  0.81014023850E+00  0.50528858081E+02  0.29999994623E+02 0.  0.
        -12    1    3    3    0    0  0.40649488071E+02  0.35862783378E+00 -0.81014023850E+00  0.40659141919E+02  0.00000000000E+00 0.  1.
         11    1    4    4    0    0 -0.19366571743E+02  0.21121675890E+01 -0.52966009327E+01  0.20188594173E+02  0.51100000000E-03 0. -1.
        -11    1    4    4    0    0 -0.14906203068E+02 -0.35188931883E+01 -0.61338626861E+01  0.16498538447E+02  0.51100000000E-03 0.  1.
         12    1    4    4    0    0 -0.63767132607E+01  0.10480977656E+01  0.12240603857E+02  0.13841725461E+02  0.00000000000E+00 0. -1.
</event>
<event>
 8    1  0.7977359E-012  0.9118800E+02  0.7816164E-02  0.1184000E+00
        -11   -1    0    0    0    0  0.00000000000E+00  0.00000000000E+00  0.45593999997E+02  0.45594000000E+02  0.51100000000E-03 0. -1.
         11   -1    0    0    0    0 -0.00000000000E+00 -0.00000000000E+00 -0.45593999997E+02  0.45594000000E+02  0.51100000000E-03 0.  1.
         23    2    1    2    0    0 -0.35527136788E-14  0.00000000000E+00  0.35527136788E-14  0.91188000000E+02  0.91188000000E+02 0.  0.
    9900012    2    3    3    0    0 -0.24781103453E+02 -0.93700430774E+01  0.30842586971E+02  0.50528856297E+02  0.29999989200E+02 0.  0.
        -12    1    3    3    0    0  0.24781103453E+02  0.93700430774E+01 -0.30842586971E+02  0.40659143703E+02  0.00000000000E+00 0.  1.
         11    1    4    4    0    0 -0.18244881882E+02 -0.42619392205E+01  0.17669947007E+02  0.25753968010E+02  0.51100000000E-03 0. -1.
        -11    1    4    4    0    0  0.49646992883E+01 -0.52059521038E+01 -0.12315885779E+00  0.71948137360E+01  0.51100000000E-03 0.  1.
         12    1    4    4    0    0 -0.11500920860E+02  0.97848246875E-01  0.13295798822E+02  0.17580074551E+02  0.00000000000E+00 0. -1.
</event>
<event>
 8    1  0.7977359E-012  0.9118800E+02  0.7816164E-02  0.1184000E+00
        -11   -1    0    0    0    0  0.00000000000E+00  0.00000000000E+00  0.45593999997E+02  0.45594000000E+02  0.51100000000E-03 0. -1.
         11   -1    0    0    0    0 -0.00000000000E+00 -0.00000000000E+00 -0.45593999997E+02  0.45594000000E+02  0.51100000000E-03 0.  1.
         23    2    1    2    0    0  0.00000000000E+00  0.22204460493E-15  0.00000000000E+00  0.91188000000E+02  0.91188000000E+02 0.  0.
    9900012    2    3    3    0    0  0.15800159883E+02  0.61970475423E+00  0.37458467379E+02  0.50528857551E+02  0.29999993012E+02 0.  0.
        -12    1    3    3    0    0 -0.15800159883E+02 -0.61970475423E+00 -0.37458467379E+02  0.40659142449E+02  0.00000000000E+00 0.  1.
         11    1    4    4    0    0 -0.40459767532E+01  0.23683584801E+01  0.10471724529E+02  0.11473276108E+02  0.51100000000E-03 0. -1.
        -11    1    4    4    0    0 -0.38026114160E+01  0.22832698063E+00  0.11615187045E+01  0.39826012546E+01  0.51100000000E-03 0.  1.
         12    1    4    4    0    0  0.23648748052E+02 -0.19769807065E+01  0.25825224146E+02  0.35072980189E+02  0.00000000000E+00 0. -1.
</event>
<event>
 8    1  0.7977359E-012  0.9118800E+02  0.7816164E-02  0.1184000E+00
        -11   -1    0    0    0    0  0.00000000000E+00  0.00000000000E+00  0.45593999997E+02  0.45594000000E+02  0.51100000000E-03 0. -1.
         11   -1    0    0    0    0 -0.00000000000E+00 -0.00000000000E+00 -0.45593999997E+02  0.45594000000E+02  0.51100000000E-03 0.  1.
         23    2    1    2    0    0  0.00000000000E+00  0.17763568394E-14  0.00000000000E+00  0.91188000000E+02  0.91188000000E+02 0.  0.
    9900012    2    3    3    0    0  0.11265401025E+02 -0.12069855995E+02 -0.37156091779E+02  0.50528857851E+02  0.29999993924E+02 0.  0.
         12    1    3    3    0    0 -0.11265401025E+02  0.12069855995E+02  0.37156091779E+02  0.40659142149E+02  0.00000000000E+00 0. -1.
         11    1    4    4    0    0  0.94966286324E+01 -0.14505741041E+02 -0.26850277740E+02  0.31961537721E+02  0.51100000000E-03 0. -1.
        -11    1    4    4    0    0  0.41289555290E+01  0.50903872110E+01 -0.12694563581E+02  0.14286786220E+02  0.51100000000E-03 0.  1.
         12    1    4    4    0    0 -0.23601831364E+01 -0.26545021652E+01  0.23887495417E+01  0.42805339101E+01  0.00000000000E+00 0. -1.
</event>
<event>
 8    1  0.7977359E-012  0.9118800E+02  0.7816164E-02  0.1184000E+00
        -11   -1    0    0    0    0  0.00000000000E+00  0.00000000000E+00  0.45593999997E+02  0.45594000000E+02  0.51100000000E-03 0. -1.
         11   -1    0    0    0    0 -0.00000000000E+00 -0.00000000000E+00 -0.45593999997E+02  0.45594000000E+02  0.51100000000E-03 0.  1.
         23    2    1    2    0    0  0.00000000000E+00 -0.17763568394E-14  0.00000000000E+00  0.91188000000E+02  0.91188000000E+02 0.  0.
    9900012    2    3    3    0    0  0.22449858800E+02 -0.87161090514E+01  0.32759726502E+02  0.50528850997E+02  0.29999973092E+02 0.  0.
        -12    1    3    3    0    0 -0.22449858800E+02  0.87161090514E+01 -0.32759726502E+02  0.40659149003E+02  0.00000000000E+00 0.  1.
         11    1    4    4    0    0  0.53522458604E+01  0.24728265070E+01  0.59042754370E+01  0.83439723981E+01  0.51100000000E-03 0. -1.
        -11    1    4    4    0    0  0.62618991465E+01 -0.17361661496E+02  0.22208656983E+02  0.28876688108E+02  0.51100000000E-03 0.  1.
        -12    1    4    4    0    0  0.10835713793E+02  0.61727259377E+01  0.46467940815E+01  0.13308190491E+02  0.00000000000E+00 0.  1.
</event>
<event>
 8    1  0.7977359E-012  0.9118800E+02  0.7816164E-02  0.1184000E+00
        -11   -1    0    0    0    0  0.00000000000E+00  0.00000000000E+00  0.45593999997E+02  0.45594000000E+02  0.51100000000E-03 0.  1.
         11   -1    0    0    0    0 -0.00000000000E+00 -0.00000000000E+00 -0.45593999997E+02  0.45594000000E+02  0.51100000000E-03 0. -1.
         23    2    1    2    0    0  0.00000000000E+00  0.35527136788E-14  0.88817841970E-15  0.91188000000E+02  0.91188000000E+02 0.  0.
    9900012    2    3    3    0    0 -0.34676999712E+02 -0.21000207137E+02 -0.31084145344E+01  0.50528865113E+02  0.30000015997E+02 0.  0.
        -12    1    3    3    0    0  0.34676999712E+02  0.21000207137E+02  0.31084145344E+01  0.40659134887E+02  0.00000000000E+00 0.  1.
         11    1    4    4    0    0 -0.10166609562E+02 -0.15233535394E+02 -0.93696792773E+01  0.20572103456E+02  0.51100000000E-03 0. -1.
        -11    1    4    4    0    0 -0.30773548248E+01 -0.49944686406E+01 -0.30077902582E+01  0.65925436834E+01  0.51100000000E-03 0.  1.
        -12    1    4    4    0    0 -0.21433035325E+02 -0.77220310229E+00  0.92690550010E+01  0.23364217973E+02  0.00000000000E+00 0.  1.
</event>
<event>
 8    1  0.7977359E-012  0.9118800E+02  0.7816164E-02  0.1184000E+00
        -11   -1    0    0    0    0  0.00000000000E+00  0.00000000000E+00  0.45593999997E+02  0.45594000000E+02  0.51100000000E-03 0. -1.
         11   -1    0    0    0    0 -0.00000000000E+00 -0.00000000000E+00 -0.45593999997E+02  0.45594000000E+02  0.51100000000E-03 0.  1.
         23    2    1    2    0    0  0.00000000000E+00  0.00000000000E+00  0.71054273576E-14  0.91188000000E+02  0.91188000000E+02 0.  0.
    9900012    2    3    3    0    0  0.25574484743E+02  0.71186754093E+01 -0.30796694184E+02  0.50528853648E+02  0.29999981147E+02 0.  0.
         12    1    3    3    0    0 -0.25574484743E+02 -0.71186754093E+01  0.30796694184E+02  0.40659146352E+02  0.00000000000E+00 0. -1.
         11    1    4    4    0    0  0.27765283758E+02  0.84966386736E+00 -0.12619411791E+02  0.30510366518E+02  0.51100000000E-03 0.  1.
        -11    1    4    4    0    0 -0.28435738787E+00  0.56536380464E+01 -0.90550540983E+01  0.10678880431E+02  0.51100000000E-03 0. -1.
        -12    1    4    4    0    0 -0.19064416271E+01  0.61537349545E+00 -0.91222282950E+01  0.93396066985E+01  0.00000000000E+00 0.  1.
</event>
<event>
 8    1  0.7977359E-012  0.9118800E+02  0.7816164E-02  0.1184000E+00
        -11   -1    0    0    0    0  0.00000000000E+00  0.00000000000E+00  0.45593999997E+02  0.45594000000E+02  0.51100000000E-03 0.  1.
         11   -1    0    0    0    0 -0.00000000000E+00 -0.00000000000E+00 -0.45593999997E+02  0.45594000000E+02  0.51100000000E-03 0. -1.
         23    2    1    2    0    0  0.00000000000E+00  0.00000000000E+00  0.00000000000E+00  0.91188000000E+02  0.91188000000E+02 0.  0.
    9900012    2    3    3    0    0 -0.20371440790E+02  0.34994993849E+02  0.36770394088E+01  0.50528858184E+02  0.29999994937E+02 0.  0.
         12    1    3    3    0    0  0.20371440790E+02 -0.34994993849E+02 -0.36770394088E+01  0.40659141816E+02  0.00000000000E+00 0. -1.
         11    1    4    4    0    0 -0.93780512457E+01 -0.22527124577E+01  0.24012165474E+00  0.96478089354E+01  0.51100000000E-03 0. -1.
        -11    1    4    4    0    0 -0.85369895632E+01  0.15613506854E+02  0.63920854956E+01  0.18908213673E+02  0.51100000000E-03 0.  1.
         12    1    4    4    0    0 -0.24563999809E+01  0.21634199453E+02 -0.29551677415E+01  0.21972835576E+02  0.00000000000E+00 0. -1.
</event>
<event>
 8    1  0.7977359E-012  0.9118800E+02  0.7816164E-02  0.1184000E+00
        -11   -1    0    0    0    0  0.00000000000E+00  0.00000000000E+00  0.45593999997E+02  0.45594000000E+02  0.51100000000E-03 0.  1.
         11   -1    0    0    0    0 -0.00000000000E+00 -0.00000000000E+00 -0.45593999997E+02  0.45594000000E+02  0.51100000000E-03 0. -1.
         23    2    1    2    0    0  0.00000000000E+00 -0.35527136788E-14 -0.35527136788E-14  0.91188000000E+02  0.91188000000E+02 0.  0.
    9900012    2    3    3    0    0 -0.25416798055E+02  0.24323301933E+02  0.20384404280E+02  0.50528922561E+02  0.30000190617E+02 0.  0.
        -12    1    3    3    0    0  0.25416798055E+02 -0.24323301933E+02 -0.20384404280E+02  0.40659077439E+02  0.00000000000E+00 0.  1.
         11    1    4    4    0    0 -0.19118244541E+02  0.18197551506E+02  0.22081812774E+02  0.34413145900E+02  0.51100000000E-03 0. -1.
        -11    1    4    4    0    0 -0.20077048521E+01  0.40078040685E+00  0.55598865402E+01  0.59248495600E+01  0.51100000000E-03 0.  1.
        -12    1    4    4    0    0 -0.42908486622E+01  0.57249700201E+01 -0.72572950334E+01  0.10190927101E+02  0.00000000000E+00 0.  1.
</event>
<event>
 8    1  0.7977359E-012  0.9118800E+02  0.7816164E-02  0.1184000E+00
        -11   -1    0    0    0    0  0.00000000000E+00  0.00000000000E+00  0.45593999997E+02  0.45594000000E+02  0.51100000000E-03 0. -1.
         11   -1    0    0    0    0 -0.00000000000E+00 -0.00000000000E+00 -0.45593999997E+02  0.45594000000E+02  0.51100000000E-03 0.  1.
         23    2    1    2    0    0 -0.13322676296E-14  0.35527136788E-14 -0.71054273576E-14  0.91188000000E+02  0.91188000000E+02 0.  0.
    9900012    2    3    3    0    0 -0.21286252128E+01  0.12323395004E+02 -0.38688086961E+02  0.50528865941E+02  0.30000018516E+02 0.  0.
         12    1    3    3    0    0  0.21286252128E+01 -0.12323395004E+02  0.38688086961E+02  0.40659134059E+02  0.00000000000E+00 0. -1.
         11    1    4    4    0    0 -0.73112261442E+01  0.17954452010E+02 -0.17552445357E+02  0.26151571903E+02  0.51100000000E-03 0. -1.
        -11    1    4    4    0    0 -0.87347936194E+00  0.11901777288E+01 -0.13656822803E+00  0.14826126817E+01  0.51100000000E-03 0.  1.
        -12    1    4    4    0    0  0.60560802933E+01 -0.68212347345E+01 -0.20999073375E+02  0.22894681357E+02  0.00000000000E+00 0.  1.
</event>
<event>
 8    1  0.7977359E-012  0.9118800E+02  0.7816164E-02  0.1184000E+00
        -11   -1    0    0    0    0  0.00000000000E+00  0.00000000000E+00  0.45593999997E+02  0.45594000000E+02  0.51100000000E-03 0.  1.
         11   -1    0    0    0    0 -0.00000000000E+00 -0.00000000000E+00 -0.45593999997E+02  0.45594000000E+02  0.51100000000E-03 0. -1.
         23    2    1    2    0    0  0.00000000000E+00  0.00000000000E+00  0.17763568394E-14  0.91188000000E+02  0.91188000000E+02 0.  0.
    9900012    2    3    3    0    0  0.37388829831E+02 -0.67801876004E+01  0.14466170269E+02  0.50528860532E+02  0.30000002074E+02 0.  0.
         12    1    3    3    0    0 -0.37388829831E+02  0.67801876004E+01 -0.14466170269E+02  0.40659139468E+02  0.00000000000E+00 0. -1.
         11    1    4    4    0    0 -0.10692185116E+01  0.11819093553E+01 -0.61887562088E+00  0.17097208091E+01  0.51100000000E-03 0. -1.
        -11    1    4    4    0    0  0.38392244668E+01  0.36381548043E+00  0.12543117742E+02  0.13122568695E+02  0.51100000000E-03 0.  1.
         12    1    4    4    0    0  0.34618823876E+02 -0.83259124362E+01  0.25419281475E+01  0.35696571028E+02  0.00000000000E+00 0. -1.
</event>
<event>
 8    1  0.7977359E-012  0.9118800E+02  0.7816164E-02  0.1184000E+00
        -11   -1    0    0    0    0  0.00000000000E+00  0.00000000000E+00  0.45593999997E+02  0.45594000000E+02  0.51100000000E-03 0. -1.
         11   -1    0    0    0    0 -0.00000000000E+00 -0.00000000000E+00 -0.45593999997E+02  0.45594000000E+02  0.51100000000E-03 0.  1.
         23    2    1    2    0    0  0.35527136788E-14 -0.17763568394E-14  0.00000000000E+00  0.91188000000E+02  0.91188000000E+02 0.  0.
    9900012    2    3    3    0    0  0.25195129746E+02  0.15632753633E+02  0.27820635576E+02  0.50528864337E+02  0.30000013637E+02 0.  0.
        -12    1    3    3    0    0 -0.25195129746E+02 -0.15632753633E+02 -0.27820635576E+02  0.40659135663E+02  0.00000000000E+00 0.  1.
         11    1    4    4    0    0  0.35212152517E+01 -0.26528457620E+01 -0.34136991083E+00  0.44218866067E+01  0.51100000000E-03 0. -1.
        -11    1    4    4    0    0  0.43925510983E+01  0.42730112276E+01 -0.37652368459E+01  0.71923667085E+01  0.51100000000E-03 0.  1.
        -12    1    4    4    0    0  0.17281363396E+02  0.14012588167E+02  0.31927242333E+02  0.38914611021E+02  0.00000000000E+00 0.  1.
</event>
<event>
 8    1  0.7977359E-012  0.9118800E+02  0.7816164E-02  0.1184000E+00
        -11   -1    0    0    0    0  0.00000000000E+00  0.00000000000E+00  0.45593999997E+02  0.45594000000E+02  0.51100000000E-03 0. -1.
         11   -1    0    0    0    0 -0.00000000000E+00 -0.00000000000E+00 -0.45593999997E+02  0.45594000000E+02  0.51100000000E-03 0.  1.
         23    2    1    2    0    0  0.35527136788E-14  0.00000000000E+00  0.71054273576E-14  0.91188000000E+02  0.91188000000E+02 0.  0.
    9900012    2    3    3    0    0 -0.19488722660E+02  0.10501726388E+02  0.34103803644E+02  0.50528855998E+02  0.29999988291E+02 0.  0.
        -12    1    3    3    0    0  0.19488722660E+02 -0.10501726388E+02 -0.34103803644E+02  0.40659144002E+02  0.00000000000E+00 0.  1.
         11    1    4    4    0    0 -0.81527110984E+00  0.25503991953E+01  0.23458808230E+02  0.23611117866E+02  0.51100000000E-03 0. -1.
        -11    1    4    4    0    0 -0.19861967375E+01 -0.33873090237E+01 -0.34823301739E+00  0.39420941640E+01  0.51100000000E-03 0.  1.
         12    1    4    4    0    0 -0.16687254812E+02  0.11338636216E+02  0.10993228431E+02  0.22975643968E+02  0.00000000000E+00 0. -1.
</event>
<event>
 8    1  0.7977359E-012  0.9118800E+02  0.7816164E-02  0.1184000E+00
        -11   -1    0    0    0    0  0.00000000000E+00  0.00000000000E+00  0.45593999997E+02  0.45594000000E+02  0.51100000000E-03 0. -1.
         11   -1    0    0    0    0 -0.00000000000E+00 -0.00000000000E+00 -0.45593999997E+02  0.45594000000E+02  0.51100000000E-03 0.  1.
         23    2    1    2    0    0 -0.88817841970E-15  0.00000000000E+00  0.00000000000E+00  0.91188000000E+02  0.91188000000E+02 0.  0.
    9900012    2    3    3    0    0  0.77610388007E+01 -0.17064932267E+02 -0.36079358923E+02  0.50528858631E+02  0.29999996295E+02 0.  0.
         12    1    3    3    0    0 -0.77610388007E+01  0.17064932267E+02  0.36079358923E+02  0.40659141369E+02  0.00000000000E+00 0. -1.
         11    1    4    4    0    0 -0.20985087164E+01 -0.36664402671E+01 -0.25930288432E+01  0.49568459637E+01  0.51100000000E-03 0.  1.
        -11    1    4    4    0    0  0.70504194608E+01 -0.10143771016E+02 -0.55982091464E+00  0.12365997927E+02  0.51100000000E-03 0. -1.
         12    1    4    4    0    0  0.28091280563E+01 -0.32547209836E+01 -0.32926509166E+02  0.33206014741E+02  0.00000000000E+00 0. -1.
</event>
<event>
 8    1  0.7977359E-012  0.9118800E+02  0.7816164E-02  0.1184000E+00
        -11   -1    0    0    0    0  0.00000000000E+00  0.00000000000E+00  0.45593999997E+02  0.45594000000E+02  0.51100000000E-03 0. -1.
         11   -1    0    0    0    0 -0.00000000000E+00 -0.00000000000E+00 -0.45593999997E+02  0.45594000000E+02  0.51100000000E-03 0.  1.
         23    2    1    2    0    0  0.00000000000E+00  0.00000000000E+00  0.00000000000E+00  0.91188000000E+02  0.91188000000E+02 0.  0.
    9900012    2    3    3    0    0 -0.20075492638E+02  0.32374197471E+02  0.14214442437E+02  0.50528875067E+02  0.30000046253E+02 0.  0.
        -12    1    3    3    0    0  0.20075492638E+02 -0.32374197471E+02 -0.14214442437E+02  0.40659124933E+02  0.00000000000E+00 0.  1.
         11    1    4    4    0    0 -0.22161447722E+01  0.17009957072E+02  0.58269759664E+00  0.17163609003E+02  0.51100000000E-03 0. -1.
        -11    1    4    4    0    0 -0.11087087628E+01  0.20691651116E+01 -0.46639651730E+01  0.52214222944E+01  0.51100000000E-03 0.  1.
         12    1    4    4    0    0 -0.16750639103E+02  0.13295075287E+02  0.18295710013E+02  0.28143843770E+02  0.00000000000E+00 0. -1.
</event>
<event>
 8    1  0.7977359E-012  0.9118800E+02  0.7816164E-02  0.1184000E+00
        -11   -1    0    0    0    0  0.00000000000E+00  0.00000000000E+00  0.45593999997E+02  0.45594000000E+02  0.51100000000E-03 0. -1.
         11   -1    0    0    0    0 -0.00000000000E+00 -0.00000000000E+00 -0.45593999997E+02  0.45594000000E+02  0.51100000000E-03 0.  1.
         23    2    1    2    0    0  0.00000000000E+00 -0.35527136788E-14  0.00000000000E+00  0.91188000000E+02  0.91188000000E+02 0.  0.
    9900012    2    3    3    0    0 -0.14680900507E+02  0.19628632927E+02 -0.32440008192E+02  0.50528853405E+02  0.29999980410E+02 0.  0.
         12    1    3    3    0    0  0.14680900507E+02 -0.19628632927E+02  0.32440008192E+02  0.40659146595E+02  0.00000000000E+00 0. -1.
         11    1    4    4    0    0  0.24039304335E+01  0.12764398164E+02 -0.32776315355E+01  0.13395955015E+02  0.51100000000E-03 0. -1.
        -11    1    4    4    0    0  0.23243814442E+01  0.14315632913E+01 -0.47169733064E+01  0.54499504576E+01  0.51100000000E-03 0.  1.
        -12    1    4    4    0    0 -0.19409212385E+02  0.54326714717E+01 -0.24445403350E+02  0.31682947933E+02  0.00000000000E+00 0.  1.
</event>
<event>
 8    1  0.7977359E-012  0.9118800E+02  0.7816164E-02  0.1184000E+00
        -11   -1    0    0    0    0  0.00000000000E+00  0.00000000000E+00  0.45593999997E+02  0.45594000000E+02  0.51100000000E-03 0. -1.
         11   -1    0    0    0    0 -0.00000000000E+00 -0.00000000000E+00 -0.45593999997E+02  0.45594000000E+02  0.51100000000E-03 0.  1.
         23    2    1    2    0    0  0.17763568394E-14  0.00000000000E+00 -0.35527136788E-14  0.91188000000E+02  0.91188000000E+02 0.  0.
    9900012    2    3    3    0    0 -0.96435257280E+01  0.32186466742E+02  0.22895405818E+02  0.50528857887E+02  0.29999994034E+02 0.  0.
        -12    1    3    3    0    0  0.96435257280E+01 -0.32186466742E+02 -0.22895405818E+02  0.40659142113E+02  0.00000000000E+00 0.  1.
         11    1    4    4    0    0 -0.56012796770E+01  0.12508194806E+02  0.77150579770E+01  0.15727408915E+02  0.51100000000E-03 0. -1.
        -11    1    4    4    0    0 -0.47717359570E+01  0.23931743503E+02  0.17378337485E+02  0.29958378213E+02  0.51100000000E-03 0.  1.
        -12    1    4    4    0    0  0.72948990604E+00 -0.42534715677E+01 -0.21979896446E+01  0.48430707592E+01  0.00000000000E+00 0.  1.
</event>
<event>
 8    1  0.7977359E-012  0.9118800E+02  0.7816164E-02  0.1184000E+00
        -11   -1    0    0    0    0  0.00000000000E+00  0.00000000000E+00  0.45593999997E+02  0.45594000000E+02  0.51100000000E-03 0. -1.
         11   -1    0    0    0    0 -0.00000000000E+00 -0.00000000000E+00 -0.45593999997E+02  0.45594000000E+02  0.51100000000E-03 0.  1.
         23    2    1    2    0    0  0.00000000000E+00  0.35527136788E-14  0.00000000000E+00  0.91188000000E+02  0.91188000000E+02 0.  0.
    9900012    2    3    3    0    0  0.23099612506E+02  0.17783387210E+02 -0.28342987306E+02  0.50528857264E+02  0.29999992140E+02 0.  0.
         12    1    3    3    0    0 -0.23099612506E+02 -0.17783387210E+02  0.28342987306E+02  0.40659142736E+02  0.00000000000E+00 0. -1.
         11    1    4    4    0    0 -0.17695265507E+01 -0.80898010786E-01 -0.42805620222E+01  0.46325997224E+01  0.51100000000E-03 0.  1.
        -11    1    4    4    0    0  0.23299773673E+02  0.16412068783E+02 -0.78743242446E+01  0.29567557179E+02  0.51100000000E-03 0. -1.
         12    1    4    4    0    0  0.15693653835E+01  0.14522164378E+01 -0.16188101039E+02  0.16328700363E+02  0.00000000000E+00 0. -1.
</event>
<event>
 8    1  0.1394114E-011  0.9118800E+02  0.7816164E-02  0.1184000E+00
        -11   -1    0    0    0    0  0.00000000000E+00  0.00000000000E+00  0.45593999997E+02  0.45594000000E+02  0.51100000000E-03 0. -1.
         11   -1    0    0    0    0 -0.00000000000E+00 -0.00000000000E+00 -0.45593999997E+02  0.45594000000E+02  0.51100000000E-03 0.  1.
         23    2    1    2    0    0  0.44408920985E-15  0.00000000000E+00  0.00000000000E+00  0.91188000000E+02  0.91188000000E+02 0.  0.
    9900012    2    3    3    0    0 -0.26825676053E+01 -0.20381542916E+02  0.35079367358E+02  0.50528862345E+02  0.30000007583E+02 0.  0.
        -12    1    3    3    0    0  0.26825676053E+01  0.20381542916E+02 -0.35079367358E+02  0.40659137655E+02  0.00000000000E+00 0.  1.
         11    1    4    4    0    0  0.27867567291E+01 -0.11157317837E+02  0.14090481387E+02  0.18187727191E+02  0.51100000000E-03 0. -1.
        -11    1    4    4    0    0  0.53311656151E+01  0.26700993405E+01  0.13204681050E+02  0.14488421556E+02  0.51100000000E-03 0.  1.
        -12    1    4    4    0    0 -0.10800489949E+02 -0.11894324420E+02  0.77842049213E+01  0.17852713598E+02  0.00000000000E+00 0.  1.
</event>
<event>
 8    1  0.7977359E-012  0.9118800E+02  0.7816164E-02  0.1184000E+00
        -11   -1    0    0    0    0  0.00000000000E+00  0.00000000000E+00  0.45593999997E+02  0.45594000000E+02  0.51100000000E-03 0.  1.
         11   -1    0    0    0    0 -0.00000000000E+00 -0.00000000000E+00 -0.45593999997E+02  0.45594000000E+02  0.51100000000E-03 0. -1.
         23    2    1    2    0    0  0.35527136788E-14  0.17763568394E-14  0.71054273576E-14  0.91188000000E+02  0.91188000000E+02 0.  0.
    9900012    2    3    3    0    0  0.30274142165E+02 -0.13093262889E+02  0.23774172612E+02  0.50528825140E+02  0.29999894495E+02 0.  0.
        -12    1    3    3    0    0 -0.30274142165E+02  0.13093262889E+02 -0.23774172612E+02  0.40659174860E+02  0.00000000000E+00 0.  1.
         11    1    4    4    0    0  0.21247685173E+02 -0.85285400487E+01  0.22675582034E+02  0.32223937398E+02  0.51100000000E-03 0. -1.
        -11    1    4    4    0    0  0.11348540614E+02 -0.52358021546E+01  0.52060111487E+01  0.13539038024E+02  0.51100000000E-03 0.  1.
        -12    1    4    4    0    0 -0.23220836222E+01  0.67107931413E+00 -0.41074205706E+01  0.47658497184E+01  0.00000000000E+00 0.  1.
</event>
<event>
 8    1  0.7977359E-012  0.9118800E+02  0.7816164E-02  0.1184000E+00
        -11   -1    0    0    0    0  0.00000000000E+00  0.00000000000E+00  0.45593999997E+02  0.45594000000E+02  0.51100000000E-03 0. -1.
         11   -1    0    0    0    0 -0.00000000000E+00 -0.00000000000E+00 -0.45593999997E+02  0.45594000000E+02  0.51100000000E-03 0.  1.
         23    2    1    2    0    0  0.00000000000E+00  0.00000000000E+00  0.00000000000E+00  0.91188000000E+02  0.91188000000E+02 0.  0.
    9900012    2    3    3    0    0 -0.12662574684E+02  0.15640242314E+02  0.35329984910E+02  0.50528858211E+02  0.29999995018E+02 0.  0.
        -12    1    3    3    0    0  0.12662574684E+02 -0.15640242314E+02 -0.35329984910E+02  0.40659141789E+02  0.00000000000E+00 0.  1.
         11    1    4    4    0    0 -0.61020796865E+01  0.33259737390E+01 -0.12224772913E+01  0.70563396178E+01  0.51100000000E-03 0. -1.
        -11    1    4    4    0    0 -0.23895666839E+01  0.59345856248E+01  0.27557637377E+00  0.64035363725E+01  0.51100000000E-03 0.  1.
         12    1    4    4    0    0 -0.41709283135E+01  0.63796829505E+01  0.36276885827E+02  0.37068982221E+02  0.00000000000E+00 0. -1.
</event>
<event>
 8    1  0.7987854E-012  0.9118800E+02  0.7816164E-02  0.1184000E+00
        -11   -1    0    0    0    0  0.00000000000E+00  0.00000000000E+00  0.45593999997E+02  0.45594000000E+02  0.51100000000E-03 0. -1.
         11   -1    0    0    0    0 -0.00000000000E+00 -0.00000000000E+00 -0.45593999997E+02  0.45594000000E+02  0.51100000000E-03 0.  1.
         23    2    1    2    0    0  0.00000000000E+00  0.00000000000E+00  0.00000000000E+00  0.91188000000E+02  0.91188000000E+02 0.  0.
    9900012    2    3    3    0    0 -0.12935617700E+02  0.93149776457E+01  0.37404102219E+02  0.50528857405E+02  0.29999992567E+02 0.  0.
        -12    1    3    3    0    0  0.12935617700E+02 -0.93149776457E+01 -0.37404102219E+02  0.40659142595E+02  0.00000000000E+00 0.  1.
         11    1    4    4    0    0 -0.59061663360E+00 -0.28269235438E+01  0.27849070732E+02  0.27998411841E+02  0.51100000000E-03 0. -1.
        -11    1    4    4    0    0 -0.10778867256E+02  0.77669362293E+01  0.11423938706E+02  0.17521862160E+02  0.51100000000E-03 0.  1.
        -12    1    4    4    0    0 -0.15661338101E+01  0.43749649602E+01 -0.18689072197E+01  0.50085834035E+01  0.00000000000E+00 0.  1.
</event>
<event>
 8    1  0.7977359E-012  0.9118800E+02  0.7816164E-02  0.1184000E+00
        -11   -1    0    0    0    0  0.00000000000E+00  0.00000000000E+00  0.45593999997E+02  0.45594000000E+02  0.51100000000E-03 0. -1.
         11   -1    0    0    0    0 -0.00000000000E+00 -0.00000000000E+00 -0.45593999997E+02  0.45594000000E+02  0.51100000000E-03 0.  1.
         23    2    1    2    0    0  0.44408920985E-15 -0.35527136788E-14  0.00000000000E+00  0.91188000000E+02  0.91188000000E+02 0.  0.
    9900012    2    3    3    0    0 -0.85628245204E+00  0.10031785344E+02 -0.39392836597E+02  0.50528861889E+02  0.30000006196E+02 0.  0.
         12    1    3    3    0    0  0.85628245204E+00 -0.10031785344E+02  0.39392836597E+02  0.40659138111E+02  0.00000000000E+00 0. -1.
         11    1    4    4    0    0  0.16579560502E+01 -0.43978919190E+01 -0.19944967032E+01  0.51057114055E+01  0.51100000000E-03 0. -1.
        -11    1    4    4    0    0  0.17886742687E+01 -0.37505730585E+01 -0.18069730259E+02  0.18541340453E+02  0.51100000000E-03 0.  1.
         12    1    4    4    0    0 -0.43029127710E+01  0.18180250322E+02 -0.19328609634E+02  0.26881810030E+02  0.00000000000E+00 0. -1.
</event>
<event>
 8    1  0.7977359E-012  0.9118800E+02  0.7816164E-02  0.1184000E+00
        -11   -1    0    0    0    0  0.00000000000E+00  0.00000000000E+00  0.45593999997E+02  0.45594000000E+02  0.51100000000E-03 0. -1.
         11   -1    0    0    0    0 -0.00000000000E+00 -0.00000000000E+00 -0.45593999997E+02  0.45594000000E+02  0.51100000000E-03 0.  1.
         23    2    1    2    0    0 -0.17763568394E-14 -0.71054273576E-14 -0.17763568394E-14  0.91188000000E+02  0.91188000000E+02 0.  0.
    9900012    2    3    3    0    0 -0.13889241788E+02 -0.37327998473E+02 -0.81781022999E+01  0.50528783767E+02  0.29999768738E+02 0.  0.
         12    1    3    3    0    0  0.13889241788E+02  0.37327998473E+02  0.81781022999E+01  0.40659216233E+02  0.00000000000E+00 0. -1.
         11    1    4    4    0    0  0.28923845895E+01 -0.59943187056E+01  0.29579389687E+01  0.72833473459E+01  0.51100000000E-03 0. -1.
        -11    1    4    4    0    0  0.45924966388E+01 -0.12295910133E+02 -0.43636800574E+01  0.13831924497E+02  0.51100000000E-03 0.  1.
        -12    1    4    4    0    0 -0.21374123016E+02 -0.19037769634E+02 -0.67723612111E+01  0.29413511924E+02  0.00000000000E+00 0.  1.
</event>
<event>
 8    1  0.7977359E-012  0.9118800E+02  0.7816164E-02  0.1184000E+00
        -11   -1    0    0    0    0  0.00000000000E+00  0.00000000000E+00  0.45593999997E+02  0.45594000000E+02  0.51100000000E-03 0. -1.
         11   -1    0    0    0    0 -0.00000000000E+00 -0.00000000000E+00 -0.45593999997E+02  0.45594000000E+02  0.51100000000E-03 0.  1.
         23    2    1    2    0    0 -0.35527136788E-14 -0.17763568394E-14  0.00000000000E+00  0.91188000000E+02  0.91188000000E+02 0.  0.
    9900012    2    3    3    0    0 -0.28311751569E+02  0.82497822242E+01  0.27991988103E+02  0.50528861032E+02  0.30000003592E+02 0.  0.
        -12    1    3    3    0    0  0.28311751569E+02 -0.82497822242E+01 -0.27991988103E+02  0.40659138968E+02  0.00000000000E+00 0.  1.
         11    1    4    4    0    0 -0.86218309417E+01 -0.63614908689E+01  0.48786993762E+01  0.11773115252E+02  0.51100000000E-03 0. -1.
        -11    1    4    4    0    0 -0.77979466383E+01 -0.23438040862E+01  0.59818116505E+00  0.81645091913E+01  0.51100000000E-03 0.  1.
         12    1    4    4    0    0 -0.11891973989E+02  0.16955077179E+02  0.22515107562E+02  0.30591236589E+02  0.00000000000E+00 0. -1.
</event>
<event>
 8    1  0.7977359E-012  0.9118800E+02  0.7816164E-02  0.1184000E+00
        -11   -1    0    0    0    0  0.00000000000E+00  0.00000000000E+00  0.45593999997E+02  0.45594000000E+02  0.51100000000E-03 0. -1.
         11   -1    0    0    0    0 -0.00000000000E+00 -0.00000000000E+00 -0.45593999997E+02  0.45594000000E+02  0.51100000000E-03 0.  1.
         23    2    1    2    0    0  0.00000000000E+00  0.00000000000E+00  0.00000000000E+00  0.91188000000E+02  0.91188000000E+02 0.  0.
    9900012    2    3    3    0    0  0.13051337035E+02  0.18170622193E+02  0.33950823493E+02  0.50528839591E+02  0.29999938421E+02 0.  0.
        -12    1    3    3    0    0 -0.13051337035E+02 -0.18170622193E+02 -0.33950823493E+02  0.40659160409E+02  0.00000000000E+00 0.  1.
         11    1    4    4    0    0 -0.23137945746E+00  0.37606072395E+01  0.18888481362E+02  0.19260592714E+02  0.51100000000E-03 0. -1.
        -11    1    4    4    0    0  0.23393087638E+01 -0.46836941419E+01  0.42755585129E+01  0.67594198838E+01  0.51100000000E-03 0.  1.
         12    1    4    4    0    0  0.10943407729E+02  0.19093709096E+02  0.10786783618E+02  0.24508826993E+02  0.00000000000E+00 0. -1.
</event>
<event>
 8    1  0.7977359E-012  0.9118800E+02  0.7816164E-02  0.1184000E+00
        -11   -1    0    0    0    0  0.00000000000E+00  0.00000000000E+00  0.45593999997E+02  0.45594000000E+02  0.51100000000E-03 0.  1.
         11   -1    0    0    0    0 -0.00000000000E+00 -0.00000000000E+00 -0.45593999997E+02  0.45594000000E+02  0.51100000000E-03 0. -1.
         23    2    1    2    0    0  0.00000000000E+00 -0.35527136788E-14  0.35527136788E-14  0.91188000000E+02  0.91188000000E+02 0.  0.
    9900012    2    3    3    0    0 -0.18142508491E+02  0.21051182568E+02  0.29679324424E+02  0.50528865723E+02  0.30000017853E+02 0.  0.
        -12    1    3    3    0    0  0.18142508491E+02 -0.21051182568E+02 -0.29679324424E+02  0.40659134277E+02  0.00000000000E+00 0.  1.
         11    1    4    4    0    0  0.17148720839E+01 -0.23688037429E+01 -0.10158994526E+01  0.30958148193E+01  0.51100000000E-03 0. -1.
        -11    1    4    4    0    0 -0.55983944328E+00 -0.28143330190E+01  0.29972211137E+00  0.28850865064E+01  0.51100000000E-03 0.  1.
         12    1    4    4    0    0 -0.19297541131E+02  0.26234319330E+02  0.30395501766E+02  0.44547964398E+02  0.00000000000E+00 0. -1.
</event>
<event>
 8    1  0.7977359E-012  0.9118800E+02  0.7816164E-02  0.1184000E+00
        -11   -1    0    0    0    0  0.00000000000E+00  0.00000000000E+00  0.45593999997E+02  0.45594000000E+02  0.51100000000E-03 0. -1.
         11   -1    0    0    0    0 -0.00000000000E+00 -0.00000000000E+00 -0.45593999997E+02  0.45594000000E+02  0.51100000000E-03 0.  1.
         23    2    1    2    0    0  0.00000000000E+00  0.35527136788E-14  0.00000000000E+00  0.91188000000E+02  0.91188000000E+02 0.  0.
    9900012    2    3    3    0    0  0.24861692704E+02  0.25564734501E+02  0.19532179828E+02  0.50528862490E+02  0.30000008024E+02 0.  0.
        -12    1    3    3    0    0 -0.24861692704E+02 -0.25564734501E+02 -0.19532179828E+02  0.40659137510E+02  0.00000000000E+00 0.  1.
         11    1    4    4    0    0  0.15934962010E+01  0.14760538029E+01  0.23848345076E+00  0.21851406337E+01  0.51100000000E-03 0. -1.
        -11    1    4    4    0    0  0.69132528128E+01  0.26083281843E+02  0.72676352784E+01  0.27945467951E+02  0.51100000000E-03 0.  1.
         12    1    4    4    0    0  0.16354943690E+02 -0.19946011449E+01  0.12026061099E+02  0.20398253906E+02  0.00000000000E+00 0. -1.
</event>
<event>
 8    1  0.7977359E-012  0.9118800E+02  0.7816164E-02  0.1184000E+00
        -11   -1    0    0    0    0  0.00000000000E+00  0.00000000000E+00  0.45593999997E+02  0.45594000000E+02  0.51100000000E-03 0.  1.
         11   -1    0    0    0    0 -0.00000000000E+00 -0.00000000000E+00 -0.45593999997E+02  0.45594000000E+02  0.51100000000E-03 0. -1.
         23    2    1    2    0    0 -0.35527136788E-14  0.00000000000E+00  0.00000000000E+00  0.91188000000E+02  0.91188000000E+02 0.  0.
    9900012    2    3    3    0    0  0.28833135288E+02 -0.21875060883E+02  0.18528298759E+02  0.50528857927E+02  0.29999994156E+02 0.  0.
        -12    1    3    3    0    0 -0.28833135288E+02  0.21875060883E+02 -0.18528298759E+02  0.40659142073E+02  0.00000000000E+00 0.  1.
         11    1    4    4    0    0  0.25571953183E+01 -0.62838764371E+01 -0.75815116936E-01  0.67846959524E+01  0.51100000000E-03 0. -1.
        -11    1    4    4    0    0  0.82280446772E+01 -0.15868447455E+02  0.72707329382E-01  0.17874944208E+02  0.51100000000E-03 0.  1.
        -12    1    4    4    0    0  0.18047895293E+02  0.27726300912E+00  0.18531406547E+02  0.25869217767E+02  0.00000000000E+00 0.  1.
</event>
<event>
 8    1  0.7977359E-012  0.9118800E+02  0.7816164E-02  0.1184000E+00
        -11   -1    0    0    0    0  0.00000000000E+00  0.00000000000E+00  0.45593999997E+02  0.45594000000E+02  0.51100000000E-03 0. -1.
         11   -1    0    0    0    0 -0.00000000000E+00 -0.00000000000E+00 -0.45593999997E+02  0.45594000000E+02  0.51100000000E-03 0.  1.
         23    2    1    2    0    0 -0.35527136788E-14  0.71054273576E-14  0.35527136788E-14  0.91188000000E+02  0.91188000000E+02 0.  0.
    9900012    2    3    3    0    0  0.19884424070E+02 -0.26205714299E+02 -0.23896358396E+02  0.50528859243E+02  0.29999998155E+02 0.  0.
         12    1    3    3    0    0 -0.19884424070E+02  0.26205714299E+02  0.23896358396E+02  0.40659140757E+02  0.00000000000E+00 0. -1.
         11    1    4    4    0    0  0.13393363258E+02 -0.12014886169E+02 -0.16104608012E+01  0.18064696323E+02  0.51100000000E-03 0. -1.
        -11    1    4    4    0    0  0.48237465772E+01 -0.10555254248E+02 -0.19859599694E+01  0.11773952630E+02  0.51100000000E-03 0.  1.
        -12    1    4    4    0    0  0.16673142352E+01 -0.36355738817E+01 -0.20299937626E+02  0.20690210289E+02  0.00000000000E+00 0.  1.
</event>
<event>
 8    1  0.7977359E-012  0.9118800E+02  0.7816164E-02  0.1184000E+00
        -11   -1    0    0    0    0  0.00000000000E+00  0.00000000000E+00  0.45593999997E+02  0.45594000000E+02  0.51100000000E-03 0. -1.
         11   -1    0    0    0    0 -0.00000000000E+00 -0.00000000000E+00 -0.45593999997E+02  0.45594000000E+02  0.51100000000E-03 0.  1.
         23    2    1    2    0    0  0.00000000000E+00 -0.35527136788E-14  0.00000000000E+00  0.91188000000E+02  0.91188000000E+02 0.  0.
    9900012    2    3    3    0    0 -0.16204177737E+02  0.19078498296E+02  0.32040613871E+02  0.50528863135E+02  0.30000009985E+02 0.  0.
        -12    1    3    3    0    0  0.16204177737E+02 -0.19078498296E+02 -0.32040613871E+02  0.40659136865E+02  0.00000000000E+00 0.  1.
         11    1    4    4    0    0 -0.49195129070E+01  0.11722531452E+02  0.18758471321E+02  0.22660529505E+02  0.51100000000E-03 0. -1.
        -11    1    4    4    0    0  0.59438556866E+01  0.27938971610E+01  0.24349687382E+01  0.70045952621E+01  0.51100000000E-03 0.  1.
         12    1    4    4    0    0 -0.17228520516E+02  0.45620696828E+01  0.10847173812E+02  0.20863738368E+02  0.00000000000E+00 0. -1.
</event>
<event>
 8    1  0.7977359E-012  0.9118800E+02  0.7816164E-02  0.1184000E+00
        -11   -1    0    0    0    0  0.00000000000E+00  0.00000000000E+00  0.45593999997E+02  0.45594000000E+02  0.51100000000E-03 0. -1.
         11   -1    0    0    0    0 -0.00000000000E+00 -0.00000000000E+00 -0.45593999997E+02  0.45594000000E+02  0.51100000000E-03 0.  1.
         23    2    1    2    0    0  0.00000000000E+00  0.00000000000E+00  0.00000000000E+00  0.91188000000E+02  0.91188000000E+02 0.  0.
    9900012    2    3    3    0    0 -0.16855005505E+02  0.61312815233E+01  0.36489476882E+02  0.50528859000E+02  0.29999997417E+02 0.  0.
        -12    1    3    3    0    0  0.16855005505E+02 -0.61312815233E+01 -0.36489476882E+02  0.40659141000E+02  0.00000000000E+00 0.  1.
         11    1    4    4    0    0 -0.16635158717E+01  0.36451409998E+01 -0.31301109783E+01  0.50844796156E+01  0.51100000000E-03 0. -1.
        -11    1    4    4    0    0  0.19493236749E+00  0.60891937115E+01  0.14994021961E+02  0.16184467045E+02  0.51100000000E-03 0.  1.
        -12    1    4    4    0    0 -0.15386422001E+02 -0.36030531880E+01  0.24625565900E+02  0.29259912340E+02  0.00000000000E+00 0.  1.
</event>
<event>
 8    1  0.7977359E-012  0.9118800E+02  0.7816164E-02  0.1184000E+00
        -11   -1    0    0    0    0  0.00000000000E+00  0.00000000000E+00  0.45593999997E+02  0.45594000000E+02  0.51100000000E-03 0. -1.
         11   -1    0    0    0    0 -0.00000000000E+00 -0.00000000000E+00 -0.45593999997E+02  0.45594000000E+02  0.51100000000E-03 0.  1.
         23    2    1    2    0    0  0.00000000000E+00  0.35527136788E-14  0.00000000000E+00  0.91188000000E+02  0.91188000000E+02 0.  0.
    9900012    2    3    3    0    0  0.31731441764E+02  0.24915932575E+02  0.50474679819E+01  0.50528867870E+02  0.30000024377E+02 0.  0.
        -12    1    3    3    0    0 -0.31731441764E+02 -0.24915932575E+02 -0.50474679819E+01  0.40659132130E+02  0.00000000000E+00 0.  1.
         11    1    4    4    0    0  0.57115065887E+01  0.68491209483E+01  0.40144392005E+01  0.97799533554E+01  0.51100000000E-03 0. -1.
        -11    1    4    4    0    0  0.78653725756E+01  0.23780673442E+01  0.11857243444E+02  0.14426139899E+02  0.51100000000E-03 0.  1.
        -12    1    4    4    0    0  0.18154562600E+02  0.15688744283E+02 -0.10824214663E+02  0.26322774615E+02  0.00000000000E+00 0.  1.
</event>
<event>
 8    1  0.7977359E-012  0.9118800E+02  0.7816164E-02  0.1184000E+00
        -11   -1    0    0    0    0  0.00000000000E+00  0.00000000000E+00  0.45593999997E+02  0.45594000000E+02  0.51100000000E-03 0.  1.
         11   -1    0    0    0    0 -0.00000000000E+00 -0.00000000000E+00 -0.45593999997E+02  0.45594000000E+02  0.51100000000E-03 0. -1.
         23    2    1    2    0    0  0.35527136788E-14  0.35527136788E-14 -0.17763568394E-14  0.91188000000E+02  0.91188000000E+02 0.  0.
    9900012    2    3    3    0    0 -0.25283499775E+02 -0.29558188971E+02  0.11841588998E+02  0.50528866633E+02  0.30000020618E+02 0.  0.
         12    1    3    3    0    0  0.25283499775E+02  0.29558188971E+02 -0.11841588998E+02  0.40659133367E+02  0.00000000000E+00 0. -1.
         11    1    4    4    0    0 -0.36476905203E+01  0.29158048762E+01 -0.15748807646E+01  0.49282668243E+01  0.51100000000E-03 0. -1.
        -11    1    4    4    0    0  0.56575566237E+00 -0.12248627315E+02 -0.96955628159E+00  0.12299958952E+02  0.51100000000E-03 0.  1.
        -12    1    4    4    0    0 -0.22201564917E+02 -0.20225366532E+02  0.14386026044E+02  0.33300640857E+02  0.00000000000E+00 0.  1.
</event>
<event>
 8    1  0.7977359E-012  0.9118800E+02  0.7816164E-02  0.1184000E+00
        -11   -1    0    0    0    0  0.00000000000E+00  0.00000000000E+00  0.45593999997E+02  0.45594000000E+02  0.51100000000E-03 0. -1.
         11   -1    0    0    0    0 -0.00000000000E+00 -0.00000000000E+00 -0.45593999997E+02  0.45594000000E+02  0.51100000000E-03 0.  1.
         23    2    1    2    0    0  0.22204460493E-15 -0.88817841970E-15  0.00000000000E+00  0.91188000000E+02  0.91188000000E+02 0.  0.
    9900012    2    3    3    0    0 -0.16862704342E+01  0.15311038439E+01  0.40595290689E+02  0.50528863105E+02  0.30000009894E+02 0.  0.
        -12    1    3    3    0    0  0.16862704342E+01 -0.15311038439E+01 -0.40595290689E+02  0.40659136895E+02  0.00000000000E+00 0.  1.
         11    1    4    4    0    0 -0.61431459934E+01  0.30672241999E+01  0.29474527666E+01  0.74721874348E+01  0.51100000000E-03 0. -1.
        -11    1    4    4    0    0  0.16410102524E+01  0.67554165333E+01  0.34601905009E+01  0.77654031287E+01  0.51100000000E-03 0.  1.
         12    1    4    4    0    0  0.28158653068E+01 -0.82915368893E+01  0.34187647421E+02  0.35291272541E+02  0.00000000000E+00 0. -1.
</event>
<event>
 8    1  0.7977359E-012  0.9118800E+02  0.7816164E-02  0.1184000E+00
        -11   -1    0    0    0    0  0.00000000000E+00  0.00000000000E+00  0.45593999997E+02  0.45594000000E+02  0.51100000000E-03 0. -1.
         11   -1    0    0    0    0 -0.00000000000E+00 -0.00000000000E+00 -0.45593999997E+02  0.45594000000E+02  0.51100000000E-03 0.  1.
         23    2    1    2    0    0  0.00000000000E+00 -0.55511151231E-15  0.35527136788E-14  0.91188000000E+02  0.91188000000E+02 0.  0.
    9900012    2    3    3    0    0  0.28817283843E+02 -0.67014589180E+00 -0.28675433604E+02  0.50528862823E+02  0.30000009037E+02 0.  0.
         12    1    3    3    0    0 -0.28817283843E+02  0.67014589180E+00  0.28675433604E+02  0.40659137177E+02  0.00000000000E+00 0. -1.
         11    1    4    4    0    0 -0.46519449205E+00  0.47217861720E+01 -0.67671356143E+01  0.82647320134E+01  0.51100000000E-03 0. -1.
        -11    1    4    4    0    0  0.22527623947E+02 -0.12439954345E+02 -0.12140072847E+02  0.28453957085E+02  0.51100000000E-03 0.  1.
         12    1    4    4    0    0  0.67548543876E+01  0.70480222808E+01 -0.97682251424E+01  0.13810173724E+02  0.00000000000E+00 0. -1.
</event>
<event>
 8    1  0.7977359E-012  0.9118800E+02  0.7816164E-02  0.1184000E+00
        -11   -1    0    0    0    0  0.00000000000E+00  0.00000000000E+00  0.45593999997E+02  0.45594000000E+02  0.51100000000E-03 0. -1.
         11   -1    0    0    0    0 -0.00000000000E+00 -0.00000000000E+00 -0.45593999997E+02  0.45594000000E+02  0.51100000000E-03 0.  1.
         23    2    1    2    0    0 -0.14210854715E-13  0.17763568394E-14 -0.44408920985E-15  0.91188000000E+02  0.91188000000E+02 0.  0.
    9900012    2    3    3    0    0  0.39405026139E+02 -0.97473103689E+01 -0.23240051339E+01  0.50528841815E+02  0.29999945180E+02 0.  0.
        -12    1    3    3    0    0 -0.39405026139E+02  0.97473103689E+01  0.23240051339E+01  0.40659158185E+02  0.00000000000E+00 0.  1.
         11    1    4    4    0    0  0.17473475568E+02 -0.83597711460E+01 -0.43891090784E+01  0.19861329281E+02  0.51100000000E-03 0. -1.
        -11    1    4    4    0    0  0.20941680197E+02 -0.65099989930E+01 -0.43924182554E+01  0.22365763898E+02  0.51100000000E-03 0.  1.
         12    1    4    4    0    0  0.98987037488E+00  0.51224597700E+01  0.64575222000E+01  0.83017486362E+01  0.00000000000E+00 0. -1.
</event>
<event>
 8    1  0.7977359E-012  0.9118800E+02  0.7816164E-02  0.1184000E+00
        -11   -1    0    0    0    0  0.00000000000E+00  0.00000000000E+00  0.45593999997E+02  0.45594000000E+02  0.51100000000E-03 0.  1.
         11   -1    0    0    0    0 -0.00000000000E+00 -0.00000000000E+00 -0.45593999997E+02  0.45594000000E+02  0.51100000000E-03 0. -1.
         23    2    1    2    0    0 -0.35527136788E-14 -0.17763568394E-14  0.00000000000E+00  0.91188000000E+02  0.91188000000E+02 0.  0.
    9900012    2    3    3    0    0  0.31118907433E+02  0.15947454203E+02  0.20747476228E+02  0.50528862464E+02  0.30000007944E+02 0.  0.
        -12    1    3    3    0    0 -0.31118907433E+02 -0.15947454203E+02 -0.20747476228E+02  0.40659137536E+02  0.00000000000E+00 0.  1.
         11    1    4    4    0    0  0.50404084982E-01 -0.79347722434E+00 -0.66085029793E+00  0.10338617193E+01  0.51100000000E-03 0. -1.
        -11    1    4    4    0    0  0.31311287564E+01 -0.22444261326E+01  0.14519470935E+02  0.15021865811E+02  0.51100000000E-03 0.  1.
         12    1    4    4    0    0  0.27937374591E+02  0.18985357560E+02  0.68888555906E+01  0.34473134933E+02  0.00000000000E+00 0. -1.
</event>
<event>
 8    1  0.7977359E-012  0.9118800E+02  0.7816164E-02  0.1184000E+00
        -11   -1    0    0    0    0  0.00000000000E+00  0.00000000000E+00  0.45593999997E+02  0.45594000000E+02  0.51100000000E-03 0. -1.
         11   -1    0    0    0    0 -0.00000000000E+00 -0.00000000000E+00 -0.45593999997E+02  0.45594000000E+02  0.51100000000E-03 0.  1.
         23    2    1    2    0    0  0.00000000000E+00  0.00000000000E+00  0.00000000000E+00  0.91188000000E+02  0.91188000000E+02 0.  0.
    9900012    2    3    3    0    0  0.21415152953E+02 -0.33528296525E+02 -0.83911021548E+01  0.50528855404E+02  0.29999986488E+02 0.  0.
         12    1    3    3    0    0 -0.21415152953E+02  0.33528296525E+02  0.83911021548E+01  0.40659144596E+02  0.00000000000E+00 0. -1.
         11    1    4    4    0    0  0.49235769058E+01  0.10101758190E+01  0.38140291043E+01  0.63094281042E+01  0.51100000000E-03 0. -1.
        -11    1    4    4    0    0  0.72291548006E+00 -0.48377513454E+01 -0.92487553305E+01  0.10462596250E+02  0.51100000000E-03 0.  1.
        -12    1    4    4    0    0  0.15768660567E+02 -0.29700720998E+02 -0.29563759286E+01  0.33756831050E+02  0.00000000000E+00 0.  1.
</event>
<event>
 8    1  0.7977359E-012  0.9118800E+02  0.7816164E-02  0.1184000E+00
        -11   -1    0    0    0    0  0.00000000000E+00  0.00000000000E+00  0.45593999997E+02  0.45594000000E+02  0.51100000000E-03 0.  1.
         11   -1    0    0    0    0 -0.00000000000E+00 -0.00000000000E+00 -0.45593999997E+02  0.45594000000E+02  0.51100000000E-03 0. -1.
         23    2    1    2    0    0  0.00000000000E+00 -0.17763568394E-14  0.88817841970E-15  0.91188000000E+02  0.91188000000E+02 0.  0.
    9900012    2    3    3    0    0 -0.37291469231E+02  0.15199125889E+02 -0.56123239743E+01  0.50528864672E+02  0.30000014658E+02 0.  0.
         12    1    3    3    0    0  0.37291469231E+02 -0.15199125889E+02  0.56123239743E+01  0.40659135328E+02  0.00000000000E+00 0. -1.
         11    1    4    4    0    0  0.94468813909E+00  0.80411300803E+01  0.89214299233E+00  0.81454360244E+01  0.51100000000E-03 0. -1.
        -11    1    4    4    0    0 -0.38308446997E+01  0.56518849978E+01  0.15815783927E+01  0.70086065388E+01  0.51100000000E-03 0.  1.
        -12    1    4    4    0    0 -0.34405312670E+02  0.15061108113E+01 -0.80860453594E+01  0.35374822109E+02  0.00000000000E+00 0.  1.
</event>
<event>
 8    1  0.7977359E-012  0.9118800E+02  0.7816164E-02  0.1184000E+00
        -11   -1    0    0    0    0  0.00000000000E+00  0.00000000000E+00  0.45593999997E+02  0.45594000000E+02  0.51100000000E-03 0. -1.
         11   -1    0    0    0    0 -0.00000000000E+00 -0.00000000000E+00 -0.45593999997E+02  0.45594000000E+02  0.51100000000E-03 0.  1.
         23    2    1    2    0    0  0.00000000000E+00  0.00000000000E+00  0.00000000000E+00  0.91188000000E+02  0.91188000000E+02 0.  0.
    9900012    2    3    3    0    0 -0.30373069191E+02  0.21627100334E+02 -0.16214588544E+02  0.50528835195E+02  0.29999925059E+02 0.  0.
         12    1    3    3    0    0  0.30373069191E+02 -0.21627100334E+02  0.16214588544E+02  0.40659164805E+02  0.00000000000E+00 0. -1.
         11    1    4    4    0    0 -0.31541099197E+02  0.12054015793E+02 -0.12645237511E+02  0.36056098891E+02  0.51100000000E-03 0.  1.
        -11    1    4    4    0    0 -0.31288781497E+01 -0.12612293876E+00 -0.20824692441E+01  0.37606467376E+01  0.51100000000E-03 0. -1.
         12    1    4    4    0    0  0.42969081549E+01  0.96992074798E+01 -0.14868817882E+01  0.10712089566E+02  0.00000000000E+00 0. -1.
</event>
<event>
 8    1  0.7977359E-012  0.9118800E+02  0.7816164E-02  0.1184000E+00
        -11   -1    0    0    0    0  0.00000000000E+00  0.00000000000E+00  0.45593999997E+02  0.45594000000E+02  0.51100000000E-03 0. -1.
         11   -1    0    0    0    0 -0.00000000000E+00 -0.00000000000E+00 -0.45593999997E+02  0.45594000000E+02  0.51100000000E-03 0.  1.
         23    2    1    2    0    0  0.00000000000E+00  0.00000000000E+00  0.00000000000E+00  0.91188000000E+02  0.91188000000E+02 0.  0.
    9900012    2    3    3    0    0  0.12346891086E+02  0.31758118933E+02 -0.22184264819E+02  0.50528862734E+02  0.30000008768E+02 0.  0.
         12    1    3    3    0    0 -0.12346891086E+02 -0.31758118933E+02  0.22184264819E+02  0.40659137266E+02  0.00000000000E+00 0. -1.
         11    1    4    4    0    0  0.81006203617E+01  0.13881435458E+02  0.19642514817E+01  0.16191744340E+02  0.51100000000E-03 0. -1.
        -11    1    4    4    0    0 -0.22078860144E+00  0.18060847757E+02 -0.12794696964E+02  0.22134751861E+02  0.51100000000E-03 0.  1.
        -12    1    4    4    0    0  0.44670593257E+01 -0.18416428180E+00 -0.11353819336E+02  0.12202366533E+02  0.00000000000E+00 0.  1.
</event>
<event>
 8    1  0.7977359E-012  0.9118800E+02  0.7816164E-02  0.1184000E+00
        -11   -1    0    0    0    0  0.00000000000E+00  0.00000000000E+00  0.45593999997E+02  0.45594000000E+02  0.51100000000E-03 0. -1.
         11   -1    0    0    0    0 -0.00000000000E+00 -0.00000000000E+00 -0.45593999997E+02  0.45594000000E+02  0.51100000000E-03 0.  1.
         23    2    1    2    0    0  0.35527136788E-14 -0.88817841970E-15  0.00000000000E+00  0.91188000000E+02  0.91188000000E+02 0.  0.
    9900012    2    3    3    0    0  0.28528214621E+02  0.71619441809E+01  0.28071574131E+02  0.50528858985E+02  0.29999997370E+02 0.  0.
        -12    1    3    3    0    0 -0.28528214621E+02 -0.71619441809E+01 -0.28071574131E+02  0.40659141015E+02  0.00000000000E+00 0.  1.
         11    1    4    4    0    0  0.63107629471E+01 -0.50822250433E+01  0.61000359201E+01  0.10142247229E+02  0.51100000000E-03 0. -1.
        -11    1    4    4    0    0  0.15738128903E+02 -0.34063924239E+01  0.15203272792E+02  0.22145692913E+02  0.51100000000E-03 0.  1.
         12    1    4    4    0    0  0.64793227704E+01  0.15650561648E+02  0.67682654189E+01  0.18240918843E+02  0.00000000000E+00 0. -1.
</event>
<event>
 8    1  0.7977359E-012  0.9118800E+02  0.7816164E-02  0.1184000E+00
        -11   -1    0    0    0    0  0.00000000000E+00  0.00000000000E+00  0.45593999997E+02  0.45594000000E+02  0.51100000000E-03 0. -1.
         11   -1    0    0    0    0 -0.00000000000E+00 -0.00000000000E+00 -0.45593999997E+02  0.45594000000E+02  0.51100000000E-03 0.  1.
         23    2    1    2    0    0 -0.17763568394E-14  0.00000000000E+00  0.71054273576E-14  0.91188000000E+02  0.91188000000E+02 0.  0.
    9900012    2    3    3    0    0  0.42524507954E+01 -0.11092461006E+02 -0.38884973440E+02  0.50528841273E+02  0.29999943533E+02 0.  0.
         12    1    3    3    0    0 -0.42524507954E+01  0.11092461006E+02  0.38884973440E+02  0.40659158727E+02  0.00000000000E+00 0. -1.
         11    1    4    4    0    0  0.24323312754E+01 -0.31604332731E+01 -0.14860413394E+01  0.42559244625E+01  0.51100000000E-03 0. -1.
        -11    1    4    4    0    0  0.54970751709E+01  0.83436600960E+01 -0.96334829692E+01  0.13879426991E+02  0.51100000000E-03 0.  1.
        -12    1    4    4    0    0 -0.36769556508E+01 -0.16275687829E+02 -0.27765449132E+02  0.32393489819E+02  0.00000000000E+00 0.  1.
</event>
<event>
 8    1  0.7977359E-012  0.9118800E+02  0.7816164E-02  0.1184000E+00
        -11   -1    0    0    0    0  0.00000000000E+00  0.00000000000E+00  0.45593999997E+02  0.45594000000E+02  0.51100000000E-03 0. -1.
         11   -1    0    0    0    0 -0.00000000000E+00 -0.00000000000E+00 -0.45593999997E+02  0.45594000000E+02  0.51100000000E-03 0.  1.
         23    2    1    2    0    0  0.35527136788E-14  0.00000000000E+00  0.00000000000E+00  0.91188000000E+02  0.91188000000E+02 0.  0.
    9900012    2    3    3    0    0  0.30135344535E+02 -0.95622966439E+01  0.25565389771E+02  0.50528860050E+02  0.30000000609E+02 0.  0.
        -12    1    3    3    0    0 -0.30135344535E+02  0.95622966439E+01 -0.25565389771E+02  0.40659139950E+02  0.00000000000E+00 0.  1.
         11    1    4    4    0    0  0.78390308671E+01 -0.30330345179E+01  0.40182080565E+00  0.84149369304E+01  0.51100000000E-03 0. -1.
        -11    1    4    4    0    0  0.11457386197E+02 -0.83140347623E+01 -0.53483674524E+00  0.14166189435E+02  0.51100000000E-03 0.  1.
        -12    1    4    4    0    0  0.10838927471E+02  0.17847726363E+01  0.25698405710E+02  0.27947733685E+02  0.00000000000E+00 0.  1.
</event>
<event>
 8    1  0.7977359E-012  0.9118800E+02  0.7816164E-02  0.1184000E+00
        -11   -1    0    0    0    0  0.00000000000E+00  0.00000000000E+00  0.45593999997E+02  0.45594000000E+02  0.51100000000E-03 0. -1.
         11   -1    0    0    0    0 -0.00000000000E+00 -0.00000000000E+00 -0.45593999997E+02  0.45594000000E+02  0.51100000000E-03 0.  1.
         23    2    1    2    0    0  0.00000000000E+00  0.00000000000E+00 -0.35527136788E-14  0.91188000000E+02  0.91188000000E+02 0.  0.
    9900012    2    3    3    0    0  0.18637948501E+02 -0.23877184047E+02 -0.27123285481E+02  0.50528860098E+02  0.30000000752E+02 0.  0.
         12    1    3    3    0    0 -0.18637948501E+02  0.23877184047E+02  0.27123285481E+02  0.40659139902E+02  0.00000000000E+00 0. -1.
         11    1    4    4    0    0  0.13694037443E+02 -0.12812988996E+02 -0.17874172198E+02  0.25907245715E+02  0.51100000000E-03 0. -1.
        -11    1    4    4    0    0  0.36183838401E+01 -0.93818501977E+01 -0.15240547758E+02  0.18258863902E+02  0.51100000000E-03 0.  1.
         12    1    4    4    0    0  0.13255272186E+01 -0.16823448527E+01  0.59914344755E+01  0.63627504811E+01  0.00000000000E+00 0. -1.
</event>
<event>
 8    1  0.7977359E-012  0.9118800E+02  0.7816164E-02  0.1184000E+00
        -11   -1    0    0    0    0  0.00000000000E+00  0.00000000000E+00  0.45593999997E+02  0.45594000000E+02  0.51100000000E-03 0. -1.
         11   -1    0    0    0    0 -0.00000000000E+00 -0.00000000000E+00 -0.45593999997E+02  0.45594000000E+02  0.51100000000E-03 0.  1.
         23    2    1    2    0    0 -0.17763568394E-14  0.35527136788E-14  0.00000000000E+00  0.91188000000E+02  0.91188000000E+02 0.  0.
    9900012    2    3    3    0    0 -0.12033352825E+02  0.16272867878E+02 -0.35264086788E+02  0.50528885078E+02  0.30000076684E+02 0.  0.
         12    1    3    3    0    0  0.12033352825E+02 -0.16272867878E+02  0.35264086788E+02  0.40659114922E+02  0.00000000000E+00 0. -1.
         11    1    4    4    0    0  0.10434841671E+00 -0.13040067235E+01  0.29912749079E+00  0.13419387631E+01  0.51100000000E-03 0. -1.
        -11    1    4    4    0    0  0.41842383982E+01 -0.47015544657E+01 -0.54333451849E+01  0.83146680948E+01  0.51100000000E-03 0.  1.
        -12    1    4    4    0    0 -0.16321939640E+02  0.22278429067E+02 -0.30129869094E+02  0.40872278221E+02  0.00000000000E+00 0.  1.
</event>
<event>
 8    1  0.7977359E-012  0.9118800E+02  0.7816164E-02  0.1184000E+00
        -11   -1    0    0    0    0  0.00000000000E+00  0.00000000000E+00  0.45593999997E+02  0.45594000000E+02  0.51100000000E-03 0. -1.
         11   -1    0    0    0    0 -0.00000000000E+00 -0.00000000000E+00 -0.45593999997E+02  0.45594000000E+02  0.51100000000E-03 0.  1.
         23    2    1    2    0    0  0.35527136788E-14 -0.17763568394E-14  0.35527136788E-14  0.91188000000E+02  0.91188000000E+02 0.  0.
    9900012    2    3    3    0    0 -0.23354577282E+02  0.14777919325E+02 -0.29821798581E+02  0.50528894621E+02  0.30000105690E+02 0.  0.
         12    1    3    3    0    0  0.23354577282E+02 -0.14777919325E+02  0.29821798581E+02  0.40659105379E+02  0.00000000000E+00 0. -1.
         11    1    4    4    0    0 -0.54108736225E+01  0.22512047649E+01 -0.95824161704E+01  0.11232460825E+02  0.51100000000E-03 0. -1.
        -11    1    4    4    0    0 -0.22365173686E+02  0.12963784119E+02 -0.22536148076E+02  0.34294878087E+02  0.51100000000E-03 0.  1.
         12    1    4    4    0    0  0.44214700264E+01 -0.43706955914E+00  0.22967656645E+01  0.50015557091E+01  0.00000000000E+00 0. -1.
</event>
<event>
 8    1  0.7977359E-012  0.9118800E+02  0.7816164E-02  0.1184000E+00
        -11   -1    0    0    0    0  0.00000000000E+00  0.00000000000E+00  0.45593999997E+02  0.45594000000E+02  0.51100000000E-03 0. -1.
         11   -1    0    0    0    0 -0.00000000000E+00 -0.00000000000E+00 -0.45593999997E+02  0.45594000000E+02  0.51100000000E-03 0.  1.
         23    2    1    2    0    0  0.00000000000E+00  0.00000000000E+00 -0.71054273576E-14  0.91188000000E+02  0.91188000000E+02 0.  0.
    9900012    2    3    3    0    0  0.14783187575E+02  0.11840360406E+02 -0.35978174248E+02  0.50528858449E+02  0.29999995742E+02 0.  0.
         12    1    3    3    0    0 -0.14783187575E+02 -0.11840360406E+02  0.35978174248E+02  0.40659141551E+02  0.00000000000E+00 0. -1.
         11    1    4    4    0    0 -0.28891374574E+01 -0.32276991593E+01 -0.23489850616E+02  0.23885942296E+02  0.51100000000E-03 0. -1.
        -11    1    4    4    0    0  0.15240336450E+01  0.26834296119E+01 -0.25088771507E+01  0.39771771210E+01  0.51100000000E-03 0.  1.
         12    1    4    4    0    0  0.16148291388E+02  0.12384629953E+02 -0.99794464811E+01  0.22665739032E+02  0.00000000000E+00 0. -1.
</event>
<event>
 8    1  0.7977359E-012  0.9118800E+02  0.7816164E-02  0.1184000E+00
        -11   -1    0    0    0    0  0.00000000000E+00  0.00000000000E+00  0.45593999997E+02  0.45594000000E+02  0.51100000000E-03 0. -1.
         11   -1    0    0    0    0 -0.00000000000E+00 -0.00000000000E+00 -0.45593999997E+02  0.45594000000E+02  0.51100000000E-03 0.  1.
         23    2    1    2    0    0  0.00000000000E+00  0.44408920985E-15  0.00000000000E+00  0.91188000000E+02  0.91188000000E+02 0.  0.
    9900012    2    3    3    0    0  0.32006055454E+02 -0.17624884597E+00 -0.25074820580E+02  0.50528864785E+02  0.30000014999E+02 0.  0.
         12    1    3    3    0    0 -0.32006055454E+02  0.17624884597E+00  0.25074820580E+02  0.40659135215E+02  0.00000000000E+00 0. -1.
         11    1    4    4    0    0  0.19642877097E+02  0.26714595175E+01 -0.11301291419E+02  0.22818819089E+02  0.51100000000E-03 0. -1.
        -11    1    4    4    0    0  0.13890388803E+02  0.59004551792E+01 -0.96978767910E+01  0.17938982327E+02  0.51100000000E-03 0.  1.
         12    1    4    4    0    0 -0.15272104465E+01 -0.87481635427E+01 -0.40756523697E+01  0.97710633687E+01  0.00000000000E+00 0. -1.
</event>
<event>
 8    1  0.7977359E-012  0.9118800E+02  0.7816164E-02  0.1184000E+00
        -11   -1    0    0    0    0  0.00000000000E+00  0.00000000000E+00  0.45593999997E+02  0.45594000000E+02  0.51100000000E-03 0. -1.
         11   -1    0    0    0    0 -0.00000000000E+00 -0.00000000000E+00 -0.45593999997E+02  0.45594000000E+02  0.51100000000E-03 0.  1.
         23    2    1    2    0    0  0.00000000000E+00  0.00000000000E+00  0.71054273576E-14  0.91188000000E+02  0.91188000000E+02 0.  0.
    9900012    2    3    3    0    0 -0.28262271557E+01 -0.14176145572E+02 -0.38002796612E+02  0.50528890153E+02  0.30000092109E+02 0.  0.
         12    1    3    3    0    0  0.28262271557E+01  0.14176145572E+02  0.38002796612E+02  0.40659109847E+02  0.00000000000E+00 0. -1.
         11    1    4    4    0    0 -0.10449751634E+01  0.68163135764E+01 -0.78330655253E+01  0.10436044253E+02  0.51100000000E-03 0.  1.
        -11    1    4    4    0    0 -0.43157393818E+01 -0.55870718445E+00 -0.11334237741E+01  0.44969333820E+01  0.51100000000E-03 0. -1.
        -12    1    4    4    0    0  0.25344873894E+01 -0.20433751964E+02 -0.29036307312E+02  0.35595912518E+02  0.00000000000E+00 0.  1.
</event>
<event>
 8    1  0.7977359E-012  0.9118800E+02  0.7816164E-02  0.1184000E+00
        -11   -1    0    0    0    0  0.00000000000E+00  0.00000000000E+00  0.45593999997E+02  0.45594000000E+02  0.51100000000E-03 0. -1.
         11   -1    0    0    0    0 -0.00000000000E+00 -0.00000000000E+00 -0.45593999997E+02  0.45594000000E+02  0.51100000000E-03 0.  1.
         23    2    1    2    0    0 -0.35527136788E-14  0.00000000000E+00 -0.35527136788E-14  0.91188000000E+02  0.91188000000E+02 0.  0.
    9900012    2    3    3    0    0 -0.27094630254E+02 -0.41660049680E+01 -0.30028171480E+02  0.50528859964E+02  0.30000000347E+02 0.  0.
         12    1    3    3    0    0  0.27094630254E+02  0.41660049680E+01  0.30028171480E+02  0.40659140036E+02  0.00000000000E+00 0. -1.
         11    1    4    4    0    0 -0.30282699398E+02 -0.37515779404E+01 -0.32380197025E+02  0.44492621631E+02  0.51100000000E-03 0.  1.
        -11    1    4    4    0    0  0.91341433354E+00  0.18168086299E+01  0.19628122758E+01  0.28262610696E+01  0.51100000000E-03 0. -1.
        -12    1    4    4    0    0  0.22746548105E+01 -0.22312356575E+01  0.38921326973E+00  0.32099772640E+01  0.00000000000E+00 0.  1.
</event>
<event>
 8    1  0.7977359E-012  0.9118800E+02  0.7816164E-02  0.1184000E+00
        -11   -1    0    0    0    0  0.00000000000E+00  0.00000000000E+00  0.45593999997E+02  0.45594000000E+02  0.51100000000E-03 0. -1.
         11   -1    0    0    0    0 -0.00000000000E+00 -0.00000000000E+00 -0.45593999997E+02  0.45594000000E+02  0.51100000000E-03 0.  1.
         23    2    1    2    0    0  0.17763568394E-14  0.00000000000E+00  0.00000000000E+00  0.91188000000E+02  0.91188000000E+02 0.  0.
    9900012    2    3    3    0    0  0.56543700561E+01 -0.64496788210E+01 -0.39744129131E+02  0.50528855174E+02  0.29999985786E+02 0.  0.
         12    1    3    3    0    0 -0.56543700561E+01  0.64496788210E+01  0.39744129131E+02  0.40659144826E+02  0.00000000000E+00 0. -1.
         11    1    4    4    0    0  0.15656918555E+01 -0.70080299908E+01 -0.68740808916E+01  0.99406671659E+01  0.51100000000E-03 0. -1.
        -11    1    4    4    0    0  0.90866406805E+01 -0.79785875249E+01 -0.25598106228E+02  0.28310562348E+02  0.51100000000E-03 0.  1.
         12    1    4    4    0    0 -0.49979624799E+01  0.85369386946E+01 -0.72719420118E+01  0.12277625660E+02  0.00000000000E+00 0. -1.
</event>
<event>
 8    1  0.7977359E-012  0.9118800E+02  0.7816164E-02  0.1184000E+00
        -11   -1    0    0    0    0  0.00000000000E+00  0.00000000000E+00  0.45593999997E+02  0.45594000000E+02  0.51100000000E-03 0. -1.
         11   -1    0    0    0    0 -0.00000000000E+00 -0.00000000000E+00 -0.45593999997E+02  0.45594000000E+02  0.51100000000E-03 0.  1.
         23    2    1    2    0    0  0.00000000000E+00 -0.35527136788E-14  0.00000000000E+00  0.91188000000E+02  0.91188000000E+02 0.  0.
    9900012    2    3    3    0    0  0.11439961215E+02  0.19488745348E+02 -0.33800615279E+02  0.50528862022E+02  0.30000006603E+02 0.  0.
         12    1    3    3    0    0 -0.11439961215E+02 -0.19488745348E+02  0.33800615279E+02  0.40659137978E+02  0.00000000000E+00 0. -1.
         11    1    4    4    0    0 -0.30318771523E+01  0.11918853790E+00 -0.25022429936E+01  0.39329003591E+01  0.51100000000E-03 0. -1.
        -11    1    4    4    0    0  0.76616433621E+00 -0.51247027577E+01 -0.96839855997E+00  0.52713738415E+01  0.51100000000E-03 0.  1.
        -12    1    4    4    0    0  0.13705674031E+02  0.24494259568E+02 -0.30329973726E+02  0.41324587822E+02  0.00000000000E+00 0.  1.
</event>
<event>
 8    1  0.7977359E-012  0.9118800E+02  0.7816164E-02  0.1184000E+00
        -11   -1    0    0    0    0  0.00000000000E+00  0.00000000000E+00  0.45593999997E+02  0.45594000000E+02  0.51100000000E-03 0. -1.
         11   -1    0    0    0    0 -0.00000000000E+00 -0.00000000000E+00 -0.45593999997E+02  0.45594000000E+02  0.51100000000E-03 0.  1.
         23    2    1    2    0    0  0.00000000000E+00  0.00000000000E+00  0.00000000000E+00  0.91188000000E+02  0.91188000000E+02 0.  0.
    9900012    2    3    3    0    0 -0.17086804361E+02  0.29835781769E+02 -0.21703319729E+02  0.50528845504E+02  0.29999956395E+02 0.  0.
         12    1    3    3    0    0  0.17086804361E+02 -0.29835781769E+02  0.21703319729E+02  0.40659154496E+02  0.00000000000E+00 0. -1.
         11    1    4    4    0    0  0.19994822302E+01  0.87980043548E+01  0.30087704836E+01  0.95108101600E+01  0.51100000000E-03 0. -1.
        -11    1    4    4    0    0 -0.17154570110E+02  0.15629700321E+02 -0.10084298907E+02  0.25303357336E+02  0.51100000000E-03 0.  1.
        -12    1    4    4    0    0 -0.19317164809E+01  0.54080770928E+01 -0.14627791306E+02  0.15714678008E+02  0.00000000000E+00 0.  1.
</event>
<event>
 8    1  0.7977359E-012  0.9118800E+02  0.7816164E-02  0.1184000E+00
        -11   -1    0    0    0    0  0.00000000000E+00  0.00000000000E+00  0.45593999997E+02  0.45594000000E+02  0.51100000000E-03 0. -1.
         11   -1    0    0    0    0 -0.00000000000E+00 -0.00000000000E+00 -0.45593999997E+02  0.45594000000E+02  0.51100000000E-03 0.  1.
         23    2    1    2    0    0  0.00000000000E+00  0.77715611724E-15  0.00000000000E+00  0.91188000000E+02  0.91188000000E+02 0.  0.
    9900012    2    3    3    0    0  0.47608490443E+01  0.64362211227E+00  0.40374310830E+02  0.50528869315E+02  0.30000028770E+02 0.  0.
        -12    1    3    3    0    0 -0.47608490443E+01 -0.64362211227E+00 -0.40374310830E+02  0.40659130685E+02  0.00000000000E+00 0.  1.
         11    1    4    4    0    0  0.42088090369E+01 -0.65922189334E+01  0.65540108836E+01  0.10204238477E+02  0.51100000000E-03 0. -1.
        -11    1    4    4    0    0  0.10963015014E+01 -0.56029246184E+01  0.20706818670E+01  0.60730852882E+01  0.51100000000E-03 0.  1.
         12    1    4    4    0    0 -0.54426149397E+00  0.12838765664E+02  0.31749618080E+02  0.34251545550E+02  0.00000000000E+00 0. -1.
</event>
<event>
 8    1  0.7977359E-012  0.9118800E+02  0.7816164E-02  0.1184000E+00
        -11   -1    0    0    0    0  0.00000000000E+00  0.00000000000E+00  0.45593999997E+02  0.45594000000E+02  0.51100000000E-03 0. -1.
         11   -1    0    0    0    0 -0.00000000000E+00 -0.00000000000E+00 -0.45593999997E+02  0.45594000000E+02  0.51100000000E-03 0.  1.
         23    2    1    2    0    0  0.72164496601E-15  0.35527136788E-14  0.00000000000E+00  0.91188000000E+02  0.91188000000E+02 0.  0.
    9900012    2    3    3    0    0  0.26473875763E+00 -0.27710822634E+02 -0.29752411289E+02  0.50528858898E+02  0.29999997107E+02 0.  0.
         12    1    3    3    0    0 -0.26473875763E+00  0.27710822634E+02  0.29752411289E+02  0.40659141102E+02  0.00000000000E+00 0. -1.
         11    1    4    4    0    0  0.54254417328E+01 -0.81994339960E+01 -0.83351197149E+00  0.98671616141E+01  0.51100000000E-03 0. -1.
        -11    1    4    4    0    0 -0.97618142694E+00 -0.21945107749E+02 -0.16934552318E+02  0.27736613830E+02  0.51100000000E-03 0.  1.
        -12    1    4    4    0    0 -0.41845215482E+01  0.24337191109E+01 -0.11984346999E+02  0.12925083454E+02  0.00000000000E+00 0.  1.
</event>
<event>
 8    1  0.7977359E-012  0.9118800E+02  0.7816164E-02  0.1184000E+00
        -11   -1    0    0    0    0  0.00000000000E+00  0.00000000000E+00  0.45593999997E+02  0.45594000000E+02  0.51100000000E-03 0. -1.
         11   -1    0    0    0    0 -0.00000000000E+00 -0.00000000000E+00 -0.45593999997E+02  0.45594000000E+02  0.51100000000E-03 0.  1.
         23    2    1    2    0    0  0.35527136788E-14 -0.88817841970E-15  0.35527136788E-14  0.91188000000E+02  0.91188000000E+02 0.  0.
    9900012    2    3    3    0    0 -0.26628292852E+02  0.53600143829E+01  0.30255082544E+02  0.50528858910E+02  0.29999997144E+02 0.  0.
        -12    1    3    3    0    0  0.26628292852E+02 -0.53600143829E+01 -0.30255082544E+02  0.40659141090E+02  0.00000000000E+00 0.  1.
         11    1    4    4    0    0 -0.23516361238E+02  0.10710221779E+02  0.20630607102E+02  0.33065844101E+02  0.51100000000E-03 0.  1.
        -11    1    4    4    0    0 -0.66940076019E+01  0.93960656770E-01  0.11825778731E+01  0.67983128102E+01  0.51100000000E-03 0. -1.
         12    1    4    4    0    0  0.35820759875E+01 -0.54441680533E+01  0.84418975689E+01  0.10664701999E+02  0.00000000000E+00 0. -1.
</event>
<event>
 8    1  0.7977359E-012  0.9118800E+02  0.7816164E-02  0.1184000E+00
        -11   -1    0    0    0    0  0.00000000000E+00  0.00000000000E+00  0.45593999997E+02  0.45594000000E+02  0.51100000000E-03 0. -1.
         11   -1    0    0    0    0 -0.00000000000E+00 -0.00000000000E+00 -0.45593999997E+02  0.45594000000E+02  0.51100000000E-03 0.  1.
         23    2    1    2    0    0  0.71054273576E-14  0.00000000000E+00  0.00000000000E+00  0.91188000000E+02  0.91188000000E+02 0.  0.
    9900012    2    3    3    0    0  0.35713184043E+02 -0.61689823512E+01 -0.18430348006E+02  0.50528860986E+02  0.30000003454E+02 0.  0.
         12    1    3    3    0    0 -0.35713184043E+02  0.61689823512E+01  0.18430348006E+02  0.40659139014E+02  0.00000000000E+00 0. -1.
         11    1    4    4    0    0  0.14588484499E+02  0.51719364376E+00 -0.34903518255E+01  0.15009128068E+02  0.51100000000E-03 0. -1.
        -11    1    4    4    0    0  0.17867424846E+02  0.35442102461E+00 -0.19556838176E+02  0.26492270658E+02  0.51100000000E-03 0.  1.
         12    1    4    4    0    0  0.32572746986E+01 -0.70405970196E+01  0.46168419962E+01  0.90274622609E+01  0.00000000000E+00 0. -1.
</event>
<event>
 8    1  0.7977359E-012  0.9118800E+02  0.7816164E-02  0.1184000E+00
        -11   -1    0    0    0    0  0.00000000000E+00  0.00000000000E+00  0.45593999997E+02  0.45594000000E+02  0.51100000000E-03 0.  1.
         11   -1    0    0    0    0 -0.00000000000E+00 -0.00000000000E+00 -0.45593999997E+02  0.45594000000E+02  0.51100000000E-03 0. -1.
         23    2    1    2    0    0  0.35527136788E-14  0.00000000000E+00 -0.35527136788E-14  0.91188000000E+02  0.91188000000E+02 0.  0.
    9900012    2    3    3    0    0  0.18006143221E+02 -0.22936665551E+02  0.28334633502E+02  0.50528889385E+02  0.30000089776E+02 0.  0.
        -12    1    3    3    0    0 -0.18006143221E+02  0.22936665551E+02 -0.28334633502E+02  0.40659110615E+02  0.00000000000E+00 0.  1.
         11    1    4    4    0    0  0.25353868792E+01 -0.48530243999E+01  0.16250316517E+02  0.17147968382E+02  0.51100000000E-03 0. -1.
        -11    1    4    4    0    0 -0.28308476138E+01 -0.11217731938E+02  0.44242950846E+01  0.12386508600E+02  0.51100000000E-03 0.  1.
         12    1    4    4    0    0  0.18301603955E+02 -0.68659092128E+01  0.76600219003E+01  0.20994412404E+02  0.00000000000E+00 0. -1.
</event>
<event>
 8    1  0.7977359E-012  0.9118800E+02  0.7816164E-02  0.1184000E+00
        -11   -1    0    0    0    0  0.00000000000E+00  0.00000000000E+00  0.45593999997E+02  0.45594000000E+02  0.51100000000E-03 0. -1.
         11   -1    0    0    0    0 -0.00000000000E+00 -0.00000000000E+00 -0.45593999997E+02  0.45594000000E+02  0.51100000000E-03 0.  1.
         23    2    1    2    0    0  0.00000000000E+00  0.35527136788E-14  0.14210854715E-13  0.91188000000E+02  0.91188000000E+02 0.  0.
    9900012    2    3    3    0    0 -0.74731405009E+01  0.22754923584E+02 -0.32856222390E+02  0.50528859256E+02  0.29999998196E+02 0.  0.
         12    1    3    3    0    0  0.74731405009E+01 -0.22754923584E+02  0.32856222390E+02  0.40659140744E+02  0.00000000000E+00 0. -1.
         11    1    4    4    0    0 -0.74752585958E+01  0.14649510211E+02 -0.90590371671E+01  0.18776415929E+02  0.51100000000E-03 0. -1.
        -11    1    4    4    0    0 -0.68871189059E+00  0.13145599231E+02 -0.23140913223E+02  0.26622978200E+02  0.51100000000E-03 0.  1.
         12    1    4    4    0    0  0.69082998549E+00 -0.50401858578E+01 -0.65627200005E+00  0.51294651269E+01  0.00000000000E+00 0. -1.
</event>
<event>
 8    1  0.7977359E-012  0.9118800E+02  0.7816164E-02  0.1184000E+00
        -11   -1    0    0    0    0  0.00000000000E+00  0.00000000000E+00  0.45593999997E+02  0.45594000000E+02  0.51100000000E-03 0. -1.
         11   -1    0    0    0    0 -0.00000000000E+00 -0.00000000000E+00 -0.45593999997E+02  0.45594000000E+02  0.51100000000E-03 0.  1.
         23    2    1    2    0    0  0.88817841970E-15 -0.88817841970E-15 -0.71054273576E-14  0.91188000000E+02  0.91188000000E+02 0.  0.
    9900012    2    3    3    0    0 -0.64668452092E+01 -0.66089825302E+01 -0.39593685108E+02  0.50528946426E+02  0.30000263156E+02 0.  0.
         12    1    3    3    0    0  0.64668452092E+01  0.66089825302E+01  0.39593685108E+02  0.40659053574E+02  0.00000000000E+00 0. -1.
         11    1    4    4    0    0  0.74950867945E+01 -0.47146898522E+01 -0.16039354321E+02  0.18321176648E+02  0.51100000000E-03 0. -1.
        -11    1    4    4    0    0  0.24997210803E+01  0.22624865235E+01 -0.97793028029E+01  0.10344187465E+02  0.51100000000E-03 0.  1.
         12    1    4    4    0    0 -0.16461653084E+02 -0.41567792015E+01 -0.13775027985E+02  0.21863582313E+02  0.00000000000E+00 0. -1.
</event>
<event>
 8    1  0.7977359E-012  0.9118800E+02  0.7816164E-02  0.1184000E+00
        -11   -1    0    0    0    0  0.00000000000E+00  0.00000000000E+00  0.45593999997E+02  0.45594000000E+02  0.51100000000E-03 0. -1.
         11   -1    0    0    0    0 -0.00000000000E+00 -0.00000000000E+00 -0.45593999997E+02  0.45594000000E+02  0.51100000000E-03 0.  1.
         23    2    1    2    0    0 -0.17763568394E-14  0.35527136788E-14  0.00000000000E+00  0.91188000000E+02  0.91188000000E+02 0.  0.
    9900012    2    3    3    0    0  0.94542166588E+01 -0.20255745303E+02 -0.33963038438E+02  0.50528863138E+02  0.30000009995E+02 0.  0.
         12    1    3    3    0    0 -0.94542166588E+01  0.20255745303E+02  0.33963038438E+02  0.40659136862E+02  0.00000000000E+00 0. -1.
         11    1    4    4    0    0  0.44422355804E+01  0.10510107241E+01  0.14479266851E+01  0.47890053707E+01  0.51100000000E-03 0. -1.
        -11    1    4    4    0    0  0.12221482492E+02 -0.11823810732E+02 -0.21913738631E+02  0.27737683313E+02  0.51100000000E-03 0.  1.
         12    1    4    4    0    0 -0.72095014140E+01 -0.94829452949E+01 -0.13497226492E+02  0.18002174454E+02  0.00000000000E+00 0. -1.
</event>
<event>
 8    1  0.7977359E-012  0.9118800E+02  0.7816164E-02  0.1184000E+00
        -11   -1    0    0    0    0  0.00000000000E+00  0.00000000000E+00  0.45593999997E+02  0.45594000000E+02  0.51100000000E-03 0. -1.
         11   -1    0    0    0    0 -0.00000000000E+00 -0.00000000000E+00 -0.45593999997E+02  0.45594000000E+02  0.51100000000E-03 0.  1.
         23    2    1    2    0    0  0.00000000000E+00  0.00000000000E+00 -0.17763568394E-14  0.91188000000E+02  0.91188000000E+02 0.  0.
    9900012    2    3    3    0    0  0.34388878376E+02  0.15211976690E+02 -0.15465000065E+02  0.50528863047E+02  0.30000009717E+02 0.  0.
         12    1    3    3    0    0 -0.34388878376E+02 -0.15211976690E+02  0.15465000065E+02  0.40659136953E+02  0.00000000000E+00 0. -1.
         11    1    4    4    0    0  0.20486310365E+02  0.11093744821E+02 -0.17337972086E+02  0.29040753483E+02  0.51100000000E-03 0. -1.
        -11    1    4    4    0    0  0.33802111754E+01  0.91234884510E+01  0.13657606162E+01  0.98249260265E+01  0.51100000000E-03 0.  1.
         12    1    4    4    0    0  0.10522356835E+02 -0.50052565821E+01  0.50721140424E+00  0.11663183537E+02  0.00000000000E+00 0. -1.
</event>
<event>
 8    1  0.7977359E-012  0.9118800E+02  0.7816164E-02  0.1184000E+00
        -11   -1    0    0    0    0  0.00000000000E+00  0.00000000000E+00  0.45593999997E+02  0.45594000000E+02  0.51100000000E-03 0. -1.
         11   -1    0    0    0    0 -0.00000000000E+00 -0.00000000000E+00 -0.45593999997E+02  0.45594000000E+02  0.51100000000E-03 0.  1.
         23    2    1    2    0    0  0.00000000000E+00  0.00000000000E+00  0.00000000000E+00  0.91188000000E+02  0.91188000000E+02 0.  0.
    9900012    2    3    3    0    0 -0.13351850209E+02 -0.99742200083E+01  0.37086500228E+02  0.50528862430E+02  0.30000007841E+02 0.  0.
        -12    1    3    3    0    0  0.13351850209E+02  0.99742200083E+01 -0.37086500228E+02  0.40659137570E+02  0.00000000000E+00 0.  1.
         11    1    4    4    0    0 -0.54184457012E+01  0.12723395688E+01  0.56023174587E+01  0.78971110518E+01  0.51100000000E-03 0. -1.
        -11    1    4    4    0    0 -0.15267016678E+02 -0.11317265773E+02  0.13797330004E+02  0.23484646438E+02  0.51100000000E-03 0.  1.
        -12    1    4    4    0    0  0.73336121701E+01  0.70706195758E-01  0.17686852765E+02  0.19147104940E+02  0.00000000000E+00 0.  1.
</event>
<event>
 8    1  0.7977359E-012  0.9118800E+02  0.7816164E-02  0.1184000E+00
        -11   -1    0    0    0    0  0.00000000000E+00  0.00000000000E+00  0.45593999997E+02  0.45594000000E+02  0.51100000000E-03 0. -1.
         11   -1    0    0    0    0 -0.00000000000E+00 -0.00000000000E+00 -0.45593999997E+02  0.45594000000E+02  0.51100000000E-03 0.  1.
         23    2    1    2    0    0 -0.26090241079E-14  0.35527136788E-14  0.00000000000E+00  0.91188000000E+02  0.91188000000E+02 0.  0.
    9900012    2    3    3    0    0  0.32009328914E+00  0.26249472441E+02 -0.31048804731E+02  0.50528861564E+02  0.30000005210E+02 0.  0.
         12    1    3    3    0    0 -0.32009328914E+00 -0.26249472441E+02  0.31048804731E+02  0.40659138436E+02  0.00000000000E+00 0. -1.
         11    1    4    4    0    0  0.44067704962E+01  0.46609473857E+01 -0.21364190928E+01  0.67607945938E+01  0.51100000000E-03 0. -1.
        -11    1    4    4    0    0  0.94194986948E+01  0.11716268008E+02 -0.19332900676E+02  0.24489976327E+02  0.51100000000E-03 0.  1.
        -12    1    4    4    0    0 -0.13506175902E+02  0.98722570471E+01 -0.95794849621E+01  0.19278090643E+02  0.00000000000E+00 0.  1.
</event>
<event>
 8    1  0.7977359E-012  0.9118800E+02  0.7816164E-02  0.1184000E+00
        -11   -1    0    0    0    0  0.00000000000E+00  0.00000000000E+00  0.45593999997E+02  0.45594000000E+02  0.51100000000E-03 0. -1.
         11   -1    0    0    0    0 -0.00000000000E+00 -0.00000000000E+00 -0.45593999997E+02  0.45594000000E+02  0.51100000000E-03 0.  1.
         23    2    1    2    0    0 -0.17763568394E-14  0.53290705182E-14  0.71054273576E-14  0.91188000000E+02  0.91188000000E+02 0.  0.
    9900012    2    3    3    0    0 -0.12042476921E+02 -0.13763995734E+02  0.36313877226E+02  0.50528849639E+02  0.29999968962E+02 0.  0.
        -12    1    3    3    0    0  0.12042476921E+02  0.13763995734E+02 -0.36313877226E+02  0.40659150361E+02  0.00000000000E+00 0.  1.
         11    1    4    4    0    0  0.14960938925E+01 -0.18244273215E+02  0.19765337172E+02  0.26939939790E+02  0.51100000000E-03 0. -1.
        -11    1    4    4    0    0 -0.28437601755E+01  0.10565103728E+01  0.10301166900E+02  0.10738585841E+02  0.51100000000E-03 0.  1.
        -12    1    4    4    0    0 -0.10694810638E+02  0.34237671084E+01  0.62473731533E+01  0.12850324008E+02  0.00000000000E+00 0.  1.
</event>
<event>
 8    1  0.7977359E-012  0.9118800E+02  0.7816164E-02  0.1184000E+00
        -11   -1    0    0    0    0  0.00000000000E+00  0.00000000000E+00  0.45593999997E+02  0.45594000000E+02  0.51100000000E-03 0. -1.
         11   -1    0    0    0    0 -0.00000000000E+00 -0.00000000000E+00 -0.45593999997E+02  0.45594000000E+02  0.51100000000E-03 0.  1.
         23    2    1    2    0    0  0.00000000000E+00 -0.17763568394E-14  0.35527136788E-14  0.91188000000E+02  0.91188000000E+02 0.  0.
    9900012    2    3    3    0    0  0.33543931257E+02  0.11181116948E+02 -0.20073681347E+02  0.50528863472E+02  0.30000011010E+02 0.  0.
         12    1    3    3    0    0 -0.33543931257E+02 -0.11181116948E+02  0.20073681347E+02  0.40659136528E+02  0.00000000000E+00 0. -1.
         11    1    4    4    0    0  0.18858656674E+02  0.26039434829E+01 -0.53767337032E+01  0.19782282952E+02  0.51100000000E-03 0. -1.
        -11    1    4    4    0    0  0.11482540667E+02  0.79231708815E+01 -0.20078906057E+02  0.24449700319E+02  0.51100000000E-03 0.  1.
         12    1    4    4    0    0  0.32027339158E+01  0.65400258408E+00  0.53819584126E+01  0.62968802014E+01  0.00000000000E+00 0. -1.
</event>
<event>
 8    1  0.7977359E-012  0.9118800E+02  0.7816164E-02  0.1184000E+00
        -11   -1    0    0    0    0  0.00000000000E+00  0.00000000000E+00  0.45593999997E+02  0.45594000000E+02  0.51100000000E-03 0. -1.
         11   -1    0    0    0    0 -0.00000000000E+00 -0.00000000000E+00 -0.45593999997E+02  0.45594000000E+02  0.51100000000E-03 0.  1.
         23    2    1    2    0    0  0.00000000000E+00 -0.44408920985E-14  0.00000000000E+00  0.91188000000E+02  0.91188000000E+02 0.  0.
    9900012    2    3    3    0    0 -0.23492370584E+02 -0.50806493254E+01  0.32794215608E+02  0.50528867562E+02  0.30000023442E+02 0.  0.
        -12    1    3    3    0    0  0.23492370584E+02  0.50806493254E+01 -0.32794215608E+02  0.40659132438E+02  0.00000000000E+00 0.  1.
         11    1    4    4    0    0 -0.11767879449E+02 -0.54255071062E+01  0.14179172069E+02  0.19208540676E+02  0.51100000000E-03 0. -1.
        -11    1    4    4    0    0 -0.49408479322E+01 -0.10945922124E+02  0.92429042133E+01  0.15154420741E+02  0.51100000000E-03 0.  1.
         12    1    4    4    0    0 -0.67836432028E+01  0.11290779905E+02  0.93721393257E+01  0.16165906145E+02  0.00000000000E+00 0. -1.
</event>
<event>
 8    1  0.7977359E-012  0.9118800E+02  0.7816164E-02  0.1184000E+00
        -11   -1    0    0    0    0  0.00000000000E+00  0.00000000000E+00  0.45593999997E+02  0.45594000000E+02  0.51100000000E-03 0. -1.
         11   -1    0    0    0    0 -0.00000000000E+00 -0.00000000000E+00 -0.45593999997E+02  0.45594000000E+02  0.51100000000E-03 0.  1.
         23    2    1    2    0    0  0.00000000000E+00  0.00000000000E+00  0.00000000000E+00  0.91188000000E+02  0.91188000000E+02 0.  0.
    9900012    2    3    3    0    0 -0.28030705269E+02  0.27923813151E+02 -0.93651540340E+01  0.50528857254E+02  0.29999992109E+02 0.  0.
        -12    1    3    3    0    0  0.28030705269E+02 -0.27923813151E+02  0.93651540340E+01  0.40659142746E+02  0.00000000000E+00 0.  1.
         11    1    4    4    0    0  0.16136932134E+01  0.35187350893E+01  0.27591456994E+01  0.47537761482E+01  0.51100000000E-03 0.  1.
        -11    1    4    4    0    0  0.34689339770E+01  0.33854607263E+01 -0.21669044041E+01  0.53094559254E+01  0.51100000000E-03 0. -1.
         12    1    4    4    0    0 -0.33113332460E+02  0.21019617335E+02 -0.99573953294E+01  0.40465625180E+02  0.00000000000E+00 0. -1.
</event>
<event>
 8    1  0.7977359E-012  0.9118800E+02  0.7816164E-02  0.1184000E+00
        -11   -1    0    0    0    0  0.00000000000E+00  0.00000000000E+00  0.45593999997E+02  0.45594000000E+02  0.51100000000E-03 0. -1.
         11   -1    0    0    0    0 -0.00000000000E+00 -0.00000000000E+00 -0.45593999997E+02  0.45594000000E+02  0.51100000000E-03 0.  1.
         23    2    1    2    0    0  0.00000000000E+00  0.00000000000E+00  0.71054273576E-14  0.91188000000E+02  0.91188000000E+02 0.  0.
    9900012    2    3    3    0    0 -0.69757235067E+01 -0.21361060686E+02 -0.33885243369E+02  0.50528863877E+02  0.30000012242E+02 0.  0.
         12    1    3    3    0    0  0.69757235067E+01  0.21361060686E+02  0.33885243369E+02  0.40659136123E+02  0.00000000000E+00 0. -1.
         11    1    4    4    0    0 -0.38074231090E+01 -0.22529418030E+01 -0.21652115770E+02  0.22099464588E+02  0.51100000000E-03 0. -1.
        -11    1    4    4    0    0  0.46620614560E+01 -0.33458523665E+01 -0.87874448742E+01  0.10495176642E+02  0.51100000000E-03 0.  1.
         12    1    4    4    0    0 -0.78303618537E+01 -0.15762266517E+02 -0.34456827242E+01  0.17934222647E+02  0.00000000000E+00 0. -1.
</event>
<event>
 8    1  0.7977359E-012  0.9118800E+02  0.7816164E-02  0.1184000E+00
        -11   -1    0    0    0    0  0.00000000000E+00  0.00000000000E+00  0.45593999997E+02  0.45594000000E+02  0.51100000000E-03 0. -1.
         11   -1    0    0    0    0 -0.00000000000E+00 -0.00000000000E+00 -0.45593999997E+02  0.45594000000E+02  0.51100000000E-03 0.  1.
         23    2    1    2    0    0 -0.35527136788E-14  0.13322676296E-14  0.00000000000E+00  0.91188000000E+02  0.91188000000E+02 0.  0.
    9900012    2    3    3    0    0 -0.31177826402E+02 -0.21541304215E+01 -0.26009004361E+02  0.50528862714E+02  0.30000008704E+02 0.  0.
         12    1    3    3    0    0  0.31177826402E+02  0.21541304215E+01  0.26009004361E+02  0.40659137286E+02  0.00000000000E+00 0. -1.
         11    1    4    4    0    0 -0.34252072843E-01 -0.74426627201E+00 -0.35758256215E+01  0.36526202409E+01  0.51100000000E-03 0. -1.
        -11    1    4    4    0    0 -0.14437568168E+02 -0.13699642473E+02 -0.14695500771E+02  0.24740277316E+02  0.51100000000E-03 0.  1.
         12    1    4    4    0    0 -0.16706006161E+02  0.12289778323E+02 -0.77376779684E+01  0.22135965157E+02  0.00000000000E+00 0. -1.
</event>
<event>
 8    1  0.7977359E-012  0.9118800E+02  0.7816164E-02  0.1184000E+00
        -11   -1    0    0    0    0  0.00000000000E+00  0.00000000000E+00  0.45593999997E+02  0.45594000000E+02  0.51100000000E-03 0. -1.
         11   -1    0    0    0    0 -0.00000000000E+00 -0.00000000000E+00 -0.45593999997E+02  0.45594000000E+02  0.51100000000E-03 0.  1.
         23    2    1    2    0    0  0.00000000000E+00  0.17763568394E-14  0.00000000000E+00  0.91188000000E+02  0.91188000000E+02 0.  0.
    9900012    2    3    3    0    0  0.30101626641E+02 -0.11181840209E+02 -0.24940391647E+02  0.50528872951E+02  0.30000039821E+02 0.  0.
         12    1    3    3    0    0 -0.30101626641E+02  0.11181840209E+02  0.24940391647E+02  0.40659127049E+02  0.00000000000E+00 0. -1.
         11    1    4    4    0    0  0.33903742534E+01  0.55313586884E+01  0.52143059842E+00  0.65086447628E+01  0.51100000000E-03 0. -1.
        -11    1    4    4    0    0 -0.21790030091E+01  0.12685924148E+00 -0.31037536169E+01  0.37943950976E+01  0.51100000000E-03 0.  1.
         12    1    4    4    0    0  0.28890255397E+02 -0.16840058139E+02 -0.22358068628E+02  0.40225833090E+02  0.00000000000E+00 0. -1.
</event>
<event>
 8    1  0.7977359E-012  0.9118800E+02  0.7816164E-02  0.1184000E+00
        -11   -1    0    0    0    0  0.00000000000E+00  0.00000000000E+00  0.45593999997E+02  0.45594000000E+02  0.51100000000E-03 0. -1.
         11   -1    0    0    0    0 -0.00000000000E+00 -0.00000000000E+00 -0.45593999997E+02  0.45594000000E+02  0.51100000000E-03 0.  1.
         23    2    1    2    0    0  0.71054273576E-14  0.00000000000E+00 -0.88817841970E-15  0.91188000000E+02  0.91188000000E+02 0.  0.
    9900012    2    3    3    0    0 -0.38728825968E+02  0.94981434781E+01 -0.79390918494E+01  0.50528857488E+02  0.29999992822E+02 0.  0.
         12    1    3    3    0    0  0.38728825968E+02 -0.94981434781E+01  0.79390918494E+01  0.40659142512E+02  0.00000000000E+00 0. -1.
         11    1    4    4    0    0 -0.25086749793E+01 -0.11948522475E+01  0.89703998469E+00  0.29198977791E+01  0.51100000000E-03 0. -1.
        -11    1    4    4    0    0 -0.31977132330E+02  0.50605969099E+01  0.43397857753E+01  0.32664665527E+02  0.51100000000E-03 0.  1.
         12    1    4    4    0    0 -0.42430186583E+01  0.56323988157E+01 -0.13175917609E+02  0.14944294182E+02  0.00000000000E+00 0. -1.
</event>
<event>
 8    1  0.7977359E-012  0.9118800E+02  0.7816164E-02  0.1184000E+00
        -11   -1    0    0    0    0  0.00000000000E+00  0.00000000000E+00  0.45593999997E+02  0.45594000000E+02  0.51100000000E-03 0.  1.
         11   -1    0    0    0    0 -0.00000000000E+00 -0.00000000000E+00 -0.45593999997E+02  0.45594000000E+02  0.51100000000E-03 0. -1.
         23    2    1    2    0    0  0.00000000000E+00 -0.71054273576E-14 -0.44408920985E-15  0.91188000000E+02  0.91188000000E+02 0.  0.
    9900012    2    3    3    0    0  0.16315479503E+02 -0.37167533627E+02  0.23546627141E+01  0.50528869859E+02  0.30000030423E+02 0.  0.
         12    1    3    3    0    0 -0.16315479503E+02  0.37167533627E+02 -0.23546627141E+01  0.40659130141E+02  0.00000000000E+00 0. -1.
         11    1    4    4    0    0 -0.10522651539E+01 -0.13060131030E+02  0.33925678740E+01  0.13534541053E+02  0.51100000000E-03 0. -1.
        -11    1    4    4    0    0 -0.19674672933E+01 -0.61019141584E+01  0.68884455101E+01  0.94103648045E+01  0.51100000000E-03 0.  1.
        -12    1    4    4    0    0  0.19335211950E+02 -0.18005488439E+02 -0.79263506700E+01  0.27583964001E+02  0.00000000000E+00 0.  1.
</event>
<event>
 8    1  0.7977359E-012  0.9118800E+02  0.7816164E-02  0.1184000E+00
        -11   -1    0    0    0    0  0.00000000000E+00  0.00000000000E+00  0.45593999997E+02  0.45594000000E+02  0.51100000000E-03 0. -1.
         11   -1    0    0    0    0 -0.00000000000E+00 -0.00000000000E+00 -0.45593999997E+02  0.45594000000E+02  0.51100000000E-03 0.  1.
         23    2    1    2    0    0  0.00000000000E+00 -0.88817841970E-15  0.00000000000E+00  0.91188000000E+02  0.91188000000E+02 0.  0.
    9900012    2    3    3    0    0  0.10728621482E+02  0.45681368190E+01  0.38951181239E+02  0.50528859418E+02  0.29999998688E+02 0.  0.
        -12    1    3    3    0    0 -0.10728621482E+02 -0.45681368190E+01 -0.38951181239E+02  0.40659140582E+02  0.00000000000E+00 0.  1.
         11    1    4    4    0    0  0.45263321312E+01 -0.39448363470E+01  0.10342337999E+02  0.11958819838E+02  0.51100000000E-03 0. -1.
        -11    1    4    4    0    0 -0.26546027225E+01  0.14773602458E+02  0.17189188629E+02  0.22820483150E+02  0.51100000000E-03 0.  1.
         12    1    4    4    0    0  0.88568920732E+01 -0.62606292922E+01  0.11419654611E+02  0.15749556430E+02  0.00000000000E+00 0. -1.
</event>
<event>
 8    1  0.7977359E-012  0.9118800E+02  0.7816164E-02  0.1184000E+00
        -11   -1    0    0    0    0  0.00000000000E+00  0.00000000000E+00  0.45593999997E+02  0.45594000000E+02  0.51100000000E-03 0. -1.
         11   -1    0    0    0    0 -0.00000000000E+00 -0.00000000000E+00 -0.45593999997E+02  0.45594000000E+02  0.51100000000E-03 0.  1.
         23    2    1    2    0    0  0.00000000000E+00  0.00000000000E+00  0.00000000000E+00  0.91188000000E+02  0.91188000000E+02 0.  0.
    9900012    2    3    3    0    0  0.22037980760E+02  0.47321173206E+01 -0.33839328636E+02  0.50528859664E+02  0.29999999435E+02 0.  0.
         12    1    3    3    0    0 -0.22037980760E+02 -0.47321173206E+01  0.33839328636E+02  0.40659140336E+02  0.00000000000E+00 0. -1.
         11    1    4    4    0    0  0.49396527564E+01 -0.51726227289E+01 -0.51822235174E+01  0.88324196059E+01  0.51100000000E-03 0. -1.
        -11    1    4    4    0    0  0.19223849340E+02 -0.11594481865E-01 -0.13622839382E+02  0.23561372434E+02  0.51100000000E-03 0.  1.
         12    1    4    4    0    0 -0.21255213367E+01  0.99163345314E+01 -0.15034265736E+02  0.18135067624E+02  0.00000000000E+00 0. -1.
</event>
