<event>
 7    1  0.6285940E-013  0.5930195E+02  0.7816164E-02  0.1266605E+00
        -11   -1    0    0    0    0  0.00000000000E+00  0.00000000000E+00  0.45593999997E+02  0.45594000000E+02  0.51100000000E-03 0. -1.
         11   -1    0    0    0    0 -0.00000000000E+00 -0.00000000000E+00 -0.45593999997E+02  0.45594000000E+02  0.51100000000E-03 0.  1.
    9900012    2    1    2    0    0  0.18190240033E+02  0.27172274482E+01  0.26047109387E+02  0.59301951877E+02  0.50000014315E+02 0.  0.
        -12    1    1    2    0    0 -0.18190240033E+02 -0.27172274482E+01 -0.26047109387E+02  0.31886048123E+02  0.00000000000E+00 0.  1.
         11    1    3    3    0    0  0.44606740304E+01  0.61583236063E+01  0.25321985334E+02  0.26439090452E+02  0.51100000000E-03 0. -1.
        -11    1    3    3    0    0  0.21343558463E+02  0.40455097938E+01 -0.20786171481E+01  0.21822792829E+02  0.51100000000E-03 0.  1.
         12    1    3    3    0    0 -0.76139924604E+01 -0.74866059519E+01  0.28037412016E+01  0.11040068595E+02  0.00000000000E+00 0. -1.
</event>
<event>
 7    1  0.6285940E-013  0.5930194E+02  0.7816164E-02  0.1266605E+00
        -11   -1    0    0    0    0  0.00000000000E+00  0.00000000000E+00  0.45593999997E+02  0.45594000000E+02  0.51100000000E-03 0.  1.
         11   -1    0    0    0    0 -0.00000000000E+00 -0.00000000000E+00 -0.45593999997E+02  0.45594000000E+02  0.51100000000E-03 0. -1.
    9900012    2    1    2    0    0 -0.87229304173E+01  0.85915760467E+01 -0.29441737092E+02  0.59301943846E+02  0.49999999669E+02 0.  0.
        -12    1    1    2    0    0  0.87229304173E+01 -0.85915760467E+01  0.29441737092E+02  0.31886056154E+02  0.00000000000E+00 0.  1.
         11    1    3    3    0    0 -0.61369371731E+01 -0.20104055728E+01 -0.97758154354E+01  0.11716240699E+02  0.51100000000E-03 0. -1.
        -11    1    3    3    0    0 -0.20586926561E+02 -0.20817411690E+01 -0.55294969768E+01  0.21417995438E+02  0.51100000000E-03 0.  1.
         12    1    3    3    0    0  0.18000933316E+02  0.12683722788E+02 -0.14136424680E+02  0.26167707709E+02  0.00000000000E+00 0. -1.
</event>
<event>
 7    1  0.6285940E-013  0.5930194E+02  0.7816164E-02  0.1266605E+00
        -11   -1    0    0    0    0  0.00000000000E+00  0.00000000000E+00  0.45593999997E+02  0.45594000000E+02  0.51100000000E-03 0. -1.
         11   -1    0    0    0    0 -0.00000000000E+00 -0.00000000000E+00 -0.45593999997E+02  0.45594000000E+02  0.51100000000E-03 0.  1.
    9900012    2    1    2    0    0 -0.23258135389E+02  0.16613614230E+02 -0.14133927598E+02  0.59301938015E+02  0.49999989034E+02 0.  0.
        -12    1    1    2    0    0  0.23258135389E+02 -0.16613614230E+02  0.14133927598E+02  0.31886061985E+02  0.00000000000E+00 0.  1.
         11    1    3    3    0    0 -0.23556715289E+02 -0.24571974041E+01 -0.27749649571E+01  0.23846531929E+02  0.51100000000E-03 0. -1.
        -11    1    3    3    0    0 -0.85149588877E+01  0.10771232711E+02  0.54229694580E+01  0.14762539652E+02  0.51100000000E-03 0.  1.
        -12    1    3    3    0    0  0.88135387871E+01  0.82995789231E+01 -0.16781932099E+02  0.20692866433E+02  0.00000000000E+00 0.  1.
</event>
<event>
 7    1  0.6285940E-013  0.5930194E+02  0.7816164E-02  0.1266605E+00
        -11   -1    0    0    0    0  0.00000000000E+00  0.00000000000E+00  0.45593999997E+02  0.45594000000E+02  0.51100000000E-03 0. -1.
         11   -1    0    0    0    0 -0.00000000000E+00 -0.00000000000E+00 -0.45593999997E+02  0.45594000000E+02  0.51100000000E-03 0.  1.
    9900012    2    1    2    0    0 -0.62466498974E+01  0.30094534987E+02  0.84864137308E+01  0.59301938954E+02  0.49999990746E+02 0.  0.
        -12    1    1    2    0    0  0.62466498974E+01 -0.30094534987E+02 -0.84864137308E+01  0.31886061046E+02  0.00000000000E+00 0.  1.
         11    1    3    3    0    0  0.11395220602E+02  0.14925739853E+02 -0.77531783280E+01  0.20316016764E+02  0.51100000000E-03 0. -1.
        -11    1    3    3    0    0 -0.23541037099E+01 -0.67380011144E+01 -0.97836437068E+00  0.72041418918E+01  0.51100000000E-03 0.  1.
        -12    1    3    3    0    0 -0.15287766789E+02  0.21906796249E+02  0.17217956430E+02  0.31781780298E+02  0.00000000000E+00 0.  1.
</event>
<event>
 7    1  0.6285940E-013  0.5930198E+02  0.7816164E-02  0.1266605E+00
        -11   -1    0    0    0    0  0.00000000000E+00  0.00000000000E+00  0.45593999997E+02  0.45594000000E+02  0.51100000000E-03 0.  1.
         11   -1    0    0    0    0 -0.00000000000E+00 -0.00000000000E+00 -0.45593999997E+02  0.45594000000E+02  0.51100000000E-03 0. -1.
    9900012    2    1    2    0    0  0.18926113499E+02  0.36749472916E+01 -0.25397155817E+02  0.59301975893E+02  0.50000058114E+02 0.  0.
        -12    1    1    2    0    0 -0.18926113499E+02 -0.36749472916E+01  0.25397155817E+02  0.31886024107E+02  0.00000000000E+00 0.  1.
         11    1    3    3    0    0  0.26333245030E+01  0.13211871480E+02 -0.13555160960E+02  0.19111000363E+02  0.51100000000E-03 0. -1.
        -11    1    3    3    0    0 -0.18513093973E+01  0.80782398901E+01  0.51192410481E+01  0.97412491692E+01  0.51100000000E-03 0.  1.
        -12    1    3    3    0    0  0.18144098393E+02 -0.17615164079E+02 -0.16961235905E+02  0.30449726361E+02  0.00000000000E+00 0.  1.
</event>
<event>
 7    1  0.6285940E-013  0.5930194E+02  0.7816164E-02  0.1266605E+00
        -11   -1    0    0    0    0  0.00000000000E+00  0.00000000000E+00  0.45593999997E+02  0.45594000000E+02  0.51100000000E-03 0.  1.
         11   -1    0    0    0    0 -0.00000000000E+00 -0.00000000000E+00 -0.45593999997E+02  0.45594000000E+02  0.51100000000E-03 0. -1.
    9900012    2    1    2    0    0 -0.22688575672E+02  0.22320324443E+02  0.19371718814E+01  0.59301937462E+02  0.49999988026E+02 0.  0.
        -12    1    1    2    0    0  0.22688575672E+02 -0.22320324443E+02 -0.19371718814E+01  0.31886062538E+02  0.00000000000E+00 0.  1.
         11    1    3    3    0    0 -0.12785395375E+02  0.27808695754E+02  0.48123689253E+01  0.30983040350E+02  0.51100000000E-03 0. -1.
        -11    1    3    3    0    0  0.26786342950E+01  0.75544161759E+01  0.39729706601E+01  0.89458807041E+01  0.51100000000E-03 0.  1.
         12    1    3    3    0    0 -0.12581814592E+02 -0.13042787486E+02 -0.68481677040E+01  0.19373016408E+02  0.00000000000E+00 0. -1.
</event>
<event>
 7    1  0.6285940E-013  0.5930196E+02  0.7816164E-02  0.1266605E+00
        -11   -1    0    0    0    0  0.00000000000E+00  0.00000000000E+00  0.45593999997E+02  0.45594000000E+02  0.51100000000E-03 0.  1.
         11   -1    0    0    0    0 -0.00000000000E+00 -0.00000000000E+00 -0.45593999997E+02  0.45594000000E+02  0.51100000000E-03 0. -1.
    9900012    2    1    2    0    0  0.18578777813E+02 -0.15491167283E+02 -0.20774320885E+02  0.59301958272E+02  0.50000025978E+02 0.  0.
        -12    1    1    2    0    0 -0.18578777813E+02  0.15491167283E+02  0.20774320885E+02  0.31886041728E+02  0.00000000000E+00 0.  1.
         11    1    3    3    0    0 -0.25448159792E+01 -0.19825882209E+01  0.10429714019E+02  0.10917219390E+02  0.51100000000E-03 0. -1.
        -11    1    3    3    0    0  0.11897848444E+02  0.31247962881E+01 -0.55566618469E+00  0.12313891124E+02  0.51100000000E-03 0.  1.
         12    1    3    3    0    0  0.92257453483E+01 -0.16633375350E+02 -0.30648368720E+02  0.36070847758E+02  0.00000000000E+00 0. -1.
</event>
<event>
 7    1  0.6285940E-013  0.5930199E+02  0.7816164E-02  0.1266605E+00
        -11   -1    0    0    0    0  0.00000000000E+00  0.00000000000E+00  0.45593999997E+02  0.45594000000E+02  0.51100000000E-03 0. -1.
         11   -1    0    0    0    0 -0.00000000000E+00 -0.00000000000E+00 -0.45593999997E+02  0.45594000000E+02  0.51100000000E-03 0.  1.
    9900012    2    1    2    0    0  0.26265949843E+02  0.78017649856E+01 -0.16307977157E+02  0.59301987753E+02  0.50000079745E+02 0.  0.
        -12    1    1    2    0    0 -0.26265949843E+02 -0.78017649856E+01  0.16307977157E+02  0.31886012247E+02  0.00000000000E+00 0.  1.
         11    1    3    3    0    0 -0.23827315010E+01 -0.28261733915E+01 -0.11230440692E+02  0.11823174863E+02  0.51100000000E-03 0. -1.
        -11    1    3    3    0    0 -0.24652508685E+01  0.95348963693E+01 -0.12061966805E+02  0.15571857760E+02  0.51100000000E-03 0.  1.
         12    1    3    3    0    0  0.31113932212E+02  0.10930420077E+01  0.69844303398E+01  0.31906955131E+02  0.00000000000E+00 0. -1.
</event>
<event>
 7    1  0.6285940E-013  0.5930205E+02  0.7816164E-02  0.1266604E+00
        -11   -1    0    0    0    0  0.00000000000E+00  0.00000000000E+00  0.45593999997E+02  0.45594000000E+02  0.51100000000E-03 0. -1.
         11   -1    0    0    0    0 -0.00000000000E+00 -0.00000000000E+00 -0.45593999997E+02  0.45594000000E+02  0.51100000000E-03 0.  1.
    9900012    2    1    2    0    0 -0.95034621360E+01 -0.22147449151E+00  0.30435984925E+02  0.59302046637E+02  0.50000187134E+02 0.  0.
        -12    1    1    2    0    0  0.95034621360E+01  0.22147449151E+00 -0.30435984925E+02  0.31885953363E+02  0.00000000000E+00 0.  1.
         11    1    3    3    0    0  0.52841753441E+01 -0.78933022103E+01  0.18391834548E+02  0.20699910801E+02  0.51100000000E-03 0. -1.
        -11    1    3    3    0    0  0.44155838184E+01 -0.83686035588E+01  0.95716440637E+01  0.13459096416E+02  0.51100000000E-03 0.  1.
        -12    1    3    3    0    0 -0.19203221298E+02  0.16040431278E+02  0.24725063130E+01  0.25143039420E+02  0.00000000000E+00 0.  1.
</event>
<event>
 7    1  0.6285940E-013  0.5930192E+02  0.7816164E-02  0.1266605E+00
        -11   -1    0    0    0    0  0.00000000000E+00  0.00000000000E+00  0.45593999997E+02  0.45594000000E+02  0.51100000000E-03 0.  1.
         11   -1    0    0    0    0 -0.00000000000E+00 -0.00000000000E+00 -0.45593999997E+02  0.45594000000E+02  0.51100000000E-03 0. -1.
    9900012    2    1    2    0    0  0.30998594395E+02  0.58642915921E+01 -0.46280843648E+01  0.59301922549E+02  0.49999960828E+02 0.  0.
        -12    1    1    2    0    0 -0.30998594395E+02 -0.58642915921E+01  0.46280843648E+01  0.31886077451E+02  0.00000000000E+00 0.  1.
         11    1    3    3    0    0  0.14078175595E+02 -0.29922146610E+01  0.20290710454E+01  0.14534975274E+02  0.51100000000E-03 0. -1.
        -11    1    3    3    0    0  0.71805493343E+01 -0.15615664254E+02 -0.66463085080E+01  0.18427769151E+02  0.51100000000E-03 0.  1.
         12    1    3    3    0    0  0.97398694661E+01  0.24472170508E+02 -0.10846902155E-01  0.26339178123E+02  0.00000000000E+00 0. -1.
</event>
<event>
 7    1  0.6285940E-013  0.5930195E+02  0.7816164E-02  0.1266605E+00
        -11   -1    0    0    0    0  0.00000000000E+00  0.00000000000E+00  0.45593999997E+02  0.45594000000E+02  0.51100000000E-03 0.  1.
         11   -1    0    0    0    0 -0.00000000000E+00 -0.00000000000E+00 -0.45593999997E+02  0.45594000000E+02  0.51100000000E-03 0. -1.
    9900012    2    1    2    0    0  0.10971396181E+02  0.29060469306E+02 -0.71998509342E+01  0.59301948756E+02  0.50000008624E+02 0.  0.
        -12    1    1    2    0    0 -0.10971396181E+02 -0.29060469306E+02  0.71998509342E+01  0.31886051244E+02  0.00000000000E+00 0.  1.
         11    1    3    3    0    0  0.41310564245E+01  0.26241076873E+02 -0.39256364365E+01  0.26852753385E+02  0.51100000000E-03 0. -1.
        -11    1    3    3    0    0 -0.55099415434E+01  0.40239073211E+01  0.11366640339E+02  0.13257141426E+02  0.51100000000E-03 0.  1.
         12    1    3    3    0    0  0.12350281300E+02 -0.12045148885E+01 -0.14640854836E+02  0.19192053945E+02  0.00000000000E+00 0. -1.
</event>
<event>
 7    1  0.6285940E-013  0.5930186E+02  0.7816164E-02  0.1266605E+00
        -11   -1    0    0    0    0  0.00000000000E+00  0.00000000000E+00  0.45593999997E+02  0.45594000000E+02  0.51100000000E-03 0. -1.
         11   -1    0    0    0    0 -0.00000000000E+00 -0.00000000000E+00 -0.45593999997E+02  0.45594000000E+02  0.51100000000E-03 0.  1.
    9900012    2    1    2    0    0 -0.13041974101E+02 -0.23591871917E+02  0.17031039506E+02  0.59301861701E+02  0.49999849855E+02 0.  0.
        -12    1    1    2    0    0  0.13041974101E+02  0.23591871917E+02 -0.17031039506E+02  0.31886138299E+02  0.00000000000E+00 0.  1.
         11    1    3    3    0    0 -0.92448966898E+01 -0.15715937140E+02 -0.37067122195E+01  0.18606410475E+02  0.51100000000E-03 0. -1.
        -11    1    3    3    0    0 -0.18335754702E+01 -0.16591801991E+01 -0.94723941745E+01  0.97898482928E+01  0.51100000000E-03 0.  1.
         12    1    3    3    0    0 -0.19635019409E+01 -0.62167545772E+01  0.30210145900E+02  0.30905602933E+02  0.00000000000E+00 0. -1.
</event>
<event>
 7    1  0.6285940E-013  0.5930195E+02  0.7816164E-02  0.1266605E+00
        -11   -1    0    0    0    0  0.00000000000E+00  0.00000000000E+00  0.45593999997E+02  0.45594000000E+02  0.51100000000E-03 0. -1.
         11   -1    0    0    0    0 -0.00000000000E+00 -0.00000000000E+00 -0.45593999997E+02  0.45594000000E+02  0.51100000000E-03 0.  1.
    9900012    2    1    2    0    0  0.38089051268E+01 -0.31314688612E+02 -0.46478700184E+01  0.59301950122E+02  0.50000011114E+02 0.  0.
        -12    1    1    2    0    0 -0.38089051268E+01  0.31314688612E+02  0.46478700184E+01  0.31886049878E+02  0.00000000000E+00 0.  1.
         11    1    3    3    0    0  0.85970023262E+01 -0.23865753293E+02 -0.47386402787E+01  0.25805761783E+02  0.51100000000E-03 0. -1.
        -11    1    3    3    0    0  0.11354219567E+01  0.11716405763E+02 -0.50176253585E+01  0.12796089697E+02  0.51100000000E-03 0.  1.
         12    1    3    3    0    0 -0.59235191561E+01 -0.19165341082E+02  0.51083956188E+01  0.20700098642E+02  0.00000000000E+00 0. -1.
</event>
<event>
 7    1  0.6285940E-013  0.5930203E+02  0.7816164E-02  0.1266604E+00
        -11   -1    0    0    0    0  0.00000000000E+00  0.00000000000E+00  0.45593999997E+02  0.45594000000E+02  0.51100000000E-03 0. -1.
         11   -1    0    0    0    0 -0.00000000000E+00 -0.00000000000E+00 -0.45593999997E+02  0.45594000000E+02  0.51100000000E-03 0.  1.
    9900012    2    1    2    0    0 -0.60928003619E-01 -0.29388641239E+02  0.12370100167E+02  0.59302026215E+02  0.50000149890E+02 0.  0.
        -12    1    1    2    0    0  0.60928003619E-01  0.29388641239E+02 -0.12370100167E+02  0.31885973785E+02  0.00000000000E+00 0.  1.
         11    1    3    3    0    0  0.27425286622E+01 -0.74423435921E+01  0.10944078624E+02  0.13516020080E+02  0.51100000000E-03 0. -1.
        -11    1    3    3    0    0  0.13900559879E+02  0.43081503523E+01 -0.90503213613E+00  0.14580974173E+02  0.51100000000E-03 0.  1.
        -12    1    3    3    0    0 -0.16704016545E+02 -0.26254447999E+02  0.23310536785E+01  0.31205031962E+02  0.00000000000E+00 0.  1.
</event>
<event>
 7    1  0.6285940E-013  0.5930198E+02  0.7816164E-02  0.1266605E+00
        -11   -1    0    0    0    0  0.00000000000E+00  0.00000000000E+00  0.45593999997E+02  0.45594000000E+02  0.51100000000E-03 0.  1.
         11   -1    0    0    0    0 -0.00000000000E+00 -0.00000000000E+00 -0.45593999997E+02  0.45594000000E+02  0.51100000000E-03 0. -1.
    9900012    2    1    2    0    0 -0.25860924660E+02  0.88012470261E+01 -0.16445942842E+02  0.59301977836E+02  0.50000061658E+02 0.  0.
        -12    1    1    2    0    0  0.25860924660E+02 -0.88012470261E+01  0.16445942842E+02  0.31886022164E+02  0.00000000000E+00 0.  1.
         11    1    3    3    0    0 -0.11246632677E+02  0.11370833348E+02  0.94879117238E+01  0.18595780886E+02  0.51100000000E-03 0. -1.
        -11    1    3    3    0    0 -0.20113006168E+01 -0.10178876662E+02  0.56645058129E+00  0.10391136935E+02  0.51100000000E-03 0.  1.
         12    1    3    3    0    0 -0.12602991366E+02  0.76092903405E+01 -0.26500305147E+02  0.30315060015E+02  0.00000000000E+00 0. -1.
</event>
<event>
 7    1  0.6285940E-013  0.5930193E+02  0.7816164E-02  0.1266605E+00
        -11   -1    0    0    0    0  0.00000000000E+00  0.00000000000E+00  0.45593999997E+02  0.45594000000E+02  0.51100000000E-03 0.  1.
         11   -1    0    0    0    0 -0.00000000000E+00 -0.00000000000E+00 -0.45593999997E+02  0.45594000000E+02  0.51100000000E-03 0. -1.
    9900012    2    1    2    0    0  0.24238387464E+02 -0.18910632105E+02 -0.84622569784E+01  0.59301933660E+02  0.49999981092E+02 0.  0.
        -12    1    1    2    0    0 -0.24238387464E+02  0.18910632105E+02  0.84622569784E+01  0.31886066340E+02  0.00000000000E+00 0.  1.
         11    1    3    3    0    0  0.10225930097E+02  0.31917381121E+01 -0.40676817819E+01  0.11458746609E+02  0.51100000000E-03 0.  1.
        -11    1    3    3    0    0 -0.12442328489E+02 -0.55782743687E+01  0.60942559153E+01  0.14935482536E+02  0.51100000000E-03 0. -1.
         12    1    3    3    0    0  0.26454785857E+02 -0.16524095848E+02 -0.10488831112E+02  0.32907704515E+02  0.00000000000E+00 0. -1.
</event>
<event>
 7    1  0.6285940E-013  0.5930195E+02  0.7816164E-02  0.1266605E+00
        -11   -1    0    0    0    0  0.00000000000E+00  0.00000000000E+00  0.45593999997E+02  0.45594000000E+02  0.51100000000E-03 0. -1.
         11   -1    0    0    0    0 -0.00000000000E+00 -0.00000000000E+00 -0.45593999997E+02  0.45594000000E+02  0.51100000000E-03 0.  1.
    9900012    2    1    2    0    0 -0.14688289365E+02 -0.14850451072E+02  0.24092288796E+02  0.59301950999E+02  0.50000012714E+02 0.  0.
        -12    1    1    2    0    0  0.14688289365E+02  0.14850451072E+02 -0.24092288796E+02  0.31886049001E+02  0.00000000000E+00 0.  1.
         11    1    3    3    0    0 -0.30383169965E+01  0.56032341524E+01  0.16098346510E+02  0.17314282074E+02  0.51100000000E-03 0. -1.
        -11    1    3    3    0    0 -0.11650599724E+02 -0.16747577964E+02 -0.10625762956E+02  0.23002710281E+02  0.51100000000E-03 0.  1.
         12    1    3    3    0    0  0.62735603729E-03 -0.37061072600E+01  0.18619705242E+02  0.18984958644E+02  0.00000000000E+00 0. -1.
</event>
<event>
 7    1  0.6285940E-013  0.5930195E+02  0.7816164E-02  0.1266605E+00
        -11   -1    0    0    0    0  0.00000000000E+00  0.00000000000E+00  0.45593999997E+02  0.45594000000E+02  0.51100000000E-03 0.  1.
         11   -1    0    0    0    0 -0.00000000000E+00 -0.00000000000E+00 -0.45593999997E+02  0.45594000000E+02  0.51100000000E-03 0. -1.
    9900012    2    1    2    0    0  0.71842394272E+01  0.27375410051E+02 -0.14686510765E+02  0.59301953365E+02  0.50000017028E+02 0.  0.
        -12    1    1    2    0    0 -0.71842394272E+01 -0.27375410051E+02  0.14686510765E+02  0.31886046635E+02  0.00000000000E+00 0.  1.
         11    1    3    3    0    0 -0.36575238024E+00  0.10835737456E+02 -0.29483339462E+02  0.31413600352E+02  0.51100000000E-03 0. -1.
        -11    1    3    3    0    0 -0.28088773505E+01  0.25807934781E+01 -0.14638294227E+01  0.40857170468E+01  0.51100000000E-03 0.  1.
        -12    1    3    3    0    0  0.10358869158E+02  0.13958879117E+02  0.16260658120E+02  0.23802635965E+02  0.00000000000E+00 0.  1.
</event>
<event>
 7    1  0.6285940E-013  0.5930193E+02  0.7816164E-02  0.1266605E+00
        -11   -1    0    0    0    0  0.00000000000E+00  0.00000000000E+00  0.45593999997E+02  0.45594000000E+02  0.51100000000E-03 0. -1.
         11   -1    0    0    0    0 -0.00000000000E+00 -0.00000000000E+00 -0.45593999997E+02  0.45594000000E+02  0.51100000000E-03 0.  1.
    9900012    2    1    2    0    0 -0.25117308038E+02 -0.13434160577E+02 -0.14330587593E+02  0.59301928210E+02  0.49999971151E+02 0.  0.
        -12    1    1    2    0    0  0.25117308038E+02  0.13434160577E+02  0.14330587593E+02  0.31886071790E+02  0.00000000000E+00 0.  1.
         11    1    3    3    0    0  0.16163527626E+01 -0.99823282598E+01 -0.51339012721E+01  0.11340917788E+02  0.51100000000E-03 0. -1.
        -11    1    3    3    0    0  0.95850153302E+01 -0.19464539411E+01  0.18825826787E+01  0.99601867266E+01  0.51100000000E-03 0.  1.
         12    1    3    3    0    0 -0.36318676131E+02 -0.15053783758E+01 -0.11079268999E+02  0.38000823695E+02  0.00000000000E+00 0. -1.
</event>
<event>
 7    1  0.6285940E-013  0.5930198E+02  0.7816164E-02  0.1266605E+00
        -11   -1    0    0    0    0  0.00000000000E+00  0.00000000000E+00  0.45593999997E+02  0.45594000000E+02  0.51100000000E-03 0.  1.
         11   -1    0    0    0    0 -0.00000000000E+00 -0.00000000000E+00 -0.45593999997E+02  0.45594000000E+02  0.51100000000E-03 0. -1.
    9900012    2    1    2    0    0 -0.15020502216E+02  0.14068406534E+01 -0.28091339754E+02  0.59301983368E+02  0.50000071748E+02 0.  0.
        -12    1    1    2    0    0  0.15020502216E+02 -0.14068406534E+01  0.28091339754E+02  0.31886016632E+02  0.00000000000E+00 0.  1.
         11    1    3    3    0    0 -0.40035250324E+01  0.19254278773E+02 -0.19308071421E+02  0.27560063244E+02  0.51100000000E-03 0. -1.
        -11    1    3    3    0    0 -0.84956382945E+01 -0.29467439805E+01 -0.13222929449E+02  0.15990779643E+02  0.51100000000E-03 0.  1.
        -12    1    3    3    0    0 -0.25213388894E+01 -0.14900694139E+02  0.44396611161E+01  0.15751140481E+02  0.00000000000E+00 0.  1.
</event>
<event>
 7    1  0.6285940E-013  0.5930194E+02  0.7816164E-02  0.1266605E+00
        -11   -1    0    0    0    0  0.00000000000E+00  0.00000000000E+00  0.45593999997E+02  0.45594000000E+02  0.51100000000E-03 0.  1.
         11   -1    0    0    0    0 -0.00000000000E+00 -0.00000000000E+00 -0.45593999997E+02  0.45594000000E+02  0.51100000000E-03 0. -1.
    9900012    2    1    2    0    0  0.84181242103E+01  0.26678228147E+02 -0.15301249925E+02  0.59301938444E+02  0.49999989817E+02 0.  0.
        -12    1    1    2    0    0 -0.84181242103E+01 -0.26678228147E+02  0.15301249925E+02  0.31886061556E+02  0.00000000000E+00 0.  1.
         11    1    3    3    0    0 -0.13232146569E+02  0.32899600073E+01 -0.92203808903E+01  0.16459919917E+02  0.51100000000E-03 0. -1.
        -11    1    3    3    0    0  0.17519690762E+01  0.52370406740E+01  0.10035785372E+02  0.11454823393E+02  0.51100000000E-03 0.  1.
         12    1    3    3    0    0  0.19898301703E+02  0.18151227465E+02 -0.16116654406E+02  0.31387195134E+02  0.00000000000E+00 0. -1.
</event>
<event>
 7    1  0.6285940E-013  0.5930199E+02  0.7816164E-02  0.1266605E+00
        -11   -1    0    0    0    0  0.00000000000E+00  0.00000000000E+00  0.45593999997E+02  0.45594000000E+02  0.51100000000E-03 0.  1.
         11   -1    0    0    0    0 -0.00000000000E+00 -0.00000000000E+00 -0.45593999997E+02  0.45594000000E+02  0.51100000000E-03 0. -1.
    9900012    2    1    2    0    0 -0.16445575390E+02  0.17971629846E+02 -0.20573801234E+02  0.59301988546E+02  0.50000081190E+02 0.  0.
        -12    1    1    2    0    0  0.16445575390E+02 -0.17971629846E+02  0.20573801234E+02  0.31886011454E+02  0.00000000000E+00 0.  1.
         11    1    3    3    0    0  0.47370994344E+01  0.31021278890E+01 -0.22994230181E+02  0.23681172487E+02  0.51100000000E-03 0. -1.
        -11    1    3    3    0    0 -0.99737169239E+00  0.98053871816E+01 -0.76737710778E+01  0.12491082054E+02  0.51100000000E-03 0.  1.
        -12    1    3    3    0    0 -0.20185303132E+02  0.50641147753E+01  0.10094200024E+02  0.23129734005E+02  0.00000000000E+00 0.  1.
</event>
<event>
 7    1  0.6285940E-013  0.5930195E+02  0.7816164E-02  0.1266605E+00
        -11   -1    0    0    0    0  0.00000000000E+00  0.00000000000E+00  0.45593999997E+02  0.45594000000E+02  0.51100000000E-03 0.  1.
         11   -1    0    0    0    0 -0.00000000000E+00 -0.00000000000E+00 -0.45593999997E+02  0.45594000000E+02  0.51100000000E-03 0. -1.
    9900012    2    1    2    0    0  0.15480968741E+02  0.18163381152E+02 -0.21145960301E+02  0.59301945915E+02  0.50000003442E+02 0.  0.
        -12    1    1    2    0    0 -0.15480968741E+02 -0.18163381152E+02  0.21145960301E+02  0.31886054085E+02  0.00000000000E+00 0.  1.
         11    1    3    3    0    0  0.21067693944E+02  0.15796156025E+02 -0.30072790915E+02  0.39971727845E+02  0.51100000000E-03 0. -1.
        -11    1    3    3    0    0 -0.32157872501E+01 -0.67839679309E+01  0.25569412330E+01  0.79310438944E+01  0.51100000000E-03 0.  1.
        -12    1    3    3    0    0 -0.23709379529E+01  0.91511930583E+01  0.63698893804E+01  0.11399174176E+02  0.00000000000E+00 0.  1.
</event>
<event>
 7    1  0.6285940E-013  0.5930198E+02  0.7816164E-02  0.1266605E+00
        -11   -1    0    0    0    0  0.00000000000E+00  0.00000000000E+00  0.45593999997E+02  0.45594000000E+02  0.51100000000E-03 0.  1.
         11   -1    0    0    0    0 -0.00000000000E+00 -0.00000000000E+00 -0.45593999997E+02  0.45594000000E+02  0.51100000000E-03 0. -1.
    9900012    2    1    2    0    0 -0.25154751921E+02 -0.46058992947E+01 -0.19045798631E+02  0.59301979584E+02  0.50000064845E+02 0.  0.
        -12    1    1    2    0    0  0.25154751921E+02  0.46058992947E+01  0.19045798631E+02  0.31886020416E+02  0.00000000000E+00 0.  1.
         11    1    3    3    0    0 -0.34100161487E+02 -0.43371826683E+01 -0.21811248180E+02  0.40710719895E+02  0.51100000000E-03 0.  1.
        -11    1    3    3    0    0  0.28441953049E+01 -0.75598858487E+01 -0.14243304032E+01  0.82018314014E+01  0.51100000000E-03 0. -1.
        -12    1    3    3    0    0  0.61012142609E+01  0.72911692223E+01  0.41897799527E+01  0.10389428287E+02  0.00000000000E+00 0.  1.
</event>
<event>
 7    1  0.6285940E-013  0.5930194E+02  0.7816164E-02  0.1266605E+00
        -11   -1    0    0    0    0  0.00000000000E+00  0.00000000000E+00  0.45593999997E+02  0.45594000000E+02  0.51100000000E-03 0.  1.
         11   -1    0    0    0    0 -0.00000000000E+00 -0.00000000000E+00 -0.45593999997E+02  0.45594000000E+02  0.51100000000E-03 0. -1.
    9900012    2    1    2    0    0  0.16479116023E+02  0.33822611475E+01 -0.27087260553E+02  0.59301942865E+02  0.49999997879E+02 0.  0.
        -12    1    1    2    0    0 -0.16479116023E+02 -0.33822611475E+01  0.27087260553E+02  0.31886057135E+02  0.00000000000E+00 0.  1.
         11    1    3    3    0    0 -0.76080034729E+01  0.10740222281E+02 -0.26598827546E+01  0.13427921210E+02  0.51100000000E-03 0. -1.
        -11    1    3    3    0    0  0.99959383941E+01 -0.25240297209E+01  0.60477578337E+01  0.11952609986E+02  0.51100000000E-03 0.  1.
         12    1    3    3    0    0  0.14091181102E+02 -0.48339314129E+01 -0.30475135632E+02  0.33921411668E+02  0.00000000000E+00 0. -1.
</event>
<event>
 7    1  0.6285940E-013  0.5930194E+02  0.7816164E-02  0.1266605E+00
        -11   -1    0    0    0    0  0.00000000000E+00  0.00000000000E+00  0.45593999997E+02  0.45594000000E+02  0.51100000000E-03 0. -1.
         11   -1    0    0    0    0 -0.00000000000E+00 -0.00000000000E+00 -0.45593999997E+02  0.45594000000E+02  0.51100000000E-03 0.  1.
    9900012    2    1    2    0    0  0.10708462539E+02 -0.42637836595E+01  0.29729947349E+02  0.59301940500E+02  0.49999993566E+02 0.  0.
        -12    1    1    2    0    0 -0.10708462539E+02  0.42637836595E+01 -0.29729947349E+02  0.31886059500E+02  0.00000000000E+00 0.  1.
         11    1    3    3    0    0  0.11142588014E+02  0.15779560211E+01  0.19753819271E+02  0.22734568149E+02  0.51100000000E-03 0. -1.
        -11    1    3    3    0    0 -0.26887371650E+01 -0.18907020173E+02  0.12828043853E+02  0.23005725998E+02  0.51100000000E-03 0.  1.
         12    1    3    3    0    0  0.22546116904E+01  0.13065280492E+02 -0.28519157748E+01  0.13561646353E+02  0.00000000000E+00 0. -1.
</event>
<event>
 7    1  0.6285940E-013  0.5930196E+02  0.7816164E-02  0.1266605E+00
        -11   -1    0    0    0    0  0.00000000000E+00  0.00000000000E+00  0.45593999997E+02  0.45594000000E+02  0.51100000000E-03 0.  1.
         11   -1    0    0    0    0 -0.00000000000E+00 -0.00000000000E+00 -0.45593999997E+02  0.45594000000E+02  0.51100000000E-03 0. -1.
    9900012    2    1    2    0    0  0.93536520744E-01 -0.31003765030E+02  0.74483280099E+01  0.59301956262E+02  0.50000022313E+02 0.  0.
        -12    1    1    2    0    0 -0.93536520744E-01  0.31003765030E+02 -0.74483280099E+01  0.31886043738E+02  0.00000000000E+00 0.  1.
         11    1    3    3    0    0  0.12876606105E+02 -0.87951487080E+01 -0.14111960154E+01  0.15657365680E+02  0.51100000000E-03 0. -1.
        -11    1    3    3    0    0  0.65375725365E+01  0.19105828057E+01 -0.62509861322E+01  0.92447287258E+01  0.51100000000E-03 0.  1.
         12    1    3    3    0    0 -0.19320642121E+02 -0.24119199127E+02  0.15110510158E+02  0.34399861856E+02  0.00000000000E+00 0. -1.
</event>
<event>
 7    1  0.6285940E-013  0.5930194E+02  0.7816164E-02  0.1266605E+00
        -11   -1    0    0    0    0  0.00000000000E+00  0.00000000000E+00  0.45593999997E+02  0.45594000000E+02  0.51100000000E-03 0.  1.
         11   -1    0    0    0    0 -0.00000000000E+00 -0.00000000000E+00 -0.45593999997E+02  0.45594000000E+02  0.51100000000E-03 0. -1.
    9900012    2    1    2    0    0 -0.58689807492E+01 -0.10821947081E+02 -0.29413622047E+02  0.59301942928E+02  0.49999997994E+02 0.  0.
        -12    1    1    2    0    0  0.58689807492E+01  0.10821947081E+02  0.29413622047E+02  0.31886057072E+02  0.00000000000E+00 0.  1.
         11    1    3    3    0    0 -0.36014252848E+01  0.12020672254E+02 -0.13373095429E+02  0.18338661541E+02  0.51100000000E-03 0. -1.
        -11    1    3    3    0    0 -0.12864029102E+02 -0.74722266469E+00 -0.31084824369E+01  0.13255347969E+02  0.51100000000E-03 0.  1.
        -12    1    3    3    0    0  0.10596473638E+02 -0.22095396670E+02 -0.12932044182E+02  0.27707933418E+02  0.00000000000E+00 0.  1.
</event>
<event>
 7    1  0.6285940E-013  0.5930194E+02  0.7816164E-02  0.1266605E+00
        -11   -1    0    0    0    0  0.00000000000E+00  0.00000000000E+00  0.45593999997E+02  0.45594000000E+02  0.51100000000E-03 0. -1.
         11   -1    0    0    0    0 -0.00000000000E+00 -0.00000000000E+00 -0.45593999997E+02  0.45594000000E+02  0.51100000000E-03 0.  1.
    9900012    2    1    2    0    0 -0.13034322403E+02 -0.26702010968E+02  0.11568477211E+02  0.59301943248E+02  0.49999998578E+02 0.  0.
        -12    1    1    2    0    0  0.13034322403E+02  0.26702010968E+02 -0.11568477211E+02  0.31886056752E+02  0.00000000000E+00 0.  1.
         11    1    3    3    0    0 -0.14700769254E+02 -0.26640318845E+02  0.12818921895E+02  0.33017328233E+02  0.51100000000E-03 0. -1.
        -11    1    3    3    0    0  0.78349651420E+01 -0.10649522577E+02  0.25299390232E+01  0.13461040139E+02  0.51100000000E-03 0.  1.
        -12    1    3    3    0    0 -0.61685182910E+01  0.10587830454E+02 -0.37803837072E+01  0.12823574876E+02  0.00000000000E+00 0.  1.
</event>
<event>
 7    1  0.6285940E-013  0.5930210E+02  0.7816164E-02  0.1266604E+00
        -11   -1    0    0    0    0  0.00000000000E+00  0.00000000000E+00  0.45593999997E+02  0.45594000000E+02  0.51100000000E-03 0.  1.
         11   -1    0    0    0    0 -0.00000000000E+00 -0.00000000000E+00 -0.45593999997E+02  0.45594000000E+02  0.51100000000E-03 0. -1.
    9900012    2    1    2    0    0 -0.26969452130E+02 -0.30490609730E+01 -0.16735074546E+02  0.59302096515E+02  0.50000278099E+02 0.  0.
        -12    1    1    2    0    0  0.26969452130E+02  0.30490609730E+01  0.16735074546E+02  0.31885903485E+02  0.00000000000E+00 0.  1.
         11    1    3    3    0    0 -0.15539291641E+02  0.10098225976E+02 -0.28543124614E+02  0.34031657549E+02  0.51100000000E-03 0. -1.
        -11    1    3    3    0    0 -0.69249836686E+01  0.13599298827E+01  0.26848425975E+01  0.75507077901E+01  0.51100000000E-03 0.  1.
        -12    1    3    3    0    0 -0.45051768208E+01 -0.14507216832E+02  0.91232074705E+01  0.17719731176E+02  0.00000000000E+00 0.  1.
</event>
<event>
 7    1  0.7615071E-013  0.5930197E+02  0.7816164E-02  0.1266605E+00
        -11   -1    0    0    0    0  0.00000000000E+00  0.00000000000E+00  0.45593999997E+02  0.45594000000E+02  0.51100000000E-03 0. -1.
         11   -1    0    0    0    0 -0.00000000000E+00 -0.00000000000E+00 -0.45593999997E+02  0.45594000000E+02  0.51100000000E-03 0.  1.
    9900012    2    1    2    0    0 -0.31204455263E+01 -0.85811389000E+01  0.30550706573E+02  0.59301971755E+02  0.50000050568E+02 0.  0.
        -12    1    1    2    0    0  0.31204455263E+01  0.85811389000E+01 -0.30550706573E+02  0.31886028245E+02  0.00000000000E+00 0.  1.
         11    1    3    3    0    0  0.83361444202E+01  0.37089344400E+00  0.12834190456E+01  0.84425132779E+01  0.51100000000E-03 0. -1.
        -11    1    3    3    0    0  0.22314531639E+01 -0.66735277114E+01 -0.82587491073E+01  0.10849990434E+02  0.51100000000E-03 0.  1.
         12    1    3    3    0    0 -0.13688043110E+02 -0.22785046326E+01  0.37526036635E+02  0.40009468043E+02  0.00000000000E+00 0. -1.
</event>
<event>
 7    1  0.6285940E-013  0.5930195E+02  0.7816164E-02  0.1266605E+00
        -11   -1    0    0    0    0  0.00000000000E+00  0.00000000000E+00  0.45593999997E+02  0.45594000000E+02  0.51100000000E-03 0. -1.
         11   -1    0    0    0    0 -0.00000000000E+00 -0.00000000000E+00 -0.45593999997E+02  0.45594000000E+02  0.51100000000E-03 0.  1.
    9900012    2    1    2    0    0  0.24537929620E+00  0.27071896692E+02  0.16845547698E+02  0.59301948524E+02  0.50000008200E+02 0.  0.
        -12    1    1    2    0    0 -0.24537929620E+00 -0.27071896692E+02 -0.16845547698E+02  0.31886051476E+02  0.00000000000E+00 0.  1.
         11    1    3    3    0    0  0.48826457710E+01 -0.35475300419E+01 -0.20901350527E+01  0.63870074309E+01  0.51100000000E-03 0. -1.
        -11    1    3    3    0    0 -0.32030652812E+01  0.12902901092E+01 -0.10671039557E+02  0.11215862038E+02  0.51100000000E-03 0.  1.
         12    1    3    3    0    0 -0.14342011936E+01  0.29329136624E+02  0.29606722308E+02  0.41699079055E+02  0.00000000000E+00 0. -1.
</event>
<event>
 7    1  0.6285940E-013  0.5930192E+02  0.7816164E-02  0.1266605E+00
        -11   -1    0    0    0    0  0.00000000000E+00  0.00000000000E+00  0.45593999997E+02  0.45594000000E+02  0.51100000000E-03 0.  1.
         11   -1    0    0    0    0 -0.00000000000E+00 -0.00000000000E+00 -0.45593999997E+02  0.45594000000E+02  0.51100000000E-03 0. -1.
    9900012    2    1    2    0    0  0.45975326274E+01  0.40566726718E+01 -0.31291023830E+02  0.59301920408E+02  0.49999956923E+02 0.  0.
        -12    1    1    2    0    0 -0.45975326274E+01 -0.40566726718E+01  0.31291023830E+02  0.31886079592E+02  0.00000000000E+00 0.  1.
         11    1    3    3    0    0 -0.97484863952E+01 -0.15828406081E+02 -0.15562548289E+02  0.24243851500E+02  0.51100000000E-03 0. -1.
        -11    1    3    3    0    0  0.97080203805E+01  0.71817259874E+01  0.25288653148E+01  0.12337666226E+02  0.51100000000E-03 0.  1.
        -12    1    3    3    0    0  0.46379986421E+01  0.12703352765E+02 -0.18257340856E+02  0.22720402682E+02  0.00000000000E+00 0.  1.
</event>
<event>
 7    1  0.6285940E-013  0.5930198E+02  0.7816164E-02  0.1266605E+00
        -11   -1    0    0    0    0  0.00000000000E+00  0.00000000000E+00  0.45593999997E+02  0.45594000000E+02  0.51100000000E-03 0. -1.
         11   -1    0    0    0    0 -0.00000000000E+00 -0.00000000000E+00 -0.45593999997E+02  0.45594000000E+02  0.51100000000E-03 0.  1.
    9900012    2    1    2    0    0  0.25674103350E+02  0.15186466292E+02 -0.11266309666E+02  0.59301983085E+02  0.50000071230E+02 0.  0.
        -12    1    1    2    0    0 -0.25674103350E+02 -0.15186466292E+02  0.11266309666E+02  0.31886016915E+02  0.00000000000E+00 0.  1.
         11    1    3    3    0    0  0.20008412404E+01  0.29045154079E+01  0.99369020142E+01  0.10544268459E+02  0.51100000000E-03 0.  1.
        -11    1    3    3    0    0  0.68279412398E+00  0.82600901923E+01  0.79011171708E+01  0.11450893005E+02  0.51100000000E-03 0. -1.
        -12    1    3    3    0    0  0.22990467985E+02  0.40218606917E+01 -0.29104328851E+02  0.37306821621E+02  0.00000000000E+00 0.  1.
</event>
<event>
 7    1  0.6285940E-013  0.5930196E+02  0.7816164E-02  0.1266605E+00
        -11   -1    0    0    0    0  0.00000000000E+00  0.00000000000E+00  0.45593999997E+02  0.45594000000E+02  0.51100000000E-03 0. -1.
         11   -1    0    0    0    0 -0.00000000000E+00 -0.00000000000E+00 -0.45593999997E+02  0.45594000000E+02  0.51100000000E-03 0.  1.
    9900012    2    1    2    0    0 -0.27388843281E+02  0.14009063577E+02  0.83855338489E+01  0.59301956400E+02  0.50000022563E+02 0.  0.
        -12    1    1    2    0    0  0.27388843281E+02 -0.14009063577E+02 -0.83855338489E+01  0.31886043600E+02  0.00000000000E+00 0.  1.
         11    1    3    3    0    0 -0.32624271225E+02  0.21003473527E+01  0.37802925200E+01  0.32909651225E+02  0.51100000000E-03 0. -1.
        -11    1    3    3    0    0 -0.61095486785E+01  0.10629026281E+02 -0.30661896216E+01  0.12637416816E+02  0.51100000000E-03 0.  1.
        -12    1    3    3    0    0  0.11344976623E+02  0.12796899433E+01  0.76714309505E+01  0.13754888358E+02  0.00000000000E+00 0.  1.
</event>
<event>
 7    1  0.6285940E-013  0.5930194E+02  0.7816164E-02  0.1266605E+00
        -11   -1    0    0    0    0  0.00000000000E+00  0.00000000000E+00  0.45593999997E+02  0.45594000000E+02  0.51100000000E-03 0.  1.
         11   -1    0    0    0    0 -0.00000000000E+00 -0.00000000000E+00 -0.45593999997E+02  0.45594000000E+02  0.51100000000E-03 0. -1.
    9900012    2    1    2    0    0 -0.14300095359E+02  0.25325358205E+02 -0.13071136287E+02  0.59301935657E+02  0.49999984733E+02 0.  0.
        -12    1    1    2    0    0  0.14300095359E+02 -0.25325358205E+02  0.13071136287E+02  0.31886064343E+02  0.00000000000E+00 0.  1.
         11    1    3    3    0    0 -0.19218154810E+02  0.47711029669E+01  0.72426480108E+01  0.21084516791E+02  0.51100000000E-03 0.  1.
        -11    1    3    3    0    0 -0.46044429069E+01  0.22135427904E+02 -0.15647310568E+02  0.27495752240E+02  0.51100000000E-03 0. -1.
         12    1    3    3    0    0  0.95225023582E+01 -0.15811726659E+01 -0.46664737300E+01  0.10721666626E+02  0.00000000000E+00 0. -1.
</event>
<event>
 7    1  0.6285940E-013  0.5930194E+02  0.7816164E-02  0.1266605E+00
        -11   -1    0    0    0    0  0.00000000000E+00  0.00000000000E+00  0.45593999997E+02  0.45594000000E+02  0.51100000000E-03 0. -1.
         11   -1    0    0    0    0 -0.00000000000E+00 -0.00000000000E+00 -0.45593999997E+02  0.45594000000E+02  0.51100000000E-03 0.  1.
    9900012    2    1    2    0    0 -0.10120989067E+02  0.25325080037E+02 -0.16520484860E+02  0.59301944763E+02  0.50000001341E+02 0.  0.
        -12    1    1    2    0    0  0.10120989067E+02 -0.25325080037E+02  0.16520484860E+02  0.31886055237E+02  0.00000000000E+00 0.  1.
         11    1    3    3    0    0  0.11905158615E+02  0.85245432612E+01 -0.82044178532E+00  0.14665393429E+02  0.51100000000E-03 0. -1.
        -11    1    3    3    0    0 -0.10393475037E+02  0.93272317622E+01 -0.24533207127E+02  0.28229414232E+02  0.51100000000E-03 0.  1.
         12    1    3    3    0    0 -0.11632672645E+02  0.74733050134E+01  0.88331640529E+01  0.16407137102E+02  0.00000000000E+00 0. -1.
</event>
<event>
 7    1  0.6285940E-013  0.5930197E+02  0.7816164E-02  0.1266605E+00
        -11   -1    0    0    0    0  0.00000000000E+00  0.00000000000E+00  0.45593999997E+02  0.45594000000E+02  0.51100000000E-03 0. -1.
         11   -1    0    0    0    0 -0.00000000000E+00 -0.00000000000E+00 -0.45593999997E+02  0.45594000000E+02  0.51100000000E-03 0.  1.
    9900012    2    1    2    0    0 -0.15734478534E+02  0.11978702259E+02  0.25013117059E+02  0.59301966262E+02  0.50000040549E+02 0.  0.
        -12    1    1    2    0    0  0.15734478534E+02 -0.11978702259E+02 -0.25013117059E+02  0.31886033738E+02  0.00000000000E+00 0.  1.
         11    1    3    3    0    0  0.45567535295E+01  0.13215371975E+02  0.74865346614E+00  0.13998947869E+02  0.51100000000E-03 0. -1.
        -11    1    3    3    0    0 -0.12633312652E+02  0.12414372846E+02  0.23769378263E+02  0.29642884222E+02  0.51100000000E-03 0.  1.
        -12    1    3    3    0    0 -0.76579194117E+01 -0.13651042563E+02  0.49508533000E+00  0.15660134171E+02  0.00000000000E+00 0.  1.
</event>
<event>
 7    1  0.6285940E-013  0.5930194E+02  0.7816164E-02  0.1266605E+00
        -11   -1    0    0    0    0  0.00000000000E+00  0.00000000000E+00  0.45593999997E+02  0.45594000000E+02  0.51100000000E-03 0.  1.
         11   -1    0    0    0    0 -0.00000000000E+00 -0.00000000000E+00 -0.45593999997E+02  0.45594000000E+02  0.51100000000E-03 0. -1.
    9900012    2    1    2    0    0 -0.12926782667E+02  0.26206127374E+02 -0.12761579405E+02  0.59301941432E+02  0.49999995266E+02 0.  0.
        -12    1    1    2    0    0  0.12926782667E+02 -0.26206127374E+02  0.12761579405E+02  0.31886058568E+02  0.00000000000E+00 0.  1.
         11    1    3    3    0    0 -0.34621183469E+01  0.41974397307E+01 -0.15047644370E+02  0.16001136369E+02  0.51100000000E-03 0. -1.
        -11    1    3    3    0    0  0.29843386135E+00  0.28354476441E+02 -0.60323031077E+01  0.28990586024E+02  0.51100000000E-03 0.  1.
        -12    1    3    3    0    0 -0.97630981817E+01 -0.63457887971E+01  0.83183680726E+01  0.14310219039E+02  0.00000000000E+00 0.  1.
</event>
<event>
 7    1  0.6285940E-013  0.5930192E+02  0.7816164E-02  0.1266605E+00
        -11   -1    0    0    0    0  0.00000000000E+00  0.00000000000E+00  0.45593999997E+02  0.45594000000E+02  0.51100000000E-03 0.  1.
         11   -1    0    0    0    0 -0.00000000000E+00 -0.00000000000E+00 -0.45593999997E+02  0.45594000000E+02  0.51100000000E-03 0. -1.
    9900012    2    1    2    0    0  0.95604154639E+01 -0.30398812966E+02  0.11102921818E+01  0.59301919615E+02  0.49999955478E+02 0.  0.
        -12    1    1    2    0    0 -0.95604154639E+01  0.30398812966E+02 -0.11102921818E+01  0.31886080385E+02  0.00000000000E+00 0.  1.
         11    1    3    3    0    0  0.11496972886E+02 -0.15980642389E+02 -0.52123850955E+01  0.20364927580E+02  0.51100000000E-03 0. -1.
        -11    1    3    3    0    0 -0.11198911019E+02 -0.13040710059E+01 -0.10695537446E+02  0.15540615519E+02  0.51100000000E-03 0.  1.
        -12    1    3    3    0    0  0.92623535964E+01 -0.13114099571E+02  0.17018214723E+02  0.23396376516E+02  0.00000000000E+00 0.  1.
</event>
<event>
 7    1  0.6285940E-013  0.5930195E+02  0.7816164E-02  0.1266605E+00
        -11   -1    0    0    0    0  0.00000000000E+00  0.00000000000E+00  0.45593999997E+02  0.45594000000E+02  0.51100000000E-03 0.  1.
         11   -1    0    0    0    0 -0.00000000000E+00 -0.00000000000E+00 -0.45593999997E+02  0.45594000000E+02  0.51100000000E-03 0. -1.
    9900012    2    1    2    0    0 -0.11955043218E+02 -0.11621808811E+02 -0.27179598914E+02  0.59301951397E+02  0.50000013440E+02 0.  0.
        -12    1    1    2    0    0  0.11955043218E+02  0.11621808811E+02  0.27179598914E+02  0.31886048603E+02  0.00000000000E+00 0.  1.
         11    1    3    3    0    0 -0.79624346555E+01  0.16721708919E+01  0.19528777277E+01  0.83672129658E+01  0.51100000000E-03 0. -1.
        -11    1    3    3    0    0 -0.17634268023E+02 -0.19669792441E+02 -0.15538357582E+02  0.30648143500E+02  0.51100000000E-03 0.  1.
         12    1    3    3    0    0  0.13641659461E+02  0.63758127383E+01 -0.13594119060E+02  0.20286594932E+02  0.00000000000E+00 0. -1.
</event>
<event>
 7    1  0.6285940E-013  0.5930179E+02  0.7816164E-02  0.1266605E+00
        -11   -1    0    0    0    0  0.00000000000E+00  0.00000000000E+00  0.45593999997E+02  0.45594000000E+02  0.51100000000E-03 0.  1.
         11   -1    0    0    0    0 -0.00000000000E+00 -0.00000000000E+00 -0.45593999997E+02  0.45594000000E+02  0.51100000000E-03 0. -1.
    9900012    2    1    2    0    0  0.13048498334E+02 -0.53029750102E+01 -0.28606737877E+02  0.59301791309E+02  0.49999721476E+02 0.  0.
        -12    1    1    2    0    0 -0.13048498334E+02  0.53029750102E+01  0.28606737877E+02  0.31886208691E+02  0.00000000000E+00 0.  1.
         11    1    3    3    0    0  0.95558330381E+01  0.41959400499E+01 -0.16172733534E+02  0.19247783461E+02  0.51100000000E-03 0. -1.
        -11    1    3    3    0    0  0.66412751186E+01  0.17446937165E+01  0.11516917059E+02  0.13408574502E+02  0.51100000000E-03 0.  1.
         12    1    3    3    0    0 -0.31486098226E+01 -0.11243608777E+02 -0.23950921403E+02  0.26645433346E+02  0.00000000000E+00 0. -1.
</event>
<event>
 7    1  0.6285940E-013  0.5930193E+02  0.7816164E-02  0.1266605E+00
        -11   -1    0    0    0    0  0.00000000000E+00  0.00000000000E+00  0.45593999997E+02  0.45594000000E+02  0.51100000000E-03 0. -1.
         11   -1    0    0    0    0 -0.00000000000E+00 -0.00000000000E+00 -0.45593999997E+02  0.45594000000E+02  0.51100000000E-03 0.  1.
    9900012    2    1    2    0    0 -0.90336228962E+01 -0.30560730386E+02  0.10754487420E+01  0.59301934480E+02  0.49999982587E+02 0.  0.
        -12    1    1    2    0    0  0.90336228962E+01  0.30560730386E+02 -0.10754487420E+01  0.31886065520E+02  0.00000000000E+00 0.  1.
         11    1    3    3    0    0  0.57269691034E+01  0.85487423004E+00 -0.24962410062E+01  0.63055693226E+01  0.51100000000E-03 0. -1.
        -11    1    3    3    0    0  0.11252678300E+02 -0.15548929212E+02 -0.74574187389E+01  0.20591383224E+02  0.51100000000E-03 0.  1.
        -12    1    3    3    0    0 -0.26013270300E+02 -0.15866675404E+02  0.11029108487E+02  0.32404981933E+02  0.00000000000E+00 0.  1.
</event>
<event>
 7    1  0.6285940E-013  0.5930193E+02  0.7816164E-02  0.1266605E+00
        -11   -1    0    0    0    0  0.00000000000E+00  0.00000000000E+00  0.45593999997E+02  0.45594000000E+02  0.51100000000E-03 0.  1.
         11   -1    0    0    0    0 -0.00000000000E+00 -0.00000000000E+00 -0.45593999997E+02  0.45594000000E+02  0.51100000000E-03 0. -1.
    9900012    2    1    2    0    0 -0.18454845920E+02  0.19868289963E+02 -0.16774721068E+02  0.59301928576E+02  0.49999971820E+02 0.  0.
        -12    1    1    2    0    0  0.18454845920E+02 -0.19868289963E+02  0.16774721068E+02  0.31886071424E+02  0.00000000000E+00 0.  1.
         11    1    3    3    0    0  0.72567343037E+01  0.58771665862E+01 -0.16292826670E+02  0.18779176792E+02  0.51100000000E-03 0. -1.
        -11    1    3    3    0    0  0.47025559391E+01  0.26594130068E+01  0.52852602756E+01  0.75578096260E+01  0.51100000000E-03 0.  1.
         12    1    3    3    0    0 -0.30414136163E+02  0.11331710370E+02 -0.57671546733E+01  0.32964942158E+02  0.00000000000E+00 0. -1.
</event>
<event>
 7    1  0.6285940E-013  0.5930201E+02  0.7816164E-02  0.1266605E+00
        -11   -1    0    0    0    0  0.00000000000E+00  0.00000000000E+00  0.45593999997E+02  0.45594000000E+02  0.51100000000E-03 0.  1.
         11   -1    0    0    0    0 -0.00000000000E+00 -0.00000000000E+00 -0.45593999997E+02  0.45594000000E+02  0.51100000000E-03 0. -1.
    9900012    2    1    2    0    0 -0.13456849170E+02  0.28873926875E+02 -0.13877951518E+01  0.59302009061E+02  0.50000118605E+02 0.  0.
        -12    1    1    2    0    0  0.13456849170E+02 -0.28873926875E+02  0.13877951518E+01  0.31885990939E+02  0.00000000000E+00 0.  1.
         11    1    3    3    0    0 -0.42626995522E+01 -0.99722501241E+01 -0.54014610017E+01  0.12115781495E+02  0.51100000000E-03 0. -1.
        -11    1    3    3    0    0 -0.84391056999E+01  0.43159996903E+00 -0.68569632847E+00  0.84779103123E+01  0.51100000000E-03 0.  1.
        -12    1    3    3    0    0 -0.75504391769E+00  0.38414577031E+02  0.46993621783E+01  0.38708317254E+02  0.00000000000E+00 0.  1.
</event>
<event>
 7    1  0.6285940E-013  0.5930194E+02  0.7816164E-02  0.1266605E+00
        -11   -1    0    0    0    0  0.00000000000E+00  0.00000000000E+00  0.45593999997E+02  0.45594000000E+02  0.51100000000E-03 0.  1.
         11   -1    0    0    0    0 -0.00000000000E+00 -0.00000000000E+00 -0.45593999997E+02  0.45594000000E+02  0.51100000000E-03 0. -1.
    9900012    2    1    2    0    0  0.14127105960E+02 -0.85131714902E+01 -0.27288675625E+02  0.59301936759E+02  0.49999986744E+02 0.  0.
        -12    1    1    2    0    0 -0.14127105960E+02  0.85131714902E+01  0.27288675625E+02  0.31886063241E+02  0.00000000000E+00 0.  1.
         11    1    3    3    0    0  0.43811873098E+00 -0.86150169660E+01 -0.58501867114E+01  0.10422818725E+02  0.51100000000E-03 0. -1.
        -11    1    3    3    0    0 -0.13570377645E+02  0.20398167497E+01  0.65322315177E+00  0.13738366080E+02  0.51100000000E-03 0.  1.
         12    1    3    3    0    0  0.27259364874E+02 -0.19379712739E+01 -0.22091712065E+02  0.35140751955E+02  0.00000000000E+00 0. -1.
</event>
<event>
 7    1  0.6285940E-013  0.5930197E+02  0.7816164E-02  0.1266605E+00
        -11   -1    0    0    0    0  0.00000000000E+00  0.00000000000E+00  0.45593999997E+02  0.45594000000E+02  0.51100000000E-03 0. -1.
         11   -1    0    0    0    0 -0.00000000000E+00 -0.00000000000E+00 -0.45593999997E+02  0.45594000000E+02  0.51100000000E-03 0.  1.
    9900012    2    1    2    0    0  0.26559409937E+02 -0.21284249586E+01 -0.17515311773E+02  0.59301974918E+02  0.50000056337E+02 0.  0.
        -12    1    1    2    0    0 -0.26559409937E+02  0.21284249586E+01  0.17515311773E+02  0.31886025082E+02  0.00000000000E+00 0.  1.
         11    1    3    3    0    0  0.11560413506E+02 -0.38299940604E+00 -0.15545588067E+02  0.19376665285E+02  0.51100000000E-03 0. -1.
        -11    1    3    3    0    0 -0.83969955549E+01 -0.53026775489E+01  0.93968659125E+01  0.13672198535E+02  0.51100000000E-03 0.  1.
         12    1    3    3    0    0  0.23395991987E+02  0.35572519963E+01 -0.11366589618E+02  0.26253111098E+02  0.00000000000E+00 0. -1.
</event>
<event>
 7    1  0.6285940E-013  0.5930195E+02  0.7816164E-02  0.1266605E+00
        -11   -1    0    0    0    0  0.00000000000E+00  0.00000000000E+00  0.45593999997E+02  0.45594000000E+02  0.51100000000E-03 0.  1.
         11   -1    0    0    0    0 -0.00000000000E+00 -0.00000000000E+00 -0.45593999997E+02  0.45594000000E+02  0.51100000000E-03 0. -1.
    9900012    2    1    2    0    0 -0.28007364567E+02 -0.79395791892E+01 -0.13010409409E+02  0.59301950689E+02  0.50000012148E+02 0.  0.
        -12    1    1    2    0    0  0.28007364567E+02  0.79395791892E+01  0.13010409409E+02  0.31886049311E+02  0.00000000000E+00 0.  1.
         11    1    3    3    0    0 -0.13495294341E+02 -0.40422002474E+01 -0.11105680793E+02  0.17938742942E+02  0.51100000000E-03 0. -1.
        -11    1    3    3    0    0  0.82914408914E+01  0.55437256182E+01 -0.11193463767E+02  0.14992482021E+02  0.51100000000E-03 0.  1.
         12    1    3    3    0    0 -0.22803511117E+02 -0.94411045600E+01  0.92887351511E+01  0.26370725725E+02  0.00000000000E+00 0. -1.
</event>
<event>
 7    1  0.8412266E-013  0.5930194E+02  0.7816164E-02  0.1266605E+00
        -11   -1    0    0    0    0  0.00000000000E+00  0.00000000000E+00  0.45593999997E+02  0.45594000000E+02  0.51100000000E-03 0. -1.
         11   -1    0    0    0    0 -0.00000000000E+00 -0.00000000000E+00 -0.45593999997E+02  0.45594000000E+02  0.51100000000E-03 0.  1.
    9900012    2    1    2    0    0  0.17078426655E+02  0.19892220028E+02  0.18147942259E+02  0.59301939050E+02  0.49999990922E+02 0.  0.
        -12    1    1    2    0    0 -0.17078426655E+02 -0.19892220028E+02 -0.18147942259E+02  0.31886060950E+02  0.00000000000E+00 0.  1.
         11    1    3    3    0    0  0.34340818691E+01  0.16946085295E+02  0.24260438365E+02  0.29791468494E+02  0.51100000000E-03 0. -1.
        -11    1    3    3    0    0 -0.46942129776E+01  0.28826269576E+01  0.55161260795E+01  0.77956924542E+01  0.51100000000E-03 0.  1.
        -12    1    3    3    0    0  0.18338557764E+02  0.63507775424E-01 -0.11628622185E+02  0.21714778102E+02  0.00000000000E+00 0.  1.
</event>
<event>
 7    1  0.6285940E-013  0.5930184E+02  0.7816164E-02  0.1266605E+00
        -11   -1    0    0    0    0  0.00000000000E+00  0.00000000000E+00  0.45593999997E+02  0.45594000000E+02  0.51100000000E-03 0. -1.
         11   -1    0    0    0    0 -0.00000000000E+00 -0.00000000000E+00 -0.45593999997E+02  0.45594000000E+02  0.51100000000E-03 0.  1.
    9900012    2    1    2    0    0  0.15281423753E+02 -0.26251356282E+02  0.96990666450E+01  0.59301835095E+02  0.49999801333E+02 0.  0.
        -12    1    1    2    0    0 -0.15281423753E+02  0.26251356282E+02 -0.96990666450E+01  0.31886164905E+02  0.00000000000E+00 0.  1.
         11    1    3    3    0    0  0.78513821900E+01 -0.24997543601E+02  0.25428016382E+02  0.36511716007E+02  0.51100000000E-03 0. -1.
        -11    1    3    3    0    0  0.85049599504E+01 -0.29699034227E+01 -0.24199576459E+01  0.93279614798E+01  0.51100000000E-03 0.  1.
        -12    1    3    3    0    0 -0.10749183877E+01  0.17160907420E+01 -0.13308992091E+02  0.13462157608E+02  0.00000000000E+00 0.  1.
</event>
<event>
 7    1  0.6285940E-013  0.5930180E+02  0.7816164E-02  0.1266605E+00
        -11   -1    0    0    0    0  0.00000000000E+00  0.00000000000E+00  0.45593999997E+02  0.45594000000E+02  0.51100000000E-03 0.  1.
         11   -1    0    0    0    0 -0.00000000000E+00 -0.00000000000E+00 -0.45593999997E+02  0.45594000000E+02  0.51100000000E-03 0. -1.
    9900012    2    1    2    0    0  0.25643757728E+02 -0.63718179392E+01  0.17847340166E+02  0.59301797259E+02  0.49999732328E+02 0.  0.
        -12    1    1    2    0    0 -0.25643757728E+02  0.63718179392E+01 -0.17847340166E+02  0.31886202741E+02  0.00000000000E+00 0.  1.
         11    1    3    3    0    0  0.72648556768E+01 -0.39653615739E+01  0.75173423300E+01  0.11180905884E+02  0.51100000000E-03 0.  1.
        -11    1    3    3    0    0 -0.20423373486E+01  0.15890073662E+02 -0.49036503279E+01  0.16754443280E+02  0.51100000000E-03 0. -1.
         12    1    3    3    0    0  0.20421239400E+02 -0.18296530027E+02  0.15233648164E+02  0.31366448094E+02  0.00000000000E+00 0. -1.
</event>
<event>
 7    1  0.6285940E-013  0.5930195E+02  0.7816164E-02  0.1266605E+00
        -11   -1    0    0    0    0  0.00000000000E+00  0.00000000000E+00  0.45593999997E+02  0.45594000000E+02  0.51100000000E-03 0.  1.
         11   -1    0    0    0    0 -0.00000000000E+00 -0.00000000000E+00 -0.45593999997E+02  0.45594000000E+02  0.51100000000E-03 0. -1.
    9900012    2    1    2    0    0  0.14267607683E+02  0.25603521532E+02 -0.12554483231E+02  0.59301953004E+02  0.50000016370E+02 0.  0.
        -12    1    1    2    0    0 -0.14267607683E+02 -0.25603521532E+02  0.12554483231E+02  0.31886046996E+02  0.00000000000E+00 0.  1.
         11    1    3    3    0    0 -0.27682316265E+01  0.16811736292E+02 -0.46936797599E+01  0.17672810004E+02  0.51100000000E-03 0. -1.
        -11    1    3    3    0    0 -0.15667915336E+01  0.12991580077E+02 -0.16191407902E+02  0.20818205463E+02  0.51100000000E-03 0.  1.
        -12    1    3    3    0    0  0.18602630843E+02 -0.41997948360E+01  0.83306044315E+01  0.20810937536E+02  0.00000000000E+00 0.  1.
</event>
<event>
 7    1  0.6285940E-013  0.5930193E+02  0.7816164E-02  0.1266605E+00
        -11   -1    0    0    0    0  0.00000000000E+00  0.00000000000E+00  0.45593999997E+02  0.45594000000E+02  0.51100000000E-03 0. -1.
         11   -1    0    0    0    0 -0.00000000000E+00 -0.00000000000E+00 -0.45593999997E+02  0.45594000000E+02  0.51100000000E-03 0.  1.
    9900012    2    1    2    0    0  0.17659757105E+02 -0.19493870163E+01 -0.26477430332E+02  0.59301930194E+02  0.49999974770E+02 0.  0.
        -12    1    1    2    0    0 -0.17659757105E+02  0.19493870163E+01  0.26477430332E+02  0.31886069806E+02  0.00000000000E+00 0.  1.
         11    1    3    3    0    0  0.12699103542E+01 -0.16007949619E+01  0.76999955618E+01  0.79665016620E+01  0.51100000000E-03 0. -1.
        -11    1    3    3    0    0  0.17125864081E+02 -0.15408141015E+02 -0.18125406711E+02  0.29312734413E+02  0.51100000000E-03 0.  1.
         12    1    3    3    0    0 -0.73601733050E+00  0.15059548961E+02 -0.16052019182E+02  0.22022694119E+02  0.00000000000E+00 0. -1.
</event>
<event>
 7    1  0.6285940E-013  0.5930195E+02  0.7816164E-02  0.1266605E+00
        -11   -1    0    0    0    0  0.00000000000E+00  0.00000000000E+00  0.45593999997E+02  0.45594000000E+02  0.51100000000E-03 0. -1.
         11   -1    0    0    0    0 -0.00000000000E+00 -0.00000000000E+00 -0.45593999997E+02  0.45594000000E+02  0.51100000000E-03 0.  1.
    9900012    2    1    2    0    0 -0.14846403991E+01  0.29862269835E+02  0.11079759691E+02  0.59301946754E+02  0.50000004972E+02 0.  0.
        -12    1    1    2    0    0  0.14846403991E+01 -0.29862269835E+02 -0.11079759691E+02  0.31886053246E+02  0.00000000000E+00 0.  1.
         11    1    3    3    0    0 -0.70110878635E+01  0.56810035409E+01 -0.75897274002E+01  0.11791230493E+02  0.51100000000E-03 0. -1.
        -11    1    3    3    0    0  0.35540816152E+01 -0.59507531380E+01 -0.54874131784E+01  0.88405125806E+01  0.51100000000E-03 0.  1.
         12    1    3    3    0    0  0.19723658492E+01  0.30132019432E+02  0.24156900269E+02  0.38670203681E+02  0.00000000000E+00 0. -1.
</event>
<event>
 7    1  0.6285940E-013  0.5930182E+02  0.7816164E-02  0.1266605E+00
        -11   -1    0    0    0    0  0.00000000000E+00  0.00000000000E+00  0.45593999997E+02  0.45594000000E+02  0.51100000000E-03 0.  1.
         11   -1    0    0    0    0 -0.00000000000E+00 -0.00000000000E+00 -0.45593999997E+02  0.45594000000E+02  0.51100000000E-03 0. -1.
    9900012    2    1    2    0    0 -0.23723090078E+02  0.12278378164E+02 -0.17412199221E+02  0.59301823451E+02  0.49999780097E+02 0.  0.
        -12    1    1    2    0    0  0.23723090078E+02 -0.12278378164E+02  0.17412199221E+02  0.31886176549E+02  0.00000000000E+00 0.  1.
         11    1    3    3    0    0  0.52702488175E+01  0.50538092321E+01 -0.11464591453E+02  0.13592401105E+02  0.51100000000E-03 0. -1.
        -11    1    3    3    0    0 -0.27398458583E+02  0.11903432869E+02 -0.16449647689E+02  0.34102172308E+02  0.51100000000E-03 0.  1.
        -12    1    3    3    0    0 -0.15948803124E+01 -0.46788639369E+01  0.10502039921E+02  0.11607250038E+02  0.00000000000E+00 0.  1.
</event>
<event>
 7    1  0.6285940E-013  0.5930194E+02  0.7816164E-02  0.1266605E+00
        -11   -1    0    0    0    0  0.00000000000E+00  0.00000000000E+00  0.45593999997E+02  0.45594000000E+02  0.51100000000E-03 0.  1.
         11   -1    0    0    0    0 -0.00000000000E+00 -0.00000000000E+00 -0.45593999997E+02  0.45594000000E+02  0.51100000000E-03 0. -1.
    9900012    2    1    2    0    0  0.30486153646E+01  0.26162117980E+02 -0.17971369391E+02  0.59301943633E+02  0.49999999281E+02 0.  0.
        -12    1    1    2    0    0 -0.30486153646E+01 -0.26162117980E+02  0.17971369391E+02  0.31886056367E+02  0.00000000000E+00 0.  1.
         11    1    3    3    0    0  0.19803945564E+02  0.15274201594E+02 -0.81362705074E+01  0.26300121526E+02  0.51100000000E-03 0. -1.
        -11    1    3    3    0    0 -0.15348202189E+02  0.10888430630E+02  0.38805689118E+01  0.19214162676E+02  0.51100000000E-03 0.  1.
        -12    1    3    3    0    0 -0.14071280112E+01 -0.51424382747E-03 -0.13715667796E+02  0.13787659431E+02  0.00000000000E+00 0.  1.
</event>
<event>
 7    1  0.6285940E-013  0.5930194E+02  0.7816164E-02  0.1266605E+00
        -11   -1    0    0    0    0  0.00000000000E+00  0.00000000000E+00  0.45593999997E+02  0.45594000000E+02  0.51100000000E-03 0. -1.
         11   -1    0    0    0    0 -0.00000000000E+00 -0.00000000000E+00 -0.45593999997E+02  0.45594000000E+02  0.51100000000E-03 0.  1.
    9900012    2    1    2    0    0 -0.13572609787E+01 -0.30416725228E+02 -0.94710746207E+01  0.59301943715E+02  0.49999999429E+02 0.  0.
        -12    1    1    2    0    0  0.13572609787E+01  0.30416725228E+02  0.94710746207E+01  0.31886056285E+02  0.00000000000E+00 0.  1.
         11    1    3    3    0    0 -0.75092662748E+01 -0.89694634756E+01  0.41625389683E+01  0.12416403906E+02  0.51100000000E-03 0. -1.
        -11    1    3    3    0    0 -0.14528261944E+02 -0.18763059840E+02 -0.98404458307E+01  0.25689631840E+02  0.51100000000E-03 0.  1.
        -12    1    3    3    0    0  0.20680267240E+02 -0.26842019125E+01 -0.37931677584E+01  0.21195907970E+02  0.00000000000E+00 0.  1.
</event>
<event>
 7    1  0.6285940E-013  0.5930195E+02  0.7816164E-02  0.1266605E+00
        -11   -1    0    0    0    0  0.00000000000E+00  0.00000000000E+00  0.45593999997E+02  0.45594000000E+02  0.51100000000E-03 0.  1.
         11   -1    0    0    0    0 -0.00000000000E+00 -0.00000000000E+00 -0.45593999997E+02  0.45594000000E+02  0.51100000000E-03 0. -1.
    9900012    2    1    2    0    0  0.19774802738E+02 -0.11862391849E+01 -0.24985404791E+02  0.59301946006E+02  0.50000003608E+02 0.  0.
        -12    1    1    2    0    0 -0.19774802738E+02  0.11862391849E+01  0.24985404791E+02  0.31886053994E+02  0.00000000000E+00 0.  1.
         11    1    3    3    0    0 -0.14653465116E+01 -0.85348473653E+00 -0.19543893251E+01  0.25875305775E+01  0.51100000000E-03 0. -1.
        -11    1    3    3    0    0  0.15609140282E+02 -0.21522847050E+02 -0.25467816696E+01  0.26708880595E+02  0.51100000000E-03 0.  1.
         12    1    3    3    0    0  0.56310089679E+01  0.21190092602E+02 -0.20484233796E+02  0.30005534834E+02  0.00000000000E+00 0. -1.
</event>
<event>
 7    1  0.6285940E-013  0.5930197E+02  0.7816164E-02  0.1266605E+00
        -11   -1    0    0    0    0  0.00000000000E+00  0.00000000000E+00  0.45593999997E+02  0.45594000000E+02  0.51100000000E-03 0.  1.
         11   -1    0    0    0    0 -0.00000000000E+00 -0.00000000000E+00 -0.45593999997E+02  0.45594000000E+02  0.51100000000E-03 0. -1.
    9900012    2    1    2    0    0 -0.16705930302E+02 -0.76924229983E+01 -0.26047219386E+02  0.59301966747E+02  0.50000041435E+02 0.  0.
        -12    1    1    2    0    0  0.16705930302E+02  0.76924229983E+01  0.26047219386E+02  0.31886033253E+02  0.00000000000E+00 0.  1.
         11    1    3    3    0    0 -0.42906852761E+01 -0.15349587341E+02 -0.10912457819E+02  0.19315836704E+02  0.51100000000E-03 0. -1.
        -11    1    3    3    0    0 -0.46651264441E+01 -0.12343599900E+02  0.86839207893E+00  0.13224294624E+02  0.51100000000E-03 0.  1.
        -12    1    3    3    0    0 -0.77501185820E+01  0.20000764243E+02 -0.16003153647E+02  0.26761835419E+02  0.00000000000E+00 0.  1.
</event>
<event>
 7    1  0.6285940E-013  0.5930222E+02  0.7816164E-02  0.1266604E+00
        -11   -1    0    0    0    0  0.00000000000E+00  0.00000000000E+00  0.45593999997E+02  0.45594000000E+02  0.51100000000E-03 0. -1.
         11   -1    0    0    0    0 -0.00000000000E+00 -0.00000000000E+00 -0.45593999997E+02  0.45594000000E+02  0.51100000000E-03 0.  1.
    9900012    2    1    2    0    0  0.83356458400E+01  0.23586053658E+02  0.19771639527E+02  0.59302224985E+02  0.50000512396E+02 0.  0.
        -12    1    1    2    0    0 -0.83356458400E+01 -0.23586053658E+02 -0.19771639527E+02  0.31885775015E+02  0.00000000000E+00 0.  1.
         11    1    3    3    0    0  0.88864513998E+01  0.26206161020E+02  0.25176417643E+02  0.37411013078E+02  0.51100000000E-03 0. -1.
        -11    1    3    3    0    0  0.21423722558E+01  0.28279056014E+01  0.71283060634E+01  0.79623838495E+01  0.51100000000E-03 0.  1.
        -12    1    3    3    0    0 -0.26931778156E+01 -0.54480129634E+01 -0.12533084180E+02  0.13928828057E+02  0.00000000000E+00 0.  1.
</event>
<event>
 7    1  0.6285940E-013  0.5930222E+02  0.7816164E-02  0.1266604E+00
        -11   -1    0    0    0    0  0.00000000000E+00  0.00000000000E+00  0.45593999997E+02  0.45594000000E+02  0.51100000000E-03 0. -1.
         11   -1    0    0    0    0 -0.00000000000E+00 -0.00000000000E+00 -0.45593999997E+02  0.45594000000E+02  0.51100000000E-03 0.  1.
    9900012    2    1    2    0    0  0.17175775668E+02 -0.72586977551E+01  0.25865167237E+02  0.59302221993E+02  0.50000506939E+02 0.  0.
        -12    1    1    2    0    0 -0.17175775668E+02  0.72586977551E+01 -0.25865167237E+02  0.31885778007E+02  0.00000000000E+00 0.  1.
         11    1    3    3    0    0 -0.29310552947E+01 -0.16112623114E+01  0.22908460545E+02  0.23151345883E+02  0.51100000000E-03 0. -1.
        -11    1    3    3    0    0 -0.36468303620E+00 -0.11320802292E+02 -0.63199718222E+01  0.12970566770E+02  0.51100000000E-03 0.  1.
         12    1    3    3    0    0  0.20471513999E+02  0.56733668484E+01  0.92766785144E+01  0.23180309340E+02  0.00000000000E+00 0. -1.
</event>
<event>
 7    1  0.6285940E-013  0.5930196E+02  0.7816164E-02  0.1266605E+00
        -11   -1    0    0    0    0  0.00000000000E+00  0.00000000000E+00  0.45593999997E+02  0.45594000000E+02  0.51100000000E-03 0.  1.
         11   -1    0    0    0    0 -0.00000000000E+00 -0.00000000000E+00 -0.45593999997E+02  0.45594000000E+02  0.51100000000E-03 0. -1.
    9900012    2    1    2    0    0 -0.17318399687E+02  0.26159800034E+02 -0.56971412232E+01  0.59301960364E+02  0.50000029793E+02 0.  0.
        -12    1    1    2    0    0  0.17318399687E+02 -0.26159800034E+02  0.56971412232E+01  0.31886039636E+02  0.00000000000E+00 0.  1.
         11    1    3    3    0    0  0.11221329183E+02  0.34757877714E+01  0.29774426154E+01  0.12118766194E+02  0.51100000000E-03 0. -1.
        -11    1    3    3    0    0  0.19150763565E+01 -0.46928271658E+01 -0.28647091953E+01  0.58220875375E+01  0.51100000000E-03 0.  1.
         12    1    3    3    0    0 -0.30454805227E+02  0.27376839429E+02 -0.58098746433E+01  0.41361106633E+02  0.00000000000E+00 0. -1.
</event>
<event>
 7    1  0.6285940E-013  0.5930195E+02  0.7816164E-02  0.1266605E+00
        -11   -1    0    0    0    0  0.00000000000E+00  0.00000000000E+00  0.45593999997E+02  0.45594000000E+02  0.51100000000E-03 0.  1.
         11   -1    0    0    0    0 -0.00000000000E+00 -0.00000000000E+00 -0.45593999997E+02  0.45594000000E+02  0.51100000000E-03 0. -1.
    9900012    2    1    2    0    0 -0.24379164387E+02 -0.20324022554E+02  0.30513201904E+01  0.59301951265E+02  0.50000013199E+02 0.  0.
        -12    1    1    2    0    0  0.24379164387E+02  0.20324022554E+02 -0.30513201904E+01  0.31886048735E+02  0.00000000000E+00 0.  1.
         11    1    3    3    0    0 -0.13650759651E+02 -0.29428866125E+02 -0.37801092230E+01  0.32660230043E+02  0.51100000000E-03 0. -1.
        -11    1    3    3    0    0 -0.57771542381E+01 -0.57868704481E+01  0.72712315503E+01  0.10942311876E+02  0.51100000000E-03 0.  1.
        -12    1    3    3    0    0 -0.49512504985E+01  0.14891714019E+02 -0.43980213690E+00  0.15699409347E+02  0.00000000000E+00 0.  1.
</event>
<event>
 7    1  0.6285940E-013  0.5930195E+02  0.7816164E-02  0.1266605E+00
        -11   -1    0    0    0    0  0.00000000000E+00  0.00000000000E+00  0.45593999997E+02  0.45594000000E+02  0.51100000000E-03 0.  1.
         11   -1    0    0    0    0 -0.00000000000E+00 -0.00000000000E+00 -0.45593999997E+02  0.45594000000E+02  0.51100000000E-03 0. -1.
    9900012    2    1    2    0    0 -0.24029175851E+02 -0.20884820232E+02 -0.17729335980E+01  0.59301948163E+02  0.50000007541E+02 0.  0.
        -12    1    1    2    0    0  0.24029175851E+02  0.20884820232E+02  0.17729335980E+01  0.31886051837E+02  0.00000000000E+00 0.  1.
         11    1    3    3    0    0 -0.28731188636E+02  0.21100257487E+01 -0.79375184938E+01  0.29882061663E+02  0.51100000000E-03 0. -1.
        -11    1    3    3    0    0 -0.32627409964E+01 -0.54901410143E+00  0.44444816557E+01  0.55407862928E+01  0.51100000000E-03 0.  1.
         12    1    3    3    0    0  0.79647537814E+01 -0.22445831879E+02  0.17201032401E+01  0.23879100207E+02  0.00000000000E+00 0. -1.
</event>
<event>
 7    1  0.6285940E-013  0.5930197E+02  0.7816164E-02  0.1266605E+00
        -11   -1    0    0    0    0  0.00000000000E+00  0.00000000000E+00  0.45593999997E+02  0.45594000000E+02  0.51100000000E-03 0.  1.
         11   -1    0    0    0    0 -0.00000000000E+00 -0.00000000000E+00 -0.45593999997E+02  0.45594000000E+02  0.51100000000E-03 0. -1.
    9900012    2    1    2    0    0  0.28772336803E+02  0.76899231722E+01  0.11390203835E+02  0.59301968154E+02  0.50000044001E+02 0.  0.
        -12    1    1    2    0    0 -0.28772336803E+02 -0.76899231722E+01 -0.11390203835E+02  0.31886031846E+02  0.00000000000E+00 0.  1.
         11    1    3    3    0    0  0.87658386333E+01  0.40465676899E+01 -0.13835269829E+02  0.16870961102E+02  0.51100000000E-03 0.  1.
        -11    1    3    3    0    0  0.14337449536E+02  0.11767365932E+02  0.39526302238E+01  0.18964615634E+02  0.51100000000E-03 0. -1.
        -12    1    3    3    0    0  0.56690486334E+01 -0.81240104497E+01  0.21272843440E+02  0.23466391418E+02  0.00000000000E+00 0.  1.
</event>
<event>
 7    1  0.6285940E-013  0.5930191E+02  0.7816164E-02  0.1266605E+00
        -11   -1    0    0    0    0  0.00000000000E+00  0.00000000000E+00  0.45593999997E+02  0.45594000000E+02  0.51100000000E-03 0.  1.
         11   -1    0    0    0    0 -0.00000000000E+00 -0.00000000000E+00 -0.45593999997E+02  0.45594000000E+02  0.51100000000E-03 0. -1.
    9900012    2    1    2    0    0  0.23165239147E+02 -0.52804520637E+01 -0.21265266657E+02  0.59301905151E+02  0.49999929099E+02 0.  0.
        -12    1    1    2    0    0 -0.23165239147E+02  0.52804520637E+01  0.21265266657E+02  0.31886094849E+02  0.00000000000E+00 0.  1.
         11    1    3    3    0    0  0.15421466743E+02 -0.96880192408E+01 -0.13708657349E+01  0.18263587447E+02  0.51100000000E-03 0. -1.
        -11    1    3    3    0    0  0.36672217105E+01  0.12530995367E+02  0.54236662471E+01  0.14138264242E+02  0.51100000000E-03 0.  1.
         12    1    3    3    0    0  0.40765506933E+01 -0.81234281898E+01 -0.25318067169E+02  0.26900053462E+02  0.00000000000E+00 0. -1.
</event>
<event>
 7    1  0.6285940E-013  0.5930195E+02  0.7816164E-02  0.1266605E+00
        -11   -1    0    0    0    0  0.00000000000E+00  0.00000000000E+00  0.45593999997E+02  0.45594000000E+02  0.51100000000E-03 0.  1.
         11   -1    0    0    0    0 -0.00000000000E+00 -0.00000000000E+00 -0.45593999997E+02  0.45594000000E+02  0.51100000000E-03 0. -1.
    9900012    2    1    2    0    0  0.16060403369E+02 -0.30497321781E+01 -0.27376684807E+02  0.59301948288E+02  0.50000007770E+02 0.  0.
        -12    1    1    2    0    0 -0.16060403369E+02  0.30497321781E+01  0.27376684807E+02  0.31886051712E+02  0.00000000000E+00 0.  1.
         11    1    3    3    0    0 -0.78513073737E+01 -0.41892419601E+01 -0.53902208639E+01  0.10404194198E+02  0.51100000000E-03 0. -1.
        -11    1    3    3    0    0 -0.59237022132E+01  0.78940638637E+01  0.19439611313E+01  0.10059099231E+02  0.51100000000E-03 0.  1.
        -12    1    3    3    0    0  0.29835412956E+02 -0.67545540816E+01 -0.23930425075E+02  0.38838654860E+02  0.00000000000E+00 0.  1.
</event>
<event>
 7    1  0.6285940E-013  0.5930203E+02  0.7816164E-02  0.1266604E+00
        -11   -1    0    0    0    0  0.00000000000E+00  0.00000000000E+00  0.45593999997E+02  0.45594000000E+02  0.51100000000E-03 0.  1.
         11   -1    0    0    0    0 -0.00000000000E+00 -0.00000000000E+00 -0.45593999997E+02  0.45594000000E+02  0.51100000000E-03 0. -1.
    9900012    2    1    2    0    0 -0.20009222998E+02  0.19232561320E+02  0.15698867797E+02  0.59302033337E+02  0.50000162879E+02 0.  0.
        -12    1    1    2    0    0  0.20009222998E+02 -0.19232561320E+02 -0.15698867797E+02  0.31885966663E+02  0.00000000000E+00 0.  1.
         11    1    3    3    0    0 -0.93909427331E+00  0.15338688979E+01 -0.27241164456E+01  0.32642705955E+01  0.51100000000E-03 0. -1.
        -11    1    3    3    0    0  0.67415878073E+01  0.39153433650E+00 -0.11216640415E+02  0.13092567653E+02  0.51100000000E-03 0.  1.
         12    1    3    3    0    0 -0.25811716532E+02  0.17307158086E+02  0.29639624657E+02  0.42945195088E+02  0.00000000000E+00 0. -1.
</event>
<event>
 7    1  0.6285940E-013  0.5930185E+02  0.7816164E-02  0.1266605E+00
        -11   -1    0    0    0    0  0.00000000000E+00  0.00000000000E+00  0.45593999997E+02  0.45594000000E+02  0.51100000000E-03 0.  1.
         11   -1    0    0    0    0 -0.00000000000E+00 -0.00000000000E+00 -0.45593999997E+02  0.45594000000E+02  0.51100000000E-03 0. -1.
    9900012    2    1    2    0    0 -0.23782420535E+02 -0.19004976292E+02 -0.94833403270E+01  0.59301852630E+02  0.49999833312E+02 0.  0.
        -12    1    1    2    0    0  0.23782420535E+02  0.19004976292E+02  0.94833403270E+01  0.31886147370E+02  0.00000000000E+00 0.  1.
         11    1    3    3    0    0  0.45677766362E+01  0.10625178918E+01 -0.40037891625E+00  0.47067856554E+01  0.51100000000E-03 0. -1.
        -11    1    3    3    0    0  0.12502167347E+01 -0.12512958685E+02  0.12075355779E+02  0.17434201857E+02  0.51100000000E-03 0.  1.
         12    1    3    3    0    0 -0.29600413906E+02 -0.75545354990E+01 -0.21158317190E+02  0.37160865118E+02  0.00000000000E+00 0. -1.
</event>
<event>
 7    1  0.6285940E-013  0.5930201E+02  0.7816164E-02  0.1266605E+00
        -11   -1    0    0    0    0  0.00000000000E+00  0.00000000000E+00  0.45593999997E+02  0.45594000000E+02  0.51100000000E-03 0.  1.
         11   -1    0    0    0    0 -0.00000000000E+00 -0.00000000000E+00 -0.45593999997E+02  0.45594000000E+02  0.51100000000E-03 0. -1.
    9900012    2    1    2    0    0  0.26677421905E+02  0.22800738090E+01 -0.17315683483E+02  0.59302008240E+02  0.50000117107E+02 0.  0.
        -12    1    1    2    0    0 -0.26677421905E+02 -0.22800738090E+01  0.17315683483E+02  0.31885991760E+02  0.00000000000E+00 0.  1.
         11    1    3    3    0    0  0.21338460501E+01 -0.85410051548E+01 -0.17136769996E+01  0.89687656420E+01  0.51100000000E-03 0. -1.
        -11    1    3    3    0    0  0.23298078925E+02 -0.10763399921E+02 -0.12309565718E+02  0.28463602511E+02  0.51100000000E-03 0.  1.
         12    1    3    3    0    0  0.12454969298E+01  0.21584478885E+02 -0.32924407649E+01  0.21869640087E+02  0.00000000000E+00 0. -1.
</event>
<event>
 7    1  0.6285940E-013  0.5930195E+02  0.7816164E-02  0.1266605E+00
        -11   -1    0    0    0    0  0.00000000000E+00  0.00000000000E+00  0.45593999997E+02  0.45594000000E+02  0.51100000000E-03 0. -1.
         11   -1    0    0    0    0 -0.00000000000E+00 -0.00000000000E+00 -0.45593999997E+02  0.45594000000E+02  0.51100000000E-03 0.  1.
    9900012    2    1    2    0    0  0.24945278207E+02 -0.19761428839E+02  0.19847692708E+01  0.59301948447E+02  0.50000008060E+02 0.  0.
        -12    1    1    2    0    0 -0.24945278207E+02  0.19761428839E+02 -0.19847692708E+01  0.31886051553E+02  0.00000000000E+00 0.  1.
         11    1    3    3    0    0  0.14363726963E+02  0.81074693043E+00  0.36797318839E+01  0.14849726929E+02  0.51100000000E-03 0. -1.
        -11    1    3    3    0    0 -0.63096892447E+01 -0.69714742561E+00  0.13034002067E+02  0.14497703371E+02  0.51100000000E-03 0.  1.
        -12    1    3    3    0    0  0.16891240488E+02 -0.19875028344E+02 -0.14728964680E+02  0.29954518147E+02  0.00000000000E+00 0.  1.
</event>
<event>
 7    1  0.6285940E-013  0.5930196E+02  0.7816164E-02  0.1266605E+00
        -11   -1    0    0    0    0  0.00000000000E+00  0.00000000000E+00  0.45593999997E+02  0.45594000000E+02  0.51100000000E-03 0. -1.
         11   -1    0    0    0    0 -0.00000000000E+00 -0.00000000000E+00 -0.45593999997E+02  0.45594000000E+02  0.51100000000E-03 0.  1.
    9900012    2    1    2    0    0  0.31802310592E+02  0.92558319347E+00 -0.21155716419E+01  0.59301963767E+02  0.50000036000E+02 0.  0.
        -12    1    1    2    0    0 -0.31802310592E+02 -0.92558319347E+00  0.21155716419E+01  0.31886036233E+02  0.00000000000E+00 0.  1.
         11    1    3    3    0    0  0.16212000356E+00  0.76603029497E+01  0.40687769042E+01  0.86753368773E+01  0.51100000000E-03 0. -1.
        -11    1    3    3    0    0  0.79628381862E+01  0.12725383134E+02  0.78248633416E+01  0.16928397871E+02  0.51100000000E-03 0.  1.
         12    1    3    3    0    0  0.23677352403E+02 -0.19460102891E+02 -0.14009211888E+02  0.33698229019E+02  0.00000000000E+00 0. -1.
</event>
<event>
 7    1  0.6285940E-013  0.5930195E+02  0.7816164E-02  0.1266605E+00
        -11   -1    0    0    0    0  0.00000000000E+00  0.00000000000E+00  0.45593999997E+02  0.45594000000E+02  0.51100000000E-03 0. -1.
         11   -1    0    0    0    0 -0.00000000000E+00 -0.00000000000E+00 -0.45593999997E+02  0.45594000000E+02  0.51100000000E-03 0.  1.
    9900012    2    1    2    0    0 -0.50823679507E+00 -0.17919805027E+02  0.26369349523E+02  0.59301948016E+02  0.50000007273E+02 0.  0.
        -12    1    1    2    0    0  0.50823679507E+00  0.17919805027E+02 -0.26369349523E+02  0.31886051984E+02  0.00000000000E+00 0.  1.
         11    1    3    3    0    0 -0.10832552781E+02 -0.24379863328E+02  0.16660013825E+02  0.31452789965E+02  0.51100000000E-03 0. -1.
        -11    1    3    3    0    0  0.79413060408E+01 -0.71786114940E+01 -0.38955315865E+00  0.10712075268E+02  0.51100000000E-03 0.  1.
         12    1    3    3    0    0  0.23830099452E+01  0.13638669795E+02  0.10098888857E+02  0.17137082783E+02  0.00000000000E+00 0. -1.
</event>
<event>
 7    1  0.6285940E-013  0.5930194E+02  0.7816164E-02  0.1266605E+00
        -11   -1    0    0    0    0  0.00000000000E+00  0.00000000000E+00  0.45593999997E+02  0.45594000000E+02  0.51100000000E-03 0. -1.
         11   -1    0    0    0    0 -0.00000000000E+00 -0.00000000000E+00 -0.45593999997E+02  0.45594000000E+02  0.51100000000E-03 0.  1.
    9900012    2    1    2    0    0 -0.48621904301E+01 -0.25700142178E+02  0.18236847319E+02  0.59301940289E+02  0.49999993182E+02 0.  0.
        -12    1    1    2    0    0  0.48621904301E+01  0.25700142178E+02 -0.18236847319E+02  0.31886059711E+02  0.00000000000E+00 0.  1.
         11    1    3    3    0    0 -0.88307012820E-01 -0.29857314534E+01  0.11354137077E+02  0.11740477821E+02  0.51100000000E-03 0. -1.
        -11    1    3    3    0    0 -0.10134499275E+02 -0.20866352662E+02  0.21657619864E+02  0.31735866893E+02  0.51100000000E-03 0.  1.
        -12    1    3    3    0    0  0.53606158580E+01 -0.18480580621E+01 -0.14774909622E+02  0.15825595576E+02  0.00000000000E+00 0.  1.
</event>
<event>
 7    1  0.6285940E-013  0.5930192E+02  0.7816164E-02  0.1266605E+00
        -11   -1    0    0    0    0  0.00000000000E+00  0.00000000000E+00  0.45593999997E+02  0.45594000000E+02  0.51100000000E-03 0. -1.
         11   -1    0    0    0    0 -0.00000000000E+00 -0.00000000000E+00 -0.45593999997E+02  0.45594000000E+02  0.51100000000E-03 0.  1.
    9900012    2    1    2    0    0  0.79015686582E+01  0.16562441055E+02  0.26076285946E+02  0.59301922636E+02  0.49999960986E+02 0.  0.
        -12    1    1    2    0    0 -0.79015686582E+01 -0.16562441055E+02 -0.26076285946E+02  0.31886077364E+02  0.00000000000E+00 0.  1.
         11    1    3    3    0    0 -0.15484218989E+02  0.11589778229E+02  0.66166724348E+01  0.20441730638E+02  0.51100000000E-03 0. -1.
        -11    1    3    3    0    0  0.15499744863E+01  0.10884754116E+02  0.70015220705E+01  0.13034630974E+02  0.51100000000E-03 0.  1.
        -12    1    3    3    0    0  0.21835813161E+02 -0.59120912903E+01  0.12458091441E+02  0.25825561023E+02  0.00000000000E+00 0.  1.
</event>
<event>
 7    1  0.6285940E-013  0.5930195E+02  0.7816164E-02  0.1266605E+00
        -11   -1    0    0    0    0  0.00000000000E+00  0.00000000000E+00  0.45593999997E+02  0.45594000000E+02  0.51100000000E-03 0.  1.
         11   -1    0    0    0    0 -0.00000000000E+00 -0.00000000000E+00 -0.45593999997E+02  0.45594000000E+02  0.51100000000E-03 0. -1.
    9900012    2    1    2    0    0  0.27473756082E+02  0.12938350061E+02 -0.97217278624E+01  0.59301950257E+02  0.50000011362E+02 0.  0.
        -12    1    1    2    0    0 -0.27473756082E+02 -0.12938350061E+02  0.97217278624E+01  0.31886049743E+02  0.00000000000E+00 0.  1.
         11    1    3    3    0    0 -0.78835580624E+01  0.14391399818E+02 -0.76989586261E+01  0.18125585250E+02  0.51100000000E-03 0. -1.
        -11    1    3    3    0    0  0.14520322252E+02  0.55111338418E+01 -0.92150761170E+01  0.18059069263E+02  0.51100000000E-03 0.  1.
        -12    1    3    3    0    0  0.20836991892E+02 -0.69641835987E+01  0.71923068808E+01  0.23117295745E+02  0.00000000000E+00 0.  1.
</event>
<event>
 7    1  0.6285940E-013  0.5930194E+02  0.7816164E-02  0.1266605E+00
        -11   -1    0    0    0    0  0.00000000000E+00  0.00000000000E+00  0.45593999997E+02  0.45594000000E+02  0.51100000000E-03 0.  1.
         11   -1    0    0    0    0 -0.00000000000E+00 -0.00000000000E+00 -0.45593999997E+02  0.45594000000E+02  0.51100000000E-03 0. -1.
    9900012    2    1    2    0    0 -0.91029277099E+01  0.12390737228E+02 -0.27934336093E+02  0.59301940430E+02  0.49999993439E+02 0.  0.
        -12    1    1    2    0    0  0.91029277099E+01 -0.12390737228E+02  0.27934336093E+02  0.31886059570E+02  0.00000000000E+00 0.  1.
         11    1    3    3    0    0 -0.11043071171E+02 -0.39270066807E+01 -0.25147355907E+02  0.27744554632E+02  0.51100000000E-03 0. -1.
        -11    1    3    3    0    0  0.13577843437E+02  0.35267028825E+01 -0.25771690803E+01  0.14263143635E+02  0.51100000000E-03 0.  1.
        -12    1    3    3    0    0 -0.11637699976E+02  0.12791041026E+02 -0.20981110511E+00  0.17294242163E+02  0.00000000000E+00 0.  1.
</event>
<event>
 7    1  0.6285940E-013  0.5930172E+02  0.7816164E-02  0.1266606E+00
        -11   -1    0    0    0    0  0.00000000000E+00  0.00000000000E+00  0.45593999997E+02  0.45594000000E+02  0.51100000000E-03 0.  1.
         11   -1    0    0    0    0 -0.00000000000E+00 -0.00000000000E+00 -0.45593999997E+02  0.45594000000E+02  0.51100000000E-03 0. -1.
    9900012    2    1    2    0    0  0.14339664310E+02  0.11279580000E+02 -0.26151102146E+02  0.59301717041E+02  0.49999586029E+02 0.  0.
        -12    1    1    2    0    0 -0.14339664310E+02 -0.11279580000E+02  0.26151102146E+02  0.31886282959E+02  0.00000000000E+00 0.  1.
         11    1    3    3    0    0  0.59375936847E+01 -0.39942294207E+01 -0.22119607151E+02  0.23248352806E+02  0.51100000000E-03 0. -1.
        -11    1    3    3    0    0  0.11079793016E+02  0.15313915448E+02 -0.15395387841E+02  0.24378182595E+02  0.51100000000E-03 0.  1.
        -12    1    3    3    0    0 -0.26777223907E+01 -0.40106027176E-01  0.11363892846E+02  0.11675181639E+02  0.00000000000E+00 0.  1.
</event>
<event>
 7    1  0.6285940E-013  0.5930195E+02  0.7816164E-02  0.1266605E+00
        -11   -1    0    0    0    0  0.00000000000E+00  0.00000000000E+00  0.45593999997E+02  0.45594000000E+02  0.51100000000E-03 0.  1.
         11   -1    0    0    0    0 -0.00000000000E+00 -0.00000000000E+00 -0.45593999997E+02  0.45594000000E+02  0.51100000000E-03 0. -1.
    9900012    2    1    2    0    0 -0.26349030241E+02 -0.17639791915E+02 -0.33595110361E+01  0.59301953399E+02  0.50000017090E+02 0.  0.
        -12    1    1    2    0    0  0.26349030241E+02  0.17639791915E+02  0.33595110361E+01  0.31886046601E+02  0.00000000000E+00 0.  1.
         11    1    3    3    0    0 -0.13172325969E+02  0.57461584643E+00 -0.76012873397E+01  0.15219064501E+02  0.51100000000E-03 0. -1.
        -11    1    3    3    0    0 -0.22981857506E+02 -0.13789756965E+02 -0.78219104554E+01  0.27919624908E+02  0.51100000000E-03 0.  1.
        -12    1    3    3    0    0  0.98051532328E+01 -0.44246507965E+01  0.12063686759E+02  0.16163263990E+02  0.00000000000E+00 0.  1.
</event>
<event>
 7    1  0.6285940E-013  0.5930194E+02  0.7816164E-02  0.1266605E+00
        -11   -1    0    0    0    0  0.00000000000E+00  0.00000000000E+00  0.45593999997E+02  0.45594000000E+02  0.51100000000E-03 0. -1.
         11   -1    0    0    0    0 -0.00000000000E+00 -0.00000000000E+00 -0.45593999997E+02  0.45594000000E+02  0.51100000000E-03 0.  1.
    9900012    2    1    2    0    0 -0.11530933089E+02  0.15047759050E+02  0.25638319293E+02  0.59301938994E+02  0.49999990819E+02 0.  0.
        -12    1    1    2    0    0  0.11530933089E+02 -0.15047759050E+02 -0.25638319293E+02  0.31886061006E+02  0.00000000000E+00 0.  1.
         11    1    3    3    0    0  0.27045418419E+01  0.62698769297E+01  0.10083805189E+02  0.12178219518E+02  0.51100000000E-03 0. -1.
        -11    1    3    3    0    0  0.18483148576E+01  0.17888532442E+02 -0.57850183982E+01  0.18891328669E+02  0.51100000000E-03 0.  1.
        -12    1    3    3    0    0 -0.16083789789E+02 -0.91106503216E+01  0.21339532502E+02  0.28232390807E+02  0.00000000000E+00 0.  1.
</event>
<event>
 7    1  0.6285940E-013  0.5930199E+02  0.7816164E-02  0.1266605E+00
        -11   -1    0    0    0    0  0.00000000000E+00  0.00000000000E+00  0.45593999997E+02  0.45594000000E+02  0.51100000000E-03 0.  1.
         11   -1    0    0    0    0 -0.00000000000E+00 -0.00000000000E+00 -0.45593999997E+02  0.45594000000E+02  0.51100000000E-03 0. -1.
    9900012    2    1    2    0    0 -0.10496998901E+02  0.40358223210E+01 -0.29836940608E+02  0.59301986254E+02  0.50000077011E+02 0.  0.
        -12    1    1    2    0    0  0.10496998901E+02 -0.40358223210E+01  0.29836940608E+02  0.31886013746E+02  0.00000000000E+00 0.  1.
         11    1    3    3    0    0  0.14029919603E+01  0.67921319237E+01 -0.42184374380E+00  0.69483375649E+01  0.51100000000E-03 0. -1.
        -11    1    3    3    0    0 -0.18487564315E+02 -0.10511743492E+02 -0.41091488004E-01  0.21267074889E+02  0.51100000000E-03 0.  1.
         12    1    3    3    0    0  0.65875734541E+01  0.77554338892E+01 -0.29374005376E+02  0.31086573801E+02  0.00000000000E+00 0. -1.
</event>
<event>
 7    1  0.6285940E-013  0.5930195E+02  0.7816164E-02  0.1266605E+00
        -11   -1    0    0    0    0  0.00000000000E+00  0.00000000000E+00  0.45593999997E+02  0.45594000000E+02  0.51100000000E-03 0. -1.
         11   -1    0    0    0    0 -0.00000000000E+00 -0.00000000000E+00 -0.45593999997E+02  0.45594000000E+02  0.51100000000E-03 0.  1.
    9900012    2    1    2    0    0  0.26888266754E+02 -0.37959913215E+01 -0.16713213651E+02  0.59301953683E+02  0.50000017610E+02 0.  0.
        -12    1    1    2    0    0 -0.26888266754E+02  0.37959913215E+01  0.16713213651E+02  0.31886046317E+02  0.00000000000E+00 0.  1.
         11    1    3    3    0    0  0.62681010697E+01  0.81505274919E+01 -0.82891694133E+01  0.13207214666E+02  0.51100000000E-03 0. -1.
        -11    1    3    3    0    0  0.28247977081E+02  0.15609030618E+01 -0.11029600848E+02  0.30365057594E+02  0.51100000000E-03 0.  1.
         12    1    3    3    0    0 -0.76278113969E+01 -0.13507421875E+02  0.26055566105E+01  0.15729681423E+02  0.00000000000E+00 0. -1.
</event>
<event>
 7    1  0.6285940E-013  0.5930195E+02  0.7816164E-02  0.1266605E+00
        -11   -1    0    0    0    0  0.00000000000E+00  0.00000000000E+00  0.45593999997E+02  0.45594000000E+02  0.51100000000E-03 0. -1.
         11   -1    0    0    0    0 -0.00000000000E+00 -0.00000000000E+00 -0.45593999997E+02  0.45594000000E+02  0.51100000000E-03 0.  1.
    9900012    2    1    2    0    0  0.14890001024E+02 -0.27593726313E+02  0.57960868249E+01  0.59301945292E+02  0.50000002307E+02 0.  0.
        -12    1    1    2    0    0 -0.14890001024E+02  0.27593726313E+02 -0.57960868249E+01  0.31886054708E+02  0.00000000000E+00 0.  1.
         11    1    3    3    0    0  0.49331193075E+01 -0.15752334371E+02  0.15091016214E+02  0.22365385641E+02  0.51100000000E-03 0. -1.
        -11    1    3    3    0    0  0.76582455109E+01  0.93582462360E+01  0.28125532887E+01  0.12415150147E+02  0.51100000000E-03 0.  1.
        -12    1    3    3    0    0  0.22986362057E+01 -0.21199638178E+02 -0.12107482678E+02  0.24521409505E+02  0.00000000000E+00 0.  1.
</event>
<event>
 7    1  0.6285940E-013  0.5930199E+02  0.7816164E-02  0.1266605E+00
        -11   -1    0    0    0    0  0.00000000000E+00  0.00000000000E+00  0.45593999997E+02  0.45594000000E+02  0.51100000000E-03 0. -1.
         11   -1    0    0    0    0 -0.00000000000E+00 -0.00000000000E+00 -0.45593999997E+02  0.45594000000E+02  0.51100000000E-03 0.  1.
    9900012    2    1    2    0    0  0.27359494195E+02  0.42100799658E+01  0.15825639315E+02  0.59301991224E+02  0.50000086075E+02 0.  0.
        -12    1    1    2    0    0 -0.27359494195E+02 -0.42100799658E+01 -0.15825639315E+02  0.31886008776E+02  0.00000000000E+00 0.  1.
         11    1    3    3    0    0 -0.10954783979E+02  0.11603333738E+02  0.42126611482E+01  0.16504277023E+02  0.51100000000E-03 0. -1.
        -11    1    3    3    0    0  0.74983306156E+01  0.90342336998E+00 -0.24264805547E+01  0.79327765599E+01  0.51100000000E-03 0.  1.
         12    1    3    3    0    0  0.30815947558E+02 -0.82966771420E+01  0.14039458722E+02  0.34864937641E+02  0.00000000000E+00 0. -1.
</event>
<event>
 7    1  0.6285940E-013  0.5930195E+02  0.7816164E-02  0.1266605E+00
        -11   -1    0    0    0    0  0.00000000000E+00  0.00000000000E+00  0.45593999997E+02  0.45594000000E+02  0.51100000000E-03 0.  1.
         11   -1    0    0    0    0 -0.00000000000E+00 -0.00000000000E+00 -0.45593999997E+02  0.45594000000E+02  0.51100000000E-03 0. -1.
    9900012    2    1    2    0    0 -0.36840009786E+01 -0.16104663897E+02 -0.27272476886E+02  0.59301951986E+02  0.50000014513E+02 0.  0.
        -12    1    1    2    0    0  0.36840009786E+01  0.16104663897E+02  0.27272476886E+02  0.31886048014E+02  0.00000000000E+00 0.  1.
         11    1    3    3    0    0 -0.45375796407E+01 -0.66932651914E+00 -0.25066705274E+02  0.25482883286E+02  0.51100000000E-03 0. -1.
        -11    1    3    3    0    0  0.14949531845E+02 -0.42021407104E+01 -0.28260749108E+01  0.15783953516E+02  0.51100000000E-03 0.  1.
         12    1    3    3    0    0 -0.14095953183E+02 -0.11233196668E+02  0.62030329874E+00  0.18035115184E+02  0.00000000000E+00 0. -1.
</event>
<event>
 7    1  0.6285940E-013  0.5930195E+02  0.7816164E-02  0.1266605E+00
        -11   -1    0    0    0    0  0.00000000000E+00  0.00000000000E+00  0.45593999997E+02  0.45594000000E+02  0.51100000000E-03 0. -1.
         11   -1    0    0    0    0 -0.00000000000E+00 -0.00000000000E+00 -0.45593999997E+02  0.45594000000E+02  0.51100000000E-03 0.  1.
    9900012    2    1    2    0    0 -0.29364394677E+02 -0.98687004072E+01  0.75538881576E+01  0.59301950562E+02  0.50000011916E+02 0.  0.
        -12    1    1    2    0    0  0.29364394677E+02  0.98687004072E+01 -0.75538881576E+01  0.31886049438E+02  0.00000000000E+00 0.  1.
         11    1    3    3    0    0 -0.18046977759E+01 -0.50293084260E+01 -0.44625032418E+01  0.69616673829E+01  0.51100000000E-03 0. -1.
        -11    1    3    3    0    0 -0.45714206598E+01  0.15822468914E+02 -0.47972111003E+01  0.17154056197E+02  0.51100000000E-03 0.  1.
         12    1    3    3    0    0 -0.22988276242E+02 -0.20661860896E+02  0.16813602500E+02  0.35186226982E+02  0.00000000000E+00 0. -1.
</event>
<event>
 7    1  0.6285940E-013  0.5930195E+02  0.7816164E-02  0.1266605E+00
        -11   -1    0    0    0    0  0.00000000000E+00  0.00000000000E+00  0.45593999997E+02  0.45594000000E+02  0.51100000000E-03 0. -1.
         11   -1    0    0    0    0 -0.00000000000E+00 -0.00000000000E+00 -0.45593999997E+02  0.45594000000E+02  0.51100000000E-03 0.  1.
    9900012    2    1    2    0    0  0.21680375151E+02  0.18010014978E+02 -0.14910429417E+02  0.59301949577E+02  0.50000010121E+02 0.  0.
        -12    1    1    2    0    0 -0.21680375151E+02 -0.18010014978E+02  0.14910429417E+02  0.31886050423E+02  0.00000000000E+00 0.  1.
         11    1    3    3    0    0 -0.10720344261E+02  0.26460028621E+01  0.62547617258E+01  0.12690514439E+02  0.51100000000E-03 0.  1.
        -11    1    3    3    0    0  0.47174168847E+01  0.10116673702E+02 -0.13289014433E+02  0.17355086105E+02  0.51100000000E-03 0. -1.
        -12    1    3    3    0    0  0.27683302527E+02  0.52473384129E+01 -0.78761767101E+01  0.29256349033E+02  0.00000000000E+00 0.  1.
</event>
<event>
 7    1  0.6285940E-013  0.5930189E+02  0.7816164E-02  0.1266605E+00
        -11   -1    0    0    0    0  0.00000000000E+00  0.00000000000E+00  0.45593999997E+02  0.45594000000E+02  0.51100000000E-03 0.  1.
         11   -1    0    0    0    0 -0.00000000000E+00 -0.00000000000E+00 -0.45593999997E+02  0.45594000000E+02  0.51100000000E-03 0. -1.
    9900012    2    1    2    0    0  0.30255834611E+01 -0.29613804714E+02 -0.11427693530E+02  0.59301893867E+02  0.49999908519E+02 0.  0.
        -12    1    1    2    0    0 -0.30255834611E+01  0.29613804714E+02  0.11427693530E+02  0.31886106133E+02  0.00000000000E+00 0.  1.
         11    1    3    3    0    0 -0.58070939405E+01 -0.64112562219E+01 -0.33781157141E+01  0.92864531666E+01  0.51100000000E-03 0. -1.
        -11    1    3    3    0    0  0.80749607250E+01 -0.23203357021E+02  0.13782537023E+02  0.28170180951E+02  0.51100000000E-03 0.  1.
        -12    1    3    3    0    0  0.75771667663E+00  0.80852919595E-03 -0.21832114839E+02  0.21845259750E+02  0.00000000000E+00 0.  1.
</event>
<event>
 7    1  0.6285940E-013  0.5930195E+02  0.7816164E-02  0.1266605E+00
        -11   -1    0    0    0    0  0.00000000000E+00  0.00000000000E+00  0.45593999997E+02  0.45594000000E+02  0.51100000000E-03 0.  1.
         11   -1    0    0    0    0 -0.00000000000E+00 -0.00000000000E+00 -0.45593999997E+02  0.45594000000E+02  0.51100000000E-03 0. -1.
    9900012    2    1    2    0    0  0.19093746500E+02 -0.57107266221E+00 -0.25530823775E+02  0.59301949100E+02  0.50000009250E+02 0.  0.
        -12    1    1    2    0    0 -0.19093746500E+02  0.57107266221E+00  0.25530823775E+02  0.31886050900E+02  0.00000000000E+00 0.  1.
         11    1    3    3    0    0 -0.86479978226E+01 -0.44400053262E+00  0.45849853174E+01  0.97983209497E+01  0.51100000000E-03 0. -1.
        -11    1    3    3    0    0  0.12117047548E+02 -0.12805227647E+02 -0.72953059610E+01  0.19079260617E+02  0.51100000000E-03 0.  1.
         12    1    3    3    0    0  0.15624696774E+02  0.12678155518E+02 -0.22820503131E+02  0.30424367533E+02  0.00000000000E+00 0. -1.
</event>
<event>
 7    1  0.6285940E-013  0.5930196E+02  0.7816164E-02  0.1266605E+00
        -11   -1    0    0    0    0  0.00000000000E+00  0.00000000000E+00  0.45593999997E+02  0.45594000000E+02  0.51100000000E-03 0.  1.
         11   -1    0    0    0    0 -0.00000000000E+00 -0.00000000000E+00 -0.45593999997E+02  0.45594000000E+02  0.51100000000E-03 0. -1.
    9900012    2    1    2    0    0 -0.36871777838E+01 -0.22864246865E+02 -0.21916896920E+02  0.59301961750E+02  0.50000032321E+02 0.  0.
        -12    1    1    2    0    0  0.36871777838E+01  0.22864246865E+02  0.21916896920E+02  0.31886038250E+02  0.00000000000E+00 0.  1.
         11    1    3    3    0    0  0.61072961825E+01  0.47910300636E+01 -0.14151342818E+02  0.16140431826E+02  0.51100000000E-03 0. -1.
        -11    1    3    3    0    0  0.11135218354E+02 -0.81986327579E+01 -0.35452248446E+01  0.14275128243E+02  0.51100000000E-03 0.  1.
        -12    1    3    3    0    0 -0.20929692321E+02 -0.19456644170E+02 -0.42203292577E+01  0.28886401681E+02  0.00000000000E+00 0.  1.
</event>
<event>
 7    1  0.6285940E-013  0.5930189E+02  0.7816164E-02  0.1266605E+00
        -11   -1    0    0    0    0  0.00000000000E+00  0.00000000000E+00  0.45593999997E+02  0.45594000000E+02  0.51100000000E-03 0.  1.
         11   -1    0    0    0    0 -0.00000000000E+00 -0.00000000000E+00 -0.45593999997E+02  0.45594000000E+02  0.51100000000E-03 0. -1.
    9900012    2    1    2    0    0 -0.26899379584E+02  0.10652364703E+02  0.13404272289E+02  0.59301889993E+02  0.49999901454E+02 0.  0.
        -12    1    1    2    0    0  0.26899379584E+02 -0.10652364703E+02 -0.13404272289E+02  0.31886110007E+02  0.00000000000E+00 0.  1.
         11    1    3    3    0    0  0.22394558755E+01  0.18293472524E+01  0.74502169803E+00  0.29860896805E+01  0.51100000000E-03 0. -1.
        -11    1    3    3    0    0 -0.91692948500E+01  0.29399323347E+01  0.28547332292E+02  0.30127551368E+02  0.51100000000E-03 0.  1.
         12    1    3    3    0    0 -0.19969540609E+02  0.58830851154E+01 -0.15888081702E+02  0.26188248945E+02  0.00000000000E+00 0. -1.
</event>
<event>
 7    1  0.6285940E-013  0.5930194E+02  0.7816164E-02  0.1266605E+00
        -11   -1    0    0    0    0  0.00000000000E+00  0.00000000000E+00  0.45593999997E+02  0.45594000000E+02  0.51100000000E-03 0.  1.
         11   -1    0    0    0    0 -0.00000000000E+00 -0.00000000000E+00 -0.45593999997E+02  0.45594000000E+02  0.51100000000E-03 0. -1.
    9900012    2    1    2    0    0  0.55389341456E+01  0.29301678529E+01 -0.31264274208E+02  0.59301944790E+02  0.50000001390E+02 0.  0.
        -12    1    1    2    0    0 -0.55389341456E+01 -0.29301678529E+01  0.31264274208E+02  0.31886055210E+02  0.00000000000E+00 0.  1.
         11    1    3    3    0    0  0.31755281580E+01 -0.62058604652E+01 -0.95569428655E+01  0.11829278946E+02  0.51100000000E-03 0. -1.
        -11    1    3    3    0    0  0.20592703918E+02  0.76789312723E+01 -0.46486597355E+01  0.22464093076E+02  0.51100000000E-03 0.  1.
        -12    1    3    3    0    0 -0.18229297931E+02  0.14570970458E+01 -0.17058671607E+02  0.25008572767E+02  0.00000000000E+00 0.  1.
</event>
<event>
 7    1  0.6285940E-013  0.5930195E+02  0.7816164E-02  0.1266605E+00
        -11   -1    0    0    0    0  0.00000000000E+00  0.00000000000E+00  0.45593999997E+02  0.45594000000E+02  0.51100000000E-03 0. -1.
         11   -1    0    0    0    0 -0.00000000000E+00 -0.00000000000E+00 -0.45593999997E+02  0.45594000000E+02  0.51100000000E-03 0.  1.
    9900012    2    1    2    0    0 -0.14540743652E+02  0.82360292293E+01  0.27156114295E+02  0.59301953725E+02  0.50000017686E+02 0.  0.
        -12    1    1    2    0    0  0.14540743652E+02 -0.82360292293E+01 -0.27156114295E+02  0.31886046275E+02  0.00000000000E+00 0.  1.
         11    1    3    3    0    0 -0.16681080842E+02  0.23939214928E+01  0.23751216614E+01  0.17018534641E+02  0.51100000000E-03 0. -1.
        -11    1    3    3    0    0 -0.86106453812E+01 -0.87198683118E+01  0.85857673608E+00  0.12284806532E+02  0.51100000000E-03 0.  1.
        -12    1    3    3    0    0  0.10750982571E+02  0.14561976048E+02  0.23922415898E+02  0.29998612552E+02  0.00000000000E+00 0.  1.
</event>
<event>
 7    1  0.6285940E-013  0.5930194E+02  0.7816164E-02  0.1266605E+00
        -11   -1    0    0    0    0  0.00000000000E+00  0.00000000000E+00  0.45593999997E+02  0.45594000000E+02  0.51100000000E-03 0. -1.
         11   -1    0    0    0    0 -0.00000000000E+00 -0.00000000000E+00 -0.45593999997E+02  0.45594000000E+02  0.51100000000E-03 0.  1.
    9900012    2    1    2    0    0  0.28859997820E+02  0.13541528198E+02 -0.66967528592E+00  0.59301938388E+02  0.49999989714E+02 0.  0.
        -12    1    1    2    0    0 -0.28859997820E+02 -0.13541528198E+02  0.66967528592E+00  0.31886061612E+02  0.00000000000E+00 0.  1.
         11    1    3    3    0    0  0.50871437417E+01  0.49653743949E+01  0.74986679470E+01  0.10332666431E+02  0.51100000000E-03 0. -1.
        -11    1    3    3    0    0  0.14362474024E+02  0.25215282328E+02 -0.67975922828E+01  0.29804334988E+02  0.51100000000E-03 0.  1.
        -12    1    3    3    0    0  0.94103800547E+01 -0.16639128525E+02 -0.13707509502E+01  0.19164936969E+02  0.00000000000E+00 0.  1.
</event>
<event>
 7    1  0.6285940E-013  0.5930191E+02  0.7816164E-02  0.1266605E+00
        -11   -1    0    0    0    0  0.00000000000E+00  0.00000000000E+00  0.45593999997E+02  0.45594000000E+02  0.51100000000E-03 0.  1.
         11   -1    0    0    0    0 -0.00000000000E+00 -0.00000000000E+00 -0.45593999997E+02  0.45594000000E+02  0.51100000000E-03 0. -1.
    9900012    2    1    2    0    0 -0.36766550001E+01 -0.29659283241E+02 -0.11114480843E+02  0.59301912771E+02  0.49999942996E+02 0.  0.
        -12    1    1    2    0    0  0.36766550001E+01  0.29659283241E+02  0.11114480843E+02  0.31886087229E+02  0.00000000000E+00 0.  1.
         11    1    3    3    0    0 -0.87810552462E+01 -0.26153077192E+02 -0.21932324079E+02  0.35243683372E+02  0.51100000000E-03 0. -1.
        -11    1    3    3    0    0 -0.69475296817E+01  0.32443133600E+01  0.35583395134E+01  0.84531365901E+01  0.51100000000E-03 0.  1.
        -12    1    3    3    0    0  0.12051929928E+02 -0.67505194083E+01  0.72595037234E+01  0.15605092809E+02  0.00000000000E+00 0.  1.
</event>
<event>
 7    1  0.6285940E-013  0.5930191E+02  0.7816164E-02  0.1266605E+00
        -11   -1    0    0    0    0  0.00000000000E+00  0.00000000000E+00  0.45593999997E+02  0.45594000000E+02  0.51100000000E-03 0.  1.
         11   -1    0    0    0    0 -0.00000000000E+00 -0.00000000000E+00 -0.45593999997E+02  0.45594000000E+02  0.51100000000E-03 0. -1.
    9900012    2    1    2    0    0 -0.12697858023E+02 -0.27522798574E+02 -0.98986303992E+01  0.59301907052E+02  0.49999932566E+02 0.  0.
        -12    1    1    2    0    0  0.12697858023E+02  0.27522798574E+02  0.98986303992E+01  0.31886092948E+02  0.00000000000E+00 0.  1.
         11    1    3    3    0    0 -0.47484181544E+01 -0.20061249505E+02  0.14065694636E+02  0.24956862233E+02  0.51100000000E-03 0. -1.
        -11    1    3    3    0    0  0.69580738469E+01 -0.44691944145E+01 -0.13691370375E+02  0.15995065282E+02  0.51100000000E-03 0.  1.
         12    1    3    3    0    0 -0.14907513715E+02 -0.29923546536E+01 -0.10272954660E+02  0.18349979537E+02  0.00000000000E+00 0. -1.
</event>
<event>
 7    1  0.6285940E-013  0.5930183E+02  0.7816164E-02  0.1266605E+00
        -11   -1    0    0    0    0  0.00000000000E+00  0.00000000000E+00  0.45593999997E+02  0.45594000000E+02  0.51100000000E-03 0. -1.
         11   -1    0    0    0    0 -0.00000000000E+00 -0.00000000000E+00 -0.45593999997E+02  0.45594000000E+02  0.51100000000E-03 0.  1.
    9900012    2    1    2    0    0  0.13860782393E+02  0.27261727867E+02  0.90224710249E+01  0.59301826222E+02  0.49999785149E+02 0.  0.
        -12    1    1    2    0    0 -0.13860782393E+02 -0.27261727867E+02 -0.90224710249E+01  0.31886173778E+02  0.00000000000E+00 0.  1.
         11    1    3    3    0    0  0.35729042525E+01 -0.54680166165E+01  0.16106777320E+01  0.67274908795E+01  0.51100000000E-03 0. -1.
        -11    1    3    3    0    0 -0.12814322335E+02  0.20554956139E+02  0.10260036040E+02  0.26305539694E+02  0.51100000000E-03 0.  1.
         12    1    3    3    0    0  0.23102200476E+02  0.12174788345E+02 -0.28482427473E+01  0.26268795648E+02  0.00000000000E+00 0. -1.
</event>
<event>
 7    1  0.6285940E-013  0.5930185E+02  0.7816164E-02  0.1266605E+00
        -11   -1    0    0    0    0  0.00000000000E+00  0.00000000000E+00  0.45593999997E+02  0.45594000000E+02  0.51100000000E-03 0. -1.
         11   -1    0    0    0    0 -0.00000000000E+00 -0.00000000000E+00 -0.45593999997E+02  0.45594000000E+02  0.51100000000E-03 0.  1.
    9900012    2    1    2    0    0 -0.55265154218E+01 -0.12156732743E+02  0.28955102151E+02  0.59301851530E+02  0.49999831306E+02 0.  0.
        -12    1    1    2    0    0  0.55265154218E+01  0.12156732743E+02 -0.28955102151E+02  0.31886148470E+02  0.00000000000E+00 0.  1.
         11    1    3    3    0    0 -0.54262964425E+01 -0.14876545264E+02  0.16763971215E+02  0.23060507870E+02  0.51100000000E-03 0. -1.
        -11    1    3    3    0    0 -0.16094210733E+02 -0.13801477712E+01  0.11286069987E+02  0.19705425725E+02  0.51100000000E-03 0.  1.
         12    1    3    3    0    0  0.15993991754E+02  0.40999602926E+01  0.90506094981E+00  0.16535917935E+02  0.00000000000E+00 0. -1.
</event>
<event>
 7    1  0.6285940E-013  0.5930196E+02  0.7816164E-02  0.1266605E+00
        -11   -1    0    0    0    0  0.00000000000E+00  0.00000000000E+00  0.45593999997E+02  0.45594000000E+02  0.51100000000E-03 0.  1.
         11   -1    0    0    0    0 -0.00000000000E+00 -0.00000000000E+00 -0.45593999997E+02  0.45594000000E+02  0.51100000000E-03 0. -1.
    9900012    2    1    2    0    0  0.92252831195E+01 -0.12558026501E+02 -0.27819230674E+02  0.59301961150E+02  0.50000031228E+02 0.  0.
        -12    1    1    2    0    0 -0.92252831195E+01  0.12558026501E+02  0.27819230674E+02  0.31886038850E+02  0.00000000000E+00 0.  1.
         11    1    3    3    0    0 -0.86288028871E+01 -0.23270893217E+02 -0.22134847007E+02  0.33255708723E+02  0.51100000000E-03 0. -1.
        -11    1    3    3    0    0  0.59190334973E+00  0.74814276295E+01  0.24914765201E+00  0.75089402558E+01  0.51100000000E-03 0.  1.
        -12    1    3    3    0    0  0.17262182657E+02  0.32314390863E+01 -0.59335313191E+01  0.18537312172E+02  0.00000000000E+00 0.  1.
</event>
<event>
 7    1  0.6285940E-013  0.5930194E+02  0.7816164E-02  0.1266605E+00
        -11   -1    0    0    0    0  0.00000000000E+00  0.00000000000E+00  0.45593999997E+02  0.45594000000E+02  0.51100000000E-03 0.  1.
         11   -1    0    0    0    0 -0.00000000000E+00 -0.00000000000E+00 -0.45593999997E+02  0.45594000000E+02  0.51100000000E-03 0. -1.
    9900012    2    1    2    0    0 -0.15912960660E+02  0.27595621610E+02 -0.14071890283E+01  0.59301939880E+02  0.49999992436E+02 0.  0.
        -12    1    1    2    0    0  0.15912960660E+02 -0.27595621610E+02  0.14071890283E+01  0.31886060120E+02  0.00000000000E+00 0.  1.
         11    1    3    3    0    0 -0.18901851966E+02  0.10295730760E+02 -0.19534100702E+01  0.21612447589E+02  0.51100000000E-03 0. -1.
        -11    1    3    3    0    0 -0.12328324899E+02  0.61392660953E+01  0.94978252342E+01  0.16729819707E+02  0.51100000000E-03 0.  1.
        -12    1    3    3    0    0  0.15317216205E+02  0.11160624755E+02 -0.89516041923E+01  0.20959672584E+02  0.00000000000E+00 0.  1.
</event>
<event>
 7    1  0.6285940E-013  0.5930159E+02  0.7816164E-02  0.1266606E+00
        -11   -1    0    0    0    0  0.00000000000E+00  0.00000000000E+00  0.45593999997E+02  0.45594000000E+02  0.51100000000E-03 0.  1.
         11   -1    0    0    0    0 -0.00000000000E+00 -0.00000000000E+00 -0.45593999997E+02  0.45594000000E+02  0.51100000000E-03 0. -1.
    9900012    2    1    2    0    0  0.10732406996E+02  0.35726701612E+01 -0.29812659496E+02  0.59301589129E+02  0.49999352745E+02 0.  0.
        -12    1    1    2    0    0 -0.10732406996E+02 -0.35726701612E+01  0.29812659496E+02  0.31886410871E+02  0.00000000000E+00 0.  1.
         11    1    3    3    0    0  0.14434796512E+01  0.96786232299E+01 -0.14562337614E+02  0.17544829956E+02  0.51100000000E-03 0. -1.
        -11    1    3    3    0    0 -0.31979594653E+01 -0.65588993960E+01 -0.24914080791E+02  0.25960691978E+02  0.51100000000E-03 0.  1.
         12    1    3    3    0    0  0.12486886810E+02  0.45294632730E+00  0.96637589093E+01  0.15796067195E+02  0.00000000000E+00 0. -1.
</event>
<event>
 7    1  0.6285940E-013  0.5930195E+02  0.7816164E-02  0.1266605E+00
        -11   -1    0    0    0    0  0.00000000000E+00  0.00000000000E+00  0.45593999997E+02  0.45594000000E+02  0.51100000000E-03 0.  1.
         11   -1    0    0    0    0 -0.00000000000E+00 -0.00000000000E+00 -0.45593999997E+02  0.45594000000E+02  0.51100000000E-03 0. -1.
    9900012    2    1    2    0    0 -0.25535632519E+02 -0.15129567163E+02 -0.11651099837E+02  0.59301945712E+02  0.50000003071E+02 0.  0.
        -12    1    1    2    0    0  0.25535632519E+02  0.15129567163E+02  0.11651099837E+02  0.31886054288E+02  0.00000000000E+00 0.  1.
         11    1    3    3    0    0 -0.13925845068E+02 -0.94700510706E+01 -0.17209911553E+02  0.24078872151E+02  0.51100000000E-03 0. -1.
        -11    1    3    3    0    0 -0.42983196304E+01  0.56100048773E+01 -0.11507216072E+02  0.13504211504E+02  0.51100000000E-03 0.  1.
         12    1    3    3    0    0 -0.73114678199E+01 -0.11269520970E+02  0.17066027788E+02  0.21718862056E+02  0.00000000000E+00 0. -1.
</event>
<event>
 7    1  0.6285940E-013  0.5930201E+02  0.7816164E-02  0.1266605E+00
        -11   -1    0    0    0    0  0.00000000000E+00  0.00000000000E+00  0.45593999997E+02  0.45594000000E+02  0.51100000000E-03 0. -1.
         11   -1    0    0    0    0 -0.00000000000E+00 -0.00000000000E+00 -0.45593999997E+02  0.45594000000E+02  0.51100000000E-03 0.  1.
    9900012    2    1    2    0    0 -0.24228430396E+02  0.20066174067E+02  0.52008112120E+01  0.59302005921E+02  0.50000112878E+02 0.  0.
        -12    1    1    2    0    0  0.24228430396E+02 -0.20066174067E+02 -0.52008112120E+01  0.31885994079E+02  0.00000000000E+00 0.  1.
         11    1    3    3    0    0 -0.27211431622E+02  0.16242748583E+02  0.28233845989E+01  0.31816039874E+02  0.51100000000E-03 0. -1.
        -11    1    3    3    0    0 -0.15584158725E+01  0.15007565890E+02 -0.42366960027E+00  0.15094210485E+02  0.51100000000E-03 0.  1.
         12    1    3    3    0    0  0.45414170984E+01 -0.11184140406E+02  0.28010962134E+01  0.12391755561E+02  0.00000000000E+00 0. -1.
</event>
<event>
 7    1  0.6285940E-013  0.5930194E+02  0.7816164E-02  0.1266605E+00
        -11   -1    0    0    0    0  0.00000000000E+00  0.00000000000E+00  0.45593999997E+02  0.45594000000E+02  0.51100000000E-03 0. -1.
         11   -1    0    0    0    0 -0.00000000000E+00 -0.00000000000E+00 -0.45593999997E+02  0.45594000000E+02  0.51100000000E-03 0.  1.
    9900012    2    1    2    0    0 -0.15019872958E+02 -0.64397605245E+01  0.27379799595E+02  0.59301944660E+02  0.50000001153E+02 0.  0.
        -12    1    1    2    0    0  0.15019872958E+02  0.64397605245E+01 -0.27379799595E+02  0.31886055340E+02  0.00000000000E+00 0.  1.
         11    1    3    3    0    0 -0.11298780374E+02 -0.20359981613E+02  0.86458578414E+01  0.24838320138E+02  0.51100000000E-03 0.  1.
        -11    1    3    3    0    0 -0.63726871769E+01  0.25146602416E+01  0.21386680759E+02  0.22457176406E+02  0.51100000000E-03 0. -1.
         12    1    3    3    0    0  0.26515945929E+01  0.11405560846E+02 -0.26527390056E+01  0.12006448115E+02  0.00000000000E+00 0. -1.
</event>
<event>
 7    1  0.6285940E-013  0.5930198E+02  0.7816164E-02  0.1266605E+00
        -11   -1    0    0    0    0  0.00000000000E+00  0.00000000000E+00  0.45593999997E+02  0.45594000000E+02  0.51100000000E-03 0.  1.
         11   -1    0    0    0    0 -0.00000000000E+00 -0.00000000000E+00 -0.45593999997E+02  0.45594000000E+02  0.51100000000E-03 0. -1.
    9900012    2    1    2    0    0  0.11905915194E+02 -0.38336572883E+01 -0.29330367079E+02  0.59301981469E+02  0.50000068283E+02 0.  0.
        -12    1    1    2    0    0 -0.11905915194E+02  0.38336572883E+01  0.29330367079E+02  0.31886018531E+02  0.00000000000E+00 0.  1.
         11    1    3    3    0    0  0.10225515600E+02 -0.20201509778E+02 -0.90434896992E+00  0.22660097394E+02  0.51100000000E-03 0. -1.
        -11    1    3    3    0    0  0.12485168094E+01  0.70669521368E+00 -0.17458691959E+02  0.17517537998E+02  0.51100000000E-03 0.  1.
        -12    1    3    3    0    0  0.43188278492E+00  0.15661157276E+02 -0.10967326150E+02  0.19124346076E+02  0.00000000000E+00 0.  1.
</event>
<event>
 7    1  0.6285940E-013  0.5930193E+02  0.7816164E-02  0.1266605E+00
        -11   -1    0    0    0    0  0.00000000000E+00  0.00000000000E+00  0.45593999997E+02  0.45594000000E+02  0.51100000000E-03 0. -1.
         11   -1    0    0    0    0 -0.00000000000E+00 -0.00000000000E+00 -0.45593999997E+02  0.45594000000E+02  0.51100000000E-03 0.  1.
    9900012    2    1    2    0    0  0.13170797135E+01  0.28859650904E+02  0.13494706492E+02  0.59301933254E+02  0.49999980351E+02 0.  0.
        -12    1    1    2    0    0 -0.13170797135E+01 -0.28859650904E+02 -0.13494706492E+02  0.31886066746E+02  0.00000000000E+00 0.  1.
         11    1    3    3    0    0 -0.83953105245E+00  0.71589245445E+01  0.13391555573E+02  0.15208181152E+02  0.51100000000E-03 0. -1.
        -11    1    3    3    0    0 -0.15807449939E+02  0.15365880073E+02 -0.79201637016E+01  0.23424660879E+02  0.51100000000E-03 0.  1.
         12    1    3    3    0    0  0.17964060705E+02  0.63348462863E+01  0.80233146198E+01  0.20669091222E+02  0.00000000000E+00 0. -1.
</event>
<event>
 7    1  0.6285940E-013  0.5930196E+02  0.7816164E-02  0.1266605E+00
        -11   -1    0    0    0    0  0.00000000000E+00  0.00000000000E+00  0.45593999997E+02  0.45594000000E+02  0.51100000000E-03 0. -1.
         11   -1    0    0    0    0 -0.00000000000E+00 -0.00000000000E+00 -0.45593999997E+02  0.45594000000E+02  0.51100000000E-03 0.  1.
    9900012    2    1    2    0    0 -0.53053854242E+01 -0.37282761619E+01  0.31219748686E+02  0.59301955001E+02  0.50000020013E+02 0.  0.
        -12    1    1    2    0    0  0.53053854242E+01  0.37282761619E+01 -0.31219748686E+02  0.31886044999E+02  0.00000000000E+00 0.  1.
         11    1    3    3    0    0 -0.41882468941E+01 -0.15569230434E+02  0.21668661769E+02  0.27008762494E+02  0.51100000000E-03 0. -1.
        -11    1    3    3    0    0  0.16025431587E+01 -0.87630215466E+01 -0.10374903894E+01  0.89685605183E+01  0.51100000000E-03 0.  1.
        -12    1    3    3    0    0 -0.27196816888E+01  0.20603975819E+02  0.10588577307E+02  0.23324631989E+02  0.00000000000E+00 0.  1.
</event>
<event>
 7    1  0.6285940E-013  0.5930194E+02  0.7816164E-02  0.1266605E+00
        -11   -1    0    0    0    0  0.00000000000E+00  0.00000000000E+00  0.45593999997E+02  0.45594000000E+02  0.51100000000E-03 0. -1.
         11   -1    0    0    0    0 -0.00000000000E+00 -0.00000000000E+00 -0.45593999997E+02  0.45594000000E+02  0.51100000000E-03 0.  1.
    9900012    2    1    2    0    0 -0.26381523243E+02 -0.14315400064E+02  0.10761292454E+02  0.59301939364E+02  0.49999991494E+02 0.  0.
        -12    1    1    2    0    0  0.26381523243E+02  0.14315400064E+02 -0.10761292454E+02  0.31886060636E+02  0.00000000000E+00 0.  1.
         11    1    3    3    0    0 -0.18723139844E+02  0.27119517041E+01 -0.88957126819E+01  0.20905605757E+02  0.51100000000E-03 0. -1.
        -11    1    3    3    0    0 -0.39380023891E+00  0.18633347568E+01 -0.56668312791E+01  0.59783000971E+01  0.51100000000E-03 0.  1.
         12    1    3    3    0    0 -0.72645831602E+01 -0.18890686525E+02  0.25323836415E+02  0.32418033510E+02  0.00000000000E+00 0. -1.
</event>
<event>
 7    1  0.6285940E-013  0.5930195E+02  0.7816164E-02  0.1266605E+00
        -11   -1    0    0    0    0  0.00000000000E+00  0.00000000000E+00  0.45593999997E+02  0.45594000000E+02  0.51100000000E-03 0.  1.
         11   -1    0    0    0    0 -0.00000000000E+00 -0.00000000000E+00 -0.45593999997E+02  0.45594000000E+02  0.51100000000E-03 0. -1.
    9900012    2    1    2    0    0 -0.20616003685E+02 -0.33082992194E+00 -0.24322652328E+02  0.59301945484E+02  0.50000002655E+02 0.  0.
        -12    1    1    2    0    0  0.20616003685E+02  0.33082992194E+00  0.24322652328E+02  0.31886054516E+02  0.00000000000E+00 0.  1.
         11    1    3    3    0    0  0.91721322994E+01 -0.72792890625E+00 -0.75543539194E+01  0.11904879454E+02  0.51100000000E-03 0. -1.
        -11    1    3    3    0    0  0.11503221718E+01  0.70067571493E+01 -0.13927598086E+02  0.15633165884E+02  0.51100000000E-03 0.  1.
        -12    1    3    3    0    0 -0.30938458156E+02 -0.66096581650E+01 -0.28407003218E+01  0.31763900145E+02  0.00000000000E+00 0.  1.
</event>
<event>
 7    1  0.6285940E-013  0.5930199E+02  0.7816164E-02  0.1266605E+00
        -11   -1    0    0    0    0  0.00000000000E+00  0.00000000000E+00  0.45593999997E+02  0.45594000000E+02  0.51100000000E-03 0.  1.
         11   -1    0    0    0    0 -0.00000000000E+00 -0.00000000000E+00 -0.45593999997E+02  0.45594000000E+02  0.51100000000E-03 0. -1.
    9900012    2    1    2    0    0  0.27793348841E+02  0.13952252257E+02  0.70414360730E+01  0.59301993590E+02  0.50000090389E+02 0.  0.
        -12    1    1    2    0    0 -0.27793348841E+02 -0.13952252257E+02 -0.70414360730E+01  0.31886006410E+02  0.00000000000E+00 0.  1.
         11    1    3    3    0    0  0.86844833810E+01  0.27041676414E+01  0.15172519793E+02  0.17690057415E+02  0.51100000000E-03 0. -1.
        -11    1    3    3    0    0  0.35171249069E+01 -0.11896790796E+02  0.45515269540E+00  0.12414143671E+02  0.51100000000E-03 0.  1.
         12    1    3    3    0    0  0.15591740553E+02  0.23144875412E+02 -0.85862364153E+01  0.29197792503E+02  0.00000000000E+00 0. -1.
</event>
<event>
 7    1  0.6285940E-013  0.5930191E+02  0.7816164E-02  0.1266605E+00
        -11   -1    0    0    0    0  0.00000000000E+00  0.00000000000E+00  0.45593999997E+02  0.45594000000E+02  0.51100000000E-03 0.  1.
         11   -1    0    0    0    0 -0.00000000000E+00 -0.00000000000E+00 -0.45593999997E+02  0.45594000000E+02  0.51100000000E-03 0. -1.
    9900012    2    1    2    0    0  0.30545039271E+02 -0.65735900780E+01  0.63648442294E+01  0.59301909731E+02  0.49999937451E+02 0.  0.
        -12    1    1    2    0    0 -0.30545039271E+02  0.65735900780E+01 -0.63648442294E+01  0.31886090269E+02  0.00000000000E+00 0.  1.
         11    1    3    3    0    0  0.18101443613E+02 -0.87155134653E+01 -0.91225054836E+01  0.22064508660E+02  0.51100000000E-03 0. -1.
        -11    1    3    3    0    0 -0.67929019028E+01 -0.79866474033E+01 -0.10259947203E+00  0.10485255358E+02  0.51100000000E-03 0.  1.
        -12    1    3    3    0    0  0.19236497561E+02  0.10128570791E+02  0.15589949185E+02  0.26752145713E+02  0.00000000000E+00 0.  1.
</event>
<event>
 7    1  0.6285940E-013  0.5930197E+02  0.7816164E-02  0.1266605E+00
        -11   -1    0    0    0    0  0.00000000000E+00  0.00000000000E+00  0.45593999997E+02  0.45594000000E+02  0.51100000000E-03 0. -1.
         11   -1    0    0    0    0 -0.00000000000E+00 -0.00000000000E+00 -0.45593999997E+02  0.45594000000E+02  0.51100000000E-03 0.  1.
    9900012    2    1    2    0    0 -0.26206269345E+02 -0.17513874236E+02  0.48181563510E+01  0.59301968978E+02  0.50000045503E+02 0.  0.
        -12    1    1    2    0    0  0.26206269345E+02  0.17513874236E+02 -0.48181563510E+01  0.31886031022E+02  0.00000000000E+00 0.  1.
         11    1    3    3    0    0 -0.27549075978E+01 -0.62025842686E+01  0.13911200150E+02  0.15478470769E+02  0.51100000000E-03 0. -1.
        -11    1    3    3    0    0 -0.15928374217E+02 -0.10953742205E+02  0.11086216188E+02  0.22284563337E+02  0.51100000000E-03 0.  1.
        -12    1    3    3    0    0 -0.75229875303E+01 -0.35754776209E+00 -0.20179259987E+02  0.21538934872E+02  0.00000000000E+00 0.  1.
</event>
<event>
 7    1  0.6285940E-013  0.5930196E+02  0.7816164E-02  0.1266605E+00
        -11   -1    0    0    0    0  0.00000000000E+00  0.00000000000E+00  0.45593999997E+02  0.45594000000E+02  0.51100000000E-03 0.  1.
         11   -1    0    0    0    0 -0.00000000000E+00 -0.00000000000E+00 -0.45593999997E+02  0.45594000000E+02  0.51100000000E-03 0. -1.
    9900012    2    1    2    0    0 -0.13508043930E+02  0.18208146729E+02  0.22421322705E+02  0.59301959638E+02  0.50000028470E+02 0.  0.
        -12    1    1    2    0    0  0.13508043930E+02 -0.18208146729E+02 -0.22421322705E+02  0.31886040362E+02  0.00000000000E+00 0.  1.
         11    1    3    3    0    0  0.14902596477E+01 -0.34579139620E+01  0.16569872866E+02  0.16992313846E+02  0.51100000000E-03 0. -1.
        -11    1    3    3    0    0  0.91406011184E+01  0.11905423360E+01  0.53385827712E+01  0.10652156877E+02  0.51100000000E-03 0.  1.
         12    1    3    3    0    0 -0.24138904696E+02  0.20475518355E+02  0.51286706793E+00  0.31657488916E+02  0.00000000000E+00 0. -1.
</event>
<event>
 7    1  0.6285940E-013  0.5930194E+02  0.7816164E-02  0.1266605E+00
        -11   -1    0    0    0    0  0.00000000000E+00  0.00000000000E+00  0.45593999997E+02  0.45594000000E+02  0.51100000000E-03 0.  1.
         11   -1    0    0    0    0 -0.00000000000E+00 -0.00000000000E+00 -0.45593999997E+02  0.45594000000E+02  0.51100000000E-03 0. -1.
    9900012    2    1    2    0    0 -0.30124855290E+02  0.72413248520E+01 -0.75350677955E+01  0.59301938178E+02  0.49999989331E+02 0.  0.
        -12    1    1    2    0    0  0.30124855290E+02 -0.72413248520E+01  0.75350677955E+01  0.31886061822E+02  0.00000000000E+00 0.  1.
         11    1    3    3    0    0 -0.31757990101E+01  0.37006633915E+01  0.32098171847E+01  0.58381106113E+01  0.51100000000E-03 0. -1.
        -11    1    3    3    0    0  0.11804562009E+02  0.49757382738E+01  0.12493917986E+01  0.12871155182E+02  0.51100000000E-03 0.  1.
         12    1    3    3    0    0 -0.38753618288E+02 -0.14350768132E+01 -0.11994276779E+02  0.40592672385E+02  0.00000000000E+00 0. -1.
</event>
<event>
 7    1  0.6285940E-013  0.5930195E+02  0.7816164E-02  0.1266605E+00
        -11   -1    0    0    0    0  0.00000000000E+00  0.00000000000E+00  0.45593999997E+02  0.45594000000E+02  0.51100000000E-03 0.  1.
         11   -1    0    0    0    0 -0.00000000000E+00 -0.00000000000E+00 -0.45593999997E+02  0.45594000000E+02  0.51100000000E-03 0. -1.
    9900012    2    1    2    0    0 -0.97048966768E+01 -0.24159626015E+02 -0.18407813101E+02  0.59301950827E+02  0.50000012401E+02 0.  0.
        -12    1    1    2    0    0  0.97048966768E+01  0.24159626015E+02  0.18407813101E+02  0.31886049173E+02  0.00000000000E+00 0.  1.
         11    1    3    3    0    0  0.54685458551E+01 -0.37552393514E+01 -0.22237990256E+02  0.23206357475E+02  0.51100000000E-03 0. -1.
        -11    1    3    3    0    0  0.14999609473E+01  0.50572832313E+01 -0.71373912898E+00  0.53231025099E+01  0.51100000000E-03 0.  1.
         12    1    3    3    0    0 -0.16673403479E+02 -0.25461669895E+02  0.45439162849E+01  0.30772490842E+02  0.00000000000E+00 0. -1.
</event>
<event>
 7    1  0.6285940E-013  0.5930195E+02  0.7816164E-02  0.1266605E+00
        -11   -1    0    0    0    0  0.00000000000E+00  0.00000000000E+00  0.45593999997E+02  0.45594000000E+02  0.51100000000E-03 0.  1.
         11   -1    0    0    0    0 -0.00000000000E+00 -0.00000000000E+00 -0.45593999997E+02  0.45594000000E+02  0.51100000000E-03 0. -1.
    9900012    2    1    2    0    0 -0.27042288719E+02  0.10360371000E+02 -0.13345308813E+02  0.59301953934E+02  0.50000018066E+02 0.  0.
        -12    1    1    2    0    0  0.27042288719E+02 -0.10360371000E+02  0.13345308813E+02  0.31886046066E+02  0.00000000000E+00 0.  1.
         11    1    3    3    0    0 -0.19546074874E+02 -0.73726903200E+01  0.12743413008E+02  0.24470393966E+02  0.51100000000E-03 0. -1.
        -11    1    3    3    0    0  0.57459489771E+00  0.34682725548E+01  0.54638336844E+00  0.35577533441E+01  0.51100000000E-03 0.  1.
         12    1    3    3    0    0 -0.80708087433E+01  0.14264788765E+02 -0.26635105189E+02  0.31273806623E+02  0.00000000000E+00 0. -1.
</event>
<event>
 7    1  0.6285940E-013  0.5930197E+02  0.7816164E-02  0.1266605E+00
        -11   -1    0    0    0    0  0.00000000000E+00  0.00000000000E+00  0.45593999997E+02  0.45594000000E+02  0.51100000000E-03 0.  1.
         11   -1    0    0    0    0 -0.00000000000E+00 -0.00000000000E+00 -0.45593999997E+02  0.45594000000E+02  0.51100000000E-03 0. -1.
    9900012    2    1    2    0    0  0.29353897865E+02  0.12181483803E+02  0.25844206200E+01  0.59301967047E+02  0.50000041982E+02 0.  0.
        -12    1    1    2    0    0 -0.29353897865E+02 -0.12181483803E+02 -0.25844206200E+01  0.31886032953E+02  0.00000000000E+00 0.  1.
         11    1    3    3    0    0  0.64200301041E+01  0.20511702544E+02 -0.20794383217E+01  0.21593304327E+02  0.51100000000E-03 0. -1.
        -11    1    3    3    0    0  0.11501403434E+01  0.64525809189E+01  0.88906196902E+01  0.11045439876E+02  0.51100000000E-03 0.  1.
        -12    1    3    3    0    0  0.21783727418E+02 -0.14782799660E+02 -0.42267607486E+01  0.26663222844E+02  0.00000000000E+00 0.  1.
</event>
<event>
 7    1  0.6285940E-013  0.5930192E+02  0.7816164E-02  0.1266605E+00
        -11   -1    0    0    0    0  0.00000000000E+00  0.00000000000E+00  0.45593999997E+02  0.45594000000E+02  0.51100000000E-03 0. -1.
         11   -1    0    0    0    0 -0.00000000000E+00 -0.00000000000E+00 -0.45593999997E+02  0.45594000000E+02  0.51100000000E-03 0.  1.
    9900012    2    1    2    0    0 -0.13020741620E+02  0.79878157246E+01  0.27988873039E+02  0.59301922687E+02  0.49999961080E+02 0.  0.
        -12    1    1    2    0    0  0.13020741620E+02 -0.79878157246E+01 -0.27988873039E+02  0.31886077313E+02  0.00000000000E+00 0.  1.
         11    1    3    3    0    0 -0.16088983609E+02  0.14922288678E+02  0.15677091026E+02  0.26968523806E+02  0.51100000000E-03 0. -1.
        -11    1    3    3    0    0 -0.11537374616E+02 -0.28621670910E+01 -0.12990470164E+01  0.11957865064E+02  0.51100000000E-03 0.  1.
         12    1    3    3    0    0  0.14605616605E+02 -0.40723058622E+01  0.13610829030E+02  0.20375533818E+02  0.00000000000E+00 0. -1.
</event>
<event>
 7    1  0.6285940E-013  0.5930192E+02  0.7816164E-02  0.1266605E+00
        -11   -1    0    0    0    0  0.00000000000E+00  0.00000000000E+00  0.45593999997E+02  0.45594000000E+02  0.51100000000E-03 0.  1.
         11   -1    0    0    0    0 -0.00000000000E+00 -0.00000000000E+00 -0.45593999997E+02  0.45594000000E+02  0.51100000000E-03 0. -1.
    9900012    2    1    2    0    0  0.16659237566E+02  0.21316551142E+02 -0.16875919306E+02  0.59301918377E+02  0.49999953219E+02 0.  0.
        -12    1    1    2    0    0 -0.16659237566E+02 -0.21316551142E+02  0.16875919306E+02  0.31886081623E+02  0.00000000000E+00 0.  1.
         11    1    3    3    0    0  0.44794600220E+01  0.74492824039E+01  0.32128233652E+01  0.92671249403E+01  0.51100000000E-03 0. -1.
        -11    1    3    3    0    0 -0.11430748597E+02  0.17343078540E+02 -0.37356206193E+01  0.21104484083E+02  0.51100000000E-03 0.  1.
         12    1    3    3    0    0  0.23610526141E+02 -0.34758098022E+01 -0.16353122052E+02  0.28930309354E+02  0.00000000000E+00 0. -1.
</event>
<event>
 7    1  0.6285940E-013  0.5930164E+02  0.7816164E-02  0.1266606E+00
        -11   -1    0    0    0    0  0.00000000000E+00  0.00000000000E+00  0.45593999997E+02  0.45594000000E+02  0.51100000000E-03 0. -1.
         11   -1    0    0    0    0 -0.00000000000E+00 -0.00000000000E+00 -0.45593999997E+02  0.45594000000E+02  0.51100000000E-03 0.  1.
    9900012    2    1    2    0    0  0.16519177774E+02 -0.13738872081E+02  0.23560564901E+02  0.59301638356E+02  0.49999442526E+02 0.  0.
        -12    1    1    2    0    0 -0.16519177774E+02  0.13738872081E+02 -0.23560564901E+02  0.31886361644E+02  0.00000000000E+00 0.  1.
         11    1    3    3    0    0  0.11328975282E+02 -0.12764532101E+01  0.72883630411E+01  0.13531269335E+02  0.51100000000E-03 0. -1.
        -11    1    3    3    0    0  0.62386807063E+01 -0.23092263083E+02  0.22969628196E+02  0.33162894490E+02  0.51100000000E-03 0.  1.
        -12    1    3    3    0    0 -0.10484782146E+01  0.10629844212E+02 -0.66974263353E+01  0.12607474531E+02  0.00000000000E+00 0.  1.
</event>
<event>
 7    1  0.6285940E-013  0.5930192E+02  0.7816164E-02  0.1266605E+00
        -11   -1    0    0    0    0  0.00000000000E+00  0.00000000000E+00  0.45593999997E+02  0.45594000000E+02  0.51100000000E-03 0.  1.
         11   -1    0    0    0    0 -0.00000000000E+00 -0.00000000000E+00 -0.45593999997E+02  0.45594000000E+02  0.51100000000E-03 0. -1.
    9900012    2    1    2    0    0 -0.24356455747E+02  0.17602685310E+02 -0.10659752364E+02  0.59301924871E+02  0.49999965063E+02 0.  0.
        -12    1    1    2    0    0  0.24356455747E+02 -0.17602685310E+02  0.10659752364E+02  0.31886075129E+02  0.00000000000E+00 0.  1.
         11    1    3    3    0    0  0.73880531380E+01  0.40226181961E+01 -0.35796703199E+00  0.84197937611E+01  0.51100000000E-03 0. -1.
        -11    1    3    3    0    0 -0.24027834819E+01  0.72821911394E+01 -0.18285472197E+02  0.19828317376E+02  0.51100000000E-03 0.  1.
        -12    1    3    3    0    0 -0.29341725403E+02  0.62978759742E+01  0.79836868651E+01  0.31053813734E+02  0.00000000000E+00 0.  1.
</event>
<event>
 7    1  0.6285940E-013  0.5930197E+02  0.7816164E-02  0.1266605E+00
        -11   -1    0    0    0    0  0.00000000000E+00  0.00000000000E+00  0.45593999997E+02  0.45594000000E+02  0.51100000000E-03 0.  1.
         11   -1    0    0    0    0 -0.00000000000E+00 -0.00000000000E+00 -0.45593999997E+02  0.45594000000E+02  0.51100000000E-03 0. -1.
    9900012    2    1    2    0    0 -0.92021735881E+01 -0.30525311612E+02 -0.49422647241E+00  0.59301970025E+02  0.50000047414E+02 0.  0.
        -12    1    1    2    0    0  0.92021735881E+01  0.30525311612E+02  0.49422647241E+00  0.31886029975E+02  0.00000000000E+00 0.  1.
         11    1    3    3    0    0 -0.41355984271E+01  0.65959710657E+01 -0.35132682524E+01  0.85412565073E+01  0.51100000000E-03 0. -1.
        -11    1    3    3    0    0 -0.85773680998E+01 -0.44881001088E+01 -0.11362057501E+02  0.14926842835E+02  0.51100000000E-03 0.  1.
        -12    1    3    3    0    0  0.35107929387E+01 -0.32633182568E+02  0.14381099281E+02  0.35833870683E+02  0.00000000000E+00 0.  1.
</event>
<event>
 7    1  0.6285940E-013  0.5930195E+02  0.7816164E-02  0.1266605E+00
        -11   -1    0    0    0    0  0.00000000000E+00  0.00000000000E+00  0.45593999997E+02  0.45594000000E+02  0.51100000000E-03 0.  1.
         11   -1    0    0    0    0 -0.00000000000E+00 -0.00000000000E+00 -0.45593999997E+02  0.45594000000E+02  0.51100000000E-03 0. -1.
    9900012    2    1    2    0    0  0.30008874425E+02 -0.90136362206E+01 -0.59111898531E+01  0.59301947443E+02  0.50000006229E+02 0.  0.
        -12    1    1    2    0    0 -0.30008874425E+02  0.90136362206E+01  0.59111898531E+01  0.31886052557E+02  0.00000000000E+00 0.  1.
         11    1    3    3    0    0  0.17342314510E+02  0.43623928428E+01 -0.25993161737E+01  0.18070494977E+02  0.51100000000E-03 0. -1.
        -11    1    3    3    0    0  0.87780625600E+01  0.11601268413E+02 -0.61499081111E+01  0.15794466789E+02  0.51100000000E-03 0.  1.
        -12    1    3    3    0    0  0.38884973548E+01 -0.24977297477E+02  0.28380344317E+01  0.25436985678E+02  0.00000000000E+00 0.  1.
</event>
<event>
 7    1  0.6285940E-013  0.5930194E+02  0.7816164E-02  0.1266605E+00
        -11   -1    0    0    0    0  0.00000000000E+00  0.00000000000E+00  0.45593999997E+02  0.45594000000E+02  0.51100000000E-03 0.  1.
         11   -1    0    0    0    0 -0.00000000000E+00 -0.00000000000E+00 -0.45593999997E+02  0.45594000000E+02  0.51100000000E-03 0. -1.
    9900012    2    1    2    0    0  0.30359501892E+02 -0.32296513882E+01 -0.91973144472E+01  0.59301943545E+02  0.49999999120E+02 0.  0.
        -12    1    1    2    0    0 -0.30359501892E+02  0.32296513882E+01  0.91973144472E+01  0.31886056455E+02  0.00000000000E+00 0.  1.
         11    1    3    3    0    0 -0.22186389209E+01  0.16532352545E+01 -0.17016413123E+00  0.27720933535E+01  0.51100000000E-03 0. -1.
        -11    1    3    3    0    0  0.31704300898E+01 -0.21515376900E+02 -0.62629450937E+01  0.22631560963E+02  0.51100000000E-03 0.  1.
         12    1    3    3    0    0  0.29407710723E+02  0.16632490257E+02 -0.27642052223E+01  0.33898289229E+02  0.00000000000E+00 0. -1.
</event>
<event>
 7    1  0.6285940E-013  0.5930165E+02  0.7816164E-02  0.1266606E+00
        -11   -1    0    0    0    0  0.00000000000E+00  0.00000000000E+00  0.45593999997E+02  0.45594000000E+02  0.51100000000E-03 0.  1.
         11   -1    0    0    0    0 -0.00000000000E+00 -0.00000000000E+00 -0.45593999997E+02  0.45594000000E+02  0.51100000000E-03 0. -1.
    9900012    2    1    2    0    0  0.99117063126E+01 -0.27084695880E+02 -0.13598406268E+02  0.59301649848E+02  0.49999463485E+02 0.  0.
        -12    1    1    2    0    0 -0.99117063126E+01  0.27084695880E+02  0.13598406268E+02  0.31886350152E+02  0.00000000000E+00 0.  1.
         11    1    3    3    0    0 -0.79909044888E+01 -0.15983300883E+02 -0.75606584122E+00  0.17885527599E+02  0.51100000000E-03 0. -1.
        -11    1    3    3    0    0  0.24230277758E+00  0.19636582547E+00  0.10233862628E+02  0.10238613906E+02  0.51100000000E-03 0.  1.
         12    1    3    3    0    0  0.17660308024E+02 -0.11297760822E+02 -0.23076203054E+02  0.31177508343E+02  0.00000000000E+00 0. -1.
</event>
<event>
 7    1  0.6285940E-013  0.5930195E+02  0.7816164E-02  0.1266605E+00
        -11   -1    0    0    0    0  0.00000000000E+00  0.00000000000E+00  0.45593999997E+02  0.45594000000E+02  0.51100000000E-03 0.  1.
         11   -1    0    0    0    0 -0.00000000000E+00 -0.00000000000E+00 -0.45593999997E+02  0.45594000000E+02  0.51100000000E-03 0. -1.
    9900012    2    1    2    0    0 -0.26234543778E+02 -0.58588768134E+01 -0.17150582357E+02  0.59301949759E+02  0.50000010453E+02 0.  0.
        -12    1    1    2    0    0  0.26234543778E+02  0.58588768134E+01  0.17150582357E+02  0.31886050241E+02  0.00000000000E+00 0.  1.
         11    1    3    3    0    0  0.10034124571E+01 -0.25315781552E+01  0.47958991824E+01  0.55151041463E+01  0.51100000000E-03 0. -1.
        -11    1    3    3    0    0 -0.64320551388E+01  0.12602999751E+02  0.60958904131E+01  0.15406713349E+02  0.51100000000E-03 0.  1.
         12    1    3    3    0    0 -0.20805901097E+02 -0.15930298409E+02 -0.28042371952E+02  0.38380132264E+02  0.00000000000E+00 0. -1.
</event>
<event>
 7    1  0.6285940E-013  0.5930195E+02  0.7816164E-02  0.1266605E+00
        -11   -1    0    0    0    0  0.00000000000E+00  0.00000000000E+00  0.45593999997E+02  0.45594000000E+02  0.51100000000E-03 0.  1.
         11   -1    0    0    0    0 -0.00000000000E+00 -0.00000000000E+00 -0.45593999997E+02  0.45594000000E+02  0.51100000000E-03 0. -1.
    9900012    2    1    2    0    0 -0.82463152825E+01  0.12778819452E+02 -0.28025354978E+02  0.59301945619E+02  0.50000002902E+02 0.  0.
        -12    1    1    2    0    0  0.82463152825E+01 -0.12778819452E+02  0.28025354978E+02  0.31886054381E+02  0.00000000000E+00 0.  1.
         11    1    3    3    0    0  0.16848449280E+02  0.94590238959E+01 -0.17827440293E+02  0.26289941115E+02  0.51100000000E-03 0. -1.
        -11    1    3    3    0    0 -0.31300126305E+01 -0.62428566965E+01 -0.20328649532E-01  0.69835988083E+01  0.51100000000E-03 0.  1.
        -12    1    3    3    0    0 -0.21964751932E+02  0.95626522527E+01 -0.10177586036E+02  0.26028405696E+02  0.00000000000E+00 0.  1.
</event>
<event>
 7    1  0.6285940E-013  0.5930194E+02  0.7816164E-02  0.1266605E+00
        -11   -1    0    0    0    0  0.00000000000E+00  0.00000000000E+00  0.45593999997E+02  0.45594000000E+02  0.51100000000E-03 0. -1.
         11   -1    0    0    0    0 -0.00000000000E+00 -0.00000000000E+00 -0.45593999997E+02  0.45594000000E+02  0.51100000000E-03 0.  1.
    9900012    2    1    2    0    0  0.23723246734E+02  0.16385770695E+02  0.13617454847E+02  0.59301937318E+02  0.49999987763E+02 0.  0.
        -12    1    1    2    0    0 -0.23723246734E+02 -0.16385770695E+02 -0.13617454847E+02  0.31886062682E+02  0.00000000000E+00 0.  1.
         11    1    3    3    0    0  0.52823001219E+01  0.27516405638E+01  0.28422307524E+00  0.59628016392E+01  0.51100000000E-03 0. -1.
        -11    1    3    3    0    0  0.11500833625E+02  0.13869104676E+01 -0.16610856492E+02  0.20251253007E+02  0.51100000000E-03 0.  1.
        -12    1    3    3    0    0  0.69401129872E+01  0.12247219664E+02  0.29944088263E+02  0.33087882672E+02  0.00000000000E+00 0.  1.
</event>
<event>
 7    1  0.6285940E-013  0.5930194E+02  0.7816164E-02  0.1266605E+00
        -11   -1    0    0    0    0  0.00000000000E+00  0.00000000000E+00  0.45593999997E+02  0.45594000000E+02  0.51100000000E-03 0. -1.
         11   -1    0    0    0    0 -0.00000000000E+00 -0.00000000000E+00 -0.45593999997E+02  0.45594000000E+02  0.51100000000E-03 0.  1.
    9900012    2    1    2    0    0  0.11205408658E+02  0.28712616215E+02 -0.81697763203E+01  0.59301941005E+02  0.49999994488E+02 0.  0.
        -12    1    1    2    0    0 -0.11205408658E+02 -0.28712616215E+02  0.81697763203E+01  0.31886058995E+02  0.00000000000E+00 0.  1.
         11    1    3    3    0    0  0.16491062465E+01  0.15584438245E+02 -0.14529458333E+01  0.15738656826E+02  0.51100000000E-03 0. -1.
        -11    1    3    3    0    0  0.22436184883E+02  0.28142223555E+00  0.34841675905E+01  0.22706849510E+02  0.51100000000E-03 0.  1.
         12    1    3    3    0    0 -0.12879882471E+02  0.12846755734E+02 -0.10200998078E+02  0.20856434670E+02  0.00000000000E+00 0. -1.
</event>
<event>
 7    1  0.6285940E-013  0.5930193E+02  0.7816164E-02  0.1266605E+00
        -11   -1    0    0    0    0  0.00000000000E+00  0.00000000000E+00  0.45593999997E+02  0.45594000000E+02  0.51100000000E-03 0.  1.
         11   -1    0    0    0    0 -0.00000000000E+00 -0.00000000000E+00 -0.45593999997E+02  0.45594000000E+02  0.51100000000E-03 0. -1.
    9900012    2    1    2    0    0 -0.82050848128E+00 -0.31474174101E+01 -0.31719745640E+02  0.59301925704E+02  0.49999966582E+02 0.  0.
        -12    1    1    2    0    0  0.82050848128E+00  0.31474174101E+01  0.31719745640E+02  0.31886074296E+02  0.00000000000E+00 0.  1.
         11    1    3    3    0    0 -0.36737050263E+01  0.68810573224E+01 -0.15253842008E+02  0.17132564162E+02  0.51100000000E-03 0. -1.
        -11    1    3    3    0    0  0.57204290187E+01  0.13045993731E+02 -0.10759397946E+01  0.14285618898E+02  0.51100000000E-03 0.  1.
        -12    1    3    3    0    0 -0.28672324737E+01 -0.23074468464E+02 -0.15389963838E+02  0.27883742645E+02  0.00000000000E+00 0.  1.
</event>
<event>
 7    1  0.6285940E-013  0.5930195E+02  0.7816164E-02  0.1266605E+00
        -11   -1    0    0    0    0  0.00000000000E+00  0.00000000000E+00  0.45593999997E+02  0.45594000000E+02  0.51100000000E-03 0.  1.
         11   -1    0    0    0    0 -0.00000000000E+00 -0.00000000000E+00 -0.45593999997E+02  0.45594000000E+02  0.51100000000E-03 0. -1.
    9900012    2    1    2    0    0 -0.24974438523E+02 -0.19214193285E+02  0.48797959451E+01  0.59301949577E+02  0.50000010120E+02 0.  0.
        -12    1    1    2    0    0  0.24974438523E+02  0.19214193285E+02 -0.48797959451E+01  0.31886050423E+02  0.00000000000E+00 0.  1.
         11    1    3    3    0    0 -0.14606484840E+02  0.72762630322E+01 -0.64596724296E+01  0.17550520541E+02  0.51100000000E-03 0. -1.
        -11    1    3    3    0    0 -0.13471801369E+02 -0.83186212210E+01 -0.55218002896E+01  0.16768397951E+02  0.51100000000E-03 0.  1.
        -12    1    3    3    0    0  0.31038476861E+01 -0.18171835096E+02  0.16861268664E+02  0.24983031085E+02  0.00000000000E+00 0.  1.
</event>
<event>
 7    1  0.6285940E-013  0.5930192E+02  0.7816164E-02  0.1266605E+00
        -11   -1    0    0    0    0  0.00000000000E+00  0.00000000000E+00  0.45593999997E+02  0.45594000000E+02  0.51100000000E-03 0.  1.
         11   -1    0    0    0    0 -0.00000000000E+00 -0.00000000000E+00 -0.45593999997E+02  0.45594000000E+02  0.51100000000E-03 0. -1.
    9900012    2    1    2    0    0 -0.80242396807E+01  0.11909582626E+02 -0.28469197543E+02  0.59301924833E+02  0.49999964994E+02 0.  0.
        -12    1    1    2    0    0  0.80242396807E+01 -0.11909582626E+02  0.28469197543E+02  0.31886075167E+02  0.00000000000E+00 0.  1.
         11    1    3    3    0    0  0.59494489531E+01  0.68673589769E+01 -0.15907987512E+01  0.92242724966E+01  0.51100000000E-03 0. -1.
        -11    1    3    3    0    0 -0.48327912318E+01 -0.10865252088E+02  0.53134895071E+01  0.13024697503E+02  0.51100000000E-03 0.  1.
        -12    1    3    3    0    0 -0.91408974021E+01  0.15907475738E+02 -0.32191888299E+02  0.37052954834E+02  0.00000000000E+00 0.  1.
</event>
<event>
 7    1  0.6285940E-013  0.5930201E+02  0.7816164E-02  0.1266605E+00
        -11   -1    0    0    0    0  0.00000000000E+00  0.00000000000E+00  0.45593999997E+02  0.45594000000E+02  0.51100000000E-03 0.  1.
         11   -1    0    0    0    0 -0.00000000000E+00 -0.00000000000E+00 -0.45593999997E+02  0.45594000000E+02  0.51100000000E-03 0. -1.
    9900012    2    1    2    0    0 -0.17121608034E+01  0.22083141964E+02 -0.22937301687E+02  0.59302008369E+02  0.50000117343E+02 0.  0.
        -12    1    1    2    0    0  0.17121608034E+01 -0.22083141964E+02  0.22937301687E+02  0.31885991631E+02  0.00000000000E+00 0.  1.
         11    1    3    3    0    0  0.19401839357E+01  0.92318947770E+01 -0.33582399936E+02  0.34882227288E+02  0.51100000000E-03 0. -1.
        -11    1    3    3    0    0  0.43396279649E+01 -0.10204272626E+01  0.65013782288E+01  0.78829919324E+01  0.51100000000E-03 0.  1.
        -12    1    3    3    0    0 -0.79919727039E+01  0.13871674450E+02  0.41437200197E+01  0.16536789148E+02  0.00000000000E+00 0.  1.
</event>
<event>
 7    1  0.6285940E-013  0.5930194E+02  0.7816164E-02  0.1266605E+00
        -11   -1    0    0    0    0  0.00000000000E+00  0.00000000000E+00  0.45593999997E+02  0.45594000000E+02  0.51100000000E-03 0.  1.
         11   -1    0    0    0    0 -0.00000000000E+00 -0.00000000000E+00 -0.45593999997E+02  0.45594000000E+02  0.51100000000E-03 0. -1.
    9900012    2    1    2    0    0  0.20193047404E+02  0.10167452635E+02 -0.22485213064E+02  0.59301936225E+02  0.49999985769E+02 0.  0.
        -12    1    1    2    0    0 -0.20193047404E+02 -0.10167452635E+02  0.22485213064E+02  0.31886063775E+02  0.00000000000E+00 0.  1.
         11    1    3    3    0    0  0.57753912991E+01  0.25752831466E+01 -0.17916073457E+02  0.18999287258E+02  0.51100000000E-03 0. -1.
        -11    1    3    3    0    0 -0.21974297091E+01 -0.83081574845E+01 -0.13189897459E+02  0.15742540245E+02  0.51100000000E-03 0.  1.
        -12    1    3    3    0    0  0.16615085814E+02  0.15900326973E+02  0.86207578522E+01  0.24560108722E+02  0.00000000000E+00 0.  1.
</event>
<event>
 7    1  0.9306328E-013  0.5930194E+02  0.7816164E-02  0.1266605E+00
        -11   -1    0    0    0    0  0.00000000000E+00  0.00000000000E+00  0.45593999997E+02  0.45594000000E+02  0.51100000000E-03 0. -1.
         11   -1    0    0    0    0 -0.00000000000E+00 -0.00000000000E+00 -0.45593999997E+02  0.45594000000E+02  0.51100000000E-03 0.  1.
    9900012    2    1    2    0    0 -0.25350309859E+02  0.44171193843E+01  0.18830073088E+02  0.59301940254E+02  0.49999993118E+02 0.  0.
        -12    1    1    2    0    0  0.25350309859E+02 -0.44171193843E+01 -0.18830073088E+02  0.31886059746E+02  0.00000000000E+00 0.  1.
         11    1    3    3    0    0 -0.24293640632E+02  0.12590326729E+01  0.14221399252E+02  0.28178259978E+02  0.51100000000E-03 0. -1.
        -11    1    3    3    0    0 -0.54476816247E+01  0.14232178765E+02  0.98111999149E+01  0.18124342513E+02  0.51100000000E-03 0.  1.
        -12    1    3    3    0    0  0.43910123973E+01 -0.11074092054E+02 -0.52025260790E+01  0.12999337764E+02  0.00000000000E+00 0.  1.
</event>
<event>
 7    1  0.6285940E-013  0.5930197E+02  0.7816164E-02  0.1266605E+00
        -11   -1    0    0    0    0  0.00000000000E+00  0.00000000000E+00  0.45593999997E+02  0.45594000000E+02  0.51100000000E-03 0. -1.
         11   -1    0    0    0    0 -0.00000000000E+00 -0.00000000000E+00 -0.45593999997E+02  0.45594000000E+02  0.51100000000E-03 0.  1.
    9900012    2    1    2    0    0  0.30753707591E+02  0.67491864734E+01 -0.50375618689E+01  0.59301967349E+02  0.50000042533E+02 0.  0.
        -12    1    1    2    0    0 -0.30753707591E+02 -0.67491864734E+01  0.50375618689E+01  0.31886032651E+02  0.00000000000E+00 0.  1.
         11    1    3    3    0    0  0.10868291467E+02 -0.58562092965E+01  0.74000707341E+01  0.14393609480E+02  0.51100000000E-03 0. -1.
        -11    1    3    3    0    0  0.14376378153E+02 -0.11347415453E+02 -0.28941879402E+01  0.18542394946E+02  0.51100000000E-03 0.  1.
         12    1    3    3    0    0  0.55090379708E+01  0.23952811222E+02 -0.95434446628E+01  0.26365962923E+02  0.00000000000E+00 0. -1.
</event>
<event>
 7    1  0.6285940E-013  0.5930194E+02  0.7816164E-02  0.1266605E+00
        -11   -1    0    0    0    0  0.00000000000E+00  0.00000000000E+00  0.45593999997E+02  0.45594000000E+02  0.51100000000E-03 0. -1.
         11   -1    0    0    0    0 -0.00000000000E+00 -0.00000000000E+00 -0.45593999997E+02  0.45594000000E+02  0.51100000000E-03 0.  1.
    9900012    2    1    2    0    0 -0.24049078546E+02 -0.16807698891E+02  0.12484547622E+02  0.59301939562E+02  0.49999991856E+02 0.  0.
        -12    1    1    2    0    0  0.24049078546E+02  0.16807698891E+02 -0.12484547622E+02  0.31886060438E+02  0.00000000000E+00 0.  1.
         11    1    3    3    0    0 -0.28315254039E+02 -0.71221637867E+01  0.15759751036E+02  0.33179038282E+02  0.51100000000E-03 0. -1.
        -11    1    3    3    0    0 -0.23089005670E+01  0.27207092532E+01 -0.99541589575E+01  0.10574429606E+02  0.51100000000E-03 0.  1.
        -12    1    3    3    0    0  0.65750760606E+01 -0.12406244358E+02  0.66789555434E+01  0.15548471675E+02  0.00000000000E+00 0.  1.
</event>
<event>
 7    1  0.6285940E-013  0.5930194E+02  0.7816164E-02  0.1266605E+00
        -11   -1    0    0    0    0  0.00000000000E+00  0.00000000000E+00  0.45593999997E+02  0.45594000000E+02  0.51100000000E-03 0. -1.
         11   -1    0    0    0    0 -0.00000000000E+00 -0.00000000000E+00 -0.45593999997E+02  0.45594000000E+02  0.51100000000E-03 0.  1.
    9900012    2    1    2    0    0  0.14103843903E+02 -0.28324878961E+02  0.39374283479E+01  0.59301944694E+02  0.50000001214E+02 0.  0.
        -12    1    1    2    0    0 -0.14103843903E+02  0.28324878961E+02 -0.39374283479E+01  0.31886055306E+02  0.00000000000E+00 0.  1.
         11    1    3    3    0    0  0.80335905302E+01 -0.11713059956E+02  0.16545221067E+02  0.21805473871E+02  0.51100000000E-03 0. -1.
        -11    1    3    3    0    0 -0.96845724902E+01 -0.16902152598E+02 -0.57468201190E+01  0.20310087358E+02  0.51100000000E-03 0.  1.
        -12    1    3    3    0    0  0.15754825863E+02  0.29033359236E+00 -0.68609725997E+01  0.17186383464E+02  0.00000000000E+00 0.  1.
</event>
<event>
 7    1  0.6285940E-013  0.5930217E+02  0.7816164E-02  0.1266604E+00
        -11   -1    0    0    0    0  0.00000000000E+00  0.00000000000E+00  0.45593999997E+02  0.45594000000E+02  0.51100000000E-03 0.  1.
         11   -1    0    0    0    0 -0.00000000000E+00 -0.00000000000E+00 -0.45593999997E+02  0.45594000000E+02  0.51100000000E-03 0. -1.
    9900012    2    1    2    0    0  0.78383941096E+01 -0.24417635769E+02 -0.18948473345E+02  0.59302172413E+02  0.50000416519E+02 0.  0.
        -12    1    1    2    0    0 -0.78383941096E+01  0.24417635769E+02  0.18948473345E+02  0.31885827587E+02  0.00000000000E+00 0.  1.
         11    1    3    3    0    0  0.11569692350E+02 -0.73359995142E+00 -0.14253072562E+02  0.18372425743E+02  0.51100000000E-03 0. -1.
        -11    1    3    3    0    0  0.11898997510E+02  0.41736224521E+00 -0.69568846179E+00  0.11926622141E+02  0.51100000000E-03 0.  1.
        -12    1    3    3    0    0 -0.15630295751E+02 -0.24101398063E+02 -0.39997123214E+01  0.29003124530E+02  0.00000000000E+00 0.  1.
</event>
<event>
 7    1  0.6285940E-013  0.5930195E+02  0.7816164E-02  0.1266605E+00
        -11   -1    0    0    0    0  0.00000000000E+00  0.00000000000E+00  0.45593999997E+02  0.45594000000E+02  0.51100000000E-03 0.  1.
         11   -1    0    0    0    0 -0.00000000000E+00 -0.00000000000E+00 -0.45593999997E+02  0.45594000000E+02  0.51100000000E-03 0. -1.
    9900012    2    1    2    0    0 -0.78399397559E+01  0.30905134727E+02  0.35795796542E+00  0.59301950672E+02  0.50000012117E+02 0.  0.
        -12    1    1    2    0    0  0.78399397559E+01 -0.30905134727E+02 -0.35795796542E+00  0.31886049328E+02  0.00000000000E+00 0.  1.
         11    1    3    3    0    0 -0.18974899850E+02  0.10719821161E+02 -0.94462583405E+01  0.23752751144E+02  0.51100000000E-03 0.  1.
        -11    1    3    3    0    0  0.12610924229E+02  0.12473301295E+01 -0.25003124768E+01  0.12916764499E+02  0.51100000000E-03 0. -1.
        -12    1    3    3    0    0 -0.14759641358E+01  0.18937983436E+02  0.12304528783E+02  0.22632435029E+02  0.00000000000E+00 0.  1.
</event>
<event>
 7    1  0.6285940E-013  0.5930196E+02  0.7816164E-02  0.1266605E+00
        -11   -1    0    0    0    0  0.00000000000E+00  0.00000000000E+00  0.45593999997E+02  0.45594000000E+02  0.51100000000E-03 0.  1.
         11   -1    0    0    0    0 -0.00000000000E+00 -0.00000000000E+00 -0.45593999997E+02  0.45594000000E+02  0.51100000000E-03 0. -1.
    9900012    2    1    2    0    0  0.95216832485E+01 -0.13350191573E+02 -0.27346473094E+02  0.59301958264E+02  0.50000025963E+02 0.  0.
        -12    1    1    2    0    0 -0.95216832485E+01  0.13350191573E+02  0.27346473094E+02  0.31886041736E+02  0.00000000000E+00 0.  1.
         11    1    3    3    0    0 -0.74221325972E+01 -0.47618071895E+01  0.60083263358E+01  0.10670653477E+02  0.51100000000E-03 0. -1.
        -11    1    3    3    0    0  0.17683343363E+02  0.69685898548E+01 -0.13113865931E+02  0.23091889420E+02  0.51100000000E-03 0.  1.
         12    1    3    3    0    0 -0.73952751728E+00 -0.15556974238E+02 -0.20240933499E+02  0.25539415367E+02  0.00000000000E+00 0. -1.
</event>
<event>
 7    1  0.6285940E-013  0.5930187E+02  0.7816164E-02  0.1266605E+00
        -11   -1    0    0    0    0  0.00000000000E+00  0.00000000000E+00  0.45593999997E+02  0.45594000000E+02  0.51100000000E-03 0.  1.
         11   -1    0    0    0    0 -0.00000000000E+00 -0.00000000000E+00 -0.45593999997E+02  0.45594000000E+02  0.51100000000E-03 0. -1.
    9900012    2    1    2    0    0  0.28862220953E+02  0.64408136726E+01  0.11925331253E+02  0.59301868146E+02  0.49999861610E+02 0.  0.
        -12    1    1    2    0    0 -0.28862220953E+02 -0.64408136726E+01 -0.11925331253E+02  0.31886131854E+02  0.00000000000E+00 0.  1.
         11    1    3    3    0    0 -0.90553541187E+01 -0.56036665188E+01 -0.42118300019E+01  0.11451638699E+02  0.51100000000E-03 0. -1.
        -11    1    3    3    0    0  0.12590336289E+02 -0.33072540855E+01 -0.19270038943E+01  0.13159325276E+02  0.51100000000E-03 0.  1.
        -12    1    3    3    0    0  0.25327238783E+02  0.15351734277E+02  0.18064165149E+02  0.34690904171E+02  0.00000000000E+00 0.  1.
</event>
<event>
 7    1  0.6285940E-013  0.5930194E+02  0.7816164E-02  0.1266605E+00
        -11   -1    0    0    0    0  0.00000000000E+00  0.00000000000E+00  0.45593999997E+02  0.45594000000E+02  0.51100000000E-03 0. -1.
         11   -1    0    0    0    0 -0.00000000000E+00 -0.00000000000E+00 -0.45593999997E+02  0.45594000000E+02  0.51100000000E-03 0.  1.
    9900012    2    1    2    0    0  0.44577387127E+01 -0.20749754220E+02  0.23796994995E+02  0.59301941833E+02  0.49999995997E+02 0.  0.
        -12    1    1    2    0    0 -0.44577387127E+01  0.20749754220E+02 -0.23796994995E+02  0.31886058167E+02  0.00000000000E+00 0.  1.
         11    1    3    3    0    0 -0.26952473996E+00  0.45042425970E+01 -0.25975737781E+00  0.45197698077E+01  0.51100000000E-03 0. -1.
        -11    1    3    3    0    0 -0.56305426299E+01 -0.50250486812E+01 -0.10797291593E+02  0.13173292320E+02  0.51100000000E-03 0.  1.
         12    1    3    3    0    0  0.10357806083E+02 -0.20228948136E+02  0.34854043966E+02  0.41608879705E+02  0.00000000000E+00 0. -1.
</event>
<event>
 7    1  0.6285940E-013  0.5930196E+02  0.7816164E-02  0.1266605E+00
        -11   -1    0    0    0    0  0.00000000000E+00  0.00000000000E+00  0.45593999997E+02  0.45594000000E+02  0.51100000000E-03 0. -1.
         11   -1    0    0    0    0 -0.00000000000E+00 -0.00000000000E+00 -0.45593999997E+02  0.45594000000E+02  0.51100000000E-03 0.  1.
    9900012    2    1    2    0    0  0.57156741976E+01  0.19880954178E+02  0.24265166360E+02  0.59301959653E+02  0.50000028497E+02 0.  0.
        -12    1    1    2    0    0 -0.57156741976E+01 -0.19880954178E+02 -0.24265166360E+02  0.31886040347E+02  0.00000000000E+00 0.  1.
         11    1    3    3    0    0 -0.56802722261E+01 -0.71648298598E+01  0.66014347397E+01  0.11277376484E+02  0.51100000000E-03 0. -1.
        -11    1    3    3    0    0 -0.99514008218E+01  0.18610925200E+02  0.45502469821E+01  0.21589387740E+02  0.51100000000E-03 0.  1.
         12    1    3    3    0    0  0.21347347245E+02  0.84348588378E+01  0.13113484638E+02  0.26435195429E+02  0.00000000000E+00 0. -1.
</event>
<event>
 7    1  0.6285940E-013  0.5930193E+02  0.7816164E-02  0.1266605E+00
        -11   -1    0    0    0    0  0.00000000000E+00  0.00000000000E+00  0.45593999997E+02  0.45594000000E+02  0.51100000000E-03 0. -1.
         11   -1    0    0    0    0 -0.00000000000E+00 -0.00000000000E+00 -0.45593999997E+02  0.45594000000E+02  0.51100000000E-03 0.  1.
    9900012    2    1    2    0    0  0.21842499208E+02 -0.17632250675E+02  0.15123828322E+02  0.59301933785E+02  0.49999981320E+02 0.  0.
        -12    1    1    2    0    0 -0.21842499208E+02  0.17632250675E+02 -0.15123828322E+02  0.31886066215E+02  0.00000000000E+00 0.  1.
         11    1    3    3    0    0 -0.38918793728E+01 -0.18283164683E+02 -0.65001104191E+01  0.19790711750E+02  0.51100000000E-03 0. -1.
        -11    1    3    3    0    0  0.13312631275E+02 -0.91179553936E+01  0.16037343728E+02  0.22749937497E+02  0.51100000000E-03 0.  1.
        -12    1    3    3    0    0  0.12421747306E+02  0.97688694012E+01  0.55865950132E+01  0.16761284538E+02  0.00000000000E+00 0.  1.
</event>
<event>
 7    1  0.6285940E-013  0.5930196E+02  0.7816164E-02  0.1266605E+00
        -11   -1    0    0    0    0  0.00000000000E+00  0.00000000000E+00  0.45593999997E+02  0.45594000000E+02  0.51100000000E-03 0.  1.
         11   -1    0    0    0    0 -0.00000000000E+00 -0.00000000000E+00 -0.45593999997E+02  0.45594000000E+02  0.51100000000E-03 0. -1.
    9900012    2    1    2    0    0 -0.18368765198E+02  0.17942540634E+01 -0.26001702790E+02  0.59301961824E+02  0.50000032457E+02 0.  0.
        -12    1    1    2    0    0  0.18368765198E+02 -0.17942540634E+01  0.26001702790E+02  0.31886038176E+02  0.00000000000E+00 0.  1.
         11    1    3    3    0    0  0.78075367287E+01 -0.15010723125E+02 -0.74116491281E+01  0.18471924144E+02  0.51100000000E-03 0.  1.
        -11    1    3    3    0    0 -0.10446201818E+02 -0.31531634673E+01 -0.48443992199E+01  0.11938751037E+02  0.51100000000E-03 0. -1.
        -12    1    3    3    0    0 -0.15730100109E+02  0.19958140656E+02 -0.13745654442E+02  0.28891286644E+02  0.00000000000E+00 0.  1.
</event>
<event>
 7    1  0.6285940E-013  0.5930196E+02  0.7816164E-02  0.1266605E+00
        -11   -1    0    0    0    0  0.00000000000E+00  0.00000000000E+00  0.45593999997E+02  0.45594000000E+02  0.51100000000E-03 0.  1.
         11   -1    0    0    0    0 -0.00000000000E+00 -0.00000000000E+00 -0.45593999997E+02  0.45594000000E+02  0.51100000000E-03 0. -1.
    9900012    2    1    2    0    0  0.72900135410E+01  0.79356085125E+01 -0.30010022354E+02  0.59301958828E+02  0.50000026993E+02 0.  0.
        -12    1    1    2    0    0 -0.72900135410E+01 -0.79356085125E+01  0.30010022354E+02  0.31886041172E+02  0.00000000000E+00 0.  1.
         11    1    3    3    0    0 -0.46807638367E+01 -0.33695790972E+01 -0.58847133721E+01  0.82397490932E+01  0.51100000000E-03 0. -1.
        -11    1    3    3    0    0  0.69781691125E+01 -0.93286656780E+01  0.68467972341E+01  0.13512863506E+02  0.51100000000E-03 0.  1.
         12    1    3    3    0    0  0.49926082651E+01  0.20633853288E+02 -0.30972106216E+02  0.37549346230E+02  0.00000000000E+00 0. -1.
</event>
<event>
 7    1  0.6285940E-013  0.5930195E+02  0.7816164E-02  0.1266605E+00
        -11   -1    0    0    0    0  0.00000000000E+00  0.00000000000E+00  0.45593999997E+02  0.45594000000E+02  0.51100000000E-03 0.  1.
         11   -1    0    0    0    0 -0.00000000000E+00 -0.00000000000E+00 -0.45593999997E+02  0.45594000000E+02  0.51100000000E-03 0. -1.
    9900012    2    1    2    0    0 -0.25999319394E+02  0.16967603061E+02  0.72702280541E+01  0.59301946959E+02  0.50000005346E+02 0.  0.
        -12    1    1    2    0    0  0.25999319394E+02 -0.16967603061E+02 -0.72702280541E+01  0.31886053041E+02  0.00000000000E+00 0.  1.
         11    1    3    3    0    0  0.56414263594E+01  0.39832275631E+01 -0.42589339231E+01  0.81135880848E+01  0.51100000000E-03 0. -1.
        -11    1    3    3    0    0 -0.17182688273E+02  0.25152856510E+02  0.10653299209E+02  0.32270787892E+02  0.51100000000E-03 0.  1.
        -12    1    3    3    0    0 -0.14458057481E+02 -0.12168481012E+02  0.87586276778E+00  0.18917570982E+02  0.00000000000E+00 0.  1.
</event>
<event>
 7    1  0.6285940E-013  0.5930194E+02  0.7816164E-02  0.1266605E+00
        -11   -1    0    0    0    0  0.00000000000E+00  0.00000000000E+00  0.45593999997E+02  0.45594000000E+02  0.51100000000E-03 0.  1.
         11   -1    0    0    0    0 -0.00000000000E+00 -0.00000000000E+00 -0.45593999997E+02  0.45594000000E+02  0.51100000000E-03 0. -1.
    9900012    2    1    2    0    0  0.21884871636E+02  0.21882878966E+02 -0.76754570911E+01  0.59301942860E+02  0.49999997871E+02 0.  0.
        -12    1    1    2    0    0 -0.21884871636E+02 -0.21882878966E+02  0.76754570911E+01  0.31886057140E+02  0.00000000000E+00 0.  1.
         11    1    3    3    0    0  0.13158665655E+02  0.91546554479E+01 -0.18203697139E+02  0.24255572308E+02  0.51100000000E-03 0. -1.
        -11    1    3    3    0    0 -0.20252231702E+01  0.40867288795E+00 -0.91963649891E+01  0.94255860132E+01  0.51100000000E-03 0.  1.
        -12    1    3    3    0    0  0.10751429151E+02  0.12319550630E+02  0.19724605037E+02  0.25620784539E+02  0.00000000000E+00 0.  1.
</event>
<event>
 7    1  0.6285940E-013  0.5930196E+02  0.7816164E-02  0.1266605E+00
        -11   -1    0    0    0    0  0.00000000000E+00  0.00000000000E+00  0.45593999997E+02  0.45594000000E+02  0.51100000000E-03 0. -1.
         11   -1    0    0    0    0 -0.00000000000E+00 -0.00000000000E+00 -0.45593999997E+02  0.45594000000E+02  0.51100000000E-03 0.  1.
    9900012    2    1    2    0    0 -0.10038616821E+02  0.14826381534E+02  0.26384163352E+02  0.59301960848E+02  0.50000030675E+02 0.  0.
        -12    1    1    2    0    0  0.10038616821E+02 -0.14826381534E+02 -0.26384163352E+02  0.31886039152E+02  0.00000000000E+00 0.  1.
         11    1    3    3    0    0  0.61158508137E+01  0.22326039956E+01 -0.13737902516E+01  0.66539801392E+01  0.51100000000E-03 0. -1.
        -11    1    3    3    0    0 -0.12623055293E+02  0.57505750066E+01 -0.80388377903E+01  0.16032265939E+02  0.51100000000E-03 0.  1.
         12    1    3    3    0    0 -0.35314123411E+01  0.68432025313E+01  0.35796791394E+02  0.36615714770E+02  0.00000000000E+00 0. -1.
</event>
<event>
 7    1  0.6285940E-013  0.5930196E+02  0.7816164E-02  0.1266605E+00
        -11   -1    0    0    0    0  0.00000000000E+00  0.00000000000E+00  0.45593999997E+02  0.45594000000E+02  0.51100000000E-03 0.  1.
         11   -1    0    0    0    0 -0.00000000000E+00 -0.00000000000E+00 -0.45593999997E+02  0.45594000000E+02  0.51100000000E-03 0. -1.
    9900012    2    1    2    0    0 -0.26251783422E+02 -0.15881516187E+02  0.86799052151E+01  0.59301961617E+02  0.50000032078E+02 0.  0.
        -12    1    1    2    0    0  0.26251783422E+02  0.15881516187E+02 -0.86799052151E+01  0.31886038383E+02  0.00000000000E+00 0.  1.
         11    1    3    3    0    0 -0.16520576171E+02  0.70800484636E+01 -0.34639963797E+01  0.18304529342E+02  0.51100000000E-03 0.  1.
        -11    1    3    3    0    0 -0.73418761525E+01  0.61507480107E+01  0.54873146608E+01  0.11038363510E+02  0.51100000000E-03 0. -1.
        -12    1    3    3    0    0 -0.23893310986E+01 -0.29112312662E+02  0.66565869341E+01  0.29959068764E+02  0.00000000000E+00 0.  1.
</event>
<event>
 7    1  0.6285940E-013  0.5930232E+02  0.7816164E-02  0.1266603E+00
        -11   -1    0    0    0    0  0.00000000000E+00  0.00000000000E+00  0.45593999997E+02  0.45594000000E+02  0.51100000000E-03 0.  1.
         11   -1    0    0    0    0 -0.00000000000E+00 -0.00000000000E+00 -0.45593999997E+02  0.45594000000E+02  0.51100000000E-03 0. -1.
    9900012    2    1    2    0    0  0.93298106186E+01  0.25557541011E+02 -0.16627194818E+02  0.59302315497E+02  0.50000677466E+02 0.  0.
        -12    1    1    2    0    0 -0.93298106186E+01 -0.25557541011E+02  0.16627194818E+02  0.31885684503E+02  0.00000000000E+00 0.  1.
         11    1    3    3    0    0  0.62647897488E+01 -0.11993254072E+01  0.31524878371E+01  0.71150651335E+01  0.51100000000E-03 0. -1.
        -11    1    3    3    0    0  0.56276717724E+01  0.18896959650E+02  0.94113808608E+01  0.21848108924E+02  0.51100000000E-03 0.  1.
         12    1    3    3    0    0 -0.25626509026E+01  0.78599067677E+01 -0.29191063516E+02  0.30339141439E+02  0.00000000000E+00 0. -1.
</event>
<event>
 7    1  0.6285940E-013  0.5930193E+02  0.7816164E-02  0.1266605E+00
        -11   -1    0    0    0    0  0.00000000000E+00  0.00000000000E+00  0.45593999997E+02  0.45594000000E+02  0.51100000000E-03 0.  1.
         11   -1    0    0    0    0 -0.00000000000E+00 -0.00000000000E+00 -0.45593999997E+02  0.45594000000E+02  0.51100000000E-03 0. -1.
    9900012    2    1    2    0    0 -0.22218304384E+02  0.20231420228E+02  0.10665746421E+02  0.59301928419E+02  0.49999971534E+02 0.  0.
        -12    1    1    2    0    0  0.22218304384E+02 -0.20231420228E+02 -0.10665746421E+02  0.31886071581E+02  0.00000000000E+00 0.  1.
         11    1    3    3    0    0  0.40771331486E+01  0.68239442525E+00 -0.51119786931E+01  0.65742682698E+01  0.51100000000E-03 0. -1.
        -11    1    3    3    0    0 -0.32738286259E+01 -0.11286243230E+02  0.24532627543E+01  0.12004821470E+02  0.51100000000E-03 0.  1.
        -12    1    3    3    0    0 -0.23021608907E+02  0.30835269032E+02  0.13324462360E+02  0.40722838680E+02  0.00000000000E+00 0.  1.
</event>
<event>
 7    1  0.6285940E-013  0.5930195E+02  0.7816164E-02  0.1266605E+00
        -11   -1    0    0    0    0  0.00000000000E+00  0.00000000000E+00  0.45593999997E+02  0.45594000000E+02  0.51100000000E-03 0.  1.
         11   -1    0    0    0    0 -0.00000000000E+00 -0.00000000000E+00 -0.45593999997E+02  0.45594000000E+02  0.51100000000E-03 0. -1.
    9900012    2    1    2    0    0 -0.23399656782E+02 -0.20883745892E+02 -0.57485160456E+01  0.59301949496E+02  0.50000009974E+02 0.  0.
        -12    1    1    2    0    0  0.23399656782E+02  0.20883745892E+02  0.57485160456E+01  0.31886050504E+02  0.00000000000E+00 0.  1.
         11    1    3    3    0    0 -0.25418398834E+01 -0.41015853136E+01 -0.22520849655E+02  0.23031991263E+02  0.51100000000E-03 0. -1.
        -11    1    3    3    0    0  0.27271052666E+01 -0.23960918379E+01 -0.53600361291E+00  0.36695584700E+01  0.51100000000E-03 0.  1.
        -12    1    3    3    0    0 -0.23584922165E+02 -0.14386068740E+02  0.17308337222E+02  0.32600399764E+02  0.00000000000E+00 0.  1.
</event>
<event>
 7    1  0.6285940E-013  0.5930195E+02  0.7816164E-02  0.1266605E+00
        -11   -1    0    0    0    0  0.00000000000E+00  0.00000000000E+00  0.45593999997E+02  0.45594000000E+02  0.51100000000E-03 0. -1.
         11   -1    0    0    0    0 -0.00000000000E+00 -0.00000000000E+00 -0.45593999997E+02  0.45594000000E+02  0.51100000000E-03 0.  1.
    9900012    2    1    2    0    0 -0.78065297755E+01  0.26501869036E+02  0.15919456508E+02  0.59301951875E+02  0.50000014312E+02 0.  0.
        -12    1    1    2    0    0  0.78065297755E+01 -0.26501869036E+02 -0.15919456508E+02  0.31886048125E+02  0.00000000000E+00 0.  1.
         11    1    3    3    0    0 -0.10981813745E+02  0.22553877207E+02  0.10523553096E+02  0.27203359723E+02  0.51100000000E-03 0. -1.
        -11    1    3    3    0    0 -0.25990498669E+01  0.45412610306E+01  0.17719733848E+02  0.18476121884E+02  0.51100000000E-03 0.  1.
         12    1    3    3    0    0  0.57743338364E+01 -0.59326920180E+00 -0.12323830436E+02  0.13622470268E+02  0.00000000000E+00 0. -1.
</event>
<event>
 7    1  0.6285940E-013  0.5930233E+02  0.7816164E-02  0.1266603E+00
        -11   -1    0    0    0    0  0.00000000000E+00  0.00000000000E+00  0.45593999997E+02  0.45594000000E+02  0.51100000000E-03 0.  1.
         11   -1    0    0    0    0 -0.00000000000E+00 -0.00000000000E+00 -0.45593999997E+02  0.45594000000E+02  0.51100000000E-03 0. -1.
    9900012    2    1    2    0    0 -0.11904101036E+02  0.27047818264E+02 -0.11975124855E+02  0.59302333791E+02  0.50000710830E+02 0.  0.
        -12    1    1    2    0    0  0.11904101036E+02 -0.27047818264E+02  0.11975124855E+02  0.31885666209E+02  0.00000000000E+00 0.  1.
         11    1    3    3    0    0 -0.12413710428E+02  0.23795735871E+02 -0.94000186198E+01  0.28437608946E+02  0.51100000000E-03 0. -1.
        -11    1    3    3    0    0  0.40484087258E+01  0.13544463831E+02 -0.10323331347E+02  0.17504664637E+02  0.51100000000E-03 0.  1.
        -12    1    3    3    0    0 -0.35387993336E+01 -0.10292381438E+02  0.77482251126E+01  0.13360060209E+02  0.00000000000E+00 0.  1.
</event>
<event>
 7    1  0.6285940E-013  0.5930194E+02  0.7816164E-02  0.1266605E+00
        -11   -1    0    0    0    0  0.00000000000E+00  0.00000000000E+00  0.45593999997E+02  0.45594000000E+02  0.51100000000E-03 0. -1.
         11   -1    0    0    0    0 -0.00000000000E+00 -0.00000000000E+00 -0.45593999997E+02  0.45594000000E+02  0.51100000000E-03 0.  1.
    9900012    2    1    2    0    0  0.10191394342E+02 -0.26835694633E+02  0.13881695935E+02  0.59301944943E+02  0.50000001669E+02 0.  0.
        -12    1    1    2    0    0 -0.10191394342E+02  0.26835694633E+02 -0.13881695935E+02  0.31886055057E+02  0.00000000000E+00 0.  1.
         11    1    3    3    0    0  0.99244603555E+01 -0.13329503677E+02  0.19088329919E+02  0.25308791378E+02  0.51100000000E-03 0. -1.
        -11    1    3    3    0    0 -0.16549219119E+01  0.76373029467E+01  0.61238950266E+01  0.99282049431E+01  0.51100000000E-03 0.  1.
        -12    1    3    3    0    0  0.19218558983E+01 -0.21143493903E+02 -0.11330529011E+02  0.24064948622E+02  0.00000000000E+00 0.  1.
</event>
<event>
 7    1  0.6285940E-013  0.5930197E+02  0.7816164E-02  0.1266605E+00
        -11   -1    0    0    0    0  0.00000000000E+00  0.00000000000E+00  0.45593999997E+02  0.45594000000E+02  0.51100000000E-03 0.  1.
         11   -1    0    0    0    0 -0.00000000000E+00 -0.00000000000E+00 -0.45593999997E+02  0.45594000000E+02  0.51100000000E-03 0. -1.
    9900012    2    1    2    0    0 -0.55499964374E+00 -0.31879494265E+02 -0.32955314716E+00  0.59301971955E+02  0.50000050933E+02 0.  0.
        -12    1    1    2    0    0  0.55499964374E+00  0.31879494265E+02  0.32955314716E+00  0.31886028045E+02  0.00000000000E+00 0.  1.
         11    1    3    3    0    0 -0.85655387034E+01 -0.14628741404E+01 -0.42566652759E+01  0.96761383600E+01  0.51100000000E-03 0. -1.
        -11    1    3    3    0    0 -0.16818976217E+01 -0.11912559151E+02 -0.16492661002E+02  0.20414350647E+02  0.51100000000E-03 0.  1.
        -12    1    3    3    0    0  0.96924366814E+01 -0.18504060973E+02  0.20419773131E+02  0.29211482948E+02  0.00000000000E+00 0.  1.
</event>
<event>
 7    1  0.6285940E-013  0.5930193E+02  0.7816164E-02  0.1266605E+00
        -11   -1    0    0    0    0  0.00000000000E+00  0.00000000000E+00  0.45593999997E+02  0.45594000000E+02  0.51100000000E-03 0.  1.
         11   -1    0    0    0    0 -0.00000000000E+00 -0.00000000000E+00 -0.45593999997E+02  0.45594000000E+02  0.51100000000E-03 0. -1.
    9900012    2    1    2    0    0  0.24400617927E+02  0.98087619863E+00 -0.20502912365E+02  0.59301926413E+02  0.49999967875E+02 0.  0.
        -12    1    1    2    0    0 -0.24400617927E+02 -0.98087619863E+00  0.20502912365E+02  0.31886073587E+02  0.00000000000E+00 0.  1.
         11    1    3    3    0    0  0.23642116623E+02  0.12210312193E+02 -0.16708122282E+02  0.31419782824E+02  0.51100000000E-03 0. -1.
        -11    1    3    3    0    0  0.10599265973E+02  0.20250265773E+01  0.57200935003E+00  0.10806126353E+02  0.51100000000E-03 0.  1.
        -12    1    3    3    0    0 -0.98407646695E+01 -0.13254462572E+02 -0.43667994335E+01  0.17076017236E+02  0.00000000000E+00 0.  1.
</event>
<event>
 7    1  0.6285940E-013  0.5930202E+02  0.7816164E-02  0.1266605E+00
        -11   -1    0    0    0    0  0.00000000000E+00  0.00000000000E+00  0.45593999997E+02  0.45594000000E+02  0.51100000000E-03 0. -1.
         11   -1    0    0    0    0 -0.00000000000E+00 -0.00000000000E+00 -0.45593999997E+02  0.45594000000E+02  0.51100000000E-03 0.  1.
    9900012    2    1    2    0    0 -0.10570999970E+02  0.16283127186E+02  0.25294853713E+02  0.59302017254E+02  0.50000133546E+02 0.  0.
        -12    1    1    2    0    0  0.10570999970E+02 -0.16283127186E+02 -0.25294853713E+02  0.31885982746E+02  0.00000000000E+00 0.  1.
         11    1    3    3    0    0  0.88907887723E+01  0.10088789844E+02 -0.16043484171E+01  0.13542663682E+02  0.51100000000E-03 0. -1.
        -11    1    3    3    0    0 -0.77521556328E+01  0.48719229510E+00 -0.63606916123E+01  0.10039505532E+02  0.51100000000E-03 0.  1.
         12    1    3    3    0    0 -0.11709633110E+02  0.57071450468E+01  0.33259893743E+02  0.35719848039E+02  0.00000000000E+00 0. -1.
</event>
<event>
 7    1  0.6285940E-013  0.5930195E+02  0.7816164E-02  0.1266605E+00
        -11   -1    0    0    0    0  0.00000000000E+00  0.00000000000E+00  0.45593999997E+02  0.45594000000E+02  0.51100000000E-03 0.  1.
         11   -1    0    0    0    0 -0.00000000000E+00 -0.00000000000E+00 -0.45593999997E+02  0.45594000000E+02  0.51100000000E-03 0. -1.
    9900012    2    1    2    0    0 -0.26813129815E+02 -0.11815507201E+02 -0.12576558573E+02  0.59301953421E+02  0.50000017132E+02 0.  0.
        -12    1    1    2    0    0  0.26813129815E+02  0.11815507201E+02  0.12576558573E+02  0.31886046579E+02  0.00000000000E+00 0.  1.
         11    1    3    3    0    0 -0.85086457808E+01  0.11392366248E+01 -0.12125740942E+01  0.86697894614E+01  0.51100000000E-03 0. -1.
        -11    1    3    3    0    0 -0.17990393611E+02 -0.15242609177E+01  0.13975674457E+02  0.22831931815E+02  0.51100000000E-03 0.  1.
        -12    1    3    3    0    0 -0.31409042285E+00 -0.11430482909E+02 -0.25339658936E+02  0.27800232145E+02  0.00000000000E+00 0.  1.
</event>
<event>
 7    1  0.6285940E-013  0.5930195E+02  0.7816164E-02  0.1266605E+00
        -11   -1    0    0    0    0  0.00000000000E+00  0.00000000000E+00  0.45593999997E+02  0.45594000000E+02  0.51100000000E-03 0. -1.
         11   -1    0    0    0    0 -0.00000000000E+00 -0.00000000000E+00 -0.45593999997E+02  0.45594000000E+02  0.51100000000E-03 0.  1.
    9900012    2    1    2    0    0 -0.87638715219E+01  0.26024632791E+02 -0.16205962603E+02  0.59301950074E+02  0.50000011027E+02 0.  0.
        -12    1    1    2    0    0  0.87638715219E+01 -0.26024632791E+02  0.16205962603E+02  0.31886049926E+02  0.00000000000E+00 0.  1.
         11    1    3    3    0    0 -0.12676805448E+02  0.11042276209E+02  0.59793221589E+01  0.17843361622E+02  0.51100000000E-03 0. -1.
        -11    1    3    3    0    0  0.33376818310E+01  0.23111247179E+02 -0.23585964128E+02  0.33189871502E+02  0.51100000000E-03 0.  1.
         12    1    3    3    0    0  0.57525209548E+00 -0.81288905969E+01  0.14006793663E+01  0.82687169498E+01  0.00000000000E+00 0. -1.
</event>
<event>
 7    1  0.6285940E-013  0.5930194E+02  0.7816164E-02  0.1266605E+00
        -11   -1    0    0    0    0  0.00000000000E+00  0.00000000000E+00  0.45593999997E+02  0.45594000000E+02  0.51100000000E-03 0. -1.
         11   -1    0    0    0    0 -0.00000000000E+00 -0.00000000000E+00 -0.45593999997E+02  0.45594000000E+02  0.51100000000E-03 0.  1.
    9900012    2    1    2    0    0 -0.28511028641E+01 -0.31666174913E+02  0.24177256457E+01  0.59301940061E+02  0.49999992766E+02 0.  0.
        -12    1    1    2    0    0  0.28511028641E+01  0.31666174913E+02 -0.24177256457E+01  0.31886059939E+02  0.00000000000E+00 0.  1.
         11    1    3    3    0    0 -0.55594685410E+01 -0.16194036423E+02  0.19280437259E+02  0.25785456507E+02  0.51100000000E-03 0. -1.
        -11    1    3    3    0    0 -0.94651143933E+01 -0.41720569630E+01 -0.74273329990E+00  0.10370443713E+02  0.51100000000E-03 0.  1.
        -12    1    3    3    0    0  0.12173480070E+02 -0.11300081526E+02 -0.16119978313E+02  0.23146039841E+02  0.00000000000E+00 0.  1.
</event>
<event>
 7    1  0.6285940E-013  0.5930189E+02  0.7816164E-02  0.1266605E+00
        -11   -1    0    0    0    0  0.00000000000E+00  0.00000000000E+00  0.45593999997E+02  0.45594000000E+02  0.51100000000E-03 0.  1.
         11   -1    0    0    0    0 -0.00000000000E+00 -0.00000000000E+00 -0.45593999997E+02  0.45594000000E+02  0.51100000000E-03 0. -1.
    9900012    2    1    2    0    0 -0.29224947348E+02  0.11626766513E+02 -0.52387776783E+01  0.59301889567E+02  0.49999900676E+02 0.  0.
        -12    1    1    2    0    0  0.29224947348E+02 -0.11626766513E+02  0.52387776783E+01  0.31886110433E+02  0.00000000000E+00 0.  1.
         11    1    3    3    0    0 -0.30333643085E+02  0.90829497844E+01 -0.12862290085E+02  0.34177015465E+02  0.51100000000E-03 0. -1.
        -11    1    3    3    0    0 -0.36882940894E+01  0.28929569020E+01 -0.77274692676E+01  0.90380581138E+01  0.51100000000E-03 0.  1.
        -12    1    3    3    0    0  0.47969898269E+01 -0.34914017360E+00  0.15350981674E+02  0.16086815988E+02  0.00000000000E+00 0.  1.
</event>
<event>
 7    1  0.6285940E-013  0.5930194E+02  0.7816164E-02  0.1266605E+00
        -11   -1    0    0    0    0  0.00000000000E+00  0.00000000000E+00  0.45593999997E+02  0.45594000000E+02  0.51100000000E-03 0.  1.
         11   -1    0    0    0    0 -0.00000000000E+00 -0.00000000000E+00 -0.45593999997E+02  0.45594000000E+02  0.51100000000E-03 0. -1.
    9900012    2    1    2    0    0  0.25945932350E+02 -0.13832915384E+02 -0.12336110245E+02  0.59301943965E+02  0.49999999885E+02 0.  0.
        -12    1    1    2    0    0 -0.25945932350E+02  0.13832915384E+02  0.12336110245E+02  0.31886056035E+02  0.00000000000E+00 0.  1.
         11    1    3    3    0    0  0.11692014471E+02 -0.99051596816E+01 -0.24624570536E+02  0.29003187153E+02  0.51100000000E-03 0. -1.
        -11    1    3    3    0    0  0.54588828481E+01  0.91519743545E+01  0.59486169356E+00  0.10672951664E+02  0.51100000000E-03 0.  1.
        -12    1    3    3    0    0  0.87950350300E+01 -0.13079730057E+02  0.11693598597E+02  0.19625805147E+02  0.00000000000E+00 0.  1.
</event>
<event>
 7    1  0.6285940E-013  0.5930185E+02  0.7816164E-02  0.1266605E+00
        -11   -1    0    0    0    0  0.00000000000E+00  0.00000000000E+00  0.45593999997E+02  0.45594000000E+02  0.51100000000E-03 0. -1.
         11   -1    0    0    0    0 -0.00000000000E+00 -0.00000000000E+00 -0.45593999997E+02  0.45594000000E+02  0.51100000000E-03 0.  1.
    9900012    2    1    2    0    0 -0.99833034588E+01  0.79547991912E+01  0.29219533187E+02  0.59301854140E+02  0.49999836066E+02 0.  0.
        -12    1    1    2    0    0  0.99833034588E+01 -0.79547991912E+01 -0.29219533187E+02  0.31886145860E+02  0.00000000000E+00 0.  1.
         11    1    3    3    0    0 -0.10795474795E+02  0.82154172355E+01  0.12247923536E+02  0.18276952361E+02  0.51100000000E-03 0. -1.
        -11    1    3    3    0    0 -0.15692949324E+02 -0.85058238983E+01  0.13182082834E+02  0.22189750039E+02  0.51100000000E-03 0.  1.
        -12    1    3    3    0    0  0.16505120660E+02  0.82452058539E+01  0.37895268175E+01  0.18835151740E+02  0.00000000000E+00 0.  1.
</event>
<event>
 7    1  0.6285940E-013  0.5930194E+02  0.7816164E-02  0.1266605E+00
        -11   -1    0    0    0    0  0.00000000000E+00  0.00000000000E+00  0.45593999997E+02  0.45594000000E+02  0.51100000000E-03 0.  1.
         11   -1    0    0    0    0 -0.00000000000E+00 -0.00000000000E+00 -0.45593999997E+02  0.45594000000E+02  0.51100000000E-03 0. -1.
    9900012    2    1    2    0    0 -0.17815803222E+02  0.15255718211E+02 -0.21600480104E+02  0.59301944689E+02  0.50000001207E+02 0.  0.
        -12    1    1    2    0    0  0.17815803222E+02 -0.15255718211E+02  0.21600480104E+02  0.31886055311E+02  0.00000000000E+00 0.  1.
         11    1    3    3    0    0 -0.75823571343E+01  0.10977961503E+02 -0.15324560032E+02  0.20318708593E+02  0.51100000000E-03 0. -1.
        -11    1    3    3    0    0 -0.10140026494E+01  0.93483289031E+01 -0.19757924630E+02  0.21881385711E+02  0.51100000000E-03 0.  1.
        -12    1    3    3    0    0 -0.92194434379E+01 -0.50705721957E+01  0.13482004558E+02  0.17101850386E+02  0.00000000000E+00 0.  1.
</event>
<event>
 7    1  0.6285940E-013  0.5930194E+02  0.7816164E-02  0.1266605E+00
        -11   -1    0    0    0    0  0.00000000000E+00  0.00000000000E+00  0.45593999997E+02  0.45594000000E+02  0.51100000000E-03 0. -1.
         11   -1    0    0    0    0 -0.00000000000E+00 -0.00000000000E+00 -0.45593999997E+02  0.45594000000E+02  0.51100000000E-03 0.  1.
    9900012    2    1    2    0    0  0.98122394433E+01 -0.27996778949E+02 -0.11688503200E+02  0.59301940641E+02  0.49999993823E+02 0.  0.
        -12    1    1    2    0    0 -0.98122394433E+01  0.27996778949E+02  0.11688503200E+02  0.31886059359E+02  0.00000000000E+00 0.  1.
         11    1    3    3    0    0  0.83308849185E+01  0.12057836861E+02 -0.38345244150E+01  0.15149212885E+02  0.51100000000E-03 0. -1.
        -11    1    3    3    0    0  0.37707279630E+01 -0.35773169890E+01 -0.54401788146E+01  0.75240369488E+01  0.51100000000E-03 0.  1.
         12    1    3    3    0    0 -0.22893734382E+01 -0.36477298820E+02 -0.24137999703E+01  0.36628690807E+02  0.00000000000E+00 0. -1.
</event>
<event>
 7    1  0.6285940E-013  0.5930195E+02  0.7816164E-02  0.1266605E+00
        -11   -1    0    0    0    0  0.00000000000E+00  0.00000000000E+00  0.45593999997E+02  0.45594000000E+02  0.51100000000E-03 0.  1.
         11   -1    0    0    0    0 -0.00000000000E+00 -0.00000000000E+00 -0.45593999997E+02  0.45594000000E+02  0.51100000000E-03 0. -1.
    9900012    2    1    2    0    0 -0.90690100114E+01 -0.54933511169E+01 -0.30071520871E+02  0.59301949499E+02  0.50000009977E+02 0.  0.
        -12    1    1    2    0    0  0.90690100114E+01  0.54933511169E+01  0.30071520871E+02  0.31886050501E+02  0.00000000000E+00 0.  1.
         11    1    3    3    0    0 -0.23189267599E+02  0.18615914253E+01 -0.23111532371E+02  0.32792538529E+02  0.51100000000E-03 0. -1.
        -11    1    3    3    0    0  0.43189336926E+01 -0.13388076905E+02 -0.36388125122E+01  0.14530476531E+02  0.51100000000E-03 0.  1.
        -12    1    3    3    0    0  0.98013238950E+01  0.60331343628E+01 -0.33211759883E+01  0.11978934438E+02  0.00000000000E+00 0.  1.
</event>
<event>
 7    1  0.6285940E-013  0.5930197E+02  0.7816164E-02  0.1266605E+00
        -11   -1    0    0    0    0  0.00000000000E+00  0.00000000000E+00  0.45593999997E+02  0.45594000000E+02  0.51100000000E-03 0.  1.
         11   -1    0    0    0    0 -0.00000000000E+00 -0.00000000000E+00 -0.45593999997E+02  0.45594000000E+02  0.51100000000E-03 0. -1.
    9900012    2    1    2    0    0  0.17608541104E+02  0.40627503481E+01 -0.26270748206E+02  0.59301970591E+02  0.50000048445E+02 0.  0.
        -12    1    1    2    0    0 -0.17608541104E+02 -0.40627503481E+01  0.26270748206E+02  0.31886029409E+02  0.00000000000E+00 0.  1.
         11    1    3    3    0    0  0.53077078465E+01  0.84248105323E+01 -0.67204912475E+01  0.12013084448E+02  0.51100000000E-03 0. -1.
        -11    1    3    3    0    0 -0.90288067024E+01  0.53781708693E+01  0.64074310343E+01  0.12308502959E+02  0.51100000000E-03 0.  1.
         12    1    3    3    0    0  0.21329639960E+02 -0.97402310534E+01 -0.25957687992E+02  0.34980383184E+02  0.00000000000E+00 0. -1.
</event>
<event>
 7    1  0.6285940E-013  0.5930195E+02  0.7816164E-02  0.1266605E+00
        -11   -1    0    0    0    0  0.00000000000E+00  0.00000000000E+00  0.45593999997E+02  0.45594000000E+02  0.51100000000E-03 0.  1.
         11   -1    0    0    0    0 -0.00000000000E+00 -0.00000000000E+00 -0.45593999997E+02  0.45594000000E+02  0.51100000000E-03 0. -1.
    9900012    2    1    2    0    0 -0.19156593562E+02 -0.15673273190E+02 -0.20102072171E+02  0.59301954855E+02  0.50000019747E+02 0.  0.
        -12    1    1    2    0    0  0.19156593562E+02  0.15673273190E+02  0.20102072171E+02  0.31886045145E+02  0.00000000000E+00 0.  1.
         11    1    3    3    0    0 -0.69858625320E+01  0.52050140589E+01 -0.38146542210E+01  0.95103119695E+01  0.51100000000E-03 0. -1.
        -11    1    3    3    0    0 -0.21754305918E+02 -0.26522557864E+02 -0.63687587106E+01  0.34889210214E+02  0.51100000000E-03 0.  1.
         12    1    3    3    0    0  0.95835748885E+01  0.56442706148E+01 -0.99186592396E+01  0.14902432671E+02  0.00000000000E+00 0. -1.
</event>
<event>
 7    1  0.6285940E-013  0.5930188E+02  0.7816164E-02  0.1266605E+00
        -11   -1    0    0    0    0  0.00000000000E+00  0.00000000000E+00  0.45593999997E+02  0.45594000000E+02  0.51100000000E-03 0. -1.
         11   -1    0    0    0    0 -0.00000000000E+00 -0.00000000000E+00 -0.45593999997E+02  0.45594000000E+02  0.51100000000E-03 0.  1.
    9900012    2    1    2    0    0 -0.22931641394E+02  0.87967910162E+01  0.20334238489E+02  0.59301875053E+02  0.49999874206E+02 0.  0.
        -12    1    1    2    0    0  0.22931641394E+02 -0.87967910162E+01 -0.20334238489E+02  0.31886124947E+02  0.00000000000E+00 0.  1.
         11    1    3    3    0    0  0.43089041261E+01  0.81724974384E+01  0.28683516133E+01  0.96738725641E+01  0.51100000000E-03 0.  1.
        -11    1    3    3    0    0 -0.23059601433E+02  0.14248676378E+02  0.27222978402E-01  0.27106654868E+02  0.51100000000E-03 0. -1.
         12    1    3    3    0    0 -0.41809440872E+01 -0.13624382800E+02  0.17438663898E+02  0.22521347621E+02  0.00000000000E+00 0. -1.
</event>
<event>
 7    1  0.6285940E-013  0.5930199E+02  0.7816164E-02  0.1266605E+00
        -11   -1    0    0    0    0  0.00000000000E+00  0.00000000000E+00  0.45593999997E+02  0.45594000000E+02  0.51100000000E-03 0.  1.
         11   -1    0    0    0    0 -0.00000000000E+00 -0.00000000000E+00 -0.45593999997E+02  0.45594000000E+02  0.51100000000E-03 0. -1.
    9900012    2    1    2    0    0 -0.23876255950E+02  0.94105401396E+01 -0.18923096985E+02  0.59301992670E+02  0.50000088712E+02 0.  0.
        -12    1    1    2    0    0  0.23876255950E+02 -0.94105401396E+01  0.18923096985E+02  0.31886007330E+02  0.00000000000E+00 0.  1.
         11    1    3    3    0    0  0.93138294664E+01  0.74372596706E+01 -0.90070168425E+01  0.14939431161E+02  0.51100000000E-03 0. -1.
        -11    1    3    3    0    0 -0.97153776051E+00 -0.43131403930E+01  0.63419330259E+01  0.77309236470E+01  0.51100000000E-03 0.  1.
        -12    1    3    3    0    0 -0.32218547656E+02  0.62864208619E+01 -0.16258013168E+02  0.36631637863E+02  0.00000000000E+00 0.  1.
</event>
<event>
 7    1  0.6285940E-013  0.5930194E+02  0.7816164E-02  0.1266605E+00
        -11   -1    0    0    0    0  0.00000000000E+00  0.00000000000E+00  0.45593999997E+02  0.45594000000E+02  0.51100000000E-03 0. -1.
         11   -1    0    0    0    0 -0.00000000000E+00 -0.00000000000E+00 -0.45593999997E+02  0.45594000000E+02  0.51100000000E-03 0.  1.
    9900012    2    1    2    0    0  0.27200834205E+01  0.28905275452E+02  0.13183579693E+02  0.59301943858E+02  0.49999999690E+02 0.  0.
        -12    1    1    2    0    0 -0.27200834205E+01 -0.28905275452E+02 -0.13183579693E+02  0.31886056142E+02  0.00000000000E+00 0.  1.
         11    1    3    3    0    0  0.14293632143E+01 -0.57640556133E+01 -0.44051837566E+01  0.73941233762E+01  0.51100000000E-03 0. -1.
        -11    1    3    3    0    0 -0.15856838340E+02  0.13104278243E+02  0.11933835407E+02  0.23781880880E+02  0.51100000000E-03 0.  1.
         12    1    3    3    0    0  0.17147558546E+02  0.21565052822E+02  0.56549280427E+01  0.28125939602E+02  0.00000000000E+00 0. -1.
</event>
<event>
 7    1  0.6285940E-013  0.5930193E+02  0.7816164E-02  0.1266605E+00
        -11   -1    0    0    0    0  0.00000000000E+00  0.00000000000E+00  0.45593999997E+02  0.45594000000E+02  0.51100000000E-03 0.  1.
         11   -1    0    0    0    0 -0.00000000000E+00 -0.00000000000E+00 -0.45593999997E+02  0.45594000000E+02  0.51100000000E-03 0. -1.
    9900012    2    1    2    0    0  0.24962418015E+02  0.15142430591E+02 -0.12818178315E+02  0.59301933879E+02  0.49999981491E+02 0.  0.
        -12    1    1    2    0    0 -0.24962418015E+02 -0.15142430591E+02  0.12818178315E+02  0.31886066121E+02  0.00000000000E+00 0.  1.
         11    1    3    3    0    0 -0.23952736911E+00  0.91473579917E+01 -0.14115139275E+01  0.92587203985E+01  0.51100000000E-03 0. -1.
        -11    1    3    3    0    0  0.15830351839E+02 -0.11529118393E+02  0.90054331769E+01  0.21555009562E+02  0.51100000000E-03 0.  1.
         12    1    3    3    0    0  0.93715935457E+01  0.17524190992E+02 -0.20412097565E+02  0.28488203918E+02  0.00000000000E+00 0. -1.
</event>
<event>
 7    1  0.6285940E-013  0.5930193E+02  0.7816164E-02  0.1266605E+00
        -11   -1    0    0    0    0  0.00000000000E+00  0.00000000000E+00  0.45593999997E+02  0.45594000000E+02  0.51100000000E-03 0. -1.
         11   -1    0    0    0    0 -0.00000000000E+00 -0.00000000000E+00 -0.45593999997E+02  0.45594000000E+02  0.51100000000E-03 0.  1.
    9900012    2    1    2    0    0 -0.96420007657E+01 -0.30388539607E+02 -0.53830440810E+00  0.59301932668E+02  0.49999979283E+02 0.  0.
        -12    1    1    2    0    0  0.96420007657E+01  0.30388539607E+02  0.53830440810E+00  0.31886067332E+02  0.00000000000E+00 0.  1.
         11    1    3    3    0    0 -0.17280889373E+00  0.11802115091E+02 -0.11404499582E+01  0.11858347689E+02  0.51100000000E-03 0. -1.
        -11    1    3    3    0    0  0.56206667769E+01 -0.60129536960E+01 -0.26952239263E+00  0.82352990079E+01  0.51100000000E-03 0.  1.
         12    1    3    3    0    0 -0.15089858649E+02 -0.36177701002E+02  0.87166794274E+00  0.39208285972E+02  0.00000000000E+00 0. -1.
</event>
<event>
 7    1  0.6285940E-013  0.5930195E+02  0.7816164E-02  0.1266605E+00
        -11   -1    0    0    0    0  0.00000000000E+00  0.00000000000E+00  0.45593999997E+02  0.45594000000E+02  0.51100000000E-03 0. -1.
         11   -1    0    0    0    0 -0.00000000000E+00 -0.00000000000E+00 -0.45593999997E+02  0.45594000000E+02  0.51100000000E-03 0.  1.
    9900012    2    1    2    0    0  0.29181423836E+02  0.11406440581E+02 -0.59209736332E+01  0.59301947993E+02  0.50000007232E+02 0.  0.
        -12    1    1    2    0    0 -0.29181423836E+02 -0.11406440581E+02  0.59209736332E+01  0.31886052007E+02  0.00000000000E+00 0.  1.
         11    1    3    3    0    0  0.55502692856E+01 -0.49735435502E+01  0.72315225492E+01  0.10384437550E+02  0.51100000000E-03 0. -1.
        -11    1    3    3    0    0  0.37829913281E+01  0.22640663784E+02  0.21938388024E+01  0.23059132875E+02  0.51100000000E-03 0.  1.
         12    1    3    3    0    0  0.19848163222E+02 -0.62606796531E+01 -0.15346334985E+02  0.25858377569E+02  0.00000000000E+00 0. -1.
</event>
<event>
 7    1  0.6285940E-013  0.5930194E+02  0.7816164E-02  0.1266605E+00
        -11   -1    0    0    0    0  0.00000000000E+00  0.00000000000E+00  0.45593999997E+02  0.45594000000E+02  0.51100000000E-03 0.  1.
         11   -1    0    0    0    0 -0.00000000000E+00 -0.00000000000E+00 -0.45593999997E+02  0.45594000000E+02  0.51100000000E-03 0. -1.
    9900012    2    1    2    0    0  0.10754165994E+01  0.73061321601E+01 -0.31019099642E+02  0.59301943006E+02  0.49999998136E+02 0.  0.
        -12    1    1    2    0    0 -0.10754165994E+01 -0.73061321601E+01  0.31019099642E+02  0.31886056994E+02  0.00000000000E+00 0.  1.
         11    1    3    3    0    0 -0.72729090115E+01  0.74191217417E+01 -0.28497308977E+02  0.30332081895E+02  0.51100000000E-03 0. -1.
        -11    1    3    3    0    0  0.39733922322E+01  0.29790036314E+01 -0.14780056091E+02  0.15592061018E+02  0.51100000000E-03 0.  1.
        -12    1    3    3    0    0  0.43749333786E+01 -0.30919932130E+01  0.12258265425E+02  0.13377800093E+02  0.00000000000E+00 0.  1.
</event>
<event>
 7    1  0.6285940E-013  0.5930204E+02  0.7816164E-02  0.1266604E+00
        -11   -1    0    0    0    0  0.00000000000E+00  0.00000000000E+00  0.45593999997E+02  0.45594000000E+02  0.51100000000E-03 0. -1.
         11   -1    0    0    0    0 -0.00000000000E+00 -0.00000000000E+00 -0.45593999997E+02  0.45594000000E+02  0.51100000000E-03 0.  1.
    9900012    2    1    2    0    0  0.47292585436E+01 -0.31252643683E+02 -0.41977113578E+01  0.59302040642E+02  0.50000176201E+02 0.  0.
        -12    1    1    2    0    0 -0.47292585436E+01  0.31252643683E+02  0.41977113578E+01  0.31885959358E+02  0.00000000000E+00 0.  1.
         11    1    3    3    0    0 -0.97946290003E+01 -0.13069728590E+00 -0.41323094931E+00  0.98042133347E+01  0.51100000000E-03 0. -1.
        -11    1    3    3    0    0  0.45113726020E+01 -0.72405000749E+01 -0.18027302724E+02  0.19943945644E+02  0.51100000000E-03 0.  1.
         12    1    3    3    0    0  0.10012514942E+02 -0.23881446322E+02  0.14242822315E+02  0.29553881664E+02  0.00000000000E+00 0. -1.
</event>
<event>
 7    1  0.6285940E-013  0.5930193E+02  0.7816164E-02  0.1266605E+00
        -11   -1    0    0    0    0  0.00000000000E+00  0.00000000000E+00  0.45593999997E+02  0.45594000000E+02  0.51100000000E-03 0. -1.
         11   -1    0    0    0    0 -0.00000000000E+00 -0.00000000000E+00 -0.45593999997E+02  0.45594000000E+02  0.51100000000E-03 0.  1.
    9900012    2    1    2    0    0  0.47205343096E+01 -0.12455006483E+02  0.28970857608E+02  0.59301933746E+02  0.49999981248E+02 0.  0.
        -12    1    1    2    0    0 -0.47205343096E+01  0.12455006483E+02 -0.28970857608E+02  0.31886066254E+02  0.00000000000E+00 0.  1.
         11    1    3    3    0    0 -0.22661097914E+01 -0.76695653029E+01 -0.56675018065E+01  0.98019417724E+01  0.51100000000E-03 0. -1.
        -11    1    3    3    0    0  0.97924537397E+01 -0.31203467479E+00 -0.39414216767E+01  0.10560507610E+02  0.51100000000E-03 0.  1.
         12    1    3    3    0    0 -0.28058096387E+01 -0.44734065053E+01  0.38579781091E+02  0.38939484363E+02  0.00000000000E+00 0. -1.
</event>
<event>
 7    1  0.6285940E-013  0.5930195E+02  0.7816164E-02  0.1266605E+00
        -11   -1    0    0    0    0  0.00000000000E+00  0.00000000000E+00  0.45593999997E+02  0.45594000000E+02  0.51100000000E-03 0.  1.
         11   -1    0    0    0    0 -0.00000000000E+00 -0.00000000000E+00 -0.45593999997E+02  0.45594000000E+02  0.51100000000E-03 0. -1.
    9900012    2    1    2    0    0 -0.96537249347E+01  0.20125960356E+01 -0.30322848110E+02  0.59301951869E+02  0.50000014300E+02 0.  0.
        -12    1    1    2    0    0  0.96537249347E+01 -0.20125960356E+01  0.30322848110E+02  0.31886048131E+02  0.00000000000E+00 0.  1.
         11    1    3    3    0    0 -0.12716636191E+02 -0.93583487754E+01 -0.14726855025E+02  0.21591011718E+02  0.51100000000E-03 0. -1.
        -11    1    3    3    0    0 -0.47467128306E+01  0.98504823507E+01 -0.23855838528E+02  0.26242414473E+02  0.51100000000E-03 0.  1.
        -12    1    3    3    0    0  0.78096240871E+01  0.15204624604E+01  0.82598454428E+01  0.11468525677E+02  0.00000000000E+00 0.  1.
</event>
<event>
 7    1  0.6285940E-013  0.5930195E+02  0.7816164E-02  0.1266605E+00
        -11   -1    0    0    0    0  0.00000000000E+00  0.00000000000E+00  0.45593999997E+02  0.45594000000E+02  0.51100000000E-03 0. -1.
         11   -1    0    0    0    0 -0.00000000000E+00 -0.00000000000E+00 -0.45593999997E+02  0.45594000000E+02  0.51100000000E-03 0.  1.
    9900012    2    1    2    0    0 -0.43766132579E+01  0.28353905876E+02  0.13914786933E+02  0.59301952622E+02  0.50000015674E+02 0.  0.
        -12    1    1    2    0    0  0.43766132579E+01 -0.28353905876E+02 -0.13914786933E+02  0.31886047378E+02  0.00000000000E+00 0.  1.
         11    1    3    3    0    0  0.25436590691E+01  0.11533419305E+02  0.20978232046E+01  0.11995450170E+02  0.51100000000E-03 0. -1.
        -11    1    3    3    0    0 -0.15573714915E+02  0.18717152440E+02 -0.79755301876E+01  0.25621894422E+02  0.51100000000E-03 0.  1.
         12    1    3    3    0    0  0.86534425877E+01 -0.18966658692E+01  0.19792493916E+02  0.21684608031E+02  0.00000000000E+00 0. -1.
</event>
<event>
 7    1  0.6285940E-013  0.5930194E+02  0.7816164E-02  0.1266605E+00
        -11   -1    0    0    0    0  0.00000000000E+00  0.00000000000E+00  0.45593999997E+02  0.45594000000E+02  0.51100000000E-03 0. -1.
         11   -1    0    0    0    0 -0.00000000000E+00 -0.00000000000E+00 -0.45593999997E+02  0.45594000000E+02  0.51100000000E-03 0.  1.
    9900012    2    1    2    0    0  0.17939523891E+02 -0.26188083283E+02  0.30130345511E+01  0.59301943476E+02  0.49999998994E+02 0.  0.
        -12    1    1    2    0    0 -0.17939523891E+02  0.26188083283E+02 -0.30130345511E+01  0.31886056524E+02  0.00000000000E+00 0.  1.
         11    1    3    3    0    0  0.70950729336E+00 -0.29573790200E+02  0.17822687527E+02  0.34536367184E+02  0.51100000000E-03 0. -1.
        -11    1    3    3    0    0  0.13865927197E+02 -0.10707717615E+00 -0.69013473692E+01  0.15488834634E+02  0.51100000000E-03 0.  1.
        -12    1    3    3    0    0  0.33640894008E+01  0.34927840931E+01 -0.79083056061E+01  0.92767416574E+01  0.00000000000E+00 0.  1.
</event>
<event>
 7    1  0.6285940E-013  0.5930197E+02  0.7816164E-02  0.1266605E+00
        -11   -1    0    0    0    0  0.00000000000E+00  0.00000000000E+00  0.45593999997E+02  0.45594000000E+02  0.51100000000E-03 0. -1.
         11   -1    0    0    0    0 -0.00000000000E+00 -0.00000000000E+00 -0.45593999997E+02  0.45594000000E+02  0.51100000000E-03 0.  1.
    9900012    2    1    2    0    0  0.26035177792E+01 -0.12914196921E+02  0.29037285541E+02  0.59301972676E+02  0.50000052248E+02 0.  0.
        -12    1    1    2    0    0 -0.26035177792E+01  0.12914196921E+02 -0.29037285541E+02  0.31886027324E+02  0.00000000000E+00 0.  1.
         11    1    3    3    0    0  0.87846185964E+01 -0.78301775015E+01  0.11056586963E+01  0.11819631340E+02  0.51100000000E-03 0. -1.
        -11    1    3    3    0    0 -0.30012243819E+01 -0.12950346723E+02 -0.44414060419E+01  0.14015880847E+02  0.51100000000E-03 0.  1.
         12    1    3    3    0    0 -0.31798764353E+01  0.78663273041E+01  0.32373032886E+02  0.33466460489E+02  0.00000000000E+00 0. -1.
</event>
<event>
 7    1  0.6285940E-013  0.5930192E+02  0.7816164E-02  0.1266605E+00
        -11   -1    0    0    0    0  0.00000000000E+00  0.00000000000E+00  0.45593999997E+02  0.45594000000E+02  0.51100000000E-03 0. -1.
         11   -1    0    0    0    0 -0.00000000000E+00 -0.00000000000E+00 -0.45593999997E+02  0.45594000000E+02  0.51100000000E-03 0.  1.
    9900012    2    1    2    0    0 -0.29160140566E+02 -0.24257466831E+01  0.12669800442E+02  0.59301923288E+02  0.49999962176E+02 0.  0.
        -12    1    1    2    0    0  0.29160140566E+02  0.24257466831E+01 -0.12669800442E+02  0.31886076712E+02  0.00000000000E+00 0.  1.
         11    1    3    3    0    0  0.34979613606E+01 -0.13879458080E+02 -0.57851160345E+01  0.15438350238E+02  0.51100000000E-03 0. -1.
        -11    1    3    3    0    0  0.17304548280E+01  0.43272838431E+01  0.25225781459E+01  0.52993641254E+01  0.51100000000E-03 0.  1.
        -12    1    3    3    0    0 -0.34388556755E+02  0.71264275534E+01  0.15932338330E+02  0.38564208925E+02  0.00000000000E+00 0.  1.
</event>
<event>
 7    1  0.6285940E-013  0.5930201E+02  0.7816164E-02  0.1266605E+00
        -11   -1    0    0    0    0  0.00000000000E+00  0.00000000000E+00  0.45593999997E+02  0.45594000000E+02  0.51100000000E-03 0.  1.
         11   -1    0    0    0    0 -0.00000000000E+00 -0.00000000000E+00 -0.45593999997E+02  0.45594000000E+02  0.51100000000E-03 0. -1.
    9900012    2    1    2    0    0 -0.22238679434E+02 -0.10468467631E+02 -0.20311788070E+02  0.59302009156E+02  0.50000118778E+02 0.  0.
        -12    1    1    2    0    0  0.22238679434E+02  0.10468467631E+02  0.20311788070E+02  0.31885990844E+02  0.00000000000E+00 0.  1.
         11    1    3    3    0    0 -0.37468921725E+01  0.98667776685E+01  0.34536433548E+01  0.11104960837E+02  0.51100000000E-03 0.  1.
        -11    1    3    3    0    0  0.75568711438E+01 -0.86420182981E+00  0.49675410088E+00  0.76223297741E+01  0.51100000000E-03 0. -1.
         12    1    3    3    0    0 -0.26048658405E+02 -0.19471043469E+02 -0.24262185526E+02  0.40574718545E+02  0.00000000000E+00 0. -1.
</event>
<event>
 7    1  0.6285940E-013  0.5930198E+02  0.7816164E-02  0.1266605E+00
        -11   -1    0    0    0    0  0.00000000000E+00  0.00000000000E+00  0.45593999997E+02  0.45594000000E+02  0.51100000000E-03 0. -1.
         11   -1    0    0    0    0 -0.00000000000E+00 -0.00000000000E+00 -0.45593999997E+02  0.45594000000E+02  0.51100000000E-03 0.  1.
    9900012    2    1    2    0    0  0.21967876685E+02  0.19030081613E+02  0.13114365871E+02  0.59301981051E+02  0.50000067521E+02 0.  0.
        -12    1    1    2    0    0 -0.21967876685E+02 -0.19030081613E+02 -0.13114365871E+02  0.31886018949E+02  0.00000000000E+00 0.  1.
         11    1    3    3    0    0  0.25384589756E+01 -0.79903300393E+01  0.10029408109E+01  0.84436389454E+01  0.51100000000E-03 0. -1.
        -11    1    3    3    0    0  0.61841207803E+01  0.15955140114E+02 -0.12220091336E+02  0.21027136715E+02  0.51100000000E-03 0.  1.
        -12    1    3    3    0    0  0.13245296929E+02  0.11065271538E+02  0.24331516396E+02  0.29831205391E+02  0.00000000000E+00 0.  1.
</event>
<event>
 7    1  0.6285940E-013  0.5930191E+02  0.7816164E-02  0.1266605E+00
        -11   -1    0    0    0    0  0.00000000000E+00  0.00000000000E+00  0.45593999997E+02  0.45594000000E+02  0.51100000000E-03 0.  1.
         11   -1    0    0    0    0 -0.00000000000E+00 -0.00000000000E+00 -0.45593999997E+02  0.45594000000E+02  0.51100000000E-03 0. -1.
    9900012    2    1    2    0    0  0.16045607292E+01 -0.29230675959E+01 -0.31711253188E+02  0.59301913410E+02  0.49999944160E+02 0.  0.
        -12    1    1    2    0    0 -0.16045607292E+01  0.29230675959E+01  0.31711253188E+02  0.31886086590E+02  0.00000000000E+00 0.  1.
         11    1    3    3    0    0 -0.25217426419E+01  0.21009664637E+01 -0.51804604352E+01  0.61327332093E+01  0.51100000000E-03 0. -1.
        -11    1    3    3    0    0 -0.17958834336E+02 -0.13389448237E+02 -0.11563849616E+02  0.25209515525E+02  0.51100000000E-03 0.  1.
        -12    1    3    3    0    0  0.22085137707E+02  0.83654141773E+01 -0.14966943137E+02  0.27959664676E+02  0.00000000000E+00 0.  1.
</event>
<event>
 7    1  0.6285940E-013  0.5930192E+02  0.7816164E-02  0.1266605E+00
        -11   -1    0    0    0    0  0.00000000000E+00  0.00000000000E+00  0.45593999997E+02  0.45594000000E+02  0.51100000000E-03 0.  1.
         11   -1    0    0    0    0 -0.00000000000E+00 -0.00000000000E+00 -0.45593999997E+02  0.45594000000E+02  0.51100000000E-03 0. -1.
    9900012    2    1    2    0    0  0.10685986325E+01 -0.21167905698E+02 -0.23822262777E+02  0.59301916226E+02  0.49999949296E+02 0.  0.
        -12    1    1    2    0    0 -0.10685986325E+01  0.21167905698E+02  0.23822262777E+02  0.31886083774E+02  0.00000000000E+00 0.  1.
         11    1    3    3    0    0  0.33561354521E+01 -0.78678163231E+01  0.97378914238E+01  0.12961200118E+02  0.51100000000E-03 0. -1.
        -11    1    3    3    0    0 -0.89718688750E+01 -0.27839788755E+01  0.11478032142E+01  0.94637424928E+01  0.51100000000E-03 0.  1.
         12    1    3    3    0    0  0.66843320555E+01 -0.10516110499E+02 -0.34707957415E+02  0.36876973614E+02  0.00000000000E+00 0. -1.
</event>
<event>
 7    1  0.6285940E-013  0.5930194E+02  0.7816164E-02  0.1266605E+00
        -11   -1    0    0    0    0  0.00000000000E+00  0.00000000000E+00  0.45593999997E+02  0.45594000000E+02  0.51100000000E-03 0.  1.
         11   -1    0    0    0    0 -0.00000000000E+00 -0.00000000000E+00 -0.45593999997E+02  0.45594000000E+02  0.51100000000E-03 0. -1.
    9900012    2    1    2    0    0  0.23973858374E+02  0.21019938068E+02  0.37032212845E+00  0.59301940034E+02  0.49999992716E+02 0.  0.
        -12    1    1    2    0    0 -0.23973858374E+02 -0.21019938068E+02 -0.37032212845E+00  0.31886059966E+02  0.00000000000E+00 0.  1.
         11    1    3    3    0    0 -0.10120451766E+01  0.78291631251E+01  0.34190660983E+01  0.86029090385E+01  0.51100000000E-03 0. -1.
        -11    1    3    3    0    0  0.25566378693E+02  0.82996121759E+01  0.15825651103E+02  0.31192539410E+02  0.51100000000E-03 0.  1.
         12    1    3    3    0    0 -0.58047514296E+00  0.48911627667E+01 -0.18874395073E+02  0.19506491585E+02  0.00000000000E+00 0. -1.
</event>
<event>
 7    1  0.6285940E-013  0.5930194E+02  0.7816164E-02  0.1266605E+00
        -11   -1    0    0    0    0  0.00000000000E+00  0.00000000000E+00  0.45593999997E+02  0.45594000000E+02  0.51100000000E-03 0. -1.
         11   -1    0    0    0    0 -0.00000000000E+00 -0.00000000000E+00 -0.45593999997E+02  0.45594000000E+02  0.51100000000E-03 0.  1.
    9900012    2    1    2    0    0 -0.22793696841E+02 -0.68694183613E+01  0.21212712021E+02  0.59301942301E+02  0.49999996852E+02 0.  0.
        -12    1    1    2    0    0  0.22793696841E+02  0.68694183613E+01 -0.21212712021E+02  0.31886057699E+02  0.00000000000E+00 0.  1.
         11    1    3    3    0    0  0.53084868813E+01 -0.73394144336E+01  0.25362402239E+02  0.26931366189E+02  0.51100000000E-03 0. -1.
        -11    1    3    3    0    0  0.26501299297E+00  0.32294583514E+01 -0.19566102395E+01  0.37852287937E+01  0.51100000000E-03 0.  1.
        -12    1    3    3    0    0 -0.28367196715E+02 -0.27594622792E+01 -0.21930799791E+01  0.28585347319E+02  0.00000000000E+00 0.  1.
</event>
<event>
 7    1  0.6285940E-013  0.5930189E+02  0.7816164E-02  0.1266605E+00
        -11   -1    0    0    0    0  0.00000000000E+00  0.00000000000E+00  0.45593999997E+02  0.45594000000E+02  0.51100000000E-03 0.  1.
         11   -1    0    0    0    0 -0.00000000000E+00 -0.00000000000E+00 -0.45593999997E+02  0.45594000000E+02  0.51100000000E-03 0. -1.
    9900012    2    1    2    0    0  0.26054471313E+02 -0.37402046870E+01 -0.17997200353E+02  0.59301892884E+02  0.49999906725E+02 0.  0.
        -12    1    1    2    0    0 -0.26054471313E+02  0.37402046870E+01  0.17997200353E+02  0.31886107116E+02  0.00000000000E+00 0.  1.
         11    1    3    3    0    0  0.14574806283E+02 -0.11226960288E+02 -0.79633139628E+01  0.20047044296E+02  0.51100000000E-03 0. -1.
        -11    1    3    3    0    0  0.19631215865E+02  0.25406278903E+01 -0.18057045230E+02  0.26793587089E+02  0.51100000000E-03 0.  1.
        -12    1    3    3    0    0 -0.81515508352E+01  0.49461277103E+01  0.80231588399E+01  0.12461261498E+02  0.00000000000E+00 0.  1.
</event>
<event>
 7    1  0.7839409E-013  0.5930195E+02  0.7816164E-02  0.1266605E+00
        -11   -1    0    0    0    0  0.00000000000E+00  0.00000000000E+00  0.45593999997E+02  0.45594000000E+02  0.51100000000E-03 0. -1.
         11   -1    0    0    0    0 -0.00000000000E+00 -0.00000000000E+00 -0.45593999997E+02  0.45594000000E+02  0.51100000000E-03 0.  1.
    9900012    2    1    2    0    0 -0.13454107564E+02  0.44706588660E+01  0.28560822609E+02  0.59301946793E+02  0.50000005043E+02 0.  0.
        -12    1    1    2    0    0  0.13454107564E+02 -0.44706588660E+01 -0.28560822609E+02  0.31886053207E+02  0.00000000000E+00 0.  1.
         11    1    3    3    0    0  0.60064873708E+01 -0.89324095870E+01  0.29023566814E+02  0.30955343035E+02  0.51100000000E-03 0. -1.
        -11    1    3    3    0    0 -0.24108550281E+01 -0.22539722578E+01 -0.37170524130E+01  0.49708240572E+01  0.51100000000E-03 0.  1.
        -12    1    3    3    0    0 -0.17049739907E+02  0.15657040711E+02  0.32543082081E+01  0.23375779701E+02  0.00000000000E+00 0.  1.
</event>
<event>
 7    1  0.6285940E-013  0.5930195E+02  0.7816164E-02  0.1266605E+00
        -11   -1    0    0    0    0  0.00000000000E+00  0.00000000000E+00  0.45593999997E+02  0.45594000000E+02  0.51100000000E-03 0. -1.
         11   -1    0    0    0    0 -0.00000000000E+00 -0.00000000000E+00 -0.45593999997E+02  0.45594000000E+02  0.51100000000E-03 0.  1.
    9900012    2    1    2    0    0  0.21901307883E+01  0.33842383747E+01  0.31630219041E+02  0.59301945073E+02  0.50000001906E+02 0.  0.
        -12    1    1    2    0    0 -0.21901307883E+01 -0.33842383747E+01 -0.31630219041E+02  0.31886054927E+02  0.00000000000E+00 0.  1.
         11    1    3    3    0    0 -0.50372439543E+01 -0.90983077871E+01 -0.50615386015E+01  0.11565993451E+02  0.51100000000E-03 0. -1.
        -11    1    3    3    0    0  0.21911629945E+01 -0.84497453838E+01  0.13637209272E+02  0.16191753127E+02  0.51100000000E-03 0.  1.
         12    1    3    3    0    0  0.50362117480E+01  0.20932291546E+02  0.23054548370E+02  0.31544198495E+02  0.00000000000E+00 0. -1.
</event>
<event>
 7    1  0.6285940E-013  0.5930192E+02  0.7816164E-02  0.1266605E+00
        -11   -1    0    0    0    0  0.00000000000E+00  0.00000000000E+00  0.45593999997E+02  0.45594000000E+02  0.51100000000E-03 0.  1.
         11   -1    0    0    0    0 -0.00000000000E+00 -0.00000000000E+00 -0.45593999997E+02  0.45594000000E+02  0.51100000000E-03 0. -1.
    9900012    2    1    2    0    0 -0.53569133296E+01  0.31413043934E+02 -0.11162892749E+01  0.59301922296E+02  0.49999960366E+02 0.  0.
        -12    1    1    2    0    0  0.53569133296E+01 -0.31413043934E+02  0.11162892749E+01  0.31886077704E+02  0.00000000000E+00 0.  1.
         11    1    3    3    0    0  0.45236317984E+01  0.13171249208E+02 -0.19176178619E+02  0.23699596559E+02  0.51100000000E-03 0. -1.
        -11    1    3    3    0    0 -0.13186819929E+01 -0.15898579769E+01 -0.41405566414E+01  0.46271784218E+01  0.51100000000E-03 0.  1.
        -12    1    3    3    0    0 -0.85618631351E+01  0.19831652703E+02  0.22200445985E+02  0.30975147315E+02  0.00000000000E+00 0.  1.
</event>
<event>
 7    1  0.6285940E-013  0.5930194E+02  0.7816164E-02  0.1266605E+00
        -11   -1    0    0    0    0  0.00000000000E+00  0.00000000000E+00  0.45593999997E+02  0.45594000000E+02  0.51100000000E-03 0. -1.
         11   -1    0    0    0    0 -0.00000000000E+00 -0.00000000000E+00 -0.45593999997E+02  0.45594000000E+02  0.51100000000E-03 0.  1.
    9900012    2    1    2    0    0  0.23971619355E+02 -0.20251460634E+02 -0.56533479907E+01  0.59301944493E+02  0.50000000848E+02 0.  0.
        -12    1    1    2    0    0 -0.23971619355E+02  0.20251460634E+02  0.56533479907E+01  0.31886055507E+02  0.00000000000E+00 0.  1.
         11    1    3    3    0    0  0.76658954564E+01 -0.89990475700E+01  0.20237191201E+01  0.11993508647E+02  0.51100000000E-03 0. -1.
        -11    1    3    3    0    0  0.98736443207E+01 -0.91991927732E+01  0.17010983586E+02  0.21713764360E+02  0.51100000000E-03 0.  1.
         12    1    3    3    0    0  0.64320795781E+01 -0.20532202908E+01 -0.24688050697E+02  0.25594671486E+02  0.00000000000E+00 0. -1.
</event>
<event>
 7    1  0.6285940E-013  0.5930197E+02  0.7816164E-02  0.1266605E+00
        -11   -1    0    0    0    0  0.00000000000E+00  0.00000000000E+00  0.45593999997E+02  0.45594000000E+02  0.51100000000E-03 0. -1.
         11   -1    0    0    0    0 -0.00000000000E+00 -0.00000000000E+00 -0.45593999997E+02  0.45594000000E+02  0.51100000000E-03 0.  1.
    9900012    2    1    2    0    0 -0.22788373702E+01 -0.17047123312E+01  0.31758777573E+02  0.59301967057E+02  0.50000042001E+02 0.  0.
        -12    1    1    2    0    0  0.22788373702E+01  0.17047123312E+01 -0.31758777573E+02  0.31886032943E+02  0.00000000000E+00 0.  1.
         11    1    3    3    0    0 -0.75646176440E+01 -0.53661282758E+01 -0.84067193980E+00  0.93126528091E+01  0.51100000000E-03 0.  1.
        -11    1    3    3    0    0  0.12016276141E+02 -0.13508689400E+02  0.22822041383E+02  0.29115651371E+02  0.51100000000E-03 0. -1.
         12    1    3    3    0    0 -0.67304958675E+01  0.17170105345E+02  0.97774081298E+01  0.20873662877E+02  0.00000000000E+00 0. -1.
</event>
<event>
 7    1  0.6285940E-013  0.5930202E+02  0.7816164E-02  0.1266604E+00
        -11   -1    0    0    0    0  0.00000000000E+00  0.00000000000E+00  0.45593999997E+02  0.45594000000E+02  0.51100000000E-03 0. -1.
         11   -1    0    0    0    0 -0.00000000000E+00 -0.00000000000E+00 -0.45593999997E+02  0.45594000000E+02  0.51100000000E-03 0.  1.
    9900012    2    1    2    0    0 -0.49227689253E+01 -0.51984932974E+01  0.31071816110E+02  0.59302019651E+02  0.50000137918E+02 0.  0.
        -12    1    1    2    0    0  0.49227689253E+01  0.51984932974E+01 -0.31071816110E+02  0.31885980349E+02  0.00000000000E+00 0.  1.
         11    1    3    3    0    0 -0.11613434100E+02 -0.50176179550E+01  0.42648845362E+01  0.13350564854E+02  0.51100000000E-03 0.  1.
        -11    1    3    3    0    0 -0.49831474605E+01 -0.28531980942E+01  0.32278258545E+02  0.32785034283E+02  0.51100000000E-03 0. -1.
        -12    1    3    3    0    0  0.11673812635E+02  0.26723227518E+01 -0.54713269711E+01  0.13166420514E+02  0.00000000000E+00 0.  1.
</event>
<event>
 7    1  0.6285940E-013  0.5930193E+02  0.7816164E-02  0.1266605E+00
        -11   -1    0    0    0    0  0.00000000000E+00  0.00000000000E+00  0.45593999997E+02  0.45594000000E+02  0.51100000000E-03 0. -1.
         11   -1    0    0    0    0 -0.00000000000E+00 -0.00000000000E+00 -0.45593999997E+02  0.45594000000E+02  0.51100000000E-03 0.  1.
    9900012    2    1    2    0    0  0.16468447525E+01 -0.24991755078E+02  0.19733759131E+02  0.59301934564E+02  0.49999982741E+02 0.  0.
        -12    1    1    2    0    0 -0.16468447525E+01  0.24991755078E+02 -0.19733759131E+02  0.31886065436E+02  0.00000000000E+00 0.  1.
         11    1    3    3    0    0 -0.11495205598E+02 -0.81897721207E-02  0.47410225939E+01  0.12434513030E+02  0.51100000000E-03 0. -1.
        -11    1    3    3    0    0 -0.94933189197E+01  0.54620157460E+00  0.70456133278E+01  0.11834783804E+02  0.51100000000E-03 0.  1.
         12    1    3    3    0    0  0.22635369270E+02 -0.25529766881E+02  0.79471232096E+01  0.35032637729E+02  0.00000000000E+00 0. -1.
</event>
<event>
 7    1  0.9395613E-013  0.5930195E+02  0.7816164E-02  0.1266605E+00
        -11   -1    0    0    0    0  0.00000000000E+00  0.00000000000E+00  0.45593999997E+02  0.45594000000E+02  0.51100000000E-03 0. -1.
         11   -1    0    0    0    0 -0.00000000000E+00 -0.00000000000E+00 -0.45593999997E+02  0.45594000000E+02  0.51100000000E-03 0.  1.
    9900012    2    1    2    0    0 -0.27522498294E+02 -0.87787218072E+01  0.13496897391E+02  0.59301951199E+02  0.50000013079E+02 0.  0.
        -12    1    1    2    0    0  0.27522498294E+02  0.87787218072E+01 -0.13496897391E+02  0.31886048801E+02  0.00000000000E+00 0.  1.
         11    1    3    3    0    0 -0.12927640561E+02 -0.11833371525E+02  0.75726470453E+01  0.19091819076E+02  0.51100000000E-03 0. -1.
        -11    1    3    3    0    0 -0.49252574267E+01 -0.11576875040E+02  0.15709969047E+02  0.20126731581E+02  0.51100000000E-03 0.  1.
        -12    1    3    3    0    0 -0.96696003069E+01  0.14631524758E+02 -0.97857187007E+01  0.20083400542E+02  0.00000000000E+00 0.  1.
</event>
<event>
 7    1  0.6285940E-013  0.5930192E+02  0.7816164E-02  0.1266605E+00
        -11   -1    0    0    0    0  0.00000000000E+00  0.00000000000E+00  0.45593999997E+02  0.45594000000E+02  0.51100000000E-03 0. -1.
         11   -1    0    0    0    0 -0.00000000000E+00 -0.00000000000E+00 -0.45593999997E+02  0.45594000000E+02  0.51100000000E-03 0.  1.
    9900012    2    1    2    0    0  0.14083824587E+01  0.27234233740E+02  0.16523767908E+02  0.59301922561E+02  0.49999960850E+02 0.  0.
        -12    1    1    2    0    0 -0.14083824587E+01 -0.27234233740E+02 -0.16523767908E+02  0.31886077439E+02  0.00000000000E+00 0.  1.
         11    1    3    3    0    0  0.13789802535E+02  0.40653840941E+00 -0.51149460277E+01  0.14713483631E+02  0.51100000000E-03 0. -1.
        -11    1    3    3    0    0 -0.24561806995E+01 -0.10130439586E+01 -0.44380233572E+01  0.51725364446E+01  0.51100000000E-03 0.  1.
         12    1    3    3    0    0 -0.99252393773E+01  0.27840739289E+02  0.26076737293E+02  0.39415902485E+02  0.00000000000E+00 0. -1.
</event>
<event>
 7    1  0.6285940E-013  0.5930197E+02  0.7816164E-02  0.1266605E+00
        -11   -1    0    0    0    0  0.00000000000E+00  0.00000000000E+00  0.45593999997E+02  0.45594000000E+02  0.51100000000E-03 0. -1.
         11   -1    0    0    0    0 -0.00000000000E+00 -0.00000000000E+00 -0.45593999997E+02  0.45594000000E+02  0.51100000000E-03 0.  1.
    9900012    2    1    2    0    0  0.26455716323E+02  0.16342385495E+02  0.70526847797E+01  0.59301970890E+02  0.50000048990E+02 0.  0.
        -12    1    1    2    0    0 -0.26455716323E+02 -0.16342385495E+02 -0.70526847797E+01  0.31886029110E+02  0.00000000000E+00 0.  1.
         11    1    3    3    0    0  0.24022801353E-01 -0.97399893934E+01  0.12449086106E+02  0.15806571912E+02  0.51100000000E-03 0. -1.
        -11    1    3    3    0    0  0.33224268293E+01 -0.10677301160E+01 -0.69832459211E+01  0.78066824895E+01  0.51100000000E-03 0.  1.
        -12    1    3    3    0    0  0.23109266692E+02  0.27150105004E+02  0.15868445950E+01  0.35688716488E+02  0.00000000000E+00 0.  1.
</event>
<event>
 7    1  0.6285940E-013  0.5930202E+02  0.7816164E-02  0.1266604E+00
        -11   -1    0    0    0    0  0.00000000000E+00  0.00000000000E+00  0.45593999997E+02  0.45594000000E+02  0.51100000000E-03 0.  1.
         11   -1    0    0    0    0 -0.00000000000E+00 -0.00000000000E+00 -0.45593999997E+02  0.45594000000E+02  0.51100000000E-03 0. -1.
    9900012    2    1    2    0    0 -0.14460253349E+02  0.25148235219E+02 -0.13235665009E+02  0.59302023619E+02  0.50000145155E+02 0.  0.
        -12    1    1    2    0    0  0.14460253349E+02 -0.25148235219E+02  0.13235665009E+02  0.31885976381E+02  0.00000000000E+00 0.  1.
         11    1    3    3    0    0 -0.17274579040E+02 -0.50401455857E+01 -0.14576060871E+02  0.23157627238E+02  0.51100000000E-03 0. -1.
        -11    1    3    3    0    0  0.10704631353E+01  0.67107467428E+01  0.90989955109E+01  0.11356572227E+02  0.51100000000E-03 0.  1.
         12    1    3    3    0    0  0.17438625559E+01  0.23477634062E+02 -0.77585996495E+01  0.24787824154E+02  0.00000000000E+00 0. -1.
</event>
<event>
 7    1  0.6285940E-013  0.5930205E+02  0.7816164E-02  0.1266604E+00
        -11   -1    0    0    0    0  0.00000000000E+00  0.00000000000E+00  0.45593999997E+02  0.45594000000E+02  0.51100000000E-03 0. -1.
         11   -1    0    0    0    0 -0.00000000000E+00 -0.00000000000E+00 -0.45593999997E+02  0.45594000000E+02  0.51100000000E-03 0.  1.
    9900012    2    1    2    0    0 -0.24017190257E+02  0.22948078973E+01  0.20847601764E+02  0.59302045876E+02  0.50000185746E+02 0.  0.
        -12    1    1    2    0    0  0.24017190257E+02 -0.22948078973E+01 -0.20847601764E+02  0.31885954124E+02  0.00000000000E+00 0.  1.
         11    1    3    3    0    0  0.11897270646E+02 -0.96826774027E+01  0.11037365814E+02  0.18897691258E+02  0.51100000000E-03 0.  1.
        -11    1    3    3    0    0 -0.21516009358E+02  0.42139264118E+01  0.98751771964E+01  0.24046100711E+02  0.51100000000E-03 0. -1.
        -12    1    3    3    0    0 -0.14398451545E+02  0.77635588882E+01 -0.64941246201E-01  0.16358253907E+02  0.00000000000E+00 0.  1.
</event>
<event>
 7    1  0.6285940E-013  0.5930195E+02  0.7816164E-02  0.1266605E+00
        -11   -1    0    0    0    0  0.00000000000E+00  0.00000000000E+00  0.45593999997E+02  0.45594000000E+02  0.51100000000E-03 0. -1.
         11   -1    0    0    0    0 -0.00000000000E+00 -0.00000000000E+00 -0.45593999997E+02  0.45594000000E+02  0.51100000000E-03 0.  1.
    9900012    2    1    2    0    0 -0.22600740065E+02 -0.59895013318E+00  0.22484840516E+02  0.59301949041E+02  0.50000009142E+02 0.  0.
        -12    1    1    2    0    0  0.22600740065E+02  0.59895013318E+00 -0.22484840516E+02  0.31886050959E+02  0.00000000000E+00 0.  1.
         11    1    3    3    0    0 -0.95368427584E+01 -0.44980957121E+01 -0.76105262189E+01  0.13004012628E+02  0.51100000000E-03 0.  1.
        -11    1    3    3    0    0 -0.19200534426E+02 -0.10793789081E+00  0.45644966608E+01  0.19735926703E+02  0.51100000000E-03 0. -1.
        -12    1    3    3    0    0  0.61366371186E+01  0.40070834697E+01  0.25530870074E+02  0.26562009709E+02  0.00000000000E+00 0.  1.
</event>
<event>
 7    1  0.6285940E-013  0.5930199E+02  0.7816164E-02  0.1266605E+00
        -11   -1    0    0    0    0  0.00000000000E+00  0.00000000000E+00  0.45593999997E+02  0.45594000000E+02  0.51100000000E-03 0. -1.
         11   -1    0    0    0    0 -0.00000000000E+00 -0.00000000000E+00 -0.45593999997E+02  0.45594000000E+02  0.51100000000E-03 0.  1.
    9900012    2    1    2    0    0 -0.27713185560E+02 -0.36115335736E+01  0.15351016317E+02  0.59301991617E+02  0.50000086791E+02 0.  0.
        -12    1    1    2    0    0  0.27713185560E+02  0.36115335736E+01 -0.15351016317E+02  0.31886008383E+02  0.00000000000E+00 0.  1.
         11    1    3    3    0    0  0.37324570911E+01  0.42540099117E+01  0.77447156814E+01  0.95921039148E+01  0.51100000000E-03 0. -1.
        -11    1    3    3    0    0 -0.13645100593E+02 -0.30146402063E+01 -0.15019822148E+02  0.20515162281E+02  0.51100000000E-03 0.  1.
         12    1    3    3    0    0 -0.17800542058E+02 -0.48509032789E+01  0.22626122784E+02  0.29194725421E+02  0.00000000000E+00 0. -1.
</event>
<event>
 7    1  0.6285940E-013  0.5930194E+02  0.7816164E-02  0.1266605E+00
        -11   -1    0    0    0    0  0.00000000000E+00  0.00000000000E+00  0.45593999997E+02  0.45594000000E+02  0.51100000000E-03 0.  1.
         11   -1    0    0    0    0 -0.00000000000E+00 -0.00000000000E+00 -0.45593999997E+02  0.45594000000E+02  0.51100000000E-03 0. -1.
    9900012    2    1    2    0    0  0.21492576228E+02  0.19333377908E+02 -0.13454012082E+02  0.59301940737E+02  0.49999993998E+02 0.  0.
        -12    1    1    2    0    0 -0.21492576228E+02 -0.19333377908E+02  0.13454012082E+02  0.31886059263E+02  0.00000000000E+00 0.  1.
         11    1    3    3    0    0  0.11539265354E+02  0.66470488804E+01  0.37007646766E+01  0.13821489181E+02  0.51100000000E-03 0. -1.
        -11    1    3    3    0    0  0.16586524505E+02 -0.46158684605E+01  0.36715026781E+01  0.17603947540E+02  0.51100000000E-03 0.  1.
         12    1    3    3    0    0 -0.66332136313E+01  0.17302197488E+02 -0.20826279436E+02  0.27876504016E+02  0.00000000000E+00 0. -1.
</event>
<event>
 7    1  0.6285940E-013  0.5930194E+02  0.7816164E-02  0.1266605E+00
        -11   -1    0    0    0    0  0.00000000000E+00  0.00000000000E+00  0.45593999997E+02  0.45594000000E+02  0.51100000000E-03 0.  1.
         11   -1    0    0    0    0 -0.00000000000E+00 -0.00000000000E+00 -0.45593999997E+02  0.45594000000E+02  0.51100000000E-03 0. -1.
    9900012    2    1    2    0    0 -0.22450174726E+02 -0.18775980528E+02 -0.12655948980E+02  0.59301939808E+02  0.49999992304E+02 0.  0.
        -12    1    1    2    0    0  0.22450174726E+02  0.18775980528E+02  0.12655948980E+02  0.31886060192E+02  0.00000000000E+00 0.  1.
         11    1    3    3    0    0 -0.27581076981E+02 -0.90758832531E+01 -0.66862009351E+01  0.29795851179E+02  0.51100000000E-03 0. -1.
        -11    1    3    3    0    0 -0.95322791662E+01 -0.64232304714E+01  0.31650679202E+01  0.11922243539E+02  0.51100000000E-03 0.  1.
         12    1    3    3    0    0  0.14663181422E+02 -0.32768668033E+01 -0.91348159648E+01  0.17583845090E+02  0.00000000000E+00 0. -1.
</event>
<event>
 7    1  0.6285940E-013  0.5930193E+02  0.7816164E-02  0.1266605E+00
        -11   -1    0    0    0    0  0.00000000000E+00  0.00000000000E+00  0.45593999997E+02  0.45594000000E+02  0.51100000000E-03 0.  1.
         11   -1    0    0    0    0 -0.00000000000E+00 -0.00000000000E+00 -0.45593999997E+02  0.45594000000E+02  0.51100000000E-03 0. -1.
    9900012    2    1    2    0    0 -0.18321586753E+02 -0.53264482148E+01 -0.25547398321E+02  0.59301934820E+02  0.49999983207E+02 0.  0.
        -12    1    1    2    0    0  0.18321586753E+02  0.53264482148E+01  0.25547398321E+02  0.31886065180E+02  0.00000000000E+00 0.  1.
         11    1    3    3    0    0 -0.10662994789E+02  0.19484572577E+02 -0.22598967391E+01  0.22326109377E+02  0.51100000000E-03 0. -1.
        -11    1    3    3    0    0 -0.27190016209E+00  0.10932721829E+01  0.30592110243E+00  0.11673738673E+01  0.51100000000E-03 0.  1.
         12    1    3    3    0    0 -0.73866918019E+01 -0.25904292975E+02 -0.23593422684E+02  0.35808451576E+02  0.00000000000E+00 0. -1.
</event>
<event>
 7    1  0.6285940E-013  0.5930194E+02  0.7816164E-02  0.1266605E+00
        -11   -1    0    0    0    0  0.00000000000E+00  0.00000000000E+00  0.45593999997E+02  0.45594000000E+02  0.51100000000E-03 0.  1.
         11   -1    0    0    0    0 -0.00000000000E+00 -0.00000000000E+00 -0.45593999997E+02  0.45594000000E+02  0.51100000000E-03 0. -1.
    9900012    2    1    2    0    0 -0.26069414077E+02 -0.73874330531E+01  0.16808691942E+02  0.59301942824E+02  0.49999997805E+02 0.  0.
        -12    1    1    2    0    0  0.26069414077E+02  0.73874330531E+01 -0.16808691942E+02  0.31886057176E+02  0.00000000000E+00 0.  1.
         11    1    3    3    0    0  0.45807900346E+01 -0.10271746426E+02  0.15199323057E+01  0.11349123599E+02  0.51100000000E-03 0. -1.
        -11    1    3    3    0    0 -0.17071880489E+02 -0.71205925593E+01  0.22909534521E+02  0.29444841893E+02  0.51100000000E-03 0.  1.
         12    1    3    3    0    0 -0.13578323622E+02  0.10004905932E+02 -0.76207748851E+01  0.18507977333E+02  0.00000000000E+00 0. -1.
</event>
<event>
 7    1  0.6285940E-013  0.5930195E+02  0.7816164E-02  0.1266605E+00
        -11   -1    0    0    0    0  0.00000000000E+00  0.00000000000E+00  0.45593999997E+02  0.45594000000E+02  0.51100000000E-03 0.  1.
         11   -1    0    0    0    0 -0.00000000000E+00 -0.00000000000E+00 -0.45593999997E+02  0.45594000000E+02  0.51100000000E-03 0. -1.
    9900012    2    1    2    0    0 -0.31026507633E+02 -0.73387637355E+01 -0.46780415958E+00  0.59301945528E+02  0.50000002736E+02 0.  0.
        -12    1    1    2    0    0  0.31026507633E+02  0.73387637355E+01  0.46780415958E+00  0.31886054472E+02  0.00000000000E+00 0.  1.
         11    1    3    3    0    0 -0.13958588139E+02  0.16623752587E+02  0.10488879983E+02  0.24108254530E+02  0.51100000000E-03 0. -1.
        -11    1    3    3    0    0  0.16959612829E+01 -0.77436937215E+01  0.35255399815E+00  0.79350722560E+01  0.51100000000E-03 0.  1.
        -12    1    3    3    0    0 -0.18763880777E+02 -0.16218822601E+02 -0.11309238141E+02  0.27258618742E+02  0.00000000000E+00 0.  1.
</event>
<event>
 7    1  0.6285940E-013  0.5930188E+02  0.7816164E-02  0.1266605E+00
        -11   -1    0    0    0    0  0.00000000000E+00  0.00000000000E+00  0.45593999997E+02  0.45594000000E+02  0.51100000000E-03 0.  1.
         11   -1    0    0    0    0 -0.00000000000E+00 -0.00000000000E+00 -0.45593999997E+02  0.45594000000E+02  0.51100000000E-03 0. -1.
    9900012    2    1    2    0    0 -0.22669741148E+02 -0.12880041838E+02 -0.18355165290E+02  0.59301878657E+02  0.49999880780E+02 0.  0.
        -12    1    1    2    0    0  0.22669741148E+02  0.12880041838E+02  0.18355165290E+02  0.31886121343E+02  0.00000000000E+00 0.  1.
         11    1    3    3    0    0 -0.35180063261E+02 -0.10447937294E+02 -0.19362462575E+02  0.41493387449E+02  0.51100000000E-03 0. -1.
        -11    1    3    3    0    0 -0.17686408869E+01 -0.11620541456E+01  0.26366195682E+01  0.33808613448E+01  0.51100000000E-03 0.  1.
         12    1    3    3    0    0  0.14278963000E+02 -0.12700503986E+01 -0.16293222830E+01  0.14427629863E+02  0.00000000000E+00 0. -1.
</event>
<event>
 7    1  0.6285940E-013  0.5930195E+02  0.7816164E-02  0.1266605E+00
        -11   -1    0    0    0    0  0.00000000000E+00  0.00000000000E+00  0.45593999997E+02  0.45594000000E+02  0.51100000000E-03 0.  1.
         11   -1    0    0    0    0 -0.00000000000E+00 -0.00000000000E+00 -0.45593999997E+02  0.45594000000E+02  0.51100000000E-03 0. -1.
    9900012    2    1    2    0    0 -0.12064311106E+02  0.13569880409E+02 -0.26211277026E+02  0.59301948189E+02  0.50000007589E+02 0.  0.
        -12    1    1    2    0    0  0.12064311106E+02 -0.13569880409E+02  0.26211277026E+02  0.31886051811E+02  0.00000000000E+00 0.  1.
         11    1    3    3    0    0 -0.46935177811E+00 -0.22180848500E+01  0.58244113317E+01  0.62501167282E+01  0.51100000000E-03 0. -1.
        -11    1    3    3    0    0  0.11296306945E+02  0.96353368387E+01 -0.22999962227E+01  0.15024521606E+02  0.51100000000E-03 0.  1.
         12    1    3    3    0    0 -0.22891266273E+02  0.61526284201E+01 -0.29735692135E+02  0.38027309855E+02  0.00000000000E+00 0. -1.
</event>
<event>
 7    1  0.6285940E-013  0.5930193E+02  0.7816164E-02  0.1266605E+00
        -11   -1    0    0    0    0  0.00000000000E+00  0.00000000000E+00  0.45593999997E+02  0.45594000000E+02  0.51100000000E-03 0.  1.
         11   -1    0    0    0    0 -0.00000000000E+00 -0.00000000000E+00 -0.45593999997E+02  0.45594000000E+02  0.51100000000E-03 0. -1.
    9900012    2    1    2    0    0  0.87226267138E+01  0.19430283804E+02 -0.23729753264E+02  0.59301931954E+02  0.49999977981E+02 0.  0.
        -12    1    1    2    0    0 -0.87226267138E+01 -0.19430283804E+02  0.23729753264E+02  0.31886068046E+02  0.00000000000E+00 0.  1.
         11    1    3    3    0    0  0.52362764370E+00 -0.34651414815E+01 -0.20945262223E+02  0.21236416865E+02  0.51100000000E-03 0. -1.
        -11    1    3    3    0    0  0.77566096743E+01 -0.20170201543E+01  0.76248566005E+01  0.11062178917E+02  0.51100000000E-03 0.  1.
        -12    1    3    3    0    0  0.44238939585E+00  0.24912445439E+02 -0.10409347641E+02  0.27003336173E+02  0.00000000000E+00 0.  1.
</event>
<event>
 7    1  0.6285940E-013  0.5930216E+02  0.7816164E-02  0.1266604E+00
        -11   -1    0    0    0    0  0.00000000000E+00  0.00000000000E+00  0.45593999997E+02  0.45594000000E+02  0.51100000000E-03 0. -1.
         11   -1    0    0    0    0 -0.00000000000E+00 -0.00000000000E+00 -0.45593999997E+02  0.45594000000E+02  0.51100000000E-03 0.  1.
    9900012    2    1    2    0    0  0.29042891392E+02 -0.17188407041E+01  0.13048485151E+02  0.59302158024E+02  0.50000390277E+02 0.  0.
        -12    1    1    2    0    0 -0.29042891392E+02  0.17188407041E+01 -0.13048485151E+02  0.31885841976E+02  0.00000000000E+00 0.  1.
         11    1    3    3    0    0  0.15696321098E+02 -0.84707333008E+01 -0.17677145195E+01  0.17923521795E+02  0.51100000000E-03 0. -1.
        -11    1    3    3    0    0  0.30182342452E+01 -0.11680706795E+02 -0.43768742418E+01  0.12833770980E+02  0.51100000000E-03 0.  1.
        -12    1    3    3    0    0  0.10328336048E+02  0.18432599392E+02  0.19193073912E+02  0.28544865249E+02  0.00000000000E+00 0.  1.
</event>
<event>
 7    1  0.6285940E-013  0.5930215E+02  0.7816164E-02  0.1266604E+00
        -11   -1    0    0    0    0  0.00000000000E+00  0.00000000000E+00  0.45593999997E+02  0.45594000000E+02  0.51100000000E-03 0. -1.
         11   -1    0    0    0    0 -0.00000000000E+00 -0.00000000000E+00 -0.45593999997E+02  0.45594000000E+02  0.51100000000E-03 0.  1.
    9900012    2    1    2    0    0 -0.82846105439E+01  0.85802559087E+01  0.29571132260E+02  0.59302150059E+02  0.50000375750E+02 0.  0.
        -12    1    1    2    0    0  0.82846105439E+01 -0.85802559087E+01 -0.29571132260E+02  0.31885849941E+02  0.00000000000E+00 0.  1.
         11    1    3    3    0    0  0.85278421780E+01 -0.13899295053E+01 -0.56740741662E+01  0.10336881258E+02  0.51100000000E-03 0. -1.
        -11    1    3    3    0    0 -0.16907238143E+01 -0.79493441558E+01  0.18337298592E+02  0.20057595555E+02  0.51100000000E-03 0.  1.
         12    1    3    3    0    0 -0.15121728908E+02  0.17919529570E+02  0.16907907834E+02  0.28907673246E+02  0.00000000000E+00 0. -1.
</event>
<event>
 7    1  0.6285940E-013  0.5930195E+02  0.7816164E-02  0.1266605E+00
        -11   -1    0    0    0    0  0.00000000000E+00  0.00000000000E+00  0.45593999997E+02  0.45594000000E+02  0.51100000000E-03 0. -1.
         11   -1    0    0    0    0 -0.00000000000E+00 -0.00000000000E+00 -0.45593999997E+02  0.45594000000E+02  0.51100000000E-03 0.  1.
    9900012    2    1    2    0    0  0.13485676763E+02  0.28521387072E+02  0.46246001516E+01  0.59301954074E+02  0.50000018322E+02 0.  0.
        -12    1    1    2    0    0 -0.13485676763E+02 -0.28521387072E+02 -0.46246001516E+01  0.31886045926E+02  0.00000000000E+00 0.  1.
         11    1    3    3    0    0 -0.23907901497E+01  0.88621964244E+01  0.10545720552E+02  0.13980937924E+02  0.51100000000E-03 0. -1.
        -11    1    3    3    0    0 -0.67750342457E+01  0.20616112425E+02  0.66840510148E+00  0.21711101911E+02  0.51100000000E-03 0.  1.
        -12    1    3    3    0    0  0.22651501159E+02 -0.95692177774E+00 -0.65895255021E+01  0.23609914239E+02  0.00000000000E+00 0.  1.
</event>
<event>
 7    1  0.6285940E-013  0.5930195E+02  0.7816164E-02  0.1266605E+00
        -11   -1    0    0    0    0  0.00000000000E+00  0.00000000000E+00  0.45593999997E+02  0.45594000000E+02  0.51100000000E-03 0.  1.
         11   -1    0    0    0    0 -0.00000000000E+00 -0.00000000000E+00 -0.45593999997E+02  0.45594000000E+02  0.51100000000E-03 0. -1.
    9900012    2    1    2    0    0 -0.24113397758E+02 -0.20847498502E+02 -0.80377327832E+00  0.59301949810E+02  0.50000010546E+02 0.  0.
        -12    1    1    2    0    0  0.24113397758E+02  0.20847498502E+02  0.80377327832E+00  0.31886050190E+02  0.00000000000E+00 0.  1.
         11    1    3    3    0    0 -0.19712893778E+02 -0.86230048514E+00  0.10247490591E+02  0.22234046121E+02  0.51100000000E-03 0. -1.
        -11    1    3    3    0    0 -0.10453604175E+02  0.28765063519E+01 -0.74277827143E+01  0.13142453552E+02  0.51100000000E-03 0.  1.
         12    1    3    3    0    0  0.60531001957E+01 -0.22861704369E+02 -0.36234811546E+01  0.23925450138E+02  0.00000000000E+00 0. -1.
</event>
<event>
 7    1  0.6285940E-013  0.5930196E+02  0.7816164E-02  0.1266605E+00
        -11   -1    0    0    0    0  0.00000000000E+00  0.00000000000E+00  0.45593999997E+02  0.45594000000E+02  0.51100000000E-03 0.  1.
         11   -1    0    0    0    0 -0.00000000000E+00 -0.00000000000E+00 -0.45593999997E+02  0.45594000000E+02  0.51100000000E-03 0. -1.
    9900012    2    1    2    0    0  0.99117644605E+01 -0.30240574879E+02 -0.19960603653E+01  0.59301957587E+02  0.50000024730E+02 0.  0.
        -12    1    1    2    0    0 -0.99117644605E+01  0.30240574879E+02  0.19960603653E+01  0.31886042413E+02  0.00000000000E+00 0.  1.
         11    1    3    3    0    0  0.19628820824E+01  0.76877196275E+01 -0.79079694813E+00  0.79736628481E+01  0.51100000000E-03 0. -1.
        -11    1    3    3    0    0 -0.65856404013E+01 -0.25147199023E+00  0.75346560991E+01  0.10010241778E+02  0.51100000000E-03 0.  1.
        -12    1    3    3    0    0  0.14534522779E+02 -0.37676822517E+02 -0.87399195162E+01  0.41318052961E+02  0.00000000000E+00 0.  1.
</event>
<event>
 7    1  0.6285940E-013  0.5930195E+02  0.7816164E-02  0.1266605E+00
        -11   -1    0    0    0    0  0.00000000000E+00  0.00000000000E+00  0.45593999997E+02  0.45594000000E+02  0.51100000000E-03 0.  1.
         11   -1    0    0    0    0 -0.00000000000E+00 -0.00000000000E+00 -0.45593999997E+02  0.45594000000E+02  0.51100000000E-03 0. -1.
    9900012    2    1    2    0    0 -0.22730420433E+02 -0.16597802666E+02 -0.14985357179E+02  0.59301952954E+02  0.50000016280E+02 0.  0.
        -12    1    1    2    0    0  0.22730420433E+02  0.16597802666E+02  0.14985357179E+02  0.31886047046E+02  0.00000000000E+00 0.  1.
         11    1    3    3    0    0  0.75299614760E+01 -0.14717052434E+02 -0.27840170943E+01  0.16764328308E+02  0.51100000000E-03 0.  1.
        -11    1    3    3    0    0 -0.91686046541E+01 -0.13716286989E+02 -0.37625123301E+01  0.16922066640E+02  0.51100000000E-03 0. -1.
         12    1    3    3    0    0 -0.21091777255E+02  0.11835536757E+02 -0.84388277546E+01  0.25615558007E+02  0.00000000000E+00 0. -1.
</event>
<event>
 7    1  0.6285940E-013  0.5930208E+02  0.7816164E-02  0.1266604E+00
        -11   -1    0    0    0    0  0.00000000000E+00  0.00000000000E+00  0.45593999997E+02  0.45594000000E+02  0.51100000000E-03 0.  1.
         11   -1    0    0    0    0 -0.00000000000E+00 -0.00000000000E+00 -0.45593999997E+02  0.45594000000E+02  0.51100000000E-03 0. -1.
    9900012    2    1    2    0    0 -0.15423277884E+02 -0.38280535126E+01 -0.27643808940E+02  0.59302083562E+02  0.50000254476E+02 0.  0.
        -12    1    1    2    0    0  0.15423277884E+02  0.38280535126E+01  0.27643808940E+02  0.31885916438E+02  0.00000000000E+00 0.  1.
         11    1    3    3    0    0  0.10888186592E+01 -0.61592862883E+01 -0.17871448356E+02  0.18934386714E+02  0.51100000000E-03 0. -1.
        -11    1    3    3    0    0 -0.16879062057E+01  0.17719343067E+02 -0.45292556979E+01  0.18366771723E+02  0.51100000000E-03 0.  1.
         12    1    3    3    0    0 -0.14824190337E+02 -0.15388110291E+02 -0.52431048870E+01  0.22000925125E+02  0.00000000000E+00 0. -1.
</event>
<event>
 7    1  0.6285940E-013  0.5930192E+02  0.7816164E-02  0.1266605E+00
        -11   -1    0    0    0    0  0.00000000000E+00  0.00000000000E+00  0.45593999997E+02  0.45594000000E+02  0.51100000000E-03 0. -1.
         11   -1    0    0    0    0 -0.00000000000E+00 -0.00000000000E+00 -0.45593999997E+02  0.45594000000E+02  0.51100000000E-03 0.  1.
    9900012    2    1    2    0    0  0.11463375722E+02  0.28920289234E+02  0.69950105820E+01  0.59301917058E+02  0.49999950814E+02 0.  0.
        -12    1    1    2    0    0 -0.11463375722E+02 -0.28920289234E+02 -0.69950105820E+01  0.31886082942E+02  0.00000000000E+00 0.  1.
         11    1    3    3    0    0 -0.65925683726E+01  0.21712647381E+01 -0.19704248179E+01  0.72151869370E+01  0.51100000000E-03 0. -1.
        -11    1    3    3    0    0  0.12780186824E+02  0.16566763955E+02 -0.14847583480E+02  0.25656219103E+02  0.51100000000E-03 0.  1.
         12    1    3    3    0    0  0.52757572706E+01  0.10182260541E+02  0.23813018880E+02  0.26430511018E+02  0.00000000000E+00 0. -1.
</event>
<event>
 7    1  0.6285940E-013  0.5930194E+02  0.7816164E-02  0.1266605E+00
        -11   -1    0    0    0    0  0.00000000000E+00  0.00000000000E+00  0.45593999997E+02  0.45594000000E+02  0.51100000000E-03 0.  1.
         11   -1    0    0    0    0 -0.00000000000E+00 -0.00000000000E+00 -0.45593999997E+02  0.45594000000E+02  0.51100000000E-03 0. -1.
    9900012    2    1    2    0    0 -0.19208489541E+02 -0.25434986675E+02 -0.90348243088E+00  0.59301938812E+02  0.49999990488E+02 0.  0.
        -12    1    1    2    0    0  0.19208489541E+02  0.25434986675E+02  0.90348243088E+00  0.31886061188E+02  0.00000000000E+00 0.  1.
         11    1    3    3    0    0 -0.17302368473E+02 -0.18691044274E+02 -0.44709480821E+01  0.25859552739E+02  0.51100000000E-03 0. -1.
        -11    1    3    3    0    0 -0.19675558161E+01 -0.76151156028E+01 -0.13890450014E+02  0.15962639612E+02  0.51100000000E-03 0.  1.
        -12    1    3    3    0    0  0.61434748141E-01  0.87117320241E+00  0.17457915665E+02  0.17479746461E+02  0.00000000000E+00 0.  1.
</event>
<event>
 7    1  0.6285940E-013  0.5930192E+02  0.7816164E-02  0.1266605E+00
        -11   -1    0    0    0    0  0.00000000000E+00  0.00000000000E+00  0.45593999997E+02  0.45594000000E+02  0.51100000000E-03 0. -1.
         11   -1    0    0    0    0 -0.00000000000E+00 -0.00000000000E+00 -0.45593999997E+02  0.45594000000E+02  0.51100000000E-03 0.  1.
    9900012    2    1    2    0    0 -0.16605265550E+02  0.26355383154E+02 -0.68103398699E+01  0.59301924758E+02  0.49999964857E+02 0.  0.
        -12    1    1    2    0    0  0.16605265550E+02 -0.26355383154E+02  0.68103398699E+01  0.31886075242E+02  0.00000000000E+00 0.  1.
         11    1    3    3    0    0  0.14819760349E+01 -0.31735529886E+00  0.45270559466E+01  0.47740133178E+01  0.51100000000E-03 0. -1.
        -11    1    3    3    0    0 -0.14677679192E+02 -0.90473017665E+01 -0.59697903517E+01  0.18246269011E+02  0.51100000000E-03 0.  1.
        -12    1    3    3    0    0 -0.34095623931E+01  0.35720040219E+02 -0.53676054647E+01  0.36281642430E+02  0.00000000000E+00 0.  1.
</event>
<event>
 7    1  0.6285940E-013  0.5930192E+02  0.7816164E-02  0.1266605E+00
        -11   -1    0    0    0    0  0.00000000000E+00  0.00000000000E+00  0.45593999997E+02  0.45594000000E+02  0.51100000000E-03 0. -1.
         11   -1    0    0    0    0 -0.00000000000E+00 -0.00000000000E+00 -0.45593999997E+02  0.45594000000E+02  0.51100000000E-03 0.  1.
    9900012    2    1    2    0    0 -0.28257323007E+02  0.58299984038E+01  0.13574132734E+02  0.59301917387E+02  0.49999951414E+02 0.  0.
        -12    1    1    2    0    0  0.28257323007E+02 -0.58299984038E+01 -0.13574132734E+02  0.31886082613E+02  0.00000000000E+00 0.  1.
         11    1    3    3    0    0  0.43483267729E+00  0.20758417254E+02  0.72094717940E+01  0.21979022958E+02  0.51100000000E-03 0. -1.
        -11    1    3    3    0    0  0.98911258054E+00 -0.36624620842E+01 -0.22715775832E+01  0.44217685594E+01  0.51100000000E-03 0.  1.
        -12    1    3    3    0    0 -0.29681268265E+02 -0.11265956766E+02  0.86362385233E+01  0.32901125870E+02  0.00000000000E+00 0.  1.
</event>
<event>
 7    1  0.6285940E-013  0.5930192E+02  0.7816164E-02  0.1266605E+00
        -11   -1    0    0    0    0  0.00000000000E+00  0.00000000000E+00  0.45593999997E+02  0.45594000000E+02  0.51100000000E-03 0.  1.
         11   -1    0    0    0    0 -0.00000000000E+00 -0.00000000000E+00 -0.45593999997E+02  0.45594000000E+02  0.51100000000E-03 0. -1.
    9900012    2    1    2    0    0  0.26580516399E+02 -0.63582842125E+01  0.16424682690E+02  0.59301924173E+02  0.49999963790E+02 0.  0.
        -12    1    1    2    0    0 -0.26580516399E+02  0.63582842125E+01 -0.16424682690E+02  0.31886075827E+02  0.00000000000E+00 0.  1.
         11    1    3    3    0    0 -0.43396295095E+01  0.66560552280E+01  0.14133938748E+02  0.16214304804E+02  0.51100000000E-03 0. -1.
        -11    1    3    3    0    0  0.18925338140E+02 -0.15773856330E+01  0.13305109364E+02  0.23187981900E+02  0.51100000000E-03 0.  1.
         12    1    3    3    0    0  0.11994807769E+02 -0.11436953807E+02 -0.11014365421E+02  0.19899637470E+02  0.00000000000E+00 0. -1.
</event>
<event>
 7    1  0.6285940E-013  0.5930191E+02  0.7816164E-02  0.1266605E+00
        -11   -1    0    0    0    0  0.00000000000E+00  0.00000000000E+00  0.45593999997E+02  0.45594000000E+02  0.51100000000E-03 0. -1.
         11   -1    0    0    0    0 -0.00000000000E+00 -0.00000000000E+00 -0.45593999997E+02  0.45594000000E+02  0.51100000000E-03 0.  1.
    9900012    2    1    2    0    0  0.44244075698E+01  0.11025999847E+02  0.29590110867E+02  0.59301910305E+02  0.49999938497E+02 0.  0.
        -12    1    1    2    0    0 -0.44244075698E+01 -0.11025999847E+02 -0.29590110867E+02  0.31886089695E+02  0.00000000000E+00 0.  1.
         11    1    3    3    0    0 -0.92110045405E+01 -0.79716812547E+01  0.73017238320E+01  0.14202305371E+02  0.51100000000E-03 0. -1.
        -11    1    3    3    0    0 -0.81513562898E+01  0.27926846424E+01 -0.17994529200E+01  0.88023705868E+01  0.51100000000E-03 0.  1.
         12    1    3    3    0    0  0.21786768400E+02  0.16204996459E+02  0.24087839955E+02  0.36297234347E+02  0.00000000000E+00 0. -1.
</event>
<event>
 7    1  0.6285940E-013  0.5930194E+02  0.7816164E-02  0.1266605E+00
        -11   -1    0    0    0    0  0.00000000000E+00  0.00000000000E+00  0.45593999997E+02  0.45594000000E+02  0.51100000000E-03 0.  1.
         11   -1    0    0    0    0 -0.00000000000E+00 -0.00000000000E+00 -0.45593999997E+02  0.45594000000E+02  0.51100000000E-03 0. -1.
    9900012    2    1    2    0    0  0.18474042201E+02 -0.25753222118E+02 -0.34931422994E+01  0.59301941482E+02  0.49999995357E+02 0.  0.
        -12    1    1    2    0    0 -0.18474042201E+02  0.25753222118E+02  0.34931422994E+01  0.31886058518E+02  0.00000000000E+00 0.  1.
         11    1    3    3    0    0  0.72108565425E+01 -0.30942136339E+02 -0.17830385190E+02  0.36432607505E+02  0.51100000000E-03 0.  1.
        -11    1    3    3    0    0  0.43474159137E+01 -0.20031203582E+01 -0.68498129488E+00  0.48354643967E+01  0.51100000000E-03 0. -1.
        -12    1    3    3    0    0  0.69157697447E+01  0.71920345792E+01  0.15022224186E+02  0.18033869580E+02  0.00000000000E+00 0.  1.
</event>
<event>
 7    1  0.6285940E-013  0.5930194E+02  0.7816164E-02  0.1266605E+00
        -11   -1    0    0    0    0  0.00000000000E+00  0.00000000000E+00  0.45593999997E+02  0.45594000000E+02  0.51100000000E-03 0. -1.
         11   -1    0    0    0    0 -0.00000000000E+00 -0.00000000000E+00 -0.45593999997E+02  0.45594000000E+02  0.51100000000E-03 0.  1.
    9900012    2    1    2    0    0  0.25292161555E+02 -0.63247867628E+01  0.18358227022E+02  0.59301939360E+02  0.49999991487E+02 0.  0.
        -12    1    1    2    0    0 -0.25292161555E+02  0.63247867628E+01 -0.18358227022E+02  0.31886060640E+02  0.00000000000E+00 0.  1.
         11    1    3    3    0    0  0.14054100188E+02 -0.32281332157E+01 -0.63219794148E+01  0.15745030966E+02  0.51100000000E-03 0. -1.
        -11    1    3    3    0    0  0.11461033512E+02  0.79873124814E+01 -0.25100677850E+01  0.14193410104E+02  0.51100000000E-03 0.  1.
         12    1    3    3    0    0 -0.22297214482E+00 -0.11083966029E+02  0.27190274222E+02  0.29363498289E+02  0.00000000000E+00 0. -1.
</event>
<event>
 7    1  0.6285940E-013  0.5930191E+02  0.7816164E-02  0.1266605E+00
        -11   -1    0    0    0    0  0.00000000000E+00  0.00000000000E+00  0.45593999997E+02  0.45594000000E+02  0.51100000000E-03 0. -1.
         11   -1    0    0    0    0 -0.00000000000E+00 -0.00000000000E+00 -0.45593999997E+02  0.45594000000E+02  0.51100000000E-03 0.  1.
    9900012    2    1    2    0    0  0.38502288141E+01  0.22330758960E+02  0.22432911323E+02  0.59301912625E+02  0.49999942729E+02 0.  0.
        -12    1    1    2    0    0 -0.38502288141E+01 -0.22330758960E+02 -0.22432911323E+02  0.31886087375E+02  0.00000000000E+00 0.  1.
         11    1    3    3    0    0 -0.57769468295E+01  0.44055354621E+01  0.21872688054E+02  0.23047697072E+02  0.51100000000E-03 0. -1.
        -11    1    3    3    0    0  0.14213298617E+02  0.41180910106E+01  0.10922523904E+02  0.18392336987E+02  0.51100000000E-03 0.  1.
         12    1    3    3    0    0 -0.45861229734E+01  0.13807132487E+02 -0.10362300635E+02  0.17861878566E+02  0.00000000000E+00 0. -1.
</event>
<event>
 7    1  0.6285940E-013  0.5930195E+02  0.7816164E-02  0.1266605E+00
        -11   -1    0    0    0    0  0.00000000000E+00  0.00000000000E+00  0.45593999997E+02  0.45594000000E+02  0.51100000000E-03 0.  1.
         11   -1    0    0    0    0 -0.00000000000E+00 -0.00000000000E+00 -0.45593999997E+02  0.45594000000E+02  0.51100000000E-03 0. -1.
    9900012    2    1    2    0    0  0.25112903582E+02 -0.14886495533E+02 -0.12823985725E+02  0.59301948418E+02  0.50000008007E+02 0.  0.
        -12    1    1    2    0    0 -0.25112903582E+02  0.14886495533E+02  0.12823985725E+02  0.31886051582E+02  0.00000000000E+00 0.  1.
         11    1    3    3    0    0  0.15645720536E+02 -0.16824204046E+02  0.61645231554E+01  0.23787470628E+02  0.51100000000E-03 0. -1.
        -11    1    3    3    0    0 -0.43076447629E+01 -0.96266980289E+01 -0.19216864198E+01  0.10720167783E+02  0.51100000000E-03 0.  1.
        -12    1    3    3    0    0  0.13774827809E+02  0.11564406542E+02 -0.17066822461E+02  0.24794310007E+02  0.00000000000E+00 0.  1.
</event>
<event>
 7    1  0.6285940E-013  0.5930198E+02  0.7816164E-02  0.1266605E+00
        -11   -1    0    0    0    0  0.00000000000E+00  0.00000000000E+00  0.45593999997E+02  0.45594000000E+02  0.51100000000E-03 0.  1.
         11   -1    0    0    0    0 -0.00000000000E+00 -0.00000000000E+00 -0.45593999997E+02  0.45594000000E+02  0.51100000000E-03 0. -1.
    9900012    2    1    2    0    0  0.28945583458E+02 -0.12493727337E+02 -0.47726666779E+01  0.59301978427E+02  0.50000062736E+02 0.  0.
        -12    1    1    2    0    0 -0.28945583458E+02  0.12493727337E+02  0.47726666779E+01  0.31886021573E+02  0.00000000000E+00 0.  1.
         11    1    3    3    0    0  0.34400182914E+01 -0.56779626123E+01 -0.11652906489E+02  0.13411309227E+02  0.51100000000E-03 0. -1.
        -11    1    3    3    0    0 -0.25988777615E+01 -0.13379106415E+02 -0.52219201532E+01  0.14595311042E+02  0.51100000000E-03 0.  1.
         12    1    3    3    0    0  0.28104442929E+02  0.65633416899E+01  0.12102159964E+02  0.31295358158E+02  0.00000000000E+00 0. -1.
</event>
<event>
 7    1  0.6285940E-013  0.5930194E+02  0.7816164E-02  0.1266605E+00
        -11   -1    0    0    0    0  0.00000000000E+00  0.00000000000E+00  0.45593999997E+02  0.45594000000E+02  0.51100000000E-03 0.  1.
         11   -1    0    0    0    0 -0.00000000000E+00 -0.00000000000E+00 -0.45593999997E+02  0.45594000000E+02  0.51100000000E-03 0. -1.
    9900012    2    1    2    0    0  0.10761885087E+02  0.20225752659E+02 -0.22177050425E+02  0.59301940243E+02  0.49999993098E+02 0.  0.
        -12    1    1    2    0    0 -0.10761885087E+02 -0.20225752659E+02  0.22177050425E+02  0.31886059757E+02  0.00000000000E+00 0.  1.
         11    1    3    3    0    0  0.14689324178E+02  0.12486530029E+02 -0.93675393801E+01  0.21434562539E+02  0.51100000000E-03 0. -1.
        -11    1    3    3    0    0  0.81925658327E+01  0.16363788581E+02 -0.97603374794E-01  0.18300307055E+02  0.51100000000E-03 0.  1.
        -12    1    3    3    0    0 -0.12120004923E+02 -0.86245659505E+01 -0.12711907670E+02  0.19567070649E+02  0.00000000000E+00 0.  1.
</event>
<event>
 7    1  0.6285940E-013  0.5930195E+02  0.7816164E-02  0.1266605E+00
        -11   -1    0    0    0    0  0.00000000000E+00  0.00000000000E+00  0.45593999997E+02  0.45594000000E+02  0.51100000000E-03 0.  1.
         11   -1    0    0    0    0 -0.00000000000E+00 -0.00000000000E+00 -0.45593999997E+02  0.45594000000E+02  0.51100000000E-03 0. -1.
    9900012    2    1    2    0    0 -0.27987603209E+02  0.14392915901E+02 -0.51242852474E+01  0.59301948805E+02  0.50000008712E+02 0.  0.
        -12    1    1    2    0    0  0.27987603209E+02 -0.14392915901E+02  0.51242852474E+01  0.31886051195E+02  0.00000000000E+00 0.  1.
         11    1    3    3    0    0 -0.15904945846E+02  0.29369032798E+01 -0.41272905423E+01  0.16692130803E+02  0.51100000000E-03 0. -1.
        -11    1    3    3    0    0 -0.19819247501E+01  0.26445876481E+01  0.18586717637E+02  0.18878239916E+02  0.51100000000E-03 0.  1.
         12    1    3    3    0    0 -0.10100732612E+02  0.88114249734E+01 -0.19583712342E+02  0.23731578086E+02  0.00000000000E+00 0. -1.
</event>
<event>
 7    1  0.6285940E-013  0.5930194E+02  0.7816164E-02  0.1266605E+00
        -11   -1    0    0    0    0  0.00000000000E+00  0.00000000000E+00  0.45593999997E+02  0.45594000000E+02  0.51100000000E-03 0.  1.
         11   -1    0    0    0    0 -0.00000000000E+00 -0.00000000000E+00 -0.45593999997E+02  0.45594000000E+02  0.51100000000E-03 0. -1.
    9900012    2    1    2    0    0 -0.19048654955E+02 -0.12473747927E+02 -0.22322071946E+02  0.59301944444E+02  0.50000000760E+02 0.  0.
        -12    1    1    2    0    0  0.19048654955E+02  0.12473747927E+02  0.22322071946E+02  0.31886055556E+02  0.00000000000E+00 0.  1.
         11    1    3    3    0    0 -0.31082982982E+02 -0.72063809750E+01 -0.96039480419E+01  0.33321458192E+02  0.51100000000E-03 0.  1.
        -11    1    3    3    0    0  0.18337946496E+01 -0.56882548292E+01  0.34187633158E+01  0.68852733199E+01  0.51100000000E-03 0. -1.
         12    1    3    3    0    0  0.10200533377E+02  0.42088787748E+00 -0.16136887220E+02  0.19095212932E+02  0.00000000000E+00 0. -1.
</event>
<event>
 7    1  0.6285940E-013  0.5930194E+02  0.7816164E-02  0.1266605E+00
        -11   -1    0    0    0    0  0.00000000000E+00  0.00000000000E+00  0.45593999997E+02  0.45594000000E+02  0.51100000000E-03 0.  1.
         11   -1    0    0    0    0 -0.00000000000E+00 -0.00000000000E+00 -0.45593999997E+02  0.45594000000E+02  0.51100000000E-03 0. -1.
    9900012    2    1    2    0    0  0.29392333166E+02  0.11962338990E+02  0.31167363804E+01  0.59301939586E+02  0.49999991899E+02 0.  0.
        -12    1    1    2    0    0 -0.29392333166E+02 -0.11962338990E+02 -0.31167363804E+01  0.31886060414E+02  0.00000000000E+00 0.  1.
         11    1    3    3    0    0 -0.73256216014E+01 -0.90565193584E+01  0.53354125582E+01  0.12812177885E+02  0.51100000000E-03 0.  1.
        -11    1    3    3    0    0  0.16468252283E+02  0.19726625944E+02 -0.44390898136E+01  0.26077741908E+02  0.51100000000E-03 0. -1.
        -12    1    3    3    0    0  0.20249702485E+02  0.12922324039E+01  0.22204136357E+01  0.20412019793E+02  0.00000000000E+00 0.  1.
</event>
<event>
 7    1  0.6285940E-013  0.5930194E+02  0.7816164E-02  0.1266605E+00
        -11   -1    0    0    0    0  0.00000000000E+00  0.00000000000E+00  0.45593999997E+02  0.45594000000E+02  0.51100000000E-03 0.  1.
         11   -1    0    0    0    0 -0.00000000000E+00 -0.00000000000E+00 -0.45593999997E+02  0.45594000000E+02  0.51100000000E-03 0. -1.
    9900012    2    1    2    0    0  0.25941288552E+02 -0.15817358816E+02 -0.96737437640E+01  0.59301943328E+02  0.49999998725E+02 0.  0.
        -12    1    1    2    0    0 -0.25941288552E+02  0.15817358816E+02  0.96737437640E+01  0.31886056672E+02  0.00000000000E+00 0.  1.
         11    1    3    3    0    0  0.14354102337E+02  0.14399478837E+01  0.13560936006E+02  0.19799310328E+02  0.51100000000E-03 0. -1.
        -11    1    3    3    0    0  0.10539827822E+02  0.53102134456E+00 -0.43027845544E+00  0.10561964495E+02  0.51100000000E-03 0.  1.
        -12    1    3    3    0    0  0.10473583922E+01 -0.17788328045E+02 -0.22804401315E+02  0.28940668506E+02  0.00000000000E+00 0.  1.
</event>
<event>
 7    1  0.6285940E-013  0.5930181E+02  0.7816164E-02  0.1266605E+00
        -11   -1    0    0    0    0  0.00000000000E+00  0.00000000000E+00  0.45593999997E+02  0.45594000000E+02  0.51100000000E-03 0.  1.
         11   -1    0    0    0    0 -0.00000000000E+00 -0.00000000000E+00 -0.45593999997E+02  0.45594000000E+02  0.51100000000E-03 0. -1.
    9900012    2    1    2    0    0 -0.94141060406E-01  0.23557438411E+02 -0.21488767444E+02  0.59301813441E+02  0.49999761841E+02 0.  0.
        -12    1    1    2    0    0  0.94141060406E-01 -0.23557438411E+02  0.21488767444E+02  0.31886186559E+02  0.00000000000E+00 0.  1.
         11    1    3    3    0    0  0.12043567100E+02  0.16534463429E+02 -0.92569975048E+01  0.22452794758E+02  0.51100000000E-03 0. -1.
        -11    1    3    3    0    0 -0.14196167865E+02  0.16620212361E+02 -0.15166426709E+02  0.26604194037E+02  0.51100000000E-03 0.  1.
        -12    1    3    3    0    0  0.20584597045E+01 -0.95972373796E+01  0.29346567703E+01  0.10244824646E+02  0.00000000000E+00 0.  1.
</event>
<event>
 7    1  0.6285940E-013  0.5930195E+02  0.7816164E-02  0.1266605E+00
        -11   -1    0    0    0    0  0.00000000000E+00  0.00000000000E+00  0.45593999997E+02  0.45594000000E+02  0.51100000000E-03 0. -1.
         11   -1    0    0    0    0 -0.00000000000E+00 -0.00000000000E+00 -0.45593999997E+02  0.45594000000E+02  0.51100000000E-03 0.  1.
    9900012    2    1    2    0    0 -0.96654692123E+01  0.16843161558E+02  0.25290445345E+02  0.59301952705E+02  0.50000015824E+02 0.  0.
        -12    1    1    2    0    0  0.96654692123E+01 -0.16843161558E+02 -0.25290445345E+02  0.31886047295E+02  0.00000000000E+00 0.  1.
         11    1    3    3    0    0 -0.17717776211E+02  0.18046689593E+02  0.16306688343E+02  0.30091704573E+02  0.51100000000E-03 0. -1.
        -11    1    3    3    0    0 -0.30298275285E+01  0.71895901549E+01  0.12623527154E+02  0.14839929228E+02  0.51100000000E-03 0.  1.
        -12    1    3    3    0    0  0.11082134527E+02 -0.83931181895E+01 -0.36397701513E+01  0.14370318903E+02  0.00000000000E+00 0.  1.
</event>
<event>
 7    1  0.6285940E-013  0.5930190E+02  0.7816164E-02  0.1266605E+00
        -11   -1    0    0    0    0  0.00000000000E+00  0.00000000000E+00  0.45593999997E+02  0.45594000000E+02  0.51100000000E-03 0.  1.
         11   -1    0    0    0    0 -0.00000000000E+00 -0.00000000000E+00 -0.45593999997E+02  0.45594000000E+02  0.51100000000E-03 0. -1.
    9900012    2    1    2    0    0 -0.30016500228E+02 -0.10730390793E+02 -0.76924461878E+00  0.59301900995E+02  0.49999921518E+02 0.  0.
        -12    1    1    2    0    0  0.30016500228E+02  0.10730390793E+02  0.76924461878E+00  0.31886099005E+02  0.00000000000E+00 0.  1.
         11    1    3    3    0    0 -0.20487467109E+02 -0.18633785601E+02  0.65610947801E+01  0.28460538283E+02  0.51100000000E-03 0. -1.
        -11    1    3    3    0    0 -0.11293236403E+02  0.32106938031E+01  0.83316182868E+01  0.14396583160E+02  0.51100000000E-03 0.  1.
        -12    1    3    3    0    0  0.17642032843E+01  0.46927010055E+01 -0.15661957686E+02  0.16444779552E+02  0.00000000000E+00 0.  1.
</event>
<event>
 7    1  0.6285940E-013  0.5930192E+02  0.7816164E-02  0.1266605E+00
        -11   -1    0    0    0    0  0.00000000000E+00  0.00000000000E+00  0.45593999997E+02  0.45594000000E+02  0.51100000000E-03 0. -1.
         11   -1    0    0    0    0 -0.00000000000E+00 -0.00000000000E+00 -0.45593999997E+02  0.45594000000E+02  0.51100000000E-03 0.  1.
    9900012    2    1    2    0    0  0.23668255707E+02  0.18193137538E+02  0.11204707151E+02  0.59301920843E+02  0.49999957716E+02 0.  0.
        -12    1    1    2    0    0 -0.23668255707E+02 -0.18193137538E+02 -0.11204707151E+02  0.31886079157E+02  0.00000000000E+00 0.  1.
         11    1    3    3    0    0 -0.10686880417E+02  0.10048798973E+02 -0.86024988337E+01  0.17005609671E+02  0.51100000000E-03 0. -1.
        -11    1    3    3    0    0  0.41407501520E+00 -0.19067930367E+01  0.13731427177E+01  0.23859670969E+01  0.51100000000E-03 0.  1.
         12    1    3    3    0    0  0.33941061109E+02  0.10051131601E+02  0.18434063267E+02  0.39910344075E+02  0.00000000000E+00 0. -1.
</event>
<event>
 7    1  0.6285940E-013  0.5930194E+02  0.7816164E-02  0.1266605E+00
        -11   -1    0    0    0    0  0.00000000000E+00  0.00000000000E+00  0.45593999997E+02  0.45594000000E+02  0.51100000000E-03 0.  1.
         11   -1    0    0    0    0 -0.00000000000E+00 -0.00000000000E+00 -0.45593999997E+02  0.45594000000E+02  0.51100000000E-03 0. -1.
    9900012    2    1    2    0    0 -0.10991345634E+02  0.29876898817E+02 -0.18115653659E+01  0.59301944571E+02  0.50000000991E+02 0.  0.
        -12    1    1    2    0    0  0.10991345634E+02 -0.29876898817E+02  0.18115653659E+01  0.31886055429E+02  0.00000000000E+00 0.  1.
         11    1    3    3    0    0 -0.11871993619E+02  0.25011270120E+02  0.34695532808E+01  0.27902431180E+02  0.51100000000E-03 0. -1.
        -11    1    3    3    0    0 -0.89173373661E+01 -0.59285493992E+01 -0.11354207984E+02  0.15607198431E+02  0.51100000000E-03 0.  1.
         12    1    3    3    0    0  0.97979853509E+01  0.10794178096E+02  0.60730893370E+01  0.15792314960E+02  0.00000000000E+00 0. -1.
</event>
<event>
 7    1  0.6285940E-013  0.5930198E+02  0.7816164E-02  0.1266605E+00
        -11   -1    0    0    0    0  0.00000000000E+00  0.00000000000E+00  0.45593999997E+02  0.45594000000E+02  0.51100000000E-03 0.  1.
         11   -1    0    0    0    0 -0.00000000000E+00 -0.00000000000E+00 -0.45593999997E+02  0.45594000000E+02  0.51100000000E-03 0. -1.
    9900012    2    1    2    0    0 -0.26245989909E+02 -0.41714636887E+01 -0.17620023365E+02  0.59301979255E+02  0.50000064246E+02 0.  0.
        -12    1    1    2    0    0  0.26245989909E+02  0.41714636887E+01  0.17620023365E+02  0.31886020745E+02  0.00000000000E+00 0.  1.
         11    1    3    3    0    0 -0.27787867197E+01 -0.10040831939E+02 -0.17044636565E+02  0.19976476104E+02  0.51100000000E-03 0. -1.
        -11    1    3    3    0    0  0.23591460050E+01 -0.91182836710E+01 -0.91987315986E+00  0.94633415805E+01  0.51100000000E-03 0.  1.
        -12    1    3    3    0    0 -0.25826349194E+02  0.14987651921E+02  0.34448635958E+00  0.29862161570E+02  0.00000000000E+00 0.  1.
</event>
<event>
 7    1  0.6285940E-013  0.5930192E+02  0.7816164E-02  0.1266605E+00
        -11   -1    0    0    0    0  0.00000000000E+00  0.00000000000E+00  0.45593999997E+02  0.45594000000E+02  0.51100000000E-03 0.  1.
         11   -1    0    0    0    0 -0.00000000000E+00 -0.00000000000E+00 -0.45593999997E+02  0.45594000000E+02  0.51100000000E-03 0. -1.
    9900012    2    1    2    0    0 -0.52011308651E+00 -0.62306057670E+01 -0.31267088353E+02  0.59301924984E+02  0.49999965269E+02 0.  0.
        -12    1    1    2    0    0  0.52011308651E+00  0.62306057670E+01  0.31267088353E+02  0.31886075016E+02  0.00000000000E+00 0.  1.
         11    1    3    3    0    0  0.81186888537E+01 -0.15916232106E+02  0.14546874864E+01  0.17926395876E+02  0.51100000000E-03 0. -1.
        -11    1    3    3    0    0  0.44175352973E+01  0.58213613493E+01 -0.17084279358E+01  0.75047713046E+01  0.51100000000E-03 0.  1.
        -12    1    3    3    0    0 -0.13056337237E+02  0.38642649901E+01 -0.31013347904E+02  0.33870757803E+02  0.00000000000E+00 0.  1.
</event>
<event>
 7    1  0.6285940E-013  0.5930196E+02  0.7816164E-02  0.1266605E+00
        -11   -1    0    0    0    0  0.00000000000E+00  0.00000000000E+00  0.45593999997E+02  0.45594000000E+02  0.51100000000E-03 0. -1.
         11   -1    0    0    0    0 -0.00000000000E+00 -0.00000000000E+00 -0.45593999997E+02  0.45594000000E+02  0.51100000000E-03 0.  1.
    9900012    2    1    2    0    0 -0.21939086261E+02 -0.20039005089E+01  0.23051693290E+02  0.59301957807E+02  0.50000025130E+02 0.  0.
        -12    1    1    2    0    0  0.21939086261E+02  0.20039005089E+01 -0.23051693290E+02  0.31886042193E+02  0.00000000000E+00 0.  1.
         11    1    3    3    0    0 -0.20679759561E+02 -0.90404524911E+01  0.22585290363E+02  0.31929258961E+02  0.51100000000E-03 0. -1.
        -11    1    3    3    0    0 -0.31849566358E+00 -0.32159893962E+01  0.11698048341E+02  0.12136241697E+02  0.51100000000E-03 0.  1.
        -12    1    3    3    0    0 -0.94083103584E+00  0.10252541378E+02 -0.11231645414E+02  0.15236457149E+02  0.00000000000E+00 0.  1.
</event>
<event>
 7    1  0.6285940E-013  0.5930187E+02  0.7816164E-02  0.1266605E+00
        -11   -1    0    0    0    0  0.00000000000E+00  0.00000000000E+00  0.45593999997E+02  0.45594000000E+02  0.51100000000E-03 0.  1.
         11   -1    0    0    0    0 -0.00000000000E+00 -0.00000000000E+00 -0.45593999997E+02  0.45594000000E+02  0.51100000000E-03 0. -1.
    9900012    2    1    2    0    0 -0.23988319720E+02 -0.18233058872E+02  0.10432706702E+02  0.59301869975E+02  0.49999864946E+02 0.  0.
        -12    1    1    2    0    0  0.23988319720E+02  0.18233058872E+02 -0.10432706702E+02  0.31886130025E+02  0.00000000000E+00 0.  1.
         11    1    3    3    0    0  0.78347239040E+00 -0.13719832729E+02 -0.48522763168E+01  0.14573682609E+02  0.51100000000E-03 0. -1.
        -11    1    3    3    0    0  0.41319687718E+01 -0.11563563729E+02  0.47680446386E+01  0.13172828929E+02  0.51100000000E-03 0.  1.
        -12    1    3    3    0    0 -0.28903760882E+02  0.70503375855E+01  0.10516938381E+02  0.31555358437E+02  0.00000000000E+00 0.  1.
</event>
<event>
 7    1  0.6285940E-013  0.5930197E+02  0.7816164E-02  0.1266605E+00
        -11   -1    0    0    0    0  0.00000000000E+00  0.00000000000E+00  0.45593999997E+02  0.45594000000E+02  0.51100000000E-03 0. -1.
         11   -1    0    0    0    0 -0.00000000000E+00 -0.00000000000E+00 -0.45593999997E+02  0.45594000000E+02  0.51100000000E-03 0.  1.
    9900012    2    1    2    0    0  0.22204097532E+02 -0.22652865619E+02 -0.32472474608E+01  0.59301970394E+02  0.50000048085E+02 0.  0.
        -12    1    1    2    0    0 -0.22204097532E+02  0.22652865619E+02  0.32472474608E+01  0.31886029606E+02  0.00000000000E+00 0.  1.
         11    1    3    3    0    0 -0.12670209130E+01 -0.20321755260E+02 -0.97745906737E+01  0.22585873946E+02  0.51100000000E-03 0. -1.
        -11    1    3    3    0    0  0.33157287225E+01 -0.10770478844E+02  0.94027254609E+01  0.14676802031E+02  0.51100000000E-03 0.  1.
        -12    1    3    3    0    0  0.20155389723E+02  0.84393684845E+01 -0.28753822479E+01  0.22039294416E+02  0.00000000000E+00 0.  1.
</event>
<event>
 7    1  0.6285940E-013  0.5930195E+02  0.7816164E-02  0.1266605E+00
        -11   -1    0    0    0    0  0.00000000000E+00  0.00000000000E+00  0.45593999997E+02  0.45594000000E+02  0.51100000000E-03 0.  1.
         11   -1    0    0    0    0 -0.00000000000E+00 -0.00000000000E+00 -0.45593999997E+02  0.45594000000E+02  0.51100000000E-03 0. -1.
    9900012    2    1    2    0    0  0.12757750516E+01 -0.12783741721E+02 -0.29183359581E+02  0.59301950843E+02  0.50000012430E+02 0.  0.
        -12    1    1    2    0    0 -0.12757750516E+01  0.12783741721E+02  0.29183359581E+02  0.31886049157E+02  0.00000000000E+00 0.  1.
         11    1    3    3    0    0  0.23342778394E+01  0.24378481235E+01  0.59044065236E+01  0.68010273608E+01  0.51100000000E-03 0. -1.
        -11    1    3    3    0    0 -0.10266439131E+02 -0.14917291031E+02 -0.20755766918E+01  0.18227269763E+02  0.51100000000E-03 0.  1.
         12    1    3    3    0    0  0.92079363436E+01 -0.30429881374E+00 -0.33012189413E+02  0.34273653720E+02  0.00000000000E+00 0. -1.
</event>
<event>
 7    1  0.6285940E-013  0.5930194E+02  0.7816164E-02  0.1266605E+00
        -11   -1    0    0    0    0  0.00000000000E+00  0.00000000000E+00  0.45593999997E+02  0.45594000000E+02  0.51100000000E-03 0. -1.
         11   -1    0    0    0    0 -0.00000000000E+00 -0.00000000000E+00 -0.45593999997E+02  0.45594000000E+02  0.51100000000E-03 0.  1.
    9900012    2    1    2    0    0 -0.87751578732E+01  0.26353387556E+02  0.15659392055E+02  0.59301937357E+02  0.49999987834E+02 0.  0.
        -12    1    1    2    0    0  0.87751578732E+01 -0.26353387556E+02 -0.15659392055E+02  0.31886062643E+02  0.00000000000E+00 0.  1.
         11    1    3    3    0    0  0.11034800070E+01  0.21394810021E+02  0.16512926290E+01  0.21486794353E+02  0.51100000000E-03 0. -1.
        -11    1    3    3    0    0  0.11922337084E+02  0.47787346461E+01  0.22339301801E+01  0.13037211001E+02  0.51100000000E-03 0.  1.
         12    1    3    3    0    0 -0.21800974965E+02  0.17984288824E+00  0.11774169246E+02  0.24777932002E+02  0.00000000000E+00 0. -1.
</event>
<event>
 7    1  0.6285940E-013  0.5930194E+02  0.7816164E-02  0.1266605E+00
        -11   -1    0    0    0    0  0.00000000000E+00  0.00000000000E+00  0.45593999997E+02  0.45594000000E+02  0.51100000000E-03 0. -1.
         11   -1    0    0    0    0 -0.00000000000E+00 -0.00000000000E+00 -0.45593999997E+02  0.45594000000E+02  0.51100000000E-03 0.  1.
    9900012    2    1    2    0    0  0.75672654387E+01 -0.19792579691E+01  0.30911806920E+02  0.59301940736E+02  0.49999993996E+02 0.  0.
        -12    1    1    2    0    0 -0.75672654387E+01  0.19792579691E+01 -0.30911806920E+02  0.31886059264E+02  0.00000000000E+00 0.  1.
         11    1    3    3    0    0  0.16519101145E+02  0.62652925894E+01  0.28989339722E+02  0.33948732106E+02  0.51100000000E-03 0. -1.
        -11    1    3    3    0    0  0.12359607387E+01 -0.97612514128E+01  0.86084019315E+01  0.13073416239E+02  0.51100000000E-03 0.  1.
        -12    1    3    3    0    0 -0.10187796445E+02  0.15167008543E+01 -0.66859347328E+01  0.12279792390E+02  0.00000000000E+00 0.  1.
</event>
<event>
 7    1  0.6285940E-013  0.5930193E+02  0.7816164E-02  0.1266605E+00
        -11   -1    0    0    0    0  0.00000000000E+00  0.00000000000E+00  0.45593999997E+02  0.45594000000E+02  0.51100000000E-03 0.  1.
         11   -1    0    0    0    0 -0.00000000000E+00 -0.00000000000E+00 -0.45593999997E+02  0.45594000000E+02  0.51100000000E-03 0. -1.
    9900012    2    1    2    0    0 -0.77526769622E+01  0.44042719127E+01 -0.30614045578E+02  0.59301930976E+02  0.49999976197E+02 0.  0.
        -12    1    1    2    0    0  0.77526769622E+01 -0.44042719127E+01  0.30614045578E+02  0.31886069024E+02  0.00000000000E+00 0.  1.
         11    1    3    3    0    0  0.39693242820E+01  0.58332469452E+01 -0.39700225077E+01  0.80958868663E+01  0.51100000000E-03 0. -1.
        -11    1    3    3    0    0  0.14809801116E+02 -0.49314107521E+01 -0.39103458900E+01  0.16091607327E+02  0.51100000000E-03 0.  1.
         12    1    3    3    0    0 -0.26531802361E+02  0.35024357197E+01 -0.22733677180E+02  0.35114436783E+02  0.00000000000E+00 0. -1.
</event>
<event>
 7    1  0.6285940E-013  0.5930196E+02  0.7816164E-02  0.1266605E+00
        -11   -1    0    0    0    0  0.00000000000E+00  0.00000000000E+00  0.45593999997E+02  0.45594000000E+02  0.51100000000E-03 0. -1.
         11   -1    0    0    0    0 -0.00000000000E+00 -0.00000000000E+00 -0.45593999997E+02  0.45594000000E+02  0.51100000000E-03 0.  1.
    9900012    2    1    2    0    0  0.39710359405E+01  0.30212589081E+02 -0.93888319611E+01  0.59301955544E+02  0.50000021003E+02 0.  0.
        -12    1    1    2    0    0 -0.39710359405E+01 -0.30212589081E+02  0.93888319611E+01  0.31886044456E+02  0.00000000000E+00 0.  1.
         11    1    3    3    0    0  0.82476051467E+01 -0.83004003777E+01 -0.27631477987E+01  0.12023087087E+02  0.51100000000E-03 0. -1.
        -11    1    3    3    0    0  0.31194589789E+01  0.23124365805E+01  0.69123761184E+01  0.79283876748E+01  0.51100000000E-03 0.  1.
        -12    1    3    3    0    0 -0.73960281851E+01  0.36200552879E+02 -0.13538060281E+02  0.39350480782E+02  0.00000000000E+00 0.  1.
</event>
<event>
 7    1  0.6285940E-013  0.5930196E+02  0.7816164E-02  0.1266605E+00
        -11   -1    0    0    0    0  0.00000000000E+00  0.00000000000E+00  0.45593999997E+02  0.45594000000E+02  0.51100000000E-03 0. -1.
         11   -1    0    0    0    0 -0.00000000000E+00 -0.00000000000E+00 -0.45593999997E+02  0.45594000000E+02  0.51100000000E-03 0.  1.
    9900012    2    1    2    0    0  0.21343204087E+02 -0.54212982136E+01  0.23060716905E+02  0.59301960748E+02  0.50000030494E+02 0.  0.
        -12    1    1    2    0    0 -0.21343204087E+02  0.54212982136E+01 -0.23060716905E+02  0.31886039252E+02  0.00000000000E+00 0.  1.
         11    1    3    3    0    0  0.10950699123E+01 -0.10564061346E+02  0.10850147089E+02  0.15183025468E+02  0.51100000000E-03 0. -1.
        -11    1    3    3    0    0 -0.94389425953E+01 -0.39744319745E+01 -0.11607409169E+01  0.10307136682E+02  0.51100000000E-03 0.  1.
         12    1    3    3    0    0  0.29687076770E+02  0.91171951073E+01  0.13371310733E+02  0.33811798599E+02  0.00000000000E+00 0. -1.
</event>
<event>
 7    1  0.6285940E-013  0.5930192E+02  0.7816164E-02  0.1266605E+00
        -11   -1    0    0    0    0  0.00000000000E+00  0.00000000000E+00  0.45593999997E+02  0.45594000000E+02  0.51100000000E-03 0.  1.
         11   -1    0    0    0    0 -0.00000000000E+00 -0.00000000000E+00 -0.45593999997E+02  0.45594000000E+02  0.51100000000E-03 0. -1.
    9900012    2    1    2    0    0  0.20017367586E+02 -0.54384256813E+01 -0.24216735961E+02  0.59301924990E+02  0.49999965280E+02 0.  0.
        -12    1    1    2    0    0 -0.20017367586E+02  0.54384256813E+01  0.24216735961E+02  0.31886075010E+02  0.00000000000E+00 0.  1.
         11    1    3    3    0    0  0.88046783522E+01 -0.21570978841E+02 -0.82459471670E+01  0.24714876775E+02  0.51100000000E-03 0. -1.
        -11    1    3    3    0    0  0.19697266443E+01 -0.48769565414E+01 -0.93003363197E+01  0.10684605003E+02  0.51100000000E-03 0.  1.
        -12    1    3    3    0    0  0.92429625892E+01  0.21009509701E+02 -0.66704524738E+01  0.23902443212E+02  0.00000000000E+00 0.  1.
</event>
<event>
 7    1  0.6285940E-013  0.5930195E+02  0.7816164E-02  0.1266605E+00
        -11   -1    0    0    0    0  0.00000000000E+00  0.00000000000E+00  0.45593999997E+02  0.45594000000E+02  0.51100000000E-03 0. -1.
         11   -1    0    0    0    0 -0.00000000000E+00 -0.00000000000E+00 -0.45593999997E+02  0.45594000000E+02  0.51100000000E-03 0.  1.
    9900012    2    1    2    0    0 -0.31160383031E+02  0.65517979490E+01 -0.16806228136E+01  0.59301952580E+02  0.50000015597E+02 0.  0.
        -12    1    1    2    0    0  0.31160383031E+02 -0.65517979490E+01  0.16806228136E+01  0.31886047420E+02  0.00000000000E+00 0.  1.
         11    1    3    3    0    0 -0.77496793495E+01 -0.83076364462E+01 -0.50875969214E+00  0.11372475106E+02  0.51100000000E-03 0. -1.
        -11    1    3    3    0    0  0.55211525671E+01  0.25295965599E+01  0.12298705108E+02  0.13716418338E+02  0.51100000000E-03 0.  1.
         12    1    3    3    0    0 -0.28931856249E+02  0.12329837835E+02 -0.13470568229E+02  0.34213059137E+02  0.00000000000E+00 0. -1.
</event>
<event>
 7    1  0.6285940E-013  0.5930195E+02  0.7816164E-02  0.1266605E+00
        -11   -1    0    0    0    0  0.00000000000E+00  0.00000000000E+00  0.45593999997E+02  0.45594000000E+02  0.51100000000E-03 0.  1.
         11   -1    0    0    0    0 -0.00000000000E+00 -0.00000000000E+00 -0.45593999997E+02  0.45594000000E+02  0.51100000000E-03 0. -1.
    9900012    2    1    2    0    0  0.26549803583E+02  0.12498123929E+02  0.12474975247E+02  0.59301950080E+02  0.50000011039E+02 0.  0.
        -12    1    1    2    0    0 -0.26549803583E+02 -0.12498123929E+02 -0.12474975247E+02  0.31886049920E+02  0.00000000000E+00 0.  1.
         11    1    3    3    0    0 -0.35219408362E+01 -0.77086547440E+01  0.78702667581E+01  0.11565834355E+02  0.51100000000E-03 0. -1.
        -11    1    3    3    0    0  0.48789627662E+01 -0.25115660735E+01  0.11839872449E+02  0.13049705808E+02  0.51100000000E-03 0.  1.
         12    1    3    3    0    0  0.25192781653E+02  0.22718344747E+02 -0.72351639596E+01  0.34686409918E+02  0.00000000000E+00 0. -1.
</event>
<event>
 7    1  0.6285940E-013  0.5930199E+02  0.7816164E-02  0.1266605E+00
        -11   -1    0    0    0    0  0.00000000000E+00  0.00000000000E+00  0.45593999997E+02  0.45594000000E+02  0.51100000000E-03 0. -1.
         11   -1    0    0    0    0 -0.00000000000E+00 -0.00000000000E+00 -0.45593999997E+02  0.45594000000E+02  0.51100000000E-03 0.  1.
    9900012    2    1    2    0    0 -0.14249885231E+02  0.20783164887E+02  0.19537614179E+02  0.59301991476E+02  0.50000086535E+02 0.  0.
        -12    1    1    2    0    0  0.14249885231E+02 -0.20783164887E+02 -0.19537614179E+02  0.31886008524E+02  0.00000000000E+00 0.  1.
         11    1    3    3    0    0 -0.88457611865E+01  0.30233429877E+02  0.91075394141E+01  0.32791081829E+02  0.51100000000E-03 0.  1.
        -11    1    3    3    0    0  0.47822623834E+01  0.28427588651E+01  0.88693699652E+01  0.10469815438E+02  0.51100000000E-03 0. -1.
        -12    1    3    3    0    0 -0.10186386427E+02 -0.12293023855E+02  0.15607047992E+01  0.16041094209E+02  0.00000000000E+00 0.  1.
</event>
<event>
 7    1  0.6285940E-013  0.5930194E+02  0.7816164E-02  0.1266605E+00
        -11   -1    0    0    0    0  0.00000000000E+00  0.00000000000E+00  0.45593999997E+02  0.45594000000E+02  0.51100000000E-03 0.  1.
         11   -1    0    0    0    0 -0.00000000000E+00 -0.00000000000E+00 -0.45593999997E+02  0.45594000000E+02  0.51100000000E-03 0. -1.
    9900012    2    1    2    0    0  0.20760203653E+02  0.78158753091E+01 -0.22905168907E+02  0.59301941523E+02  0.49999995432E+02 0.  0.
        -12    1    1    2    0    0 -0.20760203653E+02 -0.78158753091E+01  0.22905168907E+02  0.31886058477E+02  0.00000000000E+00 0.  1.
         11    1    3    3    0    0 -0.94518142239E+00  0.37055920374E+00 -0.12642565977E+02  0.12683262861E+02  0.51100000000E-03 0. -1.
        -11    1    3    3    0    0  0.28294115045E+01  0.21630439893E+02 -0.60038956155E+01  0.22625831747E+02  0.51100000000E-03 0.  1.
         12    1    3    3    0    0  0.18875973571E+02 -0.14185123787E+02 -0.42587073138E+01  0.23992846915E+02  0.00000000000E+00 0. -1.
</event>
<event>
 7    1  0.6285940E-013  0.5930193E+02  0.7816164E-02  0.1266605E+00
        -11   -1    0    0    0    0  0.00000000000E+00  0.00000000000E+00  0.45593999997E+02  0.45594000000E+02  0.51100000000E-03 0.  1.
         11   -1    0    0    0    0 -0.00000000000E+00 -0.00000000000E+00 -0.45593999997E+02  0.45594000000E+02  0.51100000000E-03 0. -1.
    9900012    2    1    2    0    0 -0.17755589508E+02  0.34176545665E+01 -0.26263663925E+02  0.59301931501E+02  0.49999977155E+02 0.  0.
        -12    1    1    2    0    0  0.17755589508E+02 -0.34176545665E+01  0.26263663925E+02  0.31886068499E+02  0.00000000000E+00 0.  1.
         11    1    3    3    0    0 -0.72464691466E+01 -0.23085840958E+01 -0.23651737107E+02  0.24844426821E+02  0.51100000000E-03 0. -1.
        -11    1    3    3    0    0 -0.19888756524E+01 -0.50656281077E+01 -0.14995912039E+02  0.15952855312E+02  0.51100000000E-03 0.  1.
        -12    1    3    3    0    0 -0.85202447091E+01  0.10791866770E+02  0.12383985220E+02  0.18504649368E+02  0.00000000000E+00 0.  1.
</event>
<event>
 7    1  0.6285940E-013  0.5930200E+02  0.7816164E-02  0.1266605E+00
        -11   -1    0    0    0    0  0.00000000000E+00  0.00000000000E+00  0.45593999997E+02  0.45594000000E+02  0.51100000000E-03 0.  1.
         11   -1    0    0    0    0 -0.00000000000E+00 -0.00000000000E+00 -0.45593999997E+02  0.45594000000E+02  0.51100000000E-03 0. -1.
    9900012    2    1    2    0    0 -0.24802653787E+02  0.31615253940E+01 -0.19787622861E+02  0.59302001565E+02  0.50000104934E+02 0.  0.
        -12    1    1    2    0    0  0.24802653787E+02 -0.31615253940E+01  0.19787622861E+02  0.31885998435E+02  0.00000000000E+00 0.  1.
         11    1    3    3    0    0  0.11750279657E+01 -0.45083981936E+01 -0.22823323243E+02  0.23293999852E+02  0.51100000000E-03 0. -1.
        -11    1    3    3    0    0 -0.19756695795E+02  0.20543519115E+01 -0.86193040006E+01  0.21652708658E+02  0.51100000000E-03 0.  1.
        -12    1    3    3    0    0 -0.62209859583E+01  0.56155716761E+01  0.11655004383E+02  0.14355293055E+02  0.00000000000E+00 0.  1.
</event>
<event>
 7    1  0.6285940E-013  0.5930197E+02  0.7816164E-02  0.1266605E+00
        -11   -1    0    0    0    0  0.00000000000E+00  0.00000000000E+00  0.45593999997E+02  0.45594000000E+02  0.51100000000E-03 0.  1.
         11   -1    0    0    0    0 -0.00000000000E+00 -0.00000000000E+00 -0.45593999997E+02  0.45594000000E+02  0.51100000000E-03 0. -1.
    9900012    2    1    2    0    0  0.71329444570E+00 -0.18113102887E+02 -0.26232148111E+02  0.59301970462E+02  0.50000048210E+02 0.  0.
        -12    1    1    2    0    0 -0.71329444570E+00  0.18113102887E+02  0.26232148111E+02  0.31886029538E+02  0.00000000000E+00 0.  1.
         11    1    3    3    0    0  0.12545329427E+02 -0.32922913697E+01 -0.65073010274E+01  0.14511010985E+02  0.51100000000E-03 0. -1.
        -11    1    3    3    0    0  0.55795635530E+01  0.26169934535E+01  0.63952078098E+01  0.88813775604E+01  0.51100000000E-03 0.  1.
        -12    1    3    3    0    0 -0.17411598534E+02 -0.17437804971E+02 -0.26120054894E+02  0.35909581916E+02  0.00000000000E+00 0.  1.
</event>
<event>
 7    1  0.6285940E-013  0.5930201E+02  0.7816164E-02  0.1266605E+00
        -11   -1    0    0    0    0  0.00000000000E+00  0.00000000000E+00  0.45593999997E+02  0.45594000000E+02  0.51100000000E-03 0.  1.
         11   -1    0    0    0    0 -0.00000000000E+00 -0.00000000000E+00 -0.45593999997E+02  0.45594000000E+02  0.51100000000E-03 0. -1.
    9900012    2    1    2    0    0  0.76047027379E+01  0.30855838956E+02  0.26080826968E+01  0.59302009396E+02  0.50000119216E+02 0.  0.
        -12    1    1    2    0    0 -0.76047027379E+01 -0.30855838956E+02 -0.26080826968E+01  0.31885990604E+02  0.00000000000E+00 0.  1.
         11    1    3    3    0    0  0.81137275267E+00  0.25640418883E+02  0.51447004995E+01  0.26164046891E+02  0.51100000000E-03 0. -1.
        -11    1    3    3    0    0  0.47364595971E+00  0.11943380585E+01  0.14484601122E+02  0.14541473578E+02  0.51100000000E-03 0.  1.
         12    1    3    3    0    0  0.63196840255E+01  0.40210820152E+01 -0.17021218924E+02  0.18596488927E+02  0.00000000000E+00 0. -1.
</event>
<event>
 7    1  0.6285940E-013  0.5930187E+02  0.7816164E-02  0.1266605E+00
        -11   -1    0    0    0    0  0.00000000000E+00  0.00000000000E+00  0.45593999997E+02  0.45594000000E+02  0.51100000000E-03 0.  1.
         11   -1    0    0    0    0 -0.00000000000E+00 -0.00000000000E+00 -0.45593999997E+02  0.45594000000E+02  0.51100000000E-03 0. -1.
    9900012    2    1    2    0    0  0.17936889369E+02 -0.25433213624E+02 -0.69386511993E+01  0.59301870791E+02  0.49999866434E+02 0.  0.
        -12    1    1    2    0    0 -0.17936889369E+02  0.25433213624E+02  0.69386511993E+01  0.31886129209E+02  0.00000000000E+00 0.  1.
         11    1    3    3    0    0  0.25856826268E+01 -0.16620391415E+02  0.86663814868E+01  0.18921663082E+02  0.51100000000E-03 0. -1.
        -11    1    3    3    0    0 -0.88659792962E+01  0.34256455276E+01 -0.97825841551E+00  0.95549791182E+01  0.51100000000E-03 0.  1.
         12    1    3    3    0    0  0.24217186038E+02 -0.12238467736E+02 -0.14626774271E+02  0.30825228591E+02  0.00000000000E+00 0. -1.
</event>
<event>
 7    1  0.6285940E-013  0.5930195E+02  0.7816164E-02  0.1266605E+00
        -11   -1    0    0    0    0  0.00000000000E+00  0.00000000000E+00  0.45593999997E+02  0.45594000000E+02  0.51100000000E-03 0. -1.
         11   -1    0    0    0    0 -0.00000000000E+00 -0.00000000000E+00 -0.45593999997E+02  0.45594000000E+02  0.51100000000E-03 0.  1.
    9900012    2    1    2    0    0 -0.18079271833E+02 -0.42843286693E+00  0.26261696551E+02  0.59301947713E+02  0.50000006720E+02 0.  0.
        -12    1    1    2    0    0  0.18079271833E+02  0.42843286693E+00 -0.26261696551E+02  0.31886052287E+02  0.00000000000E+00 0.  1.
         11    1    3    3    0    0 -0.17838100044E+01 -0.76179931784E+01  0.67837427293E+01  0.10355431612E+02  0.51100000000E-03 0. -1.
        -11    1    3    3    0    0 -0.29324950049E+02  0.89160557057E+01  0.18422489452E+02  0.35760828607E+02  0.51100000000E-03 0.  1.
         12    1    3    3    0    0  0.13029488221E+02 -0.17264953943E+01  0.10554643694E+01  0.13185687494E+02  0.00000000000E+00 0. -1.
</event>
<event>
 7    1  0.6285940E-013  0.5930189E+02  0.7816164E-02  0.1266605E+00
        -11   -1    0    0    0    0  0.00000000000E+00  0.00000000000E+00  0.45593999997E+02  0.45594000000E+02  0.51100000000E-03 0.  1.
         11   -1    0    0    0    0 -0.00000000000E+00 -0.00000000000E+00 -0.45593999997E+02  0.45594000000E+02  0.51100000000E-03 0. -1.
    9900012    2    1    2    0    0  0.15334291314E+02  0.27216711842E+02  0.63901671833E+01  0.59301888129E+02  0.49999898054E+02 0.  0.
        -12    1    1    2    0    0 -0.15334291314E+02 -0.27216711842E+02 -0.63901671833E+01  0.31886111871E+02  0.00000000000E+00 0.  1.
         11    1    3    3    0    0  0.12492795294E+02  0.13001866463E+02  0.15178638703E+02  0.23569249859E+02  0.51100000000E-03 0. -1.
        -11    1    3    3    0    0 -0.40575141495E+01  0.18677126579E+01  0.10733297417E+02  0.11625637417E+02  0.51100000000E-03 0.  1.
         12    1    3    3    0    0  0.68990101694E+01  0.12347132721E+02 -0.19521768936E+02  0.24107000853E+02  0.00000000000E+00 0. -1.
</event>
<event>
 7    1  0.6285940E-013  0.5930194E+02  0.7816164E-02  0.1266605E+00
        -11   -1    0    0    0    0  0.00000000000E+00  0.00000000000E+00  0.45593999997E+02  0.45594000000E+02  0.51100000000E-03 0.  1.
         11   -1    0    0    0    0 -0.00000000000E+00 -0.00000000000E+00 -0.45593999997E+02  0.45594000000E+02  0.51100000000E-03 0. -1.
    9900012    2    1    2    0    0  0.24566569142E+02  0.19676055434E+02 -0.51046132221E+01  0.59301944223E+02  0.50000000357E+02 0.  0.
        -12    1    1    2    0    0 -0.24566569142E+02 -0.19676055434E+02  0.51046132221E+01  0.31886055777E+02  0.00000000000E+00 0.  1.
         11    1    3    3    0    0  0.27258978413E+02  0.47344187826E+01 -0.96131295826E+00  0.27683763259E+02  0.51100000000E-03 0. -1.
        -11    1    3    3    0    0  0.62705017373E+01  0.99081992129E+00  0.86112839057E+01  0.10698370293E+02  0.51100000000E-03 0.  1.
         12    1    3    3    0    0 -0.89629110085E+01  0.13950816730E+02 -0.12754584170E+02  0.20919810671E+02  0.00000000000E+00 0. -1.
</event>
<event>
 7    1  0.6285940E-013  0.5930195E+02  0.7816164E-02  0.1266605E+00
        -11   -1    0    0    0    0  0.00000000000E+00  0.00000000000E+00  0.45593999997E+02  0.45594000000E+02  0.51100000000E-03 0.  1.
         11   -1    0    0    0    0 -0.00000000000E+00 -0.00000000000E+00 -0.45593999997E+02  0.45594000000E+02  0.51100000000E-03 0. -1.
    9900012    2    1    2    0    0 -0.20331950040E+01  0.10935703909E+02 -0.29883048459E+02  0.59301951529E+02  0.50000013680E+02 0.  0.
        -12    1    1    2    0    0  0.20331950040E+01 -0.10935703909E+02  0.29883048459E+02  0.31886048471E+02  0.00000000000E+00 0.  1.
         11    1    3    3    0    0  0.56262233602E+01  0.20631998217E+02 -0.12110666898E+02  0.24576451996E+02  0.51100000000E-03 0. -1.
        -11    1    3    3    0    0  0.29310748567E+00  0.73768713800E+01  0.17620998607E+01  0.75900684803E+01  0.51100000000E-03 0.  1.
        -12    1    3    3    0    0 -0.79525258498E+01 -0.17073165688E+02 -0.19534481421E+02  0.27135431053E+02  0.00000000000E+00 0.  1.
</event>
<event>
 7    1  0.6285940E-013  0.5930195E+02  0.7816164E-02  0.1266605E+00
        -11   -1    0    0    0    0  0.00000000000E+00  0.00000000000E+00  0.45593999997E+02  0.45594000000E+02  0.51100000000E-03 0. -1.
         11   -1    0    0    0    0 -0.00000000000E+00 -0.00000000000E+00 -0.45593999997E+02  0.45594000000E+02  0.51100000000E-03 0.  1.
    9900012    2    1    2    0    0  0.26688716464E+01 -0.42743966050E+01  0.31485341981E+02  0.59301951297E+02  0.50000013257E+02 0.  0.
        -12    1    1    2    0    0 -0.26688716464E+01  0.42743966050E+01 -0.31485341981E+02  0.31886048703E+02  0.00000000000E+00 0.  1.
         11    1    3    3    0    0  0.53732314336E+01 -0.40871664647E+01  0.85667200170E+01  0.10907118678E+02  0.51100000000E-03 0. -1.
        -11    1    3    3    0    0  0.18561501375E+02 -0.39972106688E+01  0.34202659538E+01  0.19292621540E+02  0.51100000000E-03 0.  1.
        -12    1    3    3    0    0 -0.21265861162E+02  0.38099805284E+01  0.19498356011E+02  0.29102211079E+02  0.00000000000E+00 0.  1.
</event>
<event>
 7    1  0.6285940E-013  0.5930192E+02  0.7816164E-02  0.1266605E+00
        -11   -1    0    0    0    0  0.00000000000E+00  0.00000000000E+00  0.45593999997E+02  0.45594000000E+02  0.51100000000E-03 0.  1.
         11   -1    0    0    0    0 -0.00000000000E+00 -0.00000000000E+00 -0.45593999997E+02  0.45594000000E+02  0.51100000000E-03 0. -1.
    9900012    2    1    2    0    0  0.15662725281E+02 -0.16821180749E+02 -0.22100884778E+02  0.59301918507E+02  0.49999953456E+02 0.  0.
        -12    1    1    2    0    0 -0.15662725281E+02  0.16821180749E+02  0.22100884778E+02  0.31886081493E+02  0.00000000000E+00 0.  1.
         11    1    3    3    0    0  0.26629588505E+02 -0.11480369516E+01 -0.10856133527E+02  0.28780351079E+02  0.51100000000E-03 0. -1.
        -11    1    3    3    0    0 -0.23919907083E+01 -0.38746212028E+01  0.62573251521E+01  0.77387613566E+01  0.51100000000E-03 0.  1.
        -12    1    3    3    0    0 -0.85748725158E+01 -0.11798522595E+02 -0.17502076403E+02  0.22782806071E+02  0.00000000000E+00 0.  1.
</event>
<event>
 7    1  0.6285940E-013  0.5930196E+02  0.7816164E-02  0.1266605E+00
        -11   -1    0    0    0    0  0.00000000000E+00  0.00000000000E+00  0.45593999997E+02  0.45594000000E+02  0.51100000000E-03 0. -1.
         11   -1    0    0    0    0 -0.00000000000E+00 -0.00000000000E+00 -0.45593999997E+02  0.45594000000E+02  0.51100000000E-03 0.  1.
    9900012    2    1    2    0    0 -0.88848554844E+01 -0.30554144549E+02 -0.20550601708E+01  0.59301957938E+02  0.50000025369E+02 0.  0.
        -12    1    1    2    0    0  0.88848554844E+01  0.30554144549E+02  0.20550601708E+01  0.31886042062E+02  0.00000000000E+00 0.  1.
         11    1    3    3    0    0  0.41227868519E+01 -0.15195048330E+02 -0.29354019468E+01  0.16015725086E+02  0.51100000000E-03 0. -1.
        -11    1    3    3    0    0  0.27081354760E+01  0.28939918338E+01 -0.14283977435E+02  0.14823670198E+02  0.51100000000E-03 0.  1.
         12    1    3    3    0    0 -0.15715777812E+02 -0.18253088053E+02  0.15164319211E+02  0.28462562654E+02  0.00000000000E+00 0. -1.
</event>
<event>
 7    1  0.6285940E-013  0.5930193E+02  0.7816164E-02  0.1266605E+00
        -11   -1    0    0    0    0  0.00000000000E+00  0.00000000000E+00  0.45593999997E+02  0.45594000000E+02  0.51100000000E-03 0. -1.
         11   -1    0    0    0    0 -0.00000000000E+00 -0.00000000000E+00 -0.45593999997E+02  0.45594000000E+02  0.51100000000E-03 0.  1.
    9900012    2    1    2    0    0  0.24318757456E+02 -0.11990739174E+02  0.16779195865E+02  0.59301934015E+02  0.49999981738E+02 0.  0.
        -12    1    1    2    0    0 -0.24318757456E+02  0.11990739174E+02 -0.16779195865E+02  0.31886065985E+02  0.00000000000E+00 0.  1.
         11    1    3    3    0    0  0.58330989108E+01 -0.89153777218E+01  0.44980983382E+01  0.11564682951E+02  0.51100000000E-03 0. -1.
        -11    1    3    3    0    0  0.21736984248E+02 -0.15728947248E+02  0.19162476311E+02  0.32971150486E+02  0.51100000000E-03 0.  1.
        -12    1    3    3    0    0 -0.32513257028E+01  0.12653585796E+02 -0.68813787843E+01  0.14766100578E+02  0.00000000000E+00 0.  1.
</event>
<event>
 7    1  0.6466202E-013  0.5930189E+02  0.7816164E-02  0.1266605E+00
        -11   -1    0    0    0    0  0.00000000000E+00  0.00000000000E+00  0.45593999997E+02  0.45594000000E+02  0.51100000000E-03 0. -1.
         11   -1    0    0    0    0 -0.00000000000E+00 -0.00000000000E+00 -0.45593999997E+02  0.45594000000E+02  0.51100000000E-03 0.  1.
    9900012    2    1    2    0    0 -0.70599489630E+01 -0.12517414852E+02  0.28463936654E+02  0.59301886348E+02  0.49999894806E+02 0.  0.
        -12    1    1    2    0    0  0.70599489630E+01  0.12517414852E+02 -0.28463936654E+02  0.31886113652E+02  0.00000000000E+00 0.  1.
         11    1    3    3    0    0  0.53468133344E+01  0.67744687647E+01  0.19737928196E+02  0.21542229448E+02  0.51100000000E-03 0. -1.
        -11    1    3    3    0    0 -0.98717456205E+01  0.25725925153E+01  0.11729071213E+02  0.15544796738E+02  0.51100000000E-03 0.  1.
        -12    1    3    3    0    0 -0.25350166768E+01 -0.21864476132E+02 -0.30030627548E+01  0.22214860162E+02  0.00000000000E+00 0.  1.
</event>
<event>
 7    1  0.6285940E-013  0.5930195E+02  0.7816164E-02  0.1266605E+00
        -11   -1    0    0    0    0  0.00000000000E+00  0.00000000000E+00  0.45593999997E+02  0.45594000000E+02  0.51100000000E-03 0.  1.
         11   -1    0    0    0    0 -0.00000000000E+00 -0.00000000000E+00 -0.45593999997E+02  0.45594000000E+02  0.51100000000E-03 0. -1.
    9900012    2    1    2    0    0 -0.59700141030E+01  0.29800436575E+02 -0.96443307861E+01  0.59301949684E+02  0.50000010315E+02 0.  0.
        -12    1    1    2    0    0  0.59700141030E+01 -0.29800436575E+02  0.96443307861E+01  0.31886050316E+02  0.00000000000E+00 0.  1.
         11    1    3    3    0    0  0.13864117924E+02  0.64170937947E+01 -0.18616317161E+01  0.15390208949E+02  0.51100000000E-03 0. -1.
        -11    1    3    3    0    0 -0.15048276506E+01 -0.73038774792E+01 -0.91117688118E+00  0.75127475706E+01  0.51100000000E-03 0.  1.
        -12    1    3    3    0    0 -0.18329304376E+02  0.30687220260E+02 -0.68715221888E+01  0.36398993164E+02  0.00000000000E+00 0.  1.
</event>
<event>
 7    1  0.6285940E-013  0.5930192E+02  0.7816164E-02  0.1266605E+00
        -11   -1    0    0    0    0  0.00000000000E+00  0.00000000000E+00  0.45593999997E+02  0.45594000000E+02  0.51100000000E-03 0.  1.
         11   -1    0    0    0    0 -0.00000000000E+00 -0.00000000000E+00 -0.45593999997E+02  0.45594000000E+02  0.51100000000E-03 0. -1.
    9900012    2    1    2    0    0  0.20851937572E+02  0.83126626235E+01 -0.22645498311E+02  0.59301917548E+02  0.49999951707E+02 0.  0.
        -12    1    1    2    0    0 -0.20851937572E+02 -0.83126626235E+01  0.22645498311E+02  0.31886082452E+02  0.00000000000E+00 0.  1.
         11    1    3    3    0    0  0.11831200828E+00 -0.65556467494E+01 -0.39288506027E+01  0.76437143689E+01  0.51100000000E-03 0. -1.
        -11    1    3    3    0    0 -0.18733275967E+01 -0.64513804246E+01  0.81627319942E+01  0.10571653586E+02  0.51100000000E-03 0.  1.
        -12    1    3    3    0    0  0.22606953160E+02  0.21319689797E+02 -0.26879379703E+02  0.41086549593E+02  0.00000000000E+00 0.  1.
</event>
<event>
 7    1  0.6285940E-013  0.5930201E+02  0.7816164E-02  0.1266605E+00
        -11   -1    0    0    0    0  0.00000000000E+00  0.00000000000E+00  0.45593999997E+02  0.45594000000E+02  0.51100000000E-03 0.  1.
         11   -1    0    0    0    0 -0.00000000000E+00 -0.00000000000E+00 -0.45593999997E+02  0.45594000000E+02  0.51100000000E-03 0. -1.
    9900012    2    1    2    0    0 -0.18700447431E+02  0.15578963707E+02 -0.20598681509E+02  0.59302007398E+02  0.50000115572E+02 0.  0.
        -12    1    1    2    0    0  0.18700447431E+02 -0.15578963707E+02  0.20598681509E+02  0.31885992602E+02  0.00000000000E+00 0.  1.
         11    1    3    3    0    0 -0.23376927995E+02  0.84365038504E+01 -0.18082888346E+02  0.30735097379E+02  0.51100000000E-03 0.  1.
        -11    1    3    3    0    0  0.25336494256E+01  0.16315308043E+02 -0.72404137404E+01  0.18028650735E+02  0.51100000000E-03 0. -1.
        -12    1    3    3    0    0  0.21428311382E+01 -0.91728481857E+01  0.47246205777E+01  0.10538259284E+02  0.00000000000E+00 0.  1.
</event>
<event>
 7    1  0.6285940E-013  0.5930187E+02  0.7816164E-02  0.1266605E+00
        -11   -1    0    0    0    0  0.00000000000E+00  0.00000000000E+00  0.45593999997E+02  0.45594000000E+02  0.51100000000E-03 0. -1.
         11   -1    0    0    0    0 -0.00000000000E+00 -0.00000000000E+00 -0.45593999997E+02  0.45594000000E+02  0.51100000000E-03 0.  1.
    9900012    2    1    2    0    0  0.20163259331E+02 -0.19306708407E+02  0.15408409060E+02  0.59301873140E+02  0.49999870718E+02 0.  0.
        -12    1    1    2    0    0 -0.20163259331E+02  0.19306708407E+02 -0.15408409060E+02  0.31886126860E+02  0.00000000000E+00 0.  1.
         11    1    3    3    0    0  0.28323092520E+01  0.80746396013E+01  0.24596466104E+01  0.89034623658E+01  0.51100000000E-03 0. -1.
        -11    1    3    3    0    0  0.17317502627E+02 -0.24743821215E+01 -0.66400677101E+01  0.18711198881E+02  0.51100000000E-03 0.  1.
         12    1    3    3    0    0  0.13447452002E-01 -0.24906965887E+02  0.19588830160E+02  0.31687211893E+02  0.00000000000E+00 0. -1.
</event>
<event>
 7    1  0.6285940E-013  0.5930194E+02  0.7816164E-02  0.1266605E+00
        -11   -1    0    0    0    0  0.00000000000E+00  0.00000000000E+00  0.45593999997E+02  0.45594000000E+02  0.51100000000E-03 0. -1.
         11   -1    0    0    0    0 -0.00000000000E+00 -0.00000000000E+00 -0.45593999997E+02  0.45594000000E+02  0.51100000000E-03 0.  1.
    9900012    2    1    2    0    0  0.30879874931E+02 -0.13895108177E+01 -0.78245379668E+01  0.59301940186E+02  0.49999992994E+02 0.  0.
        -12    1    1    2    0    0 -0.30879874931E+02  0.13895108177E+01  0.78245379668E+01  0.31886059814E+02  0.00000000000E+00 0.  1.
         11    1    3    3    0    0  0.30571137751E+01 -0.41298752838E+01 -0.77768297310E+01  0.93209921907E+01  0.51100000000E-03 0. -1.
        -11    1    3    3    0    0  0.21487776925E+02  0.10169248098E+02 -0.17815526473E+02  0.29707425802E+02  0.51100000000E-03 0.  1.
        -12    1    3    3    0    0  0.63349842309E+01 -0.74288836323E+01  0.17767818237E+02  0.20273522193E+02  0.00000000000E+00 0.  1.
</event>
<event>
 7    1  0.6285940E-013  0.5930186E+02  0.7816164E-02  0.1266605E+00
        -11   -1    0    0    0    0  0.00000000000E+00  0.00000000000E+00  0.45593999997E+02  0.45594000000E+02  0.51100000000E-03 0. -1.
         11   -1    0    0    0    0 -0.00000000000E+00 -0.00000000000E+00 -0.45593999997E+02  0.45594000000E+02  0.51100000000E-03 0.  1.
    9900012    2    1    2    0    0 -0.21907064653E+02  0.21922316589E+02  0.74979018977E+01  0.59301859136E+02  0.49999845177E+02 0.  0.
        -12    1    1    2    0    0  0.21907064653E+02 -0.21922316589E+02 -0.74979018977E+01  0.31886140864E+02  0.00000000000E+00 0.  1.
         11    1    3    3    0    0 -0.93442811238E+01  0.20352828158E+02 -0.81605108759E+00  0.22410246393E+02  0.51100000000E-03 0.  1.
        -11    1    3    3    0    0 -0.78034124258E+01 -0.11146813805E+02  0.16226513053E+02  0.21176506549E+02  0.51100000000E-03 0. -1.
         12    1    3    3    0    0 -0.47593711038E+01  0.12716302236E+02 -0.79125600675E+01  0.15715106194E+02  0.00000000000E+00 0. -1.
</event>
<event>
 7    1  0.6285940E-013  0.5930179E+02  0.7816164E-02  0.1266605E+00
        -11   -1    0    0    0    0  0.00000000000E+00  0.00000000000E+00  0.45593999997E+02  0.45594000000E+02  0.51100000000E-03 0. -1.
         11   -1    0    0    0    0 -0.00000000000E+00 -0.00000000000E+00 -0.45593999997E+02  0.45594000000E+02  0.51100000000E-03 0.  1.
    9900012    2    1    2    0    0 -0.67299310684E+01 -0.52095304011E+01  0.30729449342E+02  0.59301792386E+02  0.49999723441E+02 0.  0.
        -12    1    1    2    0    0  0.67299310684E+01  0.52095304011E+01 -0.30729449342E+02  0.31886207614E+02  0.00000000000E+00 0.  1.
         11    1    3    3    0    0  0.11813436400E+01 -0.72029424273E+01  0.12372099119E+02  0.14364775991E+02  0.51100000000E-03 0. -1.
        -11    1    3    3    0    0 -0.15163367802E+02 -0.78468471510E+01  0.25568287226E+02  0.30744723860E+02  0.51100000000E-03 0.  1.
        -12    1    3    3    0    0  0.72520930938E+01  0.98402591771E+01 -0.72109370033E+01  0.14192292534E+02  0.00000000000E+00 0.  1.
</event>
<event>
 7    1  0.6285940E-013  0.5930193E+02  0.7816164E-02  0.1266605E+00
        -11   -1    0    0    0    0  0.00000000000E+00  0.00000000000E+00  0.45593999997E+02  0.45594000000E+02  0.51100000000E-03 0.  1.
         11   -1    0    0    0    0 -0.00000000000E+00 -0.00000000000E+00 -0.45593999997E+02  0.45594000000E+02  0.51100000000E-03 0. -1.
    9900012    2    1    2    0    0  0.49871785021E+01 -0.15844764519E+02 -0.27217514904E+02  0.59301927341E+02  0.49999969567E+02 0.  0.
        -12    1    1    2    0    0 -0.49871785021E+01  0.15844764519E+02  0.27217514904E+02  0.31886072659E+02  0.00000000000E+00 0.  1.
         11    1    3    3    0    0  0.15436098146E+01 -0.63985685603E+01 -0.67217938535E+01  0.94078118472E+01  0.51100000000E-03 0. -1.
        -11    1    3    3    0    0  0.10818287861E+02 -0.13062024926E+02  0.90529342453E+01  0.19225177922E+02  0.51100000000E-03 0.  1.
         12    1    3    3    0    0 -0.73747191738E+01  0.36158289673E+01 -0.29548655296E+02  0.30668937572E+02  0.00000000000E+00 0. -1.
</event>
<event>
 7    1  0.6285940E-013  0.5930194E+02  0.7816164E-02  0.1266605E+00
        -11   -1    0    0    0    0  0.00000000000E+00  0.00000000000E+00  0.45593999997E+02  0.45594000000E+02  0.51100000000E-03 0.  1.
         11   -1    0    0    0    0 -0.00000000000E+00 -0.00000000000E+00 -0.45593999997E+02  0.45594000000E+02  0.51100000000E-03 0. -1.
    9900012    2    1    2    0    0 -0.30568192721E+02 -0.65919610392E+01 -0.62331798983E+01  0.59301938966E+02  0.49999990769E+02 0.  0.
        -12    1    1    2    0    0  0.30568192721E+02  0.65919610392E+01  0.62331798983E+01  0.31886061034E+02  0.00000000000E+00 0.  1.
         11    1    3    3    0    0 -0.15089810789E+02  0.15497654689E+02 -0.61027936014E+01  0.22474958966E+02  0.51100000000E-03 0. -1.
        -11    1    3    3    0    0 -0.34963259445E-01 -0.46611755483E+01  0.10304386334E+02  0.11309648885E+02  0.51100000000E-03 0.  1.
        -12    1    3    3    0    0 -0.15443418673E+02 -0.17428440180E+02 -0.10434772631E+02  0.25517331116E+02  0.00000000000E+00 0.  1.
</event>
<event>
 7    1  0.6285940E-013  0.5930201E+02  0.7816164E-02  0.1266605E+00
        -11   -1    0    0    0    0  0.00000000000E+00  0.00000000000E+00  0.45593999997E+02  0.45594000000E+02  0.51100000000E-03 0.  1.
         11   -1    0    0    0    0 -0.00000000000E+00 -0.00000000000E+00 -0.45593999997E+02  0.45594000000E+02  0.51100000000E-03 0. -1.
    9900012    2    1    2    0    0 -0.50872010962E+01  0.13050531855E+02 -0.28644724059E+02  0.59302012276E+02  0.50000124469E+02 0.  0.
        -12    1    1    2    0    0  0.50872010962E+01 -0.13050531855E+02  0.28644724059E+02  0.31885987724E+02  0.00000000000E+00 0.  1.
         11    1    3    3    0    0 -0.57833147961E+01  0.62134219081E+01 -0.28281187843E+02  0.29527596040E+02  0.51100000000E-03 0. -1.
        -11    1    3    3    0    0 -0.27350761916E+01 -0.11051513544E+02 -0.16981163472E+01  0.11510872807E+02  0.51100000000E-03 0.  1.
         12    1    3    3    0    0  0.34311898915E+01  0.17888623490E+02  0.13345801312E+01  0.18263543429E+02  0.00000000000E+00 0. -1.
</event>
<event>
 7    1  0.6285940E-013  0.5930195E+02  0.7816164E-02  0.1266605E+00
        -11   -1    0    0    0    0  0.00000000000E+00  0.00000000000E+00  0.45593999997E+02  0.45594000000E+02  0.51100000000E-03 0.  1.
         11   -1    0    0    0    0 -0.00000000000E+00 -0.00000000000E+00 -0.45593999997E+02  0.45594000000E+02  0.51100000000E-03 0. -1.
    9900012    2    1    2    0    0 -0.32649131713E+01  0.20446468787E+02 -0.24248766839E+02  0.59301946041E+02  0.50000003671E+02 0.  0.
        -12    1    1    2    0    0  0.32649131713E+01 -0.20446468787E+02  0.24248766839E+02  0.31886053959E+02  0.00000000000E+00 0.  1.
         11    1    3    3    0    0 -0.10127699766E+02  0.13938566456E+02 -0.37986167976E+01  0.17643226101E+02  0.51100000000E-03 0. -1.
        -11    1    3    3    0    0  0.91481856132E+01 -0.15724164612E+00  0.81196589440E+01  0.12232860932E+02  0.51100000000E-03 0.  1.
         12    1    3    3    0    0 -0.22853990182E+01  0.66651439773E+01 -0.28569808985E+02  0.29425859008E+02  0.00000000000E+00 0. -1.
</event>
<event>
 7    1  0.6285940E-013  0.5930194E+02  0.7816164E-02  0.1266605E+00
        -11   -1    0    0    0    0  0.00000000000E+00  0.00000000000E+00  0.45593999997E+02  0.45594000000E+02  0.51100000000E-03 0. -1.
         11   -1    0    0    0    0 -0.00000000000E+00 -0.00000000000E+00 -0.45593999997E+02  0.45594000000E+02  0.51100000000E-03 0.  1.
    9900012    2    1    2    0    0 -0.25341530728E+02 -0.12075284567E+02  0.15123325211E+02  0.59301942821E+02  0.49999997799E+02 0.  0.
        -12    1    1    2    0    0  0.25341530728E+02  0.12075284567E+02 -0.15123325211E+02  0.31886057179E+02  0.00000000000E+00 0.  1.
         11    1    3    3    0    0 -0.11522732508E+01 -0.18850310068E+02 -0.25686468665E+00  0.18887241806E+02  0.51100000000E-03 0.  1.
        -11    1    3    3    0    0  0.49278839456E+01  0.53589199402E+01  0.69588525958E+01  0.10071131655E+02  0.51100000000E-03 0. -1.
         12    1    3    3    0    0 -0.29117141422E+02  0.14161055608E+01  0.84213373015E+01  0.30343569360E+02  0.00000000000E+00 0. -1.
</event>
<event>
 7    1  0.6285940E-013  0.5930197E+02  0.7816164E-02  0.1266605E+00
        -11   -1    0    0    0    0  0.00000000000E+00  0.00000000000E+00  0.45593999997E+02  0.45594000000E+02  0.51100000000E-03 0.  1.
         11   -1    0    0    0    0 -0.00000000000E+00 -0.00000000000E+00 -0.45593999997E+02  0.45594000000E+02  0.51100000000E-03 0. -1.
    9900012    2    1    2    0    0  0.14180921708E+02  0.28235591189E+02 -0.42862346205E+01  0.59301969242E+02  0.50000045985E+02 0.  0.
        -12    1    1    2    0    0 -0.14180921708E+02 -0.28235591189E+02  0.42862346205E+01  0.31886030758E+02  0.00000000000E+00 0.  1.
         11    1    3    3    0    0  0.33315198893E+01 -0.15331094841E+01 -0.39634249233E+01  0.53998321129E+01  0.51100000000E-03 0. -1.
        -11    1    3    3    0    0  0.11562777998E+02  0.28266208725E+01  0.17807826520E+02  0.21419764383E+02  0.51100000000E-03 0.  1.
        -12    1    3    3    0    0 -0.71337617923E+00  0.26942079800E+02 -0.18130636218E+02  0.32482372746E+02  0.00000000000E+00 0.  1.
</event>
<event>
 7    1  0.6285940E-013  0.5930194E+02  0.7816164E-02  0.1266605E+00
        -11   -1    0    0    0    0  0.00000000000E+00  0.00000000000E+00  0.45593999997E+02  0.45594000000E+02  0.51100000000E-03 0.  1.
         11   -1    0    0    0    0 -0.00000000000E+00 -0.00000000000E+00 -0.45593999997E+02  0.45594000000E+02  0.51100000000E-03 0. -1.
    9900012    2    1    2    0    0 -0.92954225613E+01  0.15724345085E+02 -0.26135440024E+02  0.59301935110E+02  0.49999983736E+02 0.  0.
        -12    1    1    2    0    0  0.92954225613E+01 -0.15724345085E+02  0.26135440024E+02  0.31886064890E+02  0.00000000000E+00 0.  1.
         11    1    3    3    0    0 -0.16564120743E+02  0.12823171098E+02 -0.26359710353E+02  0.33669543258E+02  0.51100000000E-03 0. -1.
        -11    1    3    3    0    0  0.24674755314E+01 -0.10520639080E+02 -0.25673108757E+01  0.11106906299E+02  0.51100000000E-03 0.  1.
        -12    1    3    3    0    0  0.48012226507E+01  0.13421813066E+02  0.27915812050E+01  0.14525485553E+02  0.00000000000E+00 0.  1.
</event>
<event>
 7    1  0.6285940E-013  0.5930196E+02  0.7816164E-02  0.1266605E+00
        -11   -1    0    0    0    0  0.00000000000E+00  0.00000000000E+00  0.45593999997E+02  0.45594000000E+02  0.51100000000E-03 0.  1.
         11   -1    0    0    0    0 -0.00000000000E+00 -0.00000000000E+00 -0.45593999997E+02  0.45594000000E+02  0.51100000000E-03 0. -1.
    9900012    2    1    2    0    0 -0.16986036959E+02 -0.87775158076E+01 -0.25517631289E+02  0.59301956941E+02  0.50000023551E+02 0.  0.
        -12    1    1    2    0    0  0.16986036959E+02  0.87775158076E+01  0.25517631289E+02  0.31886043059E+02  0.00000000000E+00 0.  1.
         11    1    3    3    0    0 -0.75836889250E+01 -0.55036773302E+00 -0.31769819579E+01  0.82406587707E+01  0.51100000000E-03 0. -1.
        -11    1    3    3    0    0 -0.13188067861E+02  0.51751899364E+01  0.89872470307E+01  0.16777316062E+02  0.51100000000E-03 0.  1.
         12    1    3    3    0    0  0.37857198269E+01 -0.13402338011E+02 -0.31327896362E+02  0.34283982109E+02  0.00000000000E+00 0. -1.
</event>
<event>
 7    1  0.6285940E-013  0.5930195E+02  0.7816164E-02  0.1266605E+00
        -11   -1    0    0    0    0  0.00000000000E+00  0.00000000000E+00  0.45593999997E+02  0.45594000000E+02  0.51100000000E-03 0.  1.
         11   -1    0    0    0    0 -0.00000000000E+00 -0.00000000000E+00 -0.45593999997E+02  0.45594000000E+02  0.51100000000E-03 0. -1.
    9900012    2    1    2    0    0  0.13419892176E+02  0.28424100864E+02  0.53569548803E+01  0.59301953184E+02  0.50000016700E+02 0.  0.
        -12    1    1    2    0    0 -0.13419892176E+02 -0.28424100864E+02 -0.53569548803E+01  0.31886046816E+02  0.00000000000E+00 0.  1.
         11    1    3    3    0    0  0.14708843692E+01  0.20194313446E+01  0.10301855886E+02  0.10600464082E+02  0.51100000000E-03 0.  1.
        -11    1    3    3    0    0  0.80259959057E+01 -0.73297868193E+01 -0.94997196924E+01  0.14435617742E+02  0.51100000000E-03 0. -1.
        -12    1    3    3    0    0  0.39230119008E+01  0.33734456339E+02  0.45548186863E+01  0.34265871361E+02  0.00000000000E+00 0.  1.
</event>
<event>
 7    1  0.6285940E-013  0.5930193E+02  0.7816164E-02  0.1266605E+00
        -11   -1    0    0    0    0  0.00000000000E+00  0.00000000000E+00  0.45593999997E+02  0.45594000000E+02  0.51100000000E-03 0.  1.
         11   -1    0    0    0    0 -0.00000000000E+00 -0.00000000000E+00 -0.45593999997E+02  0.45594000000E+02  0.51100000000E-03 0. -1.
    9900012    2    1    2    0    0 -0.72732434340E+01  0.31045417910E+02 -0.60461726050E-01  0.59301926255E+02  0.49999967587E+02 0.  0.
        -12    1    1    2    0    0  0.72732434340E+01 -0.31045417910E+02  0.60461726050E-01  0.31886073745E+02  0.00000000000E+00 0.  1.
         11    1    3    3    0    0 -0.67072294659E+00  0.29477285351E+02 -0.16045983697E+02  0.33568345416E+02  0.51100000000E-03 0. -1.
        -11    1    3    3    0    0 -0.91748367628E+01 -0.28306573752E+01  0.70685122113E+00  0.96275588656E+01  0.51100000000E-03 0.  1.
        -12    1    3    3    0    0  0.25723162754E+01  0.43987899342E+01  0.15278670750E+02  0.16106021973E+02  0.00000000000E+00 0.  1.
</event>
<event>
 7    1  0.6285940E-013  0.5930191E+02  0.7816164E-02  0.1266605E+00
        -11   -1    0    0    0    0  0.00000000000E+00  0.00000000000E+00  0.45593999997E+02  0.45594000000E+02  0.51100000000E-03 0.  1.
         11   -1    0    0    0    0 -0.00000000000E+00 -0.00000000000E+00 -0.45593999997E+02  0.45594000000E+02  0.51100000000E-03 0. -1.
    9900012    2    1    2    0    0 -0.23548527966E+02 -0.61738149871E+00 -0.21489721306E+02  0.59301914460E+02  0.49999946075E+02 0.  0.
        -12    1    1    2    0    0  0.23548527966E+02  0.61738149871E+00  0.21489721306E+02  0.31886085540E+02  0.00000000000E+00 0.  1.
         11    1    3    3    0    0 -0.20323425961E+01  0.66744559787E+01  0.37736138990E+01  0.79321460626E+01  0.51100000000E-03 0. -1.
        -11    1    3    3    0    0 -0.22385564726E+02  0.10618685415E+02 -0.69351904803E+01  0.25728716550E+02  0.51100000000E-03 0.  1.
         12    1    3    3    0    0  0.86937935665E+00 -0.17910522893E+02 -0.18328144725E+02  0.25641051847E+02  0.00000000000E+00 0. -1.
</event>
<event>
 7    1  0.6285940E-013  0.5930194E+02  0.7816164E-02  0.1266605E+00
        -11   -1    0    0    0    0  0.00000000000E+00  0.00000000000E+00  0.45593999997E+02  0.45594000000E+02  0.51100000000E-03 0. -1.
         11   -1    0    0    0    0 -0.00000000000E+00 -0.00000000000E+00 -0.45593999997E+02  0.45594000000E+02  0.51100000000E-03 0.  1.
    9900012    2    1    2    0    0  0.29522793627E+02  0.11658932500E+02 -0.30322883696E+01  0.59301939984E+02  0.49999992626E+02 0.  0.
        -12    1    1    2    0    0 -0.29522793627E+02 -0.11658932500E+02  0.30322883696E+01  0.31886060016E+02  0.00000000000E+00 0.  1.
         11    1    3    3    0    0  0.23711377896E+02 -0.24298012326E+01 -0.52923078594E+01  0.24416017253E+02  0.51100000000E-03 0. -1.
        -11    1    3    3    0    0  0.35175341225E+01 -0.97699423922E+01  0.32972366436E+01  0.10894796483E+02  0.51100000000E-03 0.  1.
        -12    1    3    3    0    0  0.22938816080E+01  0.23858676124E+02 -0.10372171538E+01  0.23991126248E+02  0.00000000000E+00 0.  1.
</event>
<event>
 7    1  0.6285940E-013  0.5930192E+02  0.7816164E-02  0.1266605E+00
        -11   -1    0    0    0    0  0.00000000000E+00  0.00000000000E+00  0.45593999997E+02  0.45594000000E+02  0.51100000000E-03 0.  1.
         11   -1    0    0    0    0 -0.00000000000E+00 -0.00000000000E+00 -0.45593999997E+02  0.45594000000E+02  0.51100000000E-03 0. -1.
    9900012    2    1    2    0    0  0.71280810667E+01  0.87559084555E+01 -0.29820240395E+02  0.59301918244E+02  0.49999952976E+02 0.  0.
        -12    1    1    2    0    0 -0.71280810667E+01 -0.87559084555E+01  0.29820240395E+02  0.31886081756E+02  0.00000000000E+00 0.  1.
         11    1    3    3    0    0 -0.49450947906E+01 -0.43800778472E+01  0.37087868175E+01  0.75758923141E+01  0.51100000000E-03 0. -1.
        -11    1    3    3    0    0  0.77374870995E+01 -0.70861829338E+01  0.19379159767E+01  0.10669499228E+02  0.51100000000E-03 0.  1.
         12    1    3    3    0    0  0.43356887578E+01  0.20222169237E+02 -0.35466943189E+02  0.41056526702E+02  0.00000000000E+00 0. -1.
</event>
<event>
 7    1  0.6285940E-013  0.5930205E+02  0.7816164E-02  0.1266604E+00
        -11   -1    0    0    0    0  0.00000000000E+00  0.00000000000E+00  0.45593999997E+02  0.45594000000E+02  0.51100000000E-03 0.  1.
         11   -1    0    0    0    0 -0.00000000000E+00 -0.00000000000E+00 -0.45593999997E+02  0.45594000000E+02  0.51100000000E-03 0. -1.
    9900012    2    1    2    0    0 -0.25818564935E+01 -0.13281218231E+02 -0.28873124879E+02  0.59302045711E+02  0.50000185445E+02 0.  0.
        -12    1    1    2    0    0  0.25818564935E+01  0.13281218231E+02  0.28873124879E+02  0.31885954289E+02  0.00000000000E+00 0.  1.
         11    1    3    3    0    0  0.25912722291E+01 -0.74804812231E+01 -0.35541618201E+01  0.86778083407E+01  0.51100000000E-03 0. -1.
        -11    1    3    3    0    0  0.30660863020E+01  0.27038670815E+01  0.11364288142E+02  0.12077202807E+02  0.51100000000E-03 0.  1.
         12    1    3    3    0    0 -0.82392150246E+01 -0.85046040899E+01 -0.36683251201E+02  0.38547034563E+02  0.00000000000E+00 0. -1.
</event>
<event>
 7    1  0.6285940E-013  0.5930192E+02  0.7816164E-02  0.1266605E+00
        -11   -1    0    0    0    0  0.00000000000E+00  0.00000000000E+00  0.45593999997E+02  0.45594000000E+02  0.51100000000E-03 0. -1.
         11   -1    0    0    0    0 -0.00000000000E+00 -0.00000000000E+00 -0.45593999997E+02  0.45594000000E+02  0.51100000000E-03 0.  1.
    9900012    2    1    2    0    0 -0.20830891170E+02  0.24137924079E+02  0.39544167987E+00  0.59301924985E+02  0.49999965270E+02 0.  0.
        -12    1    1    2    0    0  0.20830891170E+02 -0.24137924079E+02 -0.39544167987E+00  0.31886075015E+02  0.00000000000E+00 0.  1.
         11    1    3    3    0    0 -0.11795217318E+02  0.11186161708E+02  0.45707750448E+01  0.16886365805E+02  0.51100000000E-03 0. -1.
        -11    1    3    3    0    0 -0.58165241176E+00  0.26270078468E+02 -0.82884362901E+00  0.26289585852E+02  0.51100000000E-03 0.  1.
         12    1    3    3    0    0 -0.84540214400E+01 -0.13318316098E+02 -0.33464897359E+01  0.16125973327E+02  0.00000000000E+00 0. -1.
</event>
<event>
 7    1  0.6285940E-013  0.5930195E+02  0.7816164E-02  0.1266605E+00
        -11   -1    0    0    0    0  0.00000000000E+00  0.00000000000E+00  0.45593999997E+02  0.45594000000E+02  0.51100000000E-03 0.  1.
         11   -1    0    0    0    0 -0.00000000000E+00 -0.00000000000E+00 -0.45593999997E+02  0.45594000000E+02  0.51100000000E-03 0. -1.
    9900012    2    1    2    0    0 -0.80829412017E+01 -0.30388555372E+02 -0.52841438117E+01  0.59301946436E+02  0.50000004392E+02 0.  0.
        -12    1    1    2    0    0  0.80829412017E+01  0.30388555372E+02  0.52841438117E+01  0.31886053564E+02  0.00000000000E+00 0.  1.
         11    1    3    3    0    0 -0.29447299539E+00  0.35276386441E+01 -0.14388789299E+02  0.14817834070E+02  0.51100000000E-03 0.  1.
        -11    1    3    3    0    0 -0.15583600206E+02 -0.10680222697E+02  0.57439791807E+01  0.19746114791E+02  0.51100000000E-03 0. -1.
        -12    1    3    3    0    0  0.77951319995E+01 -0.23235971319E+02  0.33606663070E+01  0.24737997576E+02  0.00000000000E+00 0.  1.
</event>
<event>
 7    1  0.6285940E-013  0.5930192E+02  0.7816164E-02  0.1266605E+00
        -11   -1    0    0    0    0  0.00000000000E+00  0.00000000000E+00  0.45593999997E+02  0.45594000000E+02  0.51100000000E-03 0.  1.
         11   -1    0    0    0    0 -0.00000000000E+00 -0.00000000000E+00 -0.45593999997E+02  0.45594000000E+02  0.51100000000E-03 0. -1.
    9900012    2    1    2    0    0 -0.31527195252E+02 -0.31798970896E+01  0.35561902314E+01  0.59301917222E+02  0.49999951113E+02 0.  0.
        -12    1    1    2    0    0  0.31527195252E+02  0.31798970896E+01 -0.35561902314E+01  0.31886082778E+02  0.00000000000E+00 0.  1.
         11    1    3    3    0    0 -0.13602068159E+02 -0.16939802348E+01 -0.97023965269E+01  0.16793520353E+02  0.51100000000E-03 0. -1.
        -11    1    3    3    0    0 -0.18619985201E+02 -0.11874360653E+02 -0.39119298131E+01  0.22427828359E+02  0.51100000000E-03 0.  1.
        -12    1    3    3    0    0  0.69485810745E+00  0.10388443798E+02  0.17170516571E+02  0.20080568509E+02  0.00000000000E+00 0.  1.
</event>
<event>
 7    1  0.6285940E-013  0.5930194E+02  0.7816164E-02  0.1266605E+00
        -11   -1    0    0    0    0  0.00000000000E+00  0.00000000000E+00  0.45593999997E+02  0.45594000000E+02  0.51100000000E-03 0.  1.
         11   -1    0    0    0    0 -0.00000000000E+00 -0.00000000000E+00 -0.45593999997E+02  0.45594000000E+02  0.51100000000E-03 0. -1.
    9900012    2    1    2    0    0 -0.12467729215E+02  0.24560821503E+02 -0.16063704517E+02  0.59301939919E+02  0.49999992507E+02 0.  0.
        -12    1    1    2    0    0  0.12467729215E+02 -0.24560821503E+02  0.16063704517E+02  0.31886060081E+02  0.00000000000E+00 0.  1.
         11    1    3    3    0    0 -0.11751074409E+01  0.10758986686E+02 -0.15787890532E+02  0.19141425227E+02  0.51100000000E-03 0. -1.
        -11    1    3    3    0    0 -0.81760290164E+01  0.21841005117E+02 -0.11503639050E+02  0.26004050966E+02  0.51100000000E-03 0.  1.
        -12    1    3    3    0    0 -0.31165927575E+01 -0.80391702997E+01  0.11227825066E+02  0.14156463726E+02  0.00000000000E+00 0.  1.
</event>
<event>
 7    1  0.7207855E-013  0.5930195E+02  0.7816164E-02  0.1266605E+00
        -11   -1    0    0    0    0  0.00000000000E+00  0.00000000000E+00  0.45593999997E+02  0.45594000000E+02  0.51100000000E-03 0. -1.
         11   -1    0    0    0    0 -0.00000000000E+00 -0.00000000000E+00 -0.45593999997E+02  0.45594000000E+02  0.51100000000E-03 0.  1.
    9900012    2    1    2    0    0  0.21522813075E+02  0.66367459237E+01  0.22570832200E+02  0.59301947480E+02  0.50000006295E+02 0.  0.
        -12    1    1    2    0    0 -0.21522813075E+02 -0.66367459237E+01 -0.22570832200E+02  0.31886052520E+02  0.00000000000E+00 0.  1.
         11    1    3    3    0    0  0.42367428041E+01  0.15196745504E+02  0.16771966234E+02  0.23025853189E+02  0.51100000000E-03 0. -1.
        -11    1    3    3    0    0  0.86378882176E+01  0.11199639952E+02  0.36021839214E+01  0.14595231316E+02  0.51100000000E-03 0.  1.
        -12    1    3    3    0    0  0.86481820537E+01 -0.19759639532E+02  0.21966820449E+01  0.21680862974E+02  0.00000000000E+00 0.  1.
</event>
<event>
 7    1  0.6285940E-013  0.5930194E+02  0.7816164E-02  0.1266605E+00
        -11   -1    0    0    0    0  0.00000000000E+00  0.00000000000E+00  0.45593999997E+02  0.45594000000E+02  0.51100000000E-03 0. -1.
         11   -1    0    0    0    0 -0.00000000000E+00 -0.00000000000E+00 -0.45593999997E+02  0.45594000000E+02  0.51100000000E-03 0.  1.
    9900012    2    1    2    0    0  0.11557865284E+02  0.15714966610E+02  0.25222539215E+02  0.59301938626E+02  0.49999990148E+02 0.  0.
        -12    1    1    2    0    0 -0.11557865284E+02 -0.15714966610E+02 -0.25222539215E+02  0.31886061374E+02  0.00000000000E+00 0.  1.
         11    1    3    3    0    0  0.58426857863E+01  0.20612749360E+02  0.13276152449E+02  0.25204734427E+02  0.51100000000E-03 0. -1.
        -11    1    3    3    0    0  0.14238592278E+01 -0.45789374882E+01  0.22339563682E+02  0.22848416781E+02  0.51100000000E-03 0.  1.
        -12    1    3    3    0    0  0.42913202702E+01 -0.31884526181E+00 -0.10393176916E+02  0.11248787418E+02  0.00000000000E+00 0.  1.
</event>
<event>
 7    1  0.6285940E-013  0.5930201E+02  0.7816164E-02  0.1266605E+00
        -11   -1    0    0    0    0  0.00000000000E+00  0.00000000000E+00  0.45593999997E+02  0.45594000000E+02  0.51100000000E-03 0.  1.
         11   -1    0    0    0    0 -0.00000000000E+00 -0.00000000000E+00 -0.45593999997E+02  0.45594000000E+02  0.51100000000E-03 0. -1.
    9900012    2    1    2    0    0  0.31256226125E+02 -0.30631915388E+01  0.55119734366E+01  0.59302005188E+02  0.50000111542E+02 0.  0.
        -12    1    1    2    0    0 -0.31256226125E+02  0.30631915388E+01 -0.55119734366E+01  0.31885994812E+02  0.00000000000E+00 0.  1.
         11    1    3    3    0    0  0.34830123105E+01  0.89539410550E+01  0.84925844370E+01  0.12822964784E+02  0.51100000000E-03 0. -1.
        -11    1    3    3    0    0  0.14547472213E+02 -0.35578495963E+01  0.15954275655E+02  0.21882096643E+02  0.51100000000E-03 0.  1.
         12    1    3    3    0    0  0.13225741601E+02 -0.84592829975E+01 -0.18934886656E+02  0.24596943761E+02  0.00000000000E+00 0. -1.
</event>
<event>
 7    1  0.6285940E-013  0.5930195E+02  0.7816164E-02  0.1266605E+00
        -11   -1    0    0    0    0  0.00000000000E+00  0.00000000000E+00  0.45593999997E+02  0.45594000000E+02  0.51100000000E-03 0. -1.
         11   -1    0    0    0    0 -0.00000000000E+00 -0.00000000000E+00 -0.45593999997E+02  0.45594000000E+02  0.51100000000E-03 0.  1.
    9900012    2    1    2    0    0 -0.25587709912E+02 -0.11956049268E+01 -0.18988408997E+02  0.59301952175E+02  0.50000014858E+02 0.  0.
        -12    1    1    2    0    0  0.25587709912E+02  0.11956049268E+01  0.18988408997E+02  0.31886047825E+02  0.00000000000E+00 0.  1.
         11    1    3    3    0    0 -0.22477996874E+02 -0.12649767335E+02 -0.93678671359E+01  0.27441463009E+02  0.51100000000E-03 0.  1.
        -11    1    3    3    0    0 -0.55336789764E+01 -0.16178117835E+01  0.79540499957E+01  0.98237380653E+01  0.51100000000E-03 0. -1.
        -12    1    3    3    0    0  0.24239659387E+01  0.13071974192E+02 -0.17574591857E+02  0.22036751101E+02  0.00000000000E+00 0.  1.
</event>
<event>
 7    1  0.6285940E-013  0.5930197E+02  0.7816164E-02  0.1266605E+00
        -11   -1    0    0    0    0  0.00000000000E+00  0.00000000000E+00  0.45593999997E+02  0.45594000000E+02  0.51100000000E-03 0.  1.
         11   -1    0    0    0    0 -0.00000000000E+00 -0.00000000000E+00 -0.45593999997E+02  0.45594000000E+02  0.51100000000E-03 0. -1.
    9900012    2    1    2    0    0  0.10340545937E+02 -0.29737468719E+02 -0.50472760178E+01  0.59301969653E+02  0.50000046734E+02 0.  0.
        -12    1    1    2    0    0 -0.10340545937E+02  0.29737468719E+02  0.50472760178E+01  0.31886030347E+02  0.00000000000E+00 0.  1.
         11    1    3    3    0    0  0.42916693131E+01 -0.94714122371E+01  0.48221907720E+01  0.11462094022E+02  0.51100000000E-03 0. -1.
        -11    1    3    3    0    0  0.12523331900E+02 -0.86633744052E+01  0.13894153030E+02  0.20613960964E+02  0.51100000000E-03 0.  1.
         12    1    3    3    0    0 -0.64744552758E+01 -0.11602682077E+02 -0.23763619820E+02  0.27225914667E+02  0.00000000000E+00 0. -1.
</event>
<event>
 7    1  0.6285940E-013  0.5930201E+02  0.7816164E-02  0.1266605E+00
        -11   -1    0    0    0    0  0.00000000000E+00  0.00000000000E+00  0.45593999997E+02  0.45594000000E+02  0.51100000000E-03 0. -1.
         11   -1    0    0    0    0 -0.00000000000E+00 -0.00000000000E+00 -0.45593999997E+02  0.45594000000E+02  0.51100000000E-03 0.  1.
    9900012    2    1    2    0    0 -0.11664975825E+01  0.31466978587E+02  0.50184695533E+01  0.59302007861E+02  0.50000116417E+02 0.  0.
        -12    1    1    2    0    0  0.11664975825E+01 -0.31466978587E+02 -0.50184695533E+01  0.31885992139E+02  0.00000000000E+00 0.  1.
         11    1    3    3    0    0 -0.81308700983E+01  0.27473177802E+02 -0.12503175081E+02  0.31260453203E+02  0.51100000000E-03 0. -1.
        -11    1    3    3    0    0  0.69628928244E+00 -0.66232651970E+01  0.52785058314E-01  0.66599735103E+01  0.51100000000E-03 0.  1.
        -12    1    3    3    0    0  0.62680832334E+01  0.10617065982E+02  0.17468859576E+02  0.21381581148E+02  0.00000000000E+00 0.  1.
</event>
<event>
 7    1  0.6285940E-013  0.5930197E+02  0.7816164E-02  0.1266605E+00
        -11   -1    0    0    0    0  0.00000000000E+00  0.00000000000E+00  0.45593999997E+02  0.45594000000E+02  0.51100000000E-03 0.  1.
         11   -1    0    0    0    0 -0.00000000000E+00 -0.00000000000E+00 -0.45593999997E+02  0.45594000000E+02  0.51100000000E-03 0. -1.
    9900012    2    1    2    0    0  0.26622379418E+02  0.92297868451E+01 -0.14925781309E+02  0.59301968595E+02  0.50000044804E+02 0.  0.
        -12    1    1    2    0    0 -0.26622379418E+02 -0.92297868451E+01  0.14925781309E+02  0.31886031405E+02  0.00000000000E+00 0.  1.
         11    1    3    3    0    0  0.22235547931E+02  0.14026258546E+02 -0.13795208727E+02  0.29689447699E+02  0.51100000000E-03 0. -1.
        -11    1    3    3    0    0  0.11336775851E+02 -0.16854234567E+01  0.10610312792E+02  0.15618638760E+02  0.51100000000E-03 0.  1.
         12    1    3    3    0    0 -0.69499443642E+01 -0.31110482443E+01 -0.11740885374E+02  0.13993882135E+02  0.00000000000E+00 0. -1.
</event>
<event>
 7    1  0.6285940E-013  0.5930195E+02  0.7816164E-02  0.1266605E+00
        -11   -1    0    0    0    0  0.00000000000E+00  0.00000000000E+00  0.45593999997E+02  0.45594000000E+02  0.51100000000E-03 0. -1.
         11   -1    0    0    0    0 -0.00000000000E+00 -0.00000000000E+00 -0.45593999997E+02  0.45594000000E+02  0.51100000000E-03 0.  1.
    9900012    2    1    2    0    0 -0.13735157281E+02  0.10008237937E+01  0.28758723005E+02  0.59301947521E+02  0.50000006371E+02 0.  0.
        -12    1    1    2    0    0  0.13735157281E+02 -0.10008237937E+01 -0.28758723005E+02  0.31886052479E+02  0.00000000000E+00 0.  1.
         11    1    3    3    0    0 -0.16250731986E+01  0.69108790515E+01  0.69497965967E+00  0.71333098316E+01  0.51100000000E-03 0. -1.
        -11    1    3    3    0    0  0.85885445250E+01 -0.13714942251E+02 -0.31676082373E+00  0.16185273420E+02  0.51100000000E-03 0.  1.
         12    1    3    3    0    0 -0.20698628607E+02  0.78048869934E+01  0.28380504170E+02  0.35983364269E+02  0.00000000000E+00 0. -1.
</event>
<event>
 7    1  0.6285940E-013  0.5930194E+02  0.7816164E-02  0.1266605E+00
        -11   -1    0    0    0    0  0.00000000000E+00  0.00000000000E+00  0.45593999997E+02  0.45594000000E+02  0.51100000000E-03 0.  1.
         11   -1    0    0    0    0 -0.00000000000E+00 -0.00000000000E+00 -0.45593999997E+02  0.45594000000E+02  0.51100000000E-03 0. -1.
    9900012    2    1    2    0    0  0.32198799863E+01 -0.15739310916E+02 -0.27543185057E+02  0.59301943827E+02  0.49999999633E+02 0.  0.
        -12    1    1    2    0    0 -0.32198799863E+01  0.15739310916E+02  0.27543185057E+02  0.31886056173E+02  0.00000000000E+00 0.  1.
         11    1    3    3    0    0 -0.95639308638E+01 -0.13002941785E+02 -0.63602287783E+01  0.17349287565E+02  0.51100000000E-03 0. -1.
        -11    1    3    3    0    0 -0.11615320351E+02 -0.16716264578E+01 -0.58073292403E+01  0.13093321773E+02  0.51100000000E-03 0.  1.
         12    1    3    3    0    0  0.24399131201E+02 -0.10647426731E+01 -0.15375627038E+02  0.28859334489E+02  0.00000000000E+00 0. -1.
</event>
<event>
 7    1  0.8007923E-013  0.5930190E+02  0.7816164E-02  0.1266605E+00
        -11   -1    0    0    0    0  0.00000000000E+00  0.00000000000E+00  0.45593999997E+02  0.45594000000E+02  0.51100000000E-03 0. -1.
         11   -1    0    0    0    0 -0.00000000000E+00 -0.00000000000E+00 -0.45593999997E+02  0.45594000000E+02  0.51100000000E-03 0.  1.
    9900012    2    1    2    0    0 -0.10732240987E+02 -0.98606474595E+01  0.28360359926E+02  0.59301899893E+02  0.49999919509E+02 0.  0.
        -12    1    1    2    0    0  0.10732240987E+02  0.98606474595E+01 -0.28360359926E+02  0.31886100107E+02  0.00000000000E+00 0.  1.
         11    1    3    3    0    0 -0.21164007166E+02 -0.11868221429E+02  0.29203346550E+02  0.37968478100E+02  0.51100000000E-03 0. -1.
        -11    1    3    3    0    0 -0.50306119890E+01  0.32162865520E+00 -0.26149843116E+01  0.56787890598E+01  0.51100000000E-03 0.  1.
        -12    1    3    3    0    0  0.15462378168E+02  0.16859453139E+01  0.17719976871E+01  0.15654632733E+02  0.00000000000E+00 0.  1.
</event>
<event>
 7    1  0.6285940E-013  0.5930181E+02  0.7816164E-02  0.1266605E+00
        -11   -1    0    0    0    0  0.00000000000E+00  0.00000000000E+00  0.45593999997E+02  0.45594000000E+02  0.51100000000E-03 0.  1.
         11   -1    0    0    0    0 -0.00000000000E+00 -0.00000000000E+00 -0.45593999997E+02  0.45594000000E+02  0.51100000000E-03 0. -1.
    9900012    2    1    2    0    0  0.16614138030E+02 -0.25410320408E+02  0.97475648372E+01  0.59301811987E+02  0.49999759189E+02 0.  0.
        -12    1    1    2    0    0 -0.16614138030E+02  0.25410320408E+02 -0.97475648372E+01  0.31886188013E+02  0.00000000000E+00 0.  1.
         11    1    3    3    0    0 -0.91647809868E+01 -0.12908562591E+02 -0.68490159547E+01  0.17249151240E+02  0.51100000000E-03 0.  1.
        -11    1    3    3    0    0  0.11862954490E+02 -0.40747055568E+01 -0.62432734235E+01  0.14011116226E+02  0.51100000000E-03 0. -1.
        -12    1    3    3    0    0  0.13915964527E+02 -0.84270522603E+01  0.22839854215E+02  0.28041544520E+02  0.00000000000E+00 0.  1.
</event>
<event>
 7    1  0.6285940E-013  0.5930196E+02  0.7816164E-02  0.1266605E+00
        -11   -1    0    0    0    0  0.00000000000E+00  0.00000000000E+00  0.45593999997E+02  0.45594000000E+02  0.51100000000E-03 0.  1.
         11   -1    0    0    0    0 -0.00000000000E+00 -0.00000000000E+00 -0.45593999997E+02  0.45594000000E+02  0.51100000000E-03 0. -1.
    9900012    2    1    2    0    0 -0.10024525374E+01  0.22902276610E+01 -0.31787882039E+02  0.59301960761E+02  0.50000030517E+02 0.  0.
        -12    1    1    2    0    0  0.10024525374E+01 -0.22902276610E+01  0.31787882039E+02  0.31886039239E+02  0.00000000000E+00 0.  1.
         11    1    3    3    0    0  0.72242954264E+01 -0.39288020194E+01  0.29488735528E+01  0.87362340403E+01  0.51100000000E-03 0. -1.
        -11    1    3    3    0    0 -0.89078638197E+01  0.67895595144E+01  0.39442157915E+01  0.11874552400E+02  0.51100000000E-03 0.  1.
         12    1    3    3    0    0  0.68111585603E+00 -0.57052983400E+00 -0.38680971384E+02  0.38691174320E+02  0.00000000000E+00 0. -1.
</event>
<event>
 7    1  0.6285940E-013  0.5930213E+02  0.7816164E-02  0.1266604E+00
        -11   -1    0    0    0    0  0.00000000000E+00  0.00000000000E+00  0.45593999997E+02  0.45594000000E+02  0.51100000000E-03 0.  1.
         11   -1    0    0    0    0 -0.00000000000E+00 -0.00000000000E+00 -0.45593999997E+02  0.45594000000E+02  0.51100000000E-03 0. -1.
    9900012    2    1    2    0    0  0.14070441958E+02  0.20751712086E+02 -0.19700206147E+02  0.59302125171E+02  0.50000330360E+02 0.  0.
        -12    1    1    2    0    0 -0.14070441958E+02 -0.20751712086E+02  0.19700206147E+02  0.31885874829E+02  0.00000000000E+00 0.  1.
         11    1    3    3    0    0  0.97671367490E+01 -0.64896267538E+01 -0.32553024655E+01  0.12170012739E+02  0.51100000000E-03 0. -1.
        -11    1    3    3    0    0  0.58217240827E+00  0.15582774660E+02  0.96304112097E+01  0.18327755213E+02  0.51100000000E-03 0.  1.
         12    1    3    3    0    0  0.37211328011E+01  0.11658564180E+02 -0.26075314891E+02  0.28804357218E+02  0.00000000000E+00 0. -1.
</event>
<event>
 7    1  0.6285940E-013  0.5930194E+02  0.7816164E-02  0.1266605E+00
        -11   -1    0    0    0    0  0.00000000000E+00  0.00000000000E+00  0.45593999997E+02  0.45594000000E+02  0.51100000000E-03 0. -1.
         11   -1    0    0    0    0 -0.00000000000E+00 -0.00000000000E+00 -0.45593999997E+02  0.45594000000E+02  0.51100000000E-03 0.  1.
    9900012    2    1    2    0    0  0.30986765579E+02 -0.59324666020E+01 -0.46202866359E+01  0.59301939572E+02  0.49999991874E+02 0.  0.
        -12    1    1    2    0    0 -0.30986765579E+02  0.59324666020E+01  0.46202866359E+01  0.31886060428E+02  0.00000000000E+00 0.  1.
         11    1    3    3    0    0  0.75709519960E+00  0.64752728140E+01 -0.44047188563E+01  0.78679031273E+01  0.51100000000E-03 0. -1.
        -11    1    3    3    0    0  0.11825122792E+02 -0.95654634023E+01 -0.19430555422E+02  0.24675455486E+02  0.51100000000E-03 0.  1.
         12    1    3    3    0    0  0.18404547587E+02 -0.28422760136E+01  0.19214987643E+02  0.26758580959E+02  0.00000000000E+00 0. -1.
</event>
<event>
 7    1  0.6285940E-013  0.5930194E+02  0.7816164E-02  0.1266605E+00
        -11   -1    0    0    0    0  0.00000000000E+00  0.00000000000E+00  0.45593999997E+02  0.45594000000E+02  0.51100000000E-03 0.  1.
         11   -1    0    0    0    0 -0.00000000000E+00 -0.00000000000E+00 -0.45593999997E+02  0.45594000000E+02  0.51100000000E-03 0. -1.
    9900012    2    1    2    0    0  0.89353322131E+01  0.17210191541E+02 -0.25311858333E+02  0.59301936792E+02  0.49999986804E+02 0.  0.
        -12    1    1    2    0    0 -0.89353322131E+01 -0.17210191541E+02  0.25311858333E+02  0.31886063208E+02  0.00000000000E+00 0.  1.
         11    1    3    3    0    0  0.38619535711E+01  0.77960699089E+01 -0.18753708385E+02  0.20673533076E+02  0.51100000000E-03 0. -1.
        -11    1    3    3    0    0  0.19765317556E+02  0.11717950065E+02 -0.59917888566E+01  0.23746150547E+02  0.51100000000E-03 0.  1.
        -12    1    3    3    0    0 -0.14691938914E+02 -0.23038284331E+01 -0.56636109100E+00  0.14882253169E+02  0.00000000000E+00 0.  1.
</event>
<event>
 7    1  0.6285940E-013  0.5930194E+02  0.7816164E-02  0.1266605E+00
        -11   -1    0    0    0    0  0.00000000000E+00  0.00000000000E+00  0.45593999997E+02  0.45594000000E+02  0.51100000000E-03 0. -1.
         11   -1    0    0    0    0 -0.00000000000E+00 -0.00000000000E+00 -0.45593999997E+02  0.45594000000E+02  0.51100000000E-03 0.  1.
    9900012    2    1    2    0    0  0.28842554069E+02  0.32754245232E-01  0.13595104470E+02  0.59301939353E+02  0.49999991474E+02 0.  0.
        -12    1    1    2    0    0 -0.28842554069E+02 -0.32754245232E-01 -0.13595104470E+02  0.31886060647E+02  0.00000000000E+00 0.  1.
         11    1    3    3    0    0  0.81667354728E+01  0.40221114521E+01  0.12294663963E+01  0.91861056327E+01  0.51100000000E-03 0. -1.
        -11    1    3    3    0    0  0.23025401934E+02  0.15206521045E+02  0.13548902576E+02  0.30740529888E+02  0.51100000000E-03 0.  1.
         12    1    3    3    0    0 -0.23495833385E+01 -0.19195878251E+02 -0.11832645018E+01  0.19375303832E+02  0.00000000000E+00 0. -1.
</event>
<event>
 7    1  0.6285940E-013  0.5930208E+02  0.7816164E-02  0.1266604E+00
        -11   -1    0    0    0    0  0.00000000000E+00  0.00000000000E+00  0.45593999997E+02  0.45594000000E+02  0.51100000000E-03 0. -1.
         11   -1    0    0    0    0 -0.00000000000E+00 -0.00000000000E+00 -0.45593999997E+02  0.45594000000E+02  0.51100000000E-03 0.  1.
    9900012    2    1    2    0    0 -0.19868042754E+02 -0.22389412572E+02  0.10985763100E+02  0.59302079767E+02  0.50000247556E+02 0.  0.
        -12    1    1    2    0    0  0.19868042754E+02  0.22389412572E+02 -0.10985763100E+02  0.31885920233E+02  0.00000000000E+00 0.  1.
         11    1    3    3    0    0 -0.13927561382E+02 -0.95115385456E+01 -0.19292108965E+01  0.16975517267E+02  0.51100000000E-03 0. -1.
        -11    1    3    3    0    0  0.52483235450E-01 -0.39500634902E+01 -0.13362487929E+02  0.13934196783E+02  0.51100000000E-03 0.  1.
         12    1    3    3    0    0 -0.59929646080E+01 -0.89278105363E+01  0.26277461925E+02  0.28392365717E+02  0.00000000000E+00 0. -1.
</event>
<event>
 7    1  0.6285940E-013  0.5930192E+02  0.7816164E-02  0.1266605E+00
        -11   -1    0    0    0    0  0.00000000000E+00  0.00000000000E+00  0.45593999997E+02  0.45594000000E+02  0.51100000000E-03 0.  1.
         11   -1    0    0    0    0 -0.00000000000E+00 -0.00000000000E+00 -0.45593999997E+02  0.45594000000E+02  0.51100000000E-03 0. -1.
    9900012    2    1    2    0    0  0.40763717408E+00  0.30849958097E+02 -0.80520765322E+01  0.59301921233E+02  0.49999958429E+02 0.  0.
        -12    1    1    2    0    0 -0.40763717408E+00 -0.30849958097E+02  0.80520765322E+01  0.31886078767E+02  0.00000000000E+00 0.  1.
         11    1    3    3    0    0 -0.41585492792E+01 -0.62172931304E+01 -0.80858148299E+01  0.11014929310E+02  0.51100000000E-03 0. -1.
        -11    1    3    3    0    0  0.15839805595E+02  0.94725192401E+01  0.72252469729E+00  0.18470249166E+02  0.51100000000E-03 0.  1.
         12    1    3    3    0    0 -0.11273619142E+02  0.27594731987E+02 -0.68878639961E+00  0.29816742758E+02  0.00000000000E+00 0. -1.
</event>
<event>
 7    1  0.6285940E-013  0.5930194E+02  0.7816164E-02  0.1266605E+00
        -11   -1    0    0    0    0  0.00000000000E+00  0.00000000000E+00  0.45593999997E+02  0.45594000000E+02  0.51100000000E-03 0.  1.
         11   -1    0    0    0    0 -0.00000000000E+00 -0.00000000000E+00 -0.45593999997E+02  0.45594000000E+02  0.51100000000E-03 0. -1.
    9900012    2    1    2    0    0  0.15188216854E+01 -0.33130416440E+01 -0.31677084437E+02  0.59301941249E+02  0.49999994932E+02 0.  0.
        -12    1    1    2    0    0 -0.15188216854E+01  0.33130416440E+01  0.31677084437E+02  0.31886058751E+02  0.00000000000E+00 0.  1.
         11    1    3    3    0    0 -0.10879788694E+02 -0.81835160478E+01 -0.35483609907E+02  0.38005608918E+02  0.51100000000E-03 0. -1.
        -11    1    3    3    0    0  0.21196246408E+01  0.80876170230E+01 -0.26106597456E+01  0.87588756298E+01  0.51100000000E-03 0.  1.
        -12    1    3    3    0    0  0.10278985739E+02 -0.32171426192E+01  0.64171852154E+01  0.12537456701E+02  0.00000000000E+00 0.  1.
</event>
<event>
 7    1  0.6285940E-013  0.5930194E+02  0.7816164E-02  0.1266605E+00
        -11   -1    0    0    0    0  0.00000000000E+00  0.00000000000E+00  0.45593999997E+02  0.45594000000E+02  0.51100000000E-03 0.  1.
         11   -1    0    0    0    0 -0.00000000000E+00 -0.00000000000E+00 -0.45593999997E+02  0.45594000000E+02  0.51100000000E-03 0. -1.
    9900012    2    1    2    0    0 -0.22238663884E+02  0.44650977627E+01 -0.22410395780E+02  0.59301935514E+02  0.49999984474E+02 0.  0.
        -12    1    1    2    0    0  0.22238663884E+02 -0.44650977627E+01  0.22410395780E+02  0.31886064486E+02  0.00000000000E+00 0.  1.
         11    1    3    3    0    0 -0.15654383544E+02  0.22194742273E+02 -0.28414279172E+01  0.27308240910E+02  0.51100000000E-03 0. -1.
        -11    1    3    3    0    0 -0.74396036319E+01 -0.88024910299E+00 -0.22651739137E+01  0.78264649621E+01  0.51100000000E-03 0.  1.
        -12    1    3    3    0    0  0.85532329256E+00 -0.16849395408E+02 -0.17303793949E+02  0.24167229642E+02  0.00000000000E+00 0.  1.
</event>
<event>
 7    1  0.6285940E-013  0.5930195E+02  0.7816164E-02  0.1266605E+00
        -11   -1    0    0    0    0  0.00000000000E+00  0.00000000000E+00  0.45593999997E+02  0.45594000000E+02  0.51100000000E-03 0. -1.
         11   -1    0    0    0    0 -0.00000000000E+00 -0.00000000000E+00 -0.45593999997E+02  0.45594000000E+02  0.51100000000E-03 0.  1.
    9900012    2    1    2    0    0  0.26636605342E+02  0.84356843137E+01  0.15363934831E+02  0.59301952777E+02  0.50000015957E+02 0.  0.
        -12    1    1    2    0    0 -0.26636605342E+02 -0.84356843137E+01 -0.15363934831E+02  0.31886047223E+02  0.00000000000E+00 0.  1.
         11    1    3    3    0    0 -0.23919525528E+01  0.50507879263E+01  0.11581726167E+02  0.12859559750E+02  0.51100000000E-03 0. -1.
        -11    1    3    3    0    0  0.16192960048E+02  0.16235205453E+02  0.12695920182E+02  0.26210307910E+02  0.51100000000E-03 0.  1.
        -12    1    3    3    0    0  0.12835597847E+02 -0.12850309066E+02 -0.89137115179E+01  0.20232085117E+02  0.00000000000E+00 0.  1.
</event>
<event>
 7    1  0.6285940E-013  0.5930195E+02  0.7816164E-02  0.1266605E+00
        -11   -1    0    0    0    0  0.00000000000E+00  0.00000000000E+00  0.45593999997E+02  0.45594000000E+02  0.51100000000E-03 0.  1.
         11   -1    0    0    0    0 -0.00000000000E+00 -0.00000000000E+00 -0.45593999997E+02  0.45594000000E+02  0.51100000000E-03 0. -1.
    9900012    2    1    2    0    0  0.22417589725E+01 -0.20434161677E+01 -0.31741438238E+02  0.59301953924E+02  0.50000018048E+02 0.  0.
        -12    1    1    2    0    0 -0.22417589725E+01  0.20434161677E+01  0.31741438238E+02  0.31886046076E+02  0.00000000000E+00 0.  1.
         11    1    3    3    0    0 -0.12866787904E+02 -0.16843380450E+01 -0.19891537258E+02  0.23750041692E+02  0.51100000000E-03 0. -1.
        -11    1    3    3    0    0 -0.56620524259E+01 -0.16507352516E+00  0.59367901614E+01  0.82055813093E+01  0.51100000000E-03 0.  1.
         12    1    3    3    0    0  0.20770599302E+02 -0.19400459758E+00 -0.17786691142E+02  0.27346330923E+02  0.00000000000E+00 0. -1.
</event>
<event>
 7    1  0.6285940E-013  0.5930199E+02  0.7816164E-02  0.1266605E+00
        -11   -1    0    0    0    0  0.00000000000E+00  0.00000000000E+00  0.45593999997E+02  0.45594000000E+02  0.51100000000E-03 0. -1.
         11   -1    0    0    0    0 -0.00000000000E+00 -0.00000000000E+00 -0.45593999997E+02  0.45594000000E+02  0.51100000000E-03 0.  1.
    9900012    2    1    2    0    0 -0.40440495393E+01 -0.18444429741E+02  0.25693700729E+02  0.59301990807E+02  0.50000085313E+02 0.  0.
        -12    1    1    2    0    0  0.40440495393E+01  0.18444429741E+02 -0.25693700729E+02  0.31886009193E+02  0.00000000000E+00 0.  1.
         11    1    3    3    0    0 -0.82490578861E+01 -0.12923492376E+02  0.73191082074E+00  0.15349244441E+02  0.51100000000E-03 0. -1.
        -11    1    3    3    0    0 -0.66484735270E+01 -0.17015960623E+02  0.59208867734E+01  0.19204218719E+02  0.51100000000E-03 0.  1.
         12    1    3    3    0    0  0.10853481874E+02  0.11495023258E+02  0.19040903135E+02  0.24748527646E+02  0.00000000000E+00 0. -1.
</event>
<event>
 7    1  0.6285940E-013  0.5930194E+02  0.7816164E-02  0.1266605E+00
        -11   -1    0    0    0    0  0.00000000000E+00  0.00000000000E+00  0.45593999997E+02  0.45594000000E+02  0.51100000000E-03 0.  1.
         11   -1    0    0    0    0 -0.00000000000E+00 -0.00000000000E+00 -0.45593999997E+02  0.45594000000E+02  0.51100000000E-03 0. -1.
    9900012    2    1    2    0    0 -0.61581376586E+01  0.27809830031E+02  0.14332177815E+02  0.59301943068E+02  0.49999998249E+02 0.  0.
        -12    1    1    2    0    0  0.61581376586E+01 -0.27809830031E+02 -0.14332177815E+02  0.31886056932E+02  0.00000000000E+00 0.  1.
         11    1    3    3    0    0 -0.11141538954E+02 -0.46697092618E+01  0.51909832056E+01  0.13148626611E+02  0.51100000000E-03 0. -1.
        -11    1    3    3    0    0  0.67816132950E+01  0.13416759914E+02  0.19310996750E+02  0.24472726068E+02  0.51100000000E-03 0.  1.
        -12    1    3    3    0    0 -0.17982119996E+01  0.19062779378E+02 -0.10169802140E+02  0.21680590389E+02  0.00000000000E+00 0.  1.
</event>
<event>
 7    1  0.6285940E-013  0.5930196E+02  0.7816164E-02  0.1266605E+00
        -11   -1    0    0    0    0  0.00000000000E+00  0.00000000000E+00  0.45593999997E+02  0.45594000000E+02  0.51100000000E-03 0.  1.
         11   -1    0    0    0    0 -0.00000000000E+00 -0.00000000000E+00 -0.45593999997E+02  0.45594000000E+02  0.51100000000E-03 0. -1.
    9900012    2    1    2    0    0 -0.22775649191E+02  0.67318687895E+01 -0.21276080667E+02  0.59301955059E+02  0.50000020118E+02 0.  0.
        -12    1    1    2    0    0  0.22775649191E+02 -0.67318687895E+01  0.21276080667E+02  0.31886044941E+02  0.00000000000E+00 0.  1.
         11    1    3    3    0    0  0.33555557397E+01  0.59385702806E+01 -0.22275660885E+01  0.71755433411E+01  0.51100000000E-03 0. -1.
        -11    1    3    3    0    0  0.37757962166E+01  0.19648036523E+01  0.97206912525E+01  0.10611735445E+02  0.51100000000E-03 0.  1.
        -12    1    3    3    0    0 -0.29907001147E+02 -0.11715051435E+01 -0.28769205831E+02  0.41514676273E+02  0.00000000000E+00 0.  1.
</event>
<event>
 7    1  0.6285940E-013  0.5930190E+02  0.7816164E-02  0.1266605E+00
        -11   -1    0    0    0    0  0.00000000000E+00  0.00000000000E+00  0.45593999997E+02  0.45594000000E+02  0.51100000000E-03 0.  1.
         11   -1    0    0    0    0 -0.00000000000E+00 -0.00000000000E+00 -0.45593999997E+02  0.45594000000E+02  0.51100000000E-03 0. -1.
    9900012    2    1    2    0    0 -0.72437276358E+01  0.28687302561E+01 -0.30919611745E+02  0.59301896541E+02  0.49999913395E+02 0.  0.
        -12    1    1    2    0    0  0.72437276358E+01 -0.28687302561E+01  0.30919611745E+02  0.31886103459E+02  0.00000000000E+00 0.  1.
         11    1    3    3    0    0  0.10668070126E+01  0.17461994143E+01 -0.19109910410E+02  0.19219156218E+02  0.51100000000E-03 0. -1.
        -11    1    3    3    0    0 -0.15463253634E+02 -0.92638212599E+01 -0.18480682142E+02  0.25816006856E+02  0.51100000000E-03 0.  1.
        -12    1    3    3    0    0  0.71527189859E+01  0.10386352102E+02  0.66709808074E+01  0.14266733467E+02  0.00000000000E+00 0.  1.
</event>
<event>
 7    1  0.6285940E-013  0.5930195E+02  0.7816164E-02  0.1266605E+00
        -11   -1    0    0    0    0  0.00000000000E+00  0.00000000000E+00  0.45593999997E+02  0.45594000000E+02  0.51100000000E-03 0.  1.
         11   -1    0    0    0    0 -0.00000000000E+00 -0.00000000000E+00 -0.45593999997E+02  0.45594000000E+02  0.51100000000E-03 0. -1.
    9900012    2    1    2    0    0 -0.19586657567E+02 -0.10209208107E+02 -0.22996848397E+02  0.59301950997E+02  0.50000012710E+02 0.  0.
        -12    1    1    2    0    0  0.19586657567E+02  0.10209208107E+02  0.22996848397E+02  0.31886049003E+02  0.00000000000E+00 0.  1.
         11    1    3    3    0    0  0.32427127874E+01 -0.17818850622E+02 -0.13568647441E+02  0.22630395872E+02  0.51100000000E-03 0. -1.
        -11    1    3    3    0    0  0.52114533076E+01 -0.49462906832E+00 -0.48307963330E+01  0.71232364108E+01  0.51100000000E-03 0.  1.
         12    1    3    3    0    0 -0.28040823662E+02  0.81042715831E+01 -0.45974046234E+01  0.29548318714E+02  0.00000000000E+00 0. -1.
</event>
<event>
 7    1  0.6285940E-013  0.5930202E+02  0.7816164E-02  0.1266604E+00
        -11   -1    0    0    0    0  0.00000000000E+00  0.00000000000E+00  0.45593999997E+02  0.45594000000E+02  0.51100000000E-03 0. -1.
         11   -1    0    0    0    0 -0.00000000000E+00 -0.00000000000E+00 -0.45593999997E+02  0.45594000000E+02  0.51100000000E-03 0.  1.
    9900012    2    1    2    0    0 -0.28050797056E+02  0.14977662804E+02  0.23532554024E+01  0.59302024877E+02  0.50000147449E+02 0.  0.
        -12    1    1    2    0    0  0.28050797056E+02 -0.14977662804E+02 -0.23532554024E+01  0.31885975123E+02  0.00000000000E+00 0.  1.
         11    1    3    3    0    0 -0.11959512958E+02 -0.15698654403E+02  0.38492722487E+00  0.19738942967E+02  0.51100000000E-03 0.  1.
        -11    1    3    3    0    0 -0.13926972430E+02  0.99307980614E+01 -0.45686125232E+01  0.17704618941E+02  0.51100000000E-03 0. -1.
        -12    1    3    3    0    0 -0.21643116691E+01  0.20745519146E+02  0.65369407008E+01  0.21858462968E+02  0.00000000000E+00 0.  1.
</event>
<event>
 7    1  0.6285940E-013  0.5930194E+02  0.7816164E-02  0.1266605E+00
        -11   -1    0    0    0    0  0.00000000000E+00  0.00000000000E+00  0.45593999997E+02  0.45594000000E+02  0.51100000000E-03 0.  1.
         11   -1    0    0    0    0 -0.00000000000E+00 -0.00000000000E+00 -0.45593999997E+02  0.45594000000E+02  0.51100000000E-03 0. -1.
    9900012    2    1    2    0    0 -0.26902134987E+02 -0.14047612159E+02  0.97806256318E+01  0.59301938594E+02  0.49999990091E+02 0.  0.
        -12    1    1    2    0    0  0.26902134987E+02  0.14047612159E+02 -0.97806256318E+01  0.31886061406E+02  0.00000000000E+00 0.  1.
         11    1    3    3    0    0  0.11188485989E+02 -0.92904587419E+01  0.70433444589E+01  0.16158698704E+02  0.51100000000E-03 0.  1.
        -11    1    3    3    0    0 -0.12687635372E+02 -0.37089492432E+01 -0.81025093869E+01  0.15504291485E+02  0.51100000000E-03 0. -1.
        -12    1    3    3    0    0 -0.25402985604E+02 -0.10482041740E+01  0.10839790560E+02  0.27638948406E+02  0.00000000000E+00 0.  1.
</event>
<event>
 7    1  0.6285940E-013  0.5930193E+02  0.7816164E-02  0.1266605E+00
        -11   -1    0    0    0    0  0.00000000000E+00  0.00000000000E+00  0.45593999997E+02  0.45594000000E+02  0.51100000000E-03 0.  1.
         11   -1    0    0    0    0 -0.00000000000E+00 -0.00000000000E+00 -0.45593999997E+02  0.45594000000E+02  0.51100000000E-03 0. -1.
    9900012    2    1    2    0    0 -0.15933805706E+02 -0.27250539111E+02 -0.44992708279E+01  0.59301929622E+02  0.49999973728E+02 0.  0.
        -12    1    1    2    0    0  0.15933805706E+02  0.27250539111E+02  0.44992708279E+01  0.31886070378E+02  0.00000000000E+00 0.  1.
         11    1    3    3    0    0  0.56839515657E+01 -0.79267106753E+00  0.20997556834E+01  0.61110234015E+01  0.51100000000E-03 0. -1.
        -11    1    3    3    0    0 -0.75404845909E+01  0.29677569268E+01  0.12865842729E+02  0.15205143814E+02  0.51100000000E-03 0.  1.
         12    1    3    3    0    0 -0.14077272681E+02 -0.29425624971E+02 -0.19464869240E+02  0.37985762406E+02  0.00000000000E+00 0. -1.
</event>
<event>
 7    1  0.6285940E-013  0.5930186E+02  0.7816164E-02  0.1266605E+00
        -11   -1    0    0    0    0  0.00000000000E+00  0.00000000000E+00  0.45593999997E+02  0.45594000000E+02  0.51100000000E-03 0.  1.
         11   -1    0    0    0    0 -0.00000000000E+00 -0.00000000000E+00 -0.45593999997E+02  0.45594000000E+02  0.51100000000E-03 0. -1.
    9900012    2    1    2    0    0  0.94348076455E+01  0.56296183983E+01 -0.29933557255E+02  0.59301858049E+02  0.49999843195E+02 0.  0.
        -12    1    1    2    0    0 -0.94348076455E+01 -0.56296183983E+01  0.29933557255E+02  0.31886141951E+02  0.00000000000E+00 0.  1.
         11    1    3    3    0    0 -0.24070132938E+01  0.11533983944E+01 -0.36719367434E+02  0.36816246222E+02  0.51100000000E-03 0. -1.
        -11    1    3    3    0    0  0.59431416787E+01 -0.55285518419E-01 -0.55167577458E+01  0.81091680084E+01  0.51100000000E-03 0.  1.
        -12    1    3    3    0    0  0.58986792607E+01  0.45315055224E+01  0.12302567925E+02  0.14376443819E+02  0.00000000000E+00 0.  1.
</event>
<event>
 7    1  0.6285940E-013  0.5930192E+02  0.7816164E-02  0.1266605E+00
        -11   -1    0    0    0    0  0.00000000000E+00  0.00000000000E+00  0.45593999997E+02  0.45594000000E+02  0.51100000000E-03 0.  1.
         11   -1    0    0    0    0 -0.00000000000E+00 -0.00000000000E+00 -0.45593999997E+02  0.45594000000E+02  0.51100000000E-03 0. -1.
    9900012    2    1    2    0    0 -0.27860838165E+02  0.10344622872E+02 -0.11553559598E+02  0.59301917378E+02  0.49999951397E+02 0.  0.
        -12    1    1    2    0    0  0.27860838165E+02 -0.10344622872E+02  0.11553559598E+02  0.31886082622E+02  0.00000000000E+00 0.  1.
         11    1    3    3    0    0  0.11452512951E+00 -0.10986452966E+02 -0.27508477662E+01  0.11326183314E+02  0.51100000000E-03 0. -1.
        -11    1    3    3    0    0 -0.28147105938E+02  0.63896010562E+01  0.28824450483E+01  0.29006810650E+02  0.51100000000E-03 0.  1.
         12    1    3    3    0    0  0.17174264339E+00  0.14941474781E+02 -0.11685156880E+02  0.18968923414E+02  0.00000000000E+00 0. -1.
</event>
<event>
 7    1  0.6285940E-013  0.5930196E+02  0.7816164E-02  0.1266605E+00
        -11   -1    0    0    0    0  0.00000000000E+00  0.00000000000E+00  0.45593999997E+02  0.45594000000E+02  0.51100000000E-03 0. -1.
         11   -1    0    0    0    0 -0.00000000000E+00 -0.00000000000E+00 -0.45593999997E+02  0.45594000000E+02  0.51100000000E-03 0.  1.
    9900012    2    1    2    0    0 -0.13995619578E+02  0.13886961729E+01  0.28616665556E+02  0.59301962429E+02  0.50000033559E+02 0.  0.
        -12    1    1    2    0    0  0.13995619578E+02 -0.13886961729E+01 -0.28616665556E+02  0.31886037571E+02  0.00000000000E+00 0.  1.
         11    1    3    3    0    0 -0.12242911603E+02 -0.21169737748E+00 -0.28783775487E+01  0.12578503801E+02  0.51100000000E-03 0. -1.
        -11    1    3    3    0    0 -0.17204979226E+02  0.63127864590E+01  0.15740918468E+02  0.24158623668E+02  0.51100000000E-03 0.  1.
         12    1    3    3    0    0  0.15452271250E+02 -0.47123929085E+01  0.15754124637E+02  0.22564834960E+02  0.00000000000E+00 0. -1.
</event>
<event>
 7    1  0.6285940E-013  0.5930195E+02  0.7816164E-02  0.1266605E+00
        -11   -1    0    0    0    0  0.00000000000E+00  0.00000000000E+00  0.45593999997E+02  0.45594000000E+02  0.51100000000E-03 0.  1.
         11   -1    0    0    0    0 -0.00000000000E+00 -0.00000000000E+00 -0.45593999997E+02  0.45594000000E+02  0.51100000000E-03 0. -1.
    9900012    2    1    2    0    0 -0.11755352858E+01  0.10839873325E+02 -0.29963901303E+02  0.59301951041E+02  0.50000012791E+02 0.  0.
        -12    1    1    2    0    0  0.11755352858E+01 -0.10839873325E+02  0.29963901303E+02  0.31886048959E+02  0.00000000000E+00 0.  1.
         11    1    3    3    0    0  0.43634183901E+00  0.15556635638E+02 -0.24032492568E+02  0.28631451341E+02  0.51100000000E-03 0. -1.
        -11    1    3    3    0    0 -0.30684047711E+01  0.89987048385E-01 -0.17653132743E+02  0.17918044018E+02  0.51100000000E-03 0.  1.
        -12    1    3    3    0    0  0.14565276463E+01 -0.48067493615E+01  0.11721724009E+02  0.12752455683E+02  0.00000000000E+00 0.  1.
</event>
<event>
 7    1  0.6285940E-013  0.5930192E+02  0.7816164E-02  0.1266605E+00
        -11   -1    0    0    0    0  0.00000000000E+00  0.00000000000E+00  0.45593999997E+02  0.45594000000E+02  0.51100000000E-03 0. -1.
         11   -1    0    0    0    0 -0.00000000000E+00 -0.00000000000E+00 -0.45593999997E+02  0.45594000000E+02  0.51100000000E-03 0.  1.
    9900012    2    1    2    0    0 -0.26596249012E+01  0.15000320569E+02  0.28011408266E+02  0.59301918165E+02  0.49999952832E+02 0.  0.
        -12    1    1    2    0    0  0.26596249012E+01 -0.15000320569E+02 -0.28011408266E+02  0.31886081835E+02  0.00000000000E+00 0.  1.
         11    1    3    3    0    0  0.19154241837E+02  0.24943279577E+01  0.64419643798E+01  0.20361865279E+02  0.51100000000E-03 0. -1.
        -11    1    3    3    0    0  0.22569723916E+00 -0.37147788408E+01  0.70246884678E+01  0.79496395774E+01  0.51100000000E-03 0.  1.
        -12    1    3    3    0    0 -0.22039563978E+02  0.16220771452E+02  0.14544755418E+02  0.30990413308E+02  0.00000000000E+00 0.  1.
</event>
<event>
 7    1  0.6285940E-013  0.5930194E+02  0.7816164E-02  0.1266605E+00
        -11   -1    0    0    0    0  0.00000000000E+00  0.00000000000E+00  0.45593999997E+02  0.45594000000E+02  0.51100000000E-03 0.  1.
         11   -1    0    0    0    0 -0.00000000000E+00 -0.00000000000E+00 -0.45593999997E+02  0.45594000000E+02  0.51100000000E-03 0. -1.
    9900012    2    1    2    0    0  0.57543756905E+01  0.54246387406E+01 -0.30889826971E+02  0.59301937914E+02  0.49999988850E+02 0.  0.
        -12    1    1    2    0    0 -0.57543756905E+01 -0.54246387406E+01  0.30889826971E+02  0.31886062086E+02  0.00000000000E+00 0.  1.
         11    1    3    3    0    0  0.16856585175E+02  0.99741483134E+01 -0.18460271435E+02  0.26914860580E+02  0.51100000000E-03 0. -1.
        -11    1    3    3    0    0  0.90075844282E+01 -0.26655078678E+01 -0.61806996500E+01  0.11244667974E+02  0.51100000000E-03 0.  1.
         12    1    3    3    0    0 -0.20109793913E+02 -0.18840017050E+01 -0.62488558867E+01  0.21142409360E+02  0.00000000000E+00 0. -1.
</event>
<event>
 7    1  0.6285940E-013  0.5930197E+02  0.7816164E-02  0.1266605E+00
        -11   -1    0    0    0    0  0.00000000000E+00  0.00000000000E+00  0.45593999997E+02  0.45594000000E+02  0.51100000000E-03 0.  1.
         11   -1    0    0    0    0 -0.00000000000E+00 -0.00000000000E+00 -0.45593999997E+02  0.45594000000E+02  0.51100000000E-03 0. -1.
    9900012    2    1    2    0    0  0.46542235530E+01  0.19021251195E+02 -0.25164442607E+02  0.59301969115E+02  0.50000045752E+02 0.  0.
        -12    1    1    2    0    0 -0.46542235530E+01 -0.19021251195E+02  0.25164442607E+02  0.31886030885E+02  0.00000000000E+00 0.  1.
         11    1    3    3    0    0  0.60673660488E+01  0.10517033221E+02 -0.29753713650E+02  0.32135718364E+02  0.51100000000E-03 0. -1.
        -11    1    3    3    0    0  0.11582647421E+02  0.21819832552E+01 -0.62346342013E+00  0.11802858938E+02  0.51100000000E-03 0.  1.
        -12    1    3    3    0    0 -0.12995789917E+02  0.63222347196E+01  0.52127344632E+01  0.15363391813E+02  0.00000000000E+00 0.  1.
</event>
<event>
 7    1  0.6285940E-013  0.5930195E+02  0.7816164E-02  0.1266605E+00
        -11   -1    0    0    0    0  0.00000000000E+00  0.00000000000E+00  0.45593999997E+02  0.45594000000E+02  0.51100000000E-03 0. -1.
         11   -1    0    0    0    0 -0.00000000000E+00 -0.00000000000E+00 -0.45593999997E+02  0.45594000000E+02  0.51100000000E-03 0.  1.
    9900012    2    1    2    0    0  0.18713374678E+01 -0.18892581524E+02  0.25618125048E+02  0.59301954909E+02  0.50000019844E+02 0.  0.
        -12    1    1    2    0    0 -0.18713374678E+01  0.18892581524E+02 -0.25618125048E+02  0.31886045091E+02  0.00000000000E+00 0.  1.
         11    1    3    3    0    0  0.64946237304E+01 -0.15308422245E+02  0.35236500420E+01  0.16998354006E+02  0.51100000000E-03 0. -1.
        -11    1    3    3    0    0  0.11800145844E+02  0.94177602214E+01  0.83971090039E+01  0.17275679130E+02  0.51100000000E-03 0.  1.
         12    1    3    3    0    0 -0.16423432106E+02 -0.13001919501E+02  0.13697366003E+02  0.25027921773E+02  0.00000000000E+00 0. -1.
</event>
<event>
 7    1  0.6285940E-013  0.5930196E+02  0.7816164E-02  0.1266605E+00
        -11   -1    0    0    0    0  0.00000000000E+00  0.00000000000E+00  0.45593999997E+02  0.45594000000E+02  0.51100000000E-03 0.  1.
         11   -1    0    0    0    0 -0.00000000000E+00 -0.00000000000E+00 -0.45593999997E+02  0.45594000000E+02  0.51100000000E-03 0. -1.
    9900012    2    1    2    0    0  0.13418137363E+02  0.65686366438E+01 -0.28169595947E+02  0.59301960210E+02  0.50000029513E+02 0.  0.
        -12    1    1    2    0    0 -0.13418137363E+02 -0.65686366438E+01  0.28169595947E+02  0.31886039790E+02  0.00000000000E+00 0.  1.
         11    1    3    3    0    0  0.18562253919E+01 -0.12774316962E+00 -0.27583212478E+02  0.27645894846E+02  0.51100000000E-03 0. -1.
        -11    1    3    3    0    0 -0.85622862972E+01 -0.18660328469E+01 -0.37990717951E+01  0.95513230490E+01  0.51100000000E-03 0.  1.
         12    1    3    3    0    0  0.20124198268E+02  0.85624126603E+01  0.32126883252E+01  0.22104742314E+02  0.00000000000E+00 0. -1.
</event>
<event>
 7    1  0.6285940E-013  0.5930194E+02  0.7816164E-02  0.1266605E+00
        -11   -1    0    0    0    0  0.00000000000E+00  0.00000000000E+00  0.45593999997E+02  0.45594000000E+02  0.51100000000E-03 0.  1.
         11   -1    0    0    0    0 -0.00000000000E+00 -0.00000000000E+00 -0.45593999997E+02  0.45594000000E+02  0.51100000000E-03 0. -1.
    9900012    2    1    2    0    0 -0.68343843198E+01 -0.22033736850E+02 -0.22011964927E+02  0.59301937707E+02  0.49999988472E+02 0.  0.
        -12    1    1    2    0    0  0.68343843198E+01  0.22033736850E+02  0.22011964927E+02  0.31886062293E+02  0.00000000000E+00 0.  1.
         11    1    3    3    0    0 -0.80543282253E+01 -0.18416342338E+02 -0.88320099732E+01  0.21955369929E+02  0.51100000000E-03 0. -1.
        -11    1    3    3    0    0 -0.15061321503E+02 -0.74506419946E+01 -0.11861624026E+02  0.20568266731E+02  0.51100000000E-03 0.  1.
        -12    1    3    3    0    0  0.16281265408E+02  0.38332474828E+01 -0.13183309283E+01  0.16778301046E+02  0.00000000000E+00 0.  1.
</event>
<event>
 7    1  0.6285940E-013  0.5930194E+02  0.7816164E-02  0.1266605E+00
        -11   -1    0    0    0    0  0.00000000000E+00  0.00000000000E+00  0.45593999997E+02  0.45594000000E+02  0.51100000000E-03 0.  1.
         11   -1    0    0    0    0 -0.00000000000E+00 -0.00000000000E+00 -0.45593999997E+02  0.45594000000E+02  0.51100000000E-03 0. -1.
    9900012    2    1    2    0    0  0.82472430556E+01 -0.21243686429E+02 -0.22302675350E+02  0.59301944131E+02  0.50000000189E+02 0.  0.
        -12    1    1    2    0    0 -0.82472430556E+01  0.21243686429E+02  0.22302675350E+02  0.31886055869E+02  0.00000000000E+00 0.  1.
         11    1    3    3    0    0  0.52369494378E+01 -0.10911102843E+02 -0.71092100817E+00  0.12123663374E+02  0.51100000000E-03 0. -1.
        -11    1    3    3    0    0 -0.20086540429E+01  0.78412277229E+01  0.84556316685E+01  0.11705436790E+02  0.51100000000E-03 0.  1.
         12    1    3    3    0    0  0.50189476607E+01 -0.18173811308E+02 -0.30047386010E+02  0.35472843967E+02  0.00000000000E+00 0. -1.
</event>
<event>
 7    1  0.6285940E-013  0.5930196E+02  0.7816164E-02  0.1266605E+00
        -11   -1    0    0    0    0  0.00000000000E+00  0.00000000000E+00  0.45593999997E+02  0.45594000000E+02  0.51100000000E-03 0. -1.
         11   -1    0    0    0    0 -0.00000000000E+00 -0.00000000000E+00 -0.45593999997E+02  0.45594000000E+02  0.51100000000E-03 0.  1.
    9900012    2    1    2    0    0 -0.22323597401E+02  0.22331757357E+02  0.44350115078E+01  0.59301957369E+02  0.50000024332E+02 0.  0.
        -12    1    1    2    0    0  0.22323597401E+02 -0.22331757357E+02 -0.44350115078E+01  0.31886042631E+02  0.00000000000E+00 0.  1.
         11    1    3    3    0    0 -0.18561886944E+01  0.94467628842E+01  0.14464623326E+02  0.17375617793E+02  0.51100000000E-03 0. -1.
        -11    1    3    3    0    0 -0.71644840514E+01  0.17434831964E+02 -0.17745868421E+02  0.25888589062E+02  0.51100000000E-03 0.  1.
         12    1    3    3    0    0 -0.13302924655E+02 -0.45498374916E+01  0.77162566032E+01  0.16037750514E+02  0.00000000000E+00 0. -1.
</event>
<event>
 7    1  0.6285940E-013  0.5930195E+02  0.7816164E-02  0.1266605E+00
        -11   -1    0    0    0    0  0.00000000000E+00  0.00000000000E+00  0.45593999997E+02  0.45594000000E+02  0.51100000000E-03 0.  1.
         11   -1    0    0    0    0 -0.00000000000E+00 -0.00000000000E+00 -0.45593999997E+02  0.45594000000E+02  0.51100000000E-03 0. -1.
    9900012    2    1    2    0    0 -0.14814458613E+01  0.25051554374E+02 -0.19670918288E+02  0.59301951566E+02  0.50000013749E+02 0.  0.
        -12    1    1    2    0    0  0.14814458613E+01 -0.25051554374E+02  0.19670918288E+02  0.31886048434E+02  0.00000000000E+00 0.  1.
         11    1    3    3    0    0  0.14731393235E+02  0.14385177300E+02 -0.45929158757E+00  0.20595101885E+02  0.51100000000E-03 0. -1.
        -11    1    3    3    0    0  0.53268762960E+00 -0.30182890903E+00  0.62716275738E+01  0.63014418577E+01  0.51100000000E-03 0.  1.
        -12    1    3    3    0    0 -0.16745526726E+02  0.10968205983E+02 -0.25483254275E+02  0.32405407824E+02  0.00000000000E+00 0.  1.
</event>
<event>
 7    1  0.6285940E-013  0.5930195E+02  0.7816164E-02  0.1266605E+00
        -11   -1    0    0    0    0  0.00000000000E+00  0.00000000000E+00  0.45593999997E+02  0.45594000000E+02  0.51100000000E-03 0.  1.
         11   -1    0    0    0    0 -0.00000000000E+00 -0.00000000000E+00 -0.45593999997E+02  0.45594000000E+02  0.51100000000E-03 0. -1.
    9900012    2    1    2    0    0 -0.28842370318E+02 -0.87804009777E+01 -0.10379909886E+02  0.59301948251E+02  0.50000007703E+02 0.  0.
        -12    1    1    2    0    0  0.28842370318E+02  0.87804009777E+01  0.10379909886E+02  0.31886051749E+02  0.00000000000E+00 0.  1.
         11    1    3    3    0    0 -0.11986386038E+02  0.25672797526E+01  0.45224674331E+01  0.13065874924E+02  0.51100000000E-03 0. -1.
        -11    1    3    3    0    0  0.94374774382E+00  0.10125605108E+02  0.56097455620E+01  0.11614120033E+02  0.51100000000E-03 0.  1.
         12    1    3    3    0    0 -0.17799732024E+02 -0.21473285839E+02 -0.20512122881E+02  0.34621953294E+02  0.00000000000E+00 0. -1.
</event>
<event>
 7    1  0.6285940E-013  0.5930196E+02  0.7816164E-02  0.1266605E+00
        -11   -1    0    0    0    0  0.00000000000E+00  0.00000000000E+00  0.45593999997E+02  0.45594000000E+02  0.51100000000E-03 0. -1.
         11   -1    0    0    0    0 -0.00000000000E+00 -0.00000000000E+00 -0.45593999997E+02  0.45594000000E+02  0.51100000000E-03 0.  1.
    9900012    2    1    2    0    0 -0.24464479016E+02  0.14379740772E+02  0.14540705223E+02  0.59301956241E+02  0.50000022274E+02 0.  0.
        -12    1    1    2    0    0  0.24464479016E+02 -0.14379740772E+02 -0.14540705223E+02  0.31886043759E+02  0.00000000000E+00 0.  1.
         11    1    3    3    0    0  0.10444608087E+02 -0.27430884478E+01  0.27279001555E+01  0.11138034470E+02  0.51100000000E-03 0. -1.
        -11    1    3    3    0    0 -0.11635097803E+02  0.47275530317E+01 -0.82535106878E+01  0.15028163477E+02  0.51100000000E-03 0.  1.
         12    1    3    3    0    0 -0.23273989301E+02  0.12395276188E+02  0.20066315755E+02  0.33135758294E+02  0.00000000000E+00 0. -1.
</event>
<event>
 7    1  0.6285940E-013  0.5930194E+02  0.7816164E-02  0.1266605E+00
        -11   -1    0    0    0    0  0.00000000000E+00  0.00000000000E+00  0.45593999997E+02  0.45594000000E+02  0.51100000000E-03 0.  1.
         11   -1    0    0    0    0 -0.00000000000E+00 -0.00000000000E+00 -0.45593999997E+02  0.45594000000E+02  0.51100000000E-03 0. -1.
    9900012    2    1    2    0    0 -0.25249117541E+02 -0.18106332419E+02 -0.71668399521E+01  0.59301940269E+02  0.49999993146E+02 0.  0.
        -12    1    1    2    0    0  0.25249117541E+02  0.18106332419E+02  0.71668399521E+01  0.31886059731E+02  0.00000000000E+00 0.  1.
         11    1    3    3    0    0 -0.44032993665E+01 -0.10219483886E+02 -0.99017022503E+01  0.14895321545E+02  0.51100000000E-03 0. -1.
        -11    1    3    3    0    0  0.80060761558E+01  0.42761206597E+01 -0.71696091897E+01  0.11566579421E+02  0.51100000000E-03 0.  1.
         12    1    3    3    0    0 -0.28851894330E+02 -0.12162969193E+02  0.99044714878E+01  0.32840039304E+02  0.00000000000E+00 0. -1.
</event>
<event>
 7    1  0.6285940E-013  0.5930193E+02  0.7816164E-02  0.1266605E+00
        -11   -1    0    0    0    0  0.00000000000E+00  0.00000000000E+00  0.45593999997E+02  0.45594000000E+02  0.51100000000E-03 0.  1.
         11   -1    0    0    0    0 -0.00000000000E+00 -0.00000000000E+00 -0.45593999997E+02  0.45594000000E+02  0.51100000000E-03 0. -1.
    9900012    2    1    2    0    0  0.28253179516E+02  0.10705053810E+02 -0.10192208667E+02  0.59301930199E+02  0.49999974780E+02 0.  0.
        -12    1    1    2    0    0 -0.28253179516E+02 -0.10705053810E+02  0.10192208667E+02  0.31886069801E+02  0.00000000000E+00 0.  1.
         11    1    3    3    0    0  0.20099896021E+01 -0.19587663696E+01 -0.57818871428E+01  0.64270555532E+01  0.51100000000E-03 0. -1.
        -11    1    3    3    0    0  0.56628776834E+01 -0.16125196408E+02  0.77574800253E+00  0.17108241525E+02  0.51100000000E-03 0.  1.
         12    1    3    3    0    0  0.20580312231E+02  0.28789016588E+02 -0.51860695267E+01  0.35766633120E+02  0.00000000000E+00 0. -1.
</event>
<event>
 7    1  0.6285940E-013  0.5930196E+02  0.7816164E-02  0.1266605E+00
        -11   -1    0    0    0    0  0.00000000000E+00  0.00000000000E+00  0.45593999997E+02  0.45594000000E+02  0.51100000000E-03 0.  1.
         11   -1    0    0    0    0 -0.00000000000E+00 -0.00000000000E+00 -0.45593999997E+02  0.45594000000E+02  0.51100000000E-03 0. -1.
    9900012    2    1    2    0    0  0.15520930672E+02 -0.16837421421E+02 -0.22188324601E+02  0.59301956068E+02  0.50000021958E+02 0.  0.
        -12    1    1    2    0    0 -0.15520930672E+02  0.16837421421E+02  0.22188324601E+02  0.31886043932E+02  0.00000000000E+00 0.  1.
         11    1    3    3    0    0  0.48586350836E+01  0.75034027446E+01  0.23227827929E+01  0.92359465019E+01  0.51100000000E-03 0. -1.
        -11    1    3    3    0    0  0.18591548823E+02 -0.14343384103E+01 -0.60744162556E+01  0.19611260730E+02  0.51100000000E-03 0.  1.
         12    1    3    3    0    0 -0.79292532347E+01 -0.22906485755E+02 -0.18436691138E+02  0.30454748836E+02  0.00000000000E+00 0. -1.
</event>
<event>
 7    1  0.6285940E-013  0.5930195E+02  0.7816164E-02  0.1266605E+00
        -11   -1    0    0    0    0  0.00000000000E+00  0.00000000000E+00  0.45593999997E+02  0.45594000000E+02  0.51100000000E-03 0.  1.
         11   -1    0    0    0    0 -0.00000000000E+00 -0.00000000000E+00 -0.45593999997E+02  0.45594000000E+02  0.51100000000E-03 0. -1.
    9900012    2    1    2    0    0 -0.94639851510E+01  0.28312066818E+02 -0.11206239588E+02  0.59301953708E+02  0.50000017654E+02 0.  0.
        -12    1    1    2    0    0  0.94639851510E+01 -0.28312066818E+02  0.11206239588E+02  0.31886046292E+02  0.00000000000E+00 0.  1.
         11    1    3    3    0    0 -0.11464626915E+02 -0.50159052214E+01 -0.38698501398E+01  0.13098576864E+02  0.51100000000E-03 0. -1.
        -11    1    3    3    0    0 -0.55314800761E+01  0.22626622986E+02 -0.17907358885E+02  0.29380858429E+02  0.51100000000E-03 0.  1.
        -12    1    3    3    0    0  0.75321218399E+01  0.10701349054E+02  0.10570969437E+02  0.16822518415E+02  0.00000000000E+00 0.  1.
</event>
<event>
 7    1  0.6285940E-013  0.5930195E+02  0.7816164E-02  0.1266605E+00
        -11   -1    0    0    0    0  0.00000000000E+00  0.00000000000E+00  0.45593999997E+02  0.45594000000E+02  0.51100000000E-03 0.  1.
         11   -1    0    0    0    0 -0.00000000000E+00 -0.00000000000E+00 -0.45593999997E+02  0.45594000000E+02  0.51100000000E-03 0. -1.
    9900012    2    1    2    0    0  0.30510653760E+02 -0.92370043130E+01  0.70566906996E+00  0.59301949595E+02  0.50000010154E+02 0.  0.
        -12    1    1    2    0    0 -0.30510653760E+02  0.92370043130E+01 -0.70566906996E+00  0.31886050405E+02  0.00000000000E+00 0.  1.
         11    1    3    3    0    0  0.22901056413E+02 -0.20349436335E+01 -0.15827995988E+01  0.23045707524E+02  0.51100000000E-03 0. -1.
        -11    1    3    3    0    0  0.12814140794E+02 -0.15532958839E+02  0.11158210233E+02  0.23021309052E+02  0.51100000000E-03 0.  1.
         12    1    3    3    0    0 -0.52045434470E+01  0.83308981596E+01 -0.88697415640E+01  0.13234933020E+02  0.00000000000E+00 0. -1.
</event>
<event>
 7    1  0.6285940E-013  0.5930195E+02  0.7816164E-02  0.1266605E+00
        -11   -1    0    0    0    0  0.00000000000E+00  0.00000000000E+00  0.45593999997E+02  0.45594000000E+02  0.51100000000E-03 0. -1.
         11   -1    0    0    0    0 -0.00000000000E+00 -0.00000000000E+00 -0.45593999997E+02  0.45594000000E+02  0.51100000000E-03 0.  1.
    9900012    2    1    2    0    0 -0.22508104730E+02 -0.22320574868E+02  0.34492971304E+01  0.59301945185E+02  0.50000002110E+02 0.  0.
        -12    1    1    2    0    0  0.22508104730E+02  0.22320574868E+02 -0.34492971304E+01  0.31886054815E+02  0.00000000000E+00 0.  1.
         11    1    3    3    0    0 -0.13009032718E+02 -0.13963598264E+02  0.18795422120E+02  0.26785908640E+02  0.51100000000E-03 0. -1.
        -11    1    3    3    0    0 -0.18057781223E+02 -0.29640454029E+01 -0.77854077033E+01  0.19886719217E+02  0.51100000000E-03 0.  1.
         12    1    3    3    0    0  0.85587092102E+01 -0.53929312016E+01 -0.75607172865E+01  0.12629317328E+02  0.00000000000E+00 0. -1.
</event>
<event>
 7    1  0.6285940E-013  0.5930195E+02  0.7816164E-02  0.1266605E+00
        -11   -1    0    0    0    0  0.00000000000E+00  0.00000000000E+00  0.45593999997E+02  0.45594000000E+02  0.51100000000E-03 0. -1.
         11   -1    0    0    0    0 -0.00000000000E+00 -0.00000000000E+00 -0.45593999997E+02  0.45594000000E+02  0.51100000000E-03 0.  1.
    9900012    2    1    2    0    0  0.26205437981E+01  0.13127690101E+02 -0.28939880489E+02  0.59301950074E+02  0.50000011026E+02 0.  0.
        -12    1    1    2    0    0 -0.26205437981E+01 -0.13127690101E+02  0.28939880489E+02  0.31886049926E+02  0.00000000000E+00 0.  1.
         11    1    3    3    0    0 -0.10679666324E+02  0.14500062801E+02 -0.55929438307E+01  0.18857044174E+02  0.51100000000E-03 0. -1.
        -11    1    3    3    0    0  0.16002486468E+02  0.34887499397E+01  0.67986518366E-01  0.16378509448E+02  0.51100000000E-03 0.  1.
         12    1    3    3    0    0 -0.27022763460E+01 -0.48611226401E+01 -0.23414923177E+02  0.24066396451E+02  0.00000000000E+00 0. -1.
</event>
<event>
 7    1  0.6285940E-013  0.5930198E+02  0.7816164E-02  0.1266605E+00
        -11   -1    0    0    0    0  0.00000000000E+00  0.00000000000E+00  0.45593999997E+02  0.45594000000E+02  0.51100000000E-03 0.  1.
         11   -1    0    0    0    0 -0.00000000000E+00 -0.00000000000E+00 -0.45593999997E+02  0.45594000000E+02  0.51100000000E-03 0. -1.
    9900012    2    1    2    0    0 -0.19007292511E+02  0.18575044590E+01  0.25534113815E+02  0.59301977047E+02  0.50000060220E+02 0.  0.
        -12    1    1    2    0    0  0.19007292511E+02 -0.18575044590E+01 -0.25534113815E+02  0.31886022953E+02  0.00000000000E+00 0.  1.
         11    1    3    3    0    0 -0.66624330817E+01 -0.44307171888E+00  0.85290304933E+01  0.10831836803E+02  0.51100000000E-03 0. -1.
        -11    1    3    3    0    0 -0.33537360113E+01  0.10059808976E+02  0.29430049806E+02  0.31282185564E+02  0.51100000000E-03 0.  1.
         12    1    3    3    0    0 -0.89911234184E+01 -0.77592327980E+01 -0.12424966484E+02  0.17187954680E+02  0.00000000000E+00 0. -1.
</event>
<event>
 7    1  0.6285940E-013  0.5930201E+02  0.7816164E-02  0.1266605E+00
        -11   -1    0    0    0    0  0.00000000000E+00  0.00000000000E+00  0.45593999997E+02  0.45594000000E+02  0.51100000000E-03 0. -1.
         11   -1    0    0    0    0 -0.00000000000E+00 -0.00000000000E+00 -0.45593999997E+02  0.45594000000E+02  0.51100000000E-03 0.  1.
    9900012    2    1    2    0    0  0.17807224110E+02  0.24751336322E+02  0.93268644192E+01  0.59302011226E+02  0.50000122554E+02 0.  0.
        -12    1    1    2    0    0 -0.17807224110E+02 -0.24751336322E+02 -0.93268644192E+01  0.31885988774E+02  0.00000000000E+00 0.  1.
         11    1    3    3    0    0  0.21724247794E+02  0.17917411037E+02 -0.10908595542E+02  0.30198907554E+02  0.51100000000E-03 0. -1.
        -11    1    3    3    0    0  0.17297561469E+01  0.45579338379E+01 -0.25615586805E+01  0.55071226910E+01  0.51100000000E-03 0.  1.
         12    1    3    3    0    0 -0.56467798317E+01  0.22759914471E+01  0.22797018641E+02  0.23595980981E+02  0.00000000000E+00 0. -1.
</event>
<event>
 7    1  0.6285940E-013  0.5930194E+02  0.7816164E-02  0.1266605E+00
        -11   -1    0    0    0    0  0.00000000000E+00  0.00000000000E+00  0.45593999997E+02  0.45594000000E+02  0.51100000000E-03 0. -1.
         11   -1    0    0    0    0 -0.00000000000E+00 -0.00000000000E+00 -0.45593999997E+02  0.45594000000E+02  0.51100000000E-03 0.  1.
    9900012    2    1    2    0    0 -0.19000012172E+02 -0.19210494153E+02  0.16931548896E+02  0.59301938842E+02  0.49999990543E+02 0.  0.
        -12    1    1    2    0    0  0.19000012172E+02  0.19210494153E+02 -0.16931548896E+02  0.31886061158E+02  0.00000000000E+00 0.  1.
         11    1    3    3    0    0 -0.82359229904E+01  0.58546346661E+01  0.18134945672E+02  0.20760140399E+02  0.51100000000E-03 0. -1.
        -11    1    3    3    0    0 -0.11731476592E+01 -0.13777238568E+02  0.12294066823E+02  0.18502233847E+02  0.51100000000E-03 0.  1.
        -12    1    3    3    0    0 -0.95909415225E+01 -0.11287890251E+02 -0.13497463600E+02  0.20039564597E+02  0.00000000000E+00 0.  1.
</event>
<event>
 7    1  0.6285940E-013  0.5930194E+02  0.7816164E-02  0.1266605E+00
        -11   -1    0    0    0    0  0.00000000000E+00  0.00000000000E+00  0.45593999997E+02  0.45594000000E+02  0.51100000000E-03 0.  1.
         11   -1    0    0    0    0 -0.00000000000E+00 -0.00000000000E+00 -0.45593999997E+02  0.45594000000E+02  0.51100000000E-03 0. -1.
    9900012    2    1    2    0    0 -0.15300256584E+02 -0.42890255664E+01 -0.27644655554E+02  0.59301943917E+02  0.49999999798E+02 0.  0.
        -12    1    1    2    0    0  0.15300256584E+02  0.42890255664E+01  0.27644655554E+02  0.31886056083E+02  0.00000000000E+00 0.  1.
         11    1    3    3    0    0  0.32036087004E+01 -0.61210037807E+00  0.19053983961E+01  0.37773428342E+01  0.51100000000E-03 0. -1.
        -11    1    3    3    0    0 -0.19371488319E+02  0.55008674872E+01  0.41721390642E+01  0.20565039446E+02  0.51100000000E-03 0.  1.
         12    1    3    3    0    0  0.86762303437E+00 -0.91777926755E+01 -0.33722193014E+02  0.34959561637E+02  0.00000000000E+00 0. -1.
</event>
<event>
 7    1  0.6285940E-013  0.5930196E+02  0.7816164E-02  0.1266605E+00
        -11   -1    0    0    0    0  0.00000000000E+00  0.00000000000E+00  0.45593999997E+02  0.45594000000E+02  0.51100000000E-03 0.  1.
         11   -1    0    0    0    0 -0.00000000000E+00 -0.00000000000E+00 -0.45593999997E+02  0.45594000000E+02  0.51100000000E-03 0. -1.
    9900012    2    1    2    0    0 -0.72216774235E+01  0.26442140018E+02 -0.16290499959E+02  0.59301956306E+02  0.50000022393E+02 0.  0.
        -12    1    1    2    0    0  0.72216774235E+01 -0.26442140018E+02  0.16290499959E+02  0.31886043694E+02  0.00000000000E+00 0.  1.
         11    1    3    3    0    0 -0.15718842289E+02  0.35563408701E+01 -0.14827034927E+02  0.21899098800E+02  0.51100000000E-03 0. -1.
        -11    1    3    3    0    0  0.78372488477E+01  0.28686155387E+02 -0.55841638204E+01  0.30257244855E+02  0.51100000000E-03 0.  1.
         12    1    3    3    0    0  0.65991601756E+00 -0.58003562392E+01  0.41206987885E+01  0.71456126510E+01  0.00000000000E+00 0. -1.
</event>
<event>
 7    1  0.6285940E-013  0.5930192E+02  0.7816164E-02  0.1266605E+00
        -11   -1    0    0    0    0  0.00000000000E+00  0.00000000000E+00  0.45593999997E+02  0.45594000000E+02  0.51100000000E-03 0. -1.
         11   -1    0    0    0    0 -0.00000000000E+00 -0.00000000000E+00 -0.45593999997E+02  0.45594000000E+02  0.51100000000E-03 0.  1.
    9900012    2    1    2    0    0  0.11832496892E+02  0.28407376573E+02  0.83507625177E+01  0.59301917439E+02  0.49999951509E+02 0.  0.
        -12    1    1    2    0    0 -0.11832496892E+02 -0.28407376573E+02 -0.83507625177E+01  0.31886082561E+02  0.00000000000E+00 0.  1.
         11    1    3    3    0    0 -0.61444902810E+01 -0.81334290435E+00  0.13625392906E+02  0.14968888389E+02  0.51100000000E-03 0. -1.
        -11    1    3    3    0    0 -0.49044161581E+01  0.10738800405E+02 -0.87784972823E+01  0.14711802976E+02  0.51100000000E-03 0.  1.
        -12    1    3    3    0    0  0.22881403331E+02  0.18481919072E+02  0.35038668938E+01  0.29621226075E+02  0.00000000000E+00 0.  1.
</event>
<event>
 7    1  0.6285940E-013  0.5930194E+02  0.7816164E-02  0.1266605E+00
        -11   -1    0    0    0    0  0.00000000000E+00  0.00000000000E+00  0.45593999997E+02  0.45594000000E+02  0.51100000000E-03 0.  1.
         11   -1    0    0    0    0 -0.00000000000E+00 -0.00000000000E+00 -0.45593999997E+02  0.45594000000E+02  0.51100000000E-03 0. -1.
    9900012    2    1    2    0    0  0.12495456497E+02  0.41404395226E+01 -0.29042055650E+02  0.59301942406E+02  0.49999997043E+02 0.  0.
        -12    1    1    2    0    0 -0.12495456497E+02 -0.41404395226E+01  0.29042055650E+02  0.31886057594E+02  0.00000000000E+00 0.  1.
         11    1    3    3    0    0  0.90720202967E+01  0.20295212577E+02 -0.81978249885E+00  0.22245656867E+02  0.51100000000E-03 0. -1.
        -11    1    3    3    0    0  0.38971943984E+00 -0.45270353975E+01  0.16684378522E+01  0.48404148438E+01  0.51100000000E-03 0.  1.
         12    1    3    3    0    0  0.30337167607E+01 -0.11627737657E+02 -0.29890711003E+02  0.32215870696E+02  0.00000000000E+00 0. -1.
</event>
<event>
 7    1  0.6285940E-013  0.5930192E+02  0.7816164E-02  0.1266605E+00
        -11   -1    0    0    0    0  0.00000000000E+00  0.00000000000E+00  0.45593999997E+02  0.45594000000E+02  0.51100000000E-03 0. -1.
         11   -1    0    0    0    0 -0.00000000000E+00 -0.00000000000E+00 -0.45593999997E+02  0.45594000000E+02  0.51100000000E-03 0.  1.
    9900012    2    1    2    0    0 -0.22914633162E+02  0.14210535250E+02  0.17020651949E+02  0.59301916549E+02  0.49999949886E+02 0.  0.
        -12    1    1    2    0    0  0.22914633162E+02 -0.14210535250E+02 -0.17020651949E+02  0.31886083451E+02  0.00000000000E+00 0.  1.
         11    1    3    3    0    0 -0.26840396755E+02  0.44420919366E+01  0.80281432343E+01  0.28365298567E+02  0.51100000000E-03 0. -1.
        -11    1    3    3    0    0 -0.50517837905E+01 -0.49784132290E+01  0.11479466210E+02  0.13493823123E+02  0.51100000000E-03 0.  1.
        -12    1    3    3    0    0  0.89775473837E+01  0.14746856543E+02 -0.24869574947E+01  0.17442794859E+02  0.00000000000E+00 0.  1.
</event>
<event>
 7    1  0.6285940E-013  0.5930195E+02  0.7816164E-02  0.1266605E+00
        -11   -1    0    0    0    0  0.00000000000E+00  0.00000000000E+00  0.45593999997E+02  0.45594000000E+02  0.51100000000E-03 0.  1.
         11   -1    0    0    0    0 -0.00000000000E+00 -0.00000000000E+00 -0.45593999997E+02  0.45594000000E+02  0.51100000000E-03 0. -1.
    9900012    2    1    2    0    0  0.88025389926E+01 -0.39671382681E+01 -0.30389101626E+02  0.59301946992E+02  0.50000005407E+02 0.  0.
        -12    1    1    2    0    0 -0.88025389926E+01  0.39671382681E+01  0.30389101626E+02  0.31886053008E+02  0.00000000000E+00 0.  1.
         11    1    3    3    0    0 -0.16157868575E+02 -0.91909832626E+01 -0.10924507201E+02  0.21561441234E+02  0.51100000000E-03 0. -1.
        -11    1    3    3    0    0 -0.11910823136E+01 -0.34582860527E+01 -0.61069430759E+01  0.71185092184E+01  0.51100000000E-03 0.  1.
        -12    1    3    3    0    0  0.26151489881E+02  0.86821310471E+01 -0.13357651350E+02  0.30621996540E+02  0.00000000000E+00 0.  1.
</event>
<event>
 7    1  0.6285940E-013  0.5930196E+02  0.7816164E-02  0.1266605E+00
        -11   -1    0    0    0    0  0.00000000000E+00  0.00000000000E+00  0.45593999997E+02  0.45594000000E+02  0.51100000000E-03 0.  1.
         11   -1    0    0    0    0 -0.00000000000E+00 -0.00000000000E+00 -0.45593999997E+02  0.45594000000E+02  0.51100000000E-03 0. -1.
    9900012    2    1    2    0    0 -0.20546525265E+02  0.23355033368E+02  0.70073058103E+01  0.59301958872E+02  0.50000027072E+02 0.  0.
        -12    1    1    2    0    0  0.20546525265E+02 -0.23355033368E+02 -0.70073058103E+01  0.31886041128E+02  0.00000000000E+00 0.  1.
         11    1    3    3    0    0 -0.17902400869E+02  0.92507999728E+01  0.71596862067E+00  0.20163974517E+02  0.51100000000E-03 0. -1.
        -11    1    3    3    0    0 -0.55062717644E+01  0.25275703430E+02  0.88217226291E+01  0.27331355675E+02  0.51100000000E-03 0.  1.
        -12    1    3    3    0    0  0.28621473685E+01 -0.11171470035E+02 -0.25303854395E+01  0.11806628679E+02  0.00000000000E+00 0.  1.
</event>
<event>
 7    1  0.7420225E-013  0.5930201E+02  0.7816164E-02  0.1266605E+00
        -11   -1    0    0    0    0  0.00000000000E+00  0.00000000000E+00  0.45593999997E+02  0.45594000000E+02  0.51100000000E-03 0.  1.
         11   -1    0    0    0    0 -0.00000000000E+00 -0.00000000000E+00 -0.45593999997E+02  0.45594000000E+02  0.51100000000E-03 0. -1.
    9900012    2    1    2    0    0  0.18478346059E+02 -0.24039501760E+02 -0.98676023377E+01  0.59302007874E+02  0.50000116440E+02 0.  0.
        -12    1    1    2    0    0 -0.18478346059E+02  0.24039501760E+02  0.98676023377E+01  0.31885992126E+02  0.00000000000E+00 0.  1.
         11    1    3    3    0    0 -0.63203296136E+00 -0.22036693707E+02 -0.17286925586E+02  0.28015230352E+02  0.51100000000E-03 0. -1.
        -11    1    3    3    0    0  0.16966511802E+01  0.84193708928E+01 -0.21438028916E+01  0.88521366097E+01  0.51100000000E-03 0.  1.
        -12    1    3    3    0    0  0.17413727841E+02 -0.10422178946E+02  0.95631261397E+01  0.22434640912E+02  0.00000000000E+00 0.  1.
</event>
<event>
 7    1  0.6285940E-013  0.5930193E+02  0.7816164E-02  0.1266605E+00
        -11   -1    0    0    0    0  0.00000000000E+00  0.00000000000E+00  0.45593999997E+02  0.45594000000E+02  0.51100000000E-03 0.  1.
         11   -1    0    0    0    0 -0.00000000000E+00 -0.00000000000E+00 -0.45593999997E+02  0.45594000000E+02  0.51100000000E-03 0. -1.
    9900012    2    1    2    0    0 -0.10445476909E+02 -0.61247452832E+01 -0.29497470401E+02  0.59301933251E+02  0.49999980346E+02 0.  0.
        -12    1    1    2    0    0  0.10445476909E+02  0.61247452832E+01  0.29497470401E+02  0.31886066749E+02  0.00000000000E+00 0.  1.
         11    1    3    3    0    0  0.74972426868E+00  0.25763235744E+01 -0.19547527919E+02  0.19730823035E+02  0.51100000000E-03 0. -1.
        -11    1    3    3    0    0 -0.16313621955E+02  0.97712022938E+01 -0.34204281356E+01  0.19321231443E+02  0.51100000000E-03 0.  1.
         12    1    3    3    0    0  0.51184207778E+01 -0.18472271151E+02 -0.65295143470E+01  0.20249878774E+02  0.00000000000E+00 0. -1.
</event>
<event>
 7    1  0.6285940E-013  0.5930217E+02  0.7816164E-02  0.1266604E+00
        -11   -1    0    0    0    0  0.00000000000E+00  0.00000000000E+00  0.45593999997E+02  0.45594000000E+02  0.51100000000E-03 0.  1.
         11   -1    0    0    0    0 -0.00000000000E+00 -0.00000000000E+00 -0.45593999997E+02  0.45594000000E+02  0.51100000000E-03 0. -1.
    9900012    2    1    2    0    0 -0.17624511595E+02  0.10678260071E+02 -0.24332225701E+02  0.59302174706E+02  0.50000420700E+02 0.  0.
        -12    1    1    2    0    0  0.17624511595E+02 -0.10678260071E+02  0.24332225701E+02  0.31885825294E+02  0.00000000000E+00 0.  1.
         11    1    3    3    0    0 -0.10818739468E+02  0.48438920574E+01 -0.11555936802E+02  0.16554397892E+02  0.51100000000E-03 0. -1.
        -11    1    3    3    0    0 -0.90676315146E+00  0.22163304688E+02 -0.12333976926E+02  0.25380332566E+02  0.51100000000E-03 0.  1.
        -12    1    3    3    0    0 -0.58990089759E+01 -0.16328936675E+02 -0.44231197263E+00  0.17367444248E+02  0.00000000000E+00 0.  1.
</event>
<event>
 7    1  0.6285940E-013  0.5930193E+02  0.7816164E-02  0.1266605E+00
        -11   -1    0    0    0    0  0.00000000000E+00  0.00000000000E+00  0.45593999997E+02  0.45594000000E+02  0.51100000000E-03 0.  1.
         11   -1    0    0    0    0 -0.00000000000E+00 -0.00000000000E+00 -0.45593999997E+02  0.45594000000E+02  0.51100000000E-03 0. -1.
    9900012    2    1    2    0    0 -0.31667083068E+02  0.32228085291E+01 -0.18791156134E+01  0.59301925918E+02  0.49999966973E+02 0.  0.
        -12    1    1    2    0    0  0.31667083068E+02 -0.32228085291E+01  0.18791156134E+01  0.31886074082E+02  0.00000000000E+00 0.  1.
         11    1    3    3    0    0 -0.25163502620E+02  0.93952321875E+01  0.15203218417E+02  0.30864382425E+02  0.51100000000E-03 0. -1.
        -11    1    3    3    0    0 -0.55571567243E+01  0.73101796594E+01 -0.61225580835E+01  0.11036595275E+02  0.51100000000E-03 0.  1.
        -12    1    3    3    0    0 -0.94642372366E+00 -0.13482603318E+02 -0.10959775947E+02  0.17400948218E+02  0.00000000000E+00 0.  1.
</event>
<event>
 7    1  0.6285940E-013  0.5930190E+02  0.7816164E-02  0.1266605E+00
        -11   -1    0    0    0    0  0.00000000000E+00  0.00000000000E+00  0.45593999997E+02  0.45594000000E+02  0.51100000000E-03 0.  1.
         11   -1    0    0    0    0 -0.00000000000E+00 -0.00000000000E+00 -0.45593999997E+02  0.45594000000E+02  0.51100000000E-03 0. -1.
    9900012    2    1    2    0    0  0.14211149406E+02  0.17209169940E+02 -0.22773031374E+02  0.59301901847E+02  0.49999923073E+02 0.  0.
        -12    1    1    2    0    0 -0.14211149406E+02 -0.17209169940E+02  0.22773031374E+02  0.31886098153E+02  0.00000000000E+00 0.  1.
         11    1    3    3    0    0  0.78442124875E+01 -0.49683002763E+01 -0.20557577881E+01  0.95100903008E+01  0.51100000000E-03 0.  1.
        -11    1    3    3    0    0  0.16072844251E+02  0.19443368264E+02  0.16255627978E+01  0.25278911101E+02  0.51100000000E-03 0. -1.
        -12    1    3    3    0    0 -0.97059073322E+01  0.27341019523E+01 -0.22342836383E+02  0.24512900446E+02  0.00000000000E+00 0.  1.
</event>
<event>
 7    1  0.6285940E-013  0.5930194E+02  0.7816164E-02  0.1266605E+00
        -11   -1    0    0    0    0  0.00000000000E+00  0.00000000000E+00  0.45593999997E+02  0.45594000000E+02  0.51100000000E-03 0.  1.
         11   -1    0    0    0    0 -0.00000000000E+00 -0.00000000000E+00 -0.45593999997E+02  0.45594000000E+02  0.51100000000E-03 0. -1.
    9900012    2    1    2    0    0 -0.19510283425E+02  0.86876381631E+01 -0.23676875850E+02  0.59301942448E+02  0.49999997119E+02 0.  0.
        -12    1    1    2    0    0  0.19510283425E+02 -0.86876381631E+01  0.23676875850E+02  0.31886057552E+02  0.00000000000E+00 0.  1.
         11    1    3    3    0    0 -0.31776136588E+01 -0.99139361269E+01  0.85174973349E+01  0.13451063869E+02  0.51100000000E-03 0. -1.
        -11    1    3    3    0    0  0.30635410360E+01 -0.25188049806E+01 -0.41891294978E+01  0.57687492943E+01  0.51100000000E-03 0.  1.
         12    1    3    3    0    0 -0.19396210802E+02  0.21120379271E+02 -0.28005243687E+02  0.40082129285E+02  0.00000000000E+00 0. -1.
</event>
<event>
 7    1  0.6285940E-013  0.5930194E+02  0.7816164E-02  0.1266605E+00
        -11   -1    0    0    0    0  0.00000000000E+00  0.00000000000E+00  0.45593999997E+02  0.45594000000E+02  0.51100000000E-03 0.  1.
         11   -1    0    0    0    0 -0.00000000000E+00 -0.00000000000E+00 -0.45593999997E+02  0.45594000000E+02  0.51100000000E-03 0. -1.
    9900012    2    1    2    0    0 -0.12527928071E+02  0.32760471732E+01 -0.29138277904E+02  0.59301941824E+02  0.49999995980E+02 0.  0.
        -12    1    1    2    0    0  0.12527928071E+02 -0.32760471732E+01  0.29138277904E+02  0.31886058176E+02  0.00000000000E+00 0.  1.
         11    1    3    3    0    0 -0.19152198555E+01  0.12685068063E+02 -0.51158909841E+01  0.13811276540E+02  0.51100000000E-03 0. -1.
        -11    1    3    3    0    0  0.50958625412E+00 -0.12821362441E+01  0.93164742907E+01  0.94180807476E+01  0.51100000000E-03 0.  1.
         12    1    3    3    0    0 -0.11122294469E+02 -0.81268846453E+01 -0.33338861210E+02  0.36072584536E+02  0.00000000000E+00 0. -1.
</event>
<event>
 7    1  0.6285940E-013  0.5930197E+02  0.7816164E-02  0.1266605E+00
        -11   -1    0    0    0    0  0.00000000000E+00  0.00000000000E+00  0.45593999997E+02  0.45594000000E+02  0.51100000000E-03 0. -1.
         11   -1    0    0    0    0 -0.00000000000E+00 -0.00000000000E+00 -0.45593999997E+02  0.45594000000E+02  0.51100000000E-03 0.  1.
    9900012    2    1    2    0    0  0.19402549769E+02  0.24837431799E+02 -0.48334329319E+01  0.59301968108E+02  0.50000043917E+02 0.  0.
        -12    1    1    2    0    0 -0.19402549769E+02 -0.24837431799E+02  0.48334329319E+01  0.31886031892E+02  0.00000000000E+00 0.  1.
         11    1    3    3    0    0 -0.30954128422E+01  0.18049093195E+02  0.54377147104E+00  0.18320672300E+02  0.51100000000E-03 0. -1.
        -11    1    3    3    0    0  0.24222590777E+02 -0.42321163692E+01  0.57208592972E+01  0.25246246142E+02  0.51100000000E-03 0.  1.
         12    1    3    3    0    0 -0.17246281657E+01  0.11020454973E+02 -0.11098063700E+02  0.15735049667E+02  0.00000000000E+00 0. -1.
</event>
<event>
 7    1  0.6285940E-013  0.5930198E+02  0.7816164E-02  0.1266605E+00
        -11   -1    0    0    0    0  0.00000000000E+00  0.00000000000E+00  0.45593999997E+02  0.45594000000E+02  0.51100000000E-03 0. -1.
         11   -1    0    0    0    0 -0.00000000000E+00 -0.00000000000E+00 -0.45593999997E+02  0.45594000000E+02  0.51100000000E-03 0.  1.
    9900012    2    1    2    0    0 -0.10891881566E+01 -0.30569429411E+02 -0.90023432627E+01  0.59301975953E+02  0.50000058223E+02 0.  0.
        -12    1    1    2    0    0  0.10891881566E+01  0.30569429411E+02  0.90023432627E+01  0.31886024047E+02  0.00000000000E+00 0.  1.
         11    1    3    3    0    0  0.66315643886E+00 -0.16169596382E+02 -0.71287440596E+01  0.17683738737E+02  0.51100000000E-03 0. -1.
        -11    1    3    3    0    0 -0.72326834383E+01 -0.10998015155E+02 -0.19115504852E+02  0.23209277737E+02  0.51100000000E-03 0.  1.
         12    1    3    3    0    0  0.54803388428E+01 -0.34018178744E+01  0.17241905649E+02  0.18408959479E+02  0.00000000000E+00 0. -1.
</event>
<event>
 7    1  0.6285940E-013  0.5930193E+02  0.7816164E-02  0.1266605E+00
        -11   -1    0    0    0    0  0.00000000000E+00  0.00000000000E+00  0.45593999997E+02  0.45594000000E+02  0.51100000000E-03 0.  1.
         11   -1    0    0    0    0 -0.00000000000E+00 -0.00000000000E+00 -0.45593999997E+02  0.45594000000E+02  0.51100000000E-03 0. -1.
    9900012    2    1    2    0    0  0.66973721733E+01  0.22882080986E+02 -0.21172557564E+02  0.59301927522E+02  0.49999969898E+02 0.  0.
        -12    1    1    2    0    0 -0.66973721733E+01 -0.22882080986E+02  0.21172557564E+02  0.31886072478E+02  0.00000000000E+00 0.  1.
         11    1    3    3    0    0  0.52225723192E+01  0.10140543957E+02 -0.18971073459E+02  0.22136113521E+02  0.51100000000E-03 0. -1.
        -11    1    3    3    0    0  0.13345355195E+02 -0.47378356250E+01 -0.65355984462E+01  0.15596782970E+02  0.51100000000E-03 0.  1.
         12    1    3    3    0    0 -0.11870555341E+02  0.17479372654E+02  0.43341143417E+01  0.21569031031E+02  0.00000000000E+00 0. -1.
</event>
<event>
 7    1  0.6285940E-013  0.5930187E+02  0.7816164E-02  0.1266605E+00
        -11   -1    0    0    0    0  0.00000000000E+00  0.00000000000E+00  0.45593999997E+02  0.45594000000E+02  0.51100000000E-03 0. -1.
         11   -1    0    0    0    0 -0.00000000000E+00 -0.00000000000E+00 -0.45593999997E+02  0.45594000000E+02  0.51100000000E-03 0.  1.
    9900012    2    1    2    0    0 -0.25246989910E+02 -0.92771193352E+01  0.17124544586E+02  0.59301867122E+02  0.49999859741E+02 0.  0.
        -12    1    1    2    0    0  0.25246989910E+02  0.92771193352E+01 -0.17124544586E+02  0.31886132878E+02  0.00000000000E+00 0.  1.
         11    1    3    3    0    0 -0.60922073893E+01  0.80828337370E+00  0.27501433500E+02  0.28179729554E+02  0.51100000000E-03 0. -1.
        -11    1    3    3    0    0 -0.42593014468E+00 -0.10276197331E+02 -0.14951319326E+01  0.10393125990E+02  0.51100000000E-03 0.  1.
        -12    1    3    3    0    0 -0.18728852376E+02  0.19079462259E+00 -0.88817569820E+01  0.20729011578E+02  0.00000000000E+00 0.  1.
</event>
<event>
 7    1  0.6664888E-013  0.5930194E+02  0.7816164E-02  0.1266605E+00
        -11   -1    0    0    0    0  0.00000000000E+00  0.00000000000E+00  0.45593999997E+02  0.45594000000E+02  0.51100000000E-03 0. -1.
         11   -1    0    0    0    0 -0.00000000000E+00 -0.00000000000E+00 -0.45593999997E+02  0.45594000000E+02  0.51100000000E-03 0.  1.
    9900012    2    1    2    0    0 -0.19738312731E+01 -0.44714186185E+01  0.31509221928E+02  0.59301942531E+02  0.49999997271E+02 0.  0.
        -12    1    1    2    0    0  0.19738312731E+01  0.44714186185E+01 -0.31509221928E+02  0.31886057469E+02  0.00000000000E+00 0.  1.
         11    1    3    3    0    0  0.27576702583E+01 -0.47615612291E+01  0.29195784440E+02  0.29709780207E+02  0.51100000000E-03 0. -1.
        -11    1    3    3    0    0  0.11892337087E+02 -0.22876328810E+01  0.38296411392E+01  0.12701460432E+02  0.51100000000E-03 0.  1.
        -12    1    3    3    0    0 -0.16623838619E+02  0.25777754917E+01 -0.15162036511E+01  0.16890701892E+02  0.00000000000E+00 0.  1.
</event>
<event>
 7    1  0.6285940E-013  0.5930192E+02  0.7816164E-02  0.1266605E+00
        -11   -1    0    0    0    0  0.00000000000E+00  0.00000000000E+00  0.45593999997E+02  0.45594000000E+02  0.51100000000E-03 0.  1.
         11   -1    0    0    0    0 -0.00000000000E+00 -0.00000000000E+00 -0.45593999997E+02  0.45594000000E+02  0.51100000000E-03 0. -1.
    9900012    2    1    2    0    0  0.31476931594E+02  0.25212255201E+01 -0.44236127340E+01  0.59301919176E+02  0.49999954676E+02 0.  0.
        -12    1    1    2    0    0 -0.31476931594E+02 -0.25212255201E+01  0.44236127340E+01  0.31886080824E+02  0.00000000000E+00 0.  1.
         11    1    3    3    0    0  0.81724169738E+01  0.11047030951E+02 -0.31181416111E+01  0.14090709684E+02  0.51100000000E-03 0. -1.
        -11    1    3    3    0    0  0.29990014988E+02  0.46995539458E+01 -0.29066760319E+00  0.30357392743E+02  0.51100000000E-03 0.  1.
        -12    1    3    3    0    0 -0.66855003672E+01 -0.13225359377E+02 -0.10148035197E+01  0.14853816748E+02  0.00000000000E+00 0.  1.
</event>
<event>
 7    1  0.6285940E-013  0.5930192E+02  0.7816164E-02  0.1266605E+00
        -11   -1    0    0    0    0  0.00000000000E+00  0.00000000000E+00  0.45593999997E+02  0.45594000000E+02  0.51100000000E-03 0.  1.
         11   -1    0    0    0    0 -0.00000000000E+00 -0.00000000000E+00 -0.45593999997E+02  0.45594000000E+02  0.51100000000E-03 0. -1.
    9900012    2    1    2    0    0  0.21432245256E+02  0.51266300681E+01 -0.23045581671E+02  0.59301916717E+02  0.49999950192E+02 0.  0.
        -12    1    1    2    0    0 -0.21432245256E+02 -0.51266300681E+01  0.23045581671E+02  0.31886083283E+02  0.00000000000E+00 0.  1.
         11    1    3    3    0    0  0.10301414208E+02  0.15325341094E+02 -0.21244044410E+02  0.28147728816E+02  0.51100000000E-03 0. -1.
        -11    1    3    3    0    0  0.45989618204E+00  0.90453046764E+01 -0.12488207912E+01  0.91426798488E+01  0.51100000000E-03 0.  1.
        -12    1    3    3    0    0  0.10670934866E+02 -0.19244015702E+02 -0.55271646973E+00  0.22011508053E+02  0.00000000000E+00 0.  1.
</event>
<event>
 7    1  0.6285940E-013  0.5930196E+02  0.7816164E-02  0.1266605E+00
        -11   -1    0    0    0    0  0.00000000000E+00  0.00000000000E+00  0.45593999997E+02  0.45594000000E+02  0.51100000000E-03 0. -1.
         11   -1    0    0    0    0 -0.00000000000E+00 -0.00000000000E+00 -0.45593999997E+02  0.45594000000E+02  0.51100000000E-03 0.  1.
    9900012    2    1    2    0    0 -0.30417429538E+02 -0.68672604215E+01 -0.66588267143E+01  0.59301964520E+02  0.50000037373E+02 0.  0.
        -12    1    1    2    0    0  0.30417429538E+02  0.68672604215E+01  0.66588267143E+01  0.31886035480E+02  0.00000000000E+00 0.  1.
         11    1    3    3    0    0 -0.36673548230E+01  0.13967238891E+02 -0.58891103925E+01  0.15595347868E+02  0.51100000000E-03 0. -1.
        -11    1    3    3    0    0 -0.19235377956E+02 -0.18508606686E+02 -0.12585264166E+02  0.29511983345E+02  0.51100000000E-03 0.  1.
         12    1    3    3    0    0 -0.75146967591E+01 -0.23258926272E+01  0.11815547844E+02  0.14194633308E+02  0.00000000000E+00 0. -1.
</event>
<event>
 7    1  0.6285940E-013  0.5930193E+02  0.7816164E-02  0.1266605E+00
        -11   -1    0    0    0    0  0.00000000000E+00  0.00000000000E+00  0.45593999997E+02  0.45594000000E+02  0.51100000000E-03 0. -1.
         11   -1    0    0    0    0 -0.00000000000E+00 -0.00000000000E+00 -0.45593999997E+02  0.45594000000E+02  0.51100000000E-03 0.  1.
    9900012    2    1    2    0    0  0.98815923024E+01  0.28296081159E+02  0.10881519621E+02  0.59301928674E+02  0.49999971998E+02 0.  0.
        -12    1    1    2    0    0 -0.98815923024E+01 -0.28296081159E+02 -0.10881519621E+02  0.31886071326E+02  0.00000000000E+00 0.  1.
         11    1    3    3    0    0  0.73837924761E+01 -0.39097720302E+01 -0.62871914941E+01  0.10456361021E+02  0.51100000000E-03 0. -1.
        -11    1    3    3    0    0 -0.50525658304E+00 -0.66304425153E+01  0.38243298915E+01  0.76709550608E+01  0.51100000000E-03 0.  1.
         12    1    3    3    0    0  0.30030564093E+01  0.38836295704E+02  0.13344381223E+02  0.41174612592E+02  0.00000000000E+00 0. -1.
</event>
<event>
 7    1  0.6285940E-013  0.5930195E+02  0.7816164E-02  0.1266605E+00
        -11   -1    0    0    0    0  0.00000000000E+00  0.00000000000E+00  0.45593999997E+02  0.45594000000E+02  0.51100000000E-03 0.  1.
         11   -1    0    0    0    0 -0.00000000000E+00 -0.00000000000E+00 -0.45593999997E+02  0.45594000000E+02  0.51100000000E-03 0. -1.
    9900012    2    1    2    0    0  0.62618971705E+01 -0.26488848027E+02 -0.16608731868E+02  0.59301946619E+02  0.50000004725E+02 0.  0.
        -12    1    1    2    0    0 -0.62618971705E+01  0.26488848027E+02  0.16608731868E+02  0.31886053381E+02  0.00000000000E+00 0.  1.
         11    1    3    3    0    0 -0.11456160179E+02 -0.26987217751E+02 -0.13439797281E+02  0.32251847686E+02  0.51100000000E-03 0. -1.
        -11    1    3    3    0    0  0.79185543946E+01  0.15291895771E+00 -0.11648919693E+02  0.14086313151E+02  0.51100000000E-03 0.  1.
        -12    1    3    3    0    0  0.97995029548E+01  0.34545076609E+00  0.84799851058E+01  0.12963785782E+02  0.00000000000E+00 0.  1.
</event>
<event>
 7    1  0.6285940E-013  0.5930201E+02  0.7816164E-02  0.1266605E+00
        -11   -1    0    0    0    0  0.00000000000E+00  0.00000000000E+00  0.45593999997E+02  0.45594000000E+02  0.51100000000E-03 0.  1.
         11   -1    0    0    0    0 -0.00000000000E+00 -0.00000000000E+00 -0.45593999997E+02  0.45594000000E+02  0.51100000000E-03 0. -1.
    9900012    2    1    2    0    0  0.17465419949E+02  0.65568929661E+01 -0.25858897504E+02  0.59302010608E+02  0.50000121426E+02 0.  0.
        -12    1    1    2    0    0 -0.17465419949E+02 -0.65568929661E+01  0.25858897504E+02  0.31885989392E+02  0.00000000000E+00 0.  1.
         11    1    3    3    0    0 -0.35171038057E+01  0.42081047097E+01 -0.33352005544E+02  0.33799917729E+02  0.51100000000E-03 0. -1.
        -11    1    3    3    0    0  0.97025517746E+01 -0.31506777917E+01 -0.11478856781E+01  0.10265667211E+02  0.51100000000E-03 0.  1.
        -12    1    3    3    0    0  0.11279971981E+02  0.54994660482E+01  0.86409937184E+01  0.15236425668E+02  0.00000000000E+00 0.  1.
</event>
<event>
 7    1  0.6285940E-013  0.5930197E+02  0.7816164E-02  0.1266605E+00
        -11   -1    0    0    0    0  0.00000000000E+00  0.00000000000E+00  0.45593999997E+02  0.45594000000E+02  0.51100000000E-03 0.  1.
         11   -1    0    0    0    0 -0.00000000000E+00 -0.00000000000E+00 -0.45593999997E+02  0.45594000000E+02  0.51100000000E-03 0. -1.
    9900012    2    1    2    0    0 -0.13178440778E+01 -0.23843181457E+02 -0.21130183556E+02  0.59301973717E+02  0.50000054146E+02 0.  0.
        -12    1    1    2    0    0  0.13178440778E+01  0.23843181457E+02  0.21130183556E+02  0.31886026283E+02  0.00000000000E+00 0.  1.
         11    1    3    3    0    0 -0.11364089411E+01 -0.95828644298E+01  0.17242111541E+01  0.98028373610E+01  0.51100000000E-03 0. -1.
        -11    1    3    3    0    0 -0.18489686549E+02 -0.17311529062E+02 -0.12498868899E+02  0.28244986656E+02  0.51100000000E-03 0.  1.
         12    1    3    3    0    0  0.18308251413E+02  0.30512120348E+01 -0.10355525811E+02  0.21254149700E+02  0.00000000000E+00 0. -1.
</event>
<event>
 7    1  0.6285940E-013  0.5930183E+02  0.7816164E-02  0.1266605E+00
        -11   -1    0    0    0    0  0.00000000000E+00  0.00000000000E+00  0.45593999997E+02  0.45594000000E+02  0.51100000000E-03 0.  1.
         11   -1    0    0    0    0 -0.00000000000E+00 -0.00000000000E+00 -0.45593999997E+02  0.45594000000E+02  0.51100000000E-03 0. -1.
    9900012    2    1    2    0    0  0.63822713365E+00  0.11692302170E+01 -0.31858337600E+02  0.59301825757E+02  0.49999784303E+02 0.  0.
        -12    1    1    2    0    0 -0.63822713365E+00 -0.11692302170E+01  0.31858337600E+02  0.31886174243E+02  0.00000000000E+00 0.  1.
         11    1    3    3    0    0 -0.98141745175E+01  0.18525869809E+00 -0.63297646423E+01  0.11679822898E+02  0.51100000000E-03 0.  1.
        -11    1    3    3    0    0 -0.30297716810E+01 -0.17198623113E+02 -0.94438678735E+01  0.19853432803E+02  0.51100000000E-03 0. -1.
        -12    1    3    3    0    0  0.13482173332E+02  0.18182594631E+02 -0.16084705084E+02  0.27768570056E+02  0.00000000000E+00 0.  1.
</event>
<event>
 7    1  0.6285940E-013  0.5930193E+02  0.7816164E-02  0.1266605E+00
        -11   -1    0    0    0    0  0.00000000000E+00  0.00000000000E+00  0.45593999997E+02  0.45594000000E+02  0.51100000000E-03 0.  1.
         11   -1    0    0    0    0 -0.00000000000E+00 -0.00000000000E+00 -0.45593999997E+02  0.45594000000E+02  0.51100000000E-03 0. -1.
    9900012    2    1    2    0    0 -0.24487718391E+02 -0.12429442514E+02 -0.16204384840E+02  0.59301929668E+02  0.49999973810E+02 0.  0.
        -12    1    1    2    0    0  0.24487718391E+02  0.12429442514E+02  0.16204384840E+02  0.31886070332E+02  0.00000000000E+00 0.  1.
         11    1    3    3    0    0  0.50387333990E+01  0.24278634460E+01 -0.10138207457E+01  0.56842930910E+01  0.51100000000E-03 0. -1.
        -11    1    3    3    0    0 -0.56749396613E+01 -0.24807054881E+02 -0.94368683053E+01  0.27141285815E+02  0.51100000000E-03 0.  1.
         12    1    3    3    0    0 -0.23851512129E+02  0.99497489209E+01 -0.57536957887E+01  0.26476350762E+02  0.00000000000E+00 0. -1.
</event>
<event>
 7    1  0.6285940E-013  0.5930193E+02  0.7816164E-02  0.1266605E+00
        -11   -1    0    0    0    0  0.00000000000E+00  0.00000000000E+00  0.45593999997E+02  0.45594000000E+02  0.51100000000E-03 0. -1.
         11   -1    0    0    0    0 -0.00000000000E+00 -0.00000000000E+00 -0.45593999997E+02  0.45594000000E+02  0.51100000000E-03 0.  1.
    9900012    2    1    2    0    0  0.13307635819E+02  0.14800090348E+02  0.24911561762E+02  0.59301925378E+02  0.49999965987E+02 0.  0.
        -12    1    1    2    0    0 -0.13307635819E+02 -0.14800090348E+02 -0.24911561762E+02  0.31886074622E+02  0.00000000000E+00 0.  1.
         11    1    3    3    0    0  0.32275837225E+01 -0.53844664977E+01  0.11490803845E+02  0.13093828676E+02  0.51100000000E-03 0. -1.
        -11    1    3    3    0    0 -0.21233993044E+01 -0.89790100735E+01 -0.40630218162E+01  0.10081646346E+02  0.51100000000E-03 0.  1.
         12    1    3    3    0    0  0.12203451400E+02  0.29163566919E+02  0.17483779733E+02  0.36126450356E+02  0.00000000000E+00 0. -1.
</event>
<event>
 7    1  0.6285940E-013  0.5930170E+02  0.7816164E-02  0.1266606E+00
        -11   -1    0    0    0    0  0.00000000000E+00  0.00000000000E+00  0.45593999997E+02  0.45594000000E+02  0.51100000000E-03 0.  1.
         11   -1    0    0    0    0 -0.00000000000E+00 -0.00000000000E+00 -0.45593999997E+02  0.45594000000E+02  0.51100000000E-03 0. -1.
    9900012    2    1    2    0    0 -0.27082831668E+02  0.81429603989E+01 -0.14729176054E+02  0.59301698828E+02  0.49999552812E+02 0.  0.
        -12    1    1    2    0    0  0.27082831668E+02 -0.81429603989E+01  0.14729176054E+02  0.31886301172E+02  0.00000000000E+00 0.  1.
         11    1    3    3    0    0 -0.78009302885E+01 -0.12775484209E+02  0.23238071277E+01  0.15148187679E+02  0.51100000000E-03 0. -1.
        -11    1    3    3    0    0 -0.13991271151E+02 -0.20094789944E+01  0.14646393743E+01  0.14210518746E+02  0.51100000000E-03 0.  1.
         12    1    3    3    0    0 -0.52906302281E+01  0.22927923602E+02 -0.18517622556E+02  0.29942992403E+02  0.00000000000E+00 0. -1.
</event>
<event>
 7    1  0.6285940E-013  0.5930196E+02  0.7816164E-02  0.1266605E+00
        -11   -1    0    0    0    0  0.00000000000E+00  0.00000000000E+00  0.45593999997E+02  0.45594000000E+02  0.51100000000E-03 0.  1.
         11   -1    0    0    0    0 -0.00000000000E+00 -0.00000000000E+00 -0.45593999997E+02  0.45594000000E+02  0.51100000000E-03 0. -1.
    9900012    2    1    2    0    0  0.28178625392E+02 -0.13293404042E+02 -0.67801103203E+01  0.59301962053E+02  0.50000032874E+02 0.  0.
        -12    1    1    2    0    0 -0.28178625392E+02  0.13293404042E+02  0.67801103203E+01  0.31886037947E+02  0.00000000000E+00 0.  1.
         11    1    3    3    0    0  0.81200194520E+01 -0.13247609845E+02 -0.11907260666E+02  0.19575922439E+02  0.51100000000E-03 0. -1.
        -11    1    3    3    0    0 -0.31660954403E+01 -0.12490190889E+02  0.33714101326E+01  0.13318987774E+02  0.51100000000E-03 0.  1.
        -12    1    3    3    0    0  0.23224701380E+02  0.12444396692E+02  0.17557402126E+01  0.26407051840E+02  0.00000000000E+00 0.  1.
</event>
<event>
 7    1  0.6285940E-013  0.5930195E+02  0.7816164E-02  0.1266605E+00
        -11   -1    0    0    0    0  0.00000000000E+00  0.00000000000E+00  0.45593999997E+02  0.45594000000E+02  0.51100000000E-03 0. -1.
         11   -1    0    0    0    0 -0.00000000000E+00 -0.00000000000E+00 -0.45593999997E+02  0.45594000000E+02  0.51100000000E-03 0.  1.
    9900012    2    1    2    0    0 -0.28428793473E+02 -0.11120343277E+02 -0.92120559084E+01  0.59301948081E+02  0.50000007393E+02 0.  0.
        -12    1    1    2    0    0  0.28428793473E+02  0.11120343277E+02  0.92120559084E+01  0.31886051919E+02  0.00000000000E+00 0.  1.
         11    1    3    3    0    0 -0.27524452530E+02 -0.45220848279E+01 -0.62603792597E+01  0.28587358868E+02  0.51100000000E-03 0. -1.
        -11    1    3    3    0    0 -0.20501542700E+01 -0.68494250692E+01  0.12937788232E+02  0.14781884890E+02  0.51100000000E-03 0.  1.
        -12    1    3    3    0    0  0.11458133278E+01  0.25116662000E+00 -0.15889464881E+02  0.15932704323E+02  0.00000000000E+00 0.  1.
</event>
<event>
 7    1  0.6285940E-013  0.5930194E+02  0.7816164E-02  0.1266605E+00
        -11   -1    0    0    0    0  0.00000000000E+00  0.00000000000E+00  0.45593999997E+02  0.45594000000E+02  0.51100000000E-03 0.  1.
         11   -1    0    0    0    0 -0.00000000000E+00 -0.00000000000E+00 -0.45593999997E+02  0.45594000000E+02  0.51100000000E-03 0. -1.
    9900012    2    1    2    0    0 -0.19773424233E+02 -0.60061755762E+01 -0.24282879423E+02  0.59301942169E+02  0.49999996610E+02 0.  0.
        -12    1    1    2    0    0  0.19773424233E+02  0.60061755762E+01  0.24282879423E+02  0.31886057831E+02  0.00000000000E+00 0.  1.
         11    1    3    3    0    0 -0.15656797935E+02  0.10943953504E+02 -0.22325008870E+01  0.19232511545E+02  0.51100000000E-03 0. -1.
        -11    1    3    3    0    0  0.11678842910E+01  0.64627942643E+01  0.11732067887E+01  0.66714374650E+01  0.51100000000E-03 0.  1.
         12    1    3    3    0    0 -0.52845105891E+01 -0.23412923344E+02 -0.23223585325E+02  0.33397993159E+02  0.00000000000E+00 0. -1.
</event>
<event>
 7    1  0.6285940E-013  0.5930193E+02  0.7816164E-02  0.1266605E+00
        -11   -1    0    0    0    0  0.00000000000E+00  0.00000000000E+00  0.45593999997E+02  0.45594000000E+02  0.51100000000E-03 0.  1.
         11   -1    0    0    0    0 -0.00000000000E+00 -0.00000000000E+00 -0.45593999997E+02  0.45594000000E+02  0.51100000000E-03 0. -1.
    9900012    2    1    2    0    0 -0.23152393921E+02  0.11720120296E+02  0.18529079513E+02  0.59301931700E+02  0.49999977516E+02 0.  0.
        -12    1    1    2    0    0  0.23152393921E+02 -0.11720120296E+02 -0.18529079513E+02  0.31886068300E+02  0.00000000000E+00 0.  1.
         11    1    3    3    0    0 -0.28841584573E+01 -0.12068802596E+02  0.58329921793E+01  0.13711242254E+02  0.51100000000E-03 0. -1.
        -11    1    3    3    0    0  0.64593502056E+01  0.10559650473E+02  0.94873562756E+01  0.15596132615E+02  0.51100000000E-03 0.  1.
         12    1    3    3    0    0 -0.26727585670E+02  0.13229272420E+02  0.32087310585E+01  0.29994556831E+02  0.00000000000E+00 0. -1.
</event>
<event>
 7    1  0.6285940E-013  0.5930195E+02  0.7816164E-02  0.1266605E+00
        -11   -1    0    0    0    0  0.00000000000E+00  0.00000000000E+00  0.45593999997E+02  0.45594000000E+02  0.51100000000E-03 0.  1.
         11   -1    0    0    0    0 -0.00000000000E+00 -0.00000000000E+00 -0.45593999997E+02  0.45594000000E+02  0.51100000000E-03 0. -1.
    9900012    2    1    2    0    0  0.21483021595E+02 -0.11146898992E+02  0.20759250958E+02  0.59301951729E+02  0.50000014046E+02 0.  0.
        -12    1    1    2    0    0 -0.21483021595E+02  0.11146898992E+02 -0.20759250958E+02  0.31886048271E+02  0.00000000000E+00 0.  1.
         11    1    3    3    0    0  0.11286501621E+01  0.10427619887E+02  0.56133478085E+01  0.11896166676E+02  0.51100000000E-03 0. -1.
        -11    1    3    3    0    0  0.11049749867E+02 -0.30240676129E+01 -0.97153298904E+01  0.15020971746E+02  0.51100000000E-03 0.  1.
        -12    1    3    3    0    0  0.93046215657E+01 -0.18550451266E+02  0.24861233040E+02  0.32384813307E+02  0.00000000000E+00 0.  1.
</event>
<event>
 7    1  0.6285940E-013  0.5930194E+02  0.7816164E-02  0.1266605E+00
        -11   -1    0    0    0    0  0.00000000000E+00  0.00000000000E+00  0.45593999997E+02  0.45594000000E+02  0.51100000000E-03 0.  1.
         11   -1    0    0    0    0 -0.00000000000E+00 -0.00000000000E+00 -0.45593999997E+02  0.45594000000E+02  0.51100000000E-03 0. -1.
    9900012    2    1    2    0    0  0.15844352911E+01  0.15597320034E+02 -0.27765700040E+02  0.59301938372E+02  0.49999989686E+02 0.  0.
        -12    1    1    2    0    0 -0.15844352911E+01 -0.15597320034E+02  0.27765700040E+02  0.31886061628E+02  0.00000000000E+00 0.  1.
         11    1    3    3    0    0 -0.86435052980E+01 -0.19490193582E+01  0.24786107489E+01  0.92006723559E+01  0.51100000000E-03 0. -1.
        -11    1    3    3    0    0  0.16599311689E+02 -0.44933262309E+00 -0.25500381561E+02  0.30430387910E+02  0.51100000000E-03 0.  1.
         12    1    3    3    0    0 -0.63713710999E+01  0.17995672015E+02 -0.47439292277E+01  0.19670878106E+02  0.00000000000E+00 0. -1.
</event>
<event>
 7    1  0.6285940E-013  0.5930193E+02  0.7816164E-02  0.1266605E+00
        -11   -1    0    0    0    0  0.00000000000E+00  0.00000000000E+00  0.45593999997E+02  0.45594000000E+02  0.51100000000E-03 0.  1.
         11   -1    0    0    0    0 -0.00000000000E+00 -0.00000000000E+00 -0.45593999997E+02  0.45594000000E+02  0.51100000000E-03 0. -1.
    9900012    2    1    2    0    0 -0.47639516557E+01 -0.31519137033E+02  0.75508320962E+00  0.59301931172E+02  0.49999976554E+02 0.  0.
        -12    1    1    2    0    0  0.47639516557E+01  0.31519137033E+02 -0.75508320962E+00  0.31886068828E+02  0.00000000000E+00 0.  1.
         11    1    3    3    0    0  0.72936153058E+01 -0.37849022424E+01  0.35920554963E+01  0.89680082606E+01  0.51100000000E-03 0. -1.
        -11    1    3    3    0    0 -0.11656166861E+02 -0.16319187662E+02  0.17755972449E+02  0.26785381643E+02  0.51100000000E-03 0.  1.
        -12    1    3    3    0    0 -0.40140010010E+00 -0.11415047128E+02 -0.20592944736E+02  0.23548541269E+02  0.00000000000E+00 0.  1.
</event>
<event>
 7    1  0.6308349E-013  0.5930192E+02  0.7816164E-02  0.1266605E+00
        -11   -1    0    0    0    0  0.00000000000E+00  0.00000000000E+00  0.45593999997E+02  0.45594000000E+02  0.51100000000E-03 0. -1.
         11   -1    0    0    0    0 -0.00000000000E+00 -0.00000000000E+00 -0.45593999997E+02  0.45594000000E+02  0.51100000000E-03 0.  1.
    9900012    2    1    2    0    0 -0.20091566038E+02  0.54552384583E+01  0.24151424353E+02  0.59301922305E+02  0.49999960383E+02 0.  0.
        -12    1    1    2    0    0  0.20091566038E+02 -0.54552384583E+01 -0.24151424353E+02  0.31886077695E+02  0.00000000000E+00 0.  1.
         11    1    3    3    0    0 -0.70257743697E+01 -0.10168179158E+02  0.19461410235E+02  0.23054280763E+02  0.51100000000E-03 0. -1.
        -11    1    3    3    0    0 -0.77908870426E+01 -0.82896352741E+01  0.26089445951E+01  0.11671442329E+02  0.51100000000E-03 0.  1.
        -12    1    3    3    0    0 -0.52749046261E+01  0.23913052891E+02  0.20810695225E+01  0.24576199212E+02  0.00000000000E+00 0.  1.
</event>
<event>
 7    1  0.6285940E-013  0.5930195E+02  0.7816164E-02  0.1266605E+00
        -11   -1    0    0    0    0  0.00000000000E+00  0.00000000000E+00  0.45593999997E+02  0.45594000000E+02  0.51100000000E-03 0.  1.
         11   -1    0    0    0    0 -0.00000000000E+00 -0.00000000000E+00 -0.45593999997E+02  0.45594000000E+02  0.51100000000E-03 0. -1.
    9900012    2    1    2    0    0  0.14655161285E+02 -0.71614775303E+01 -0.27398169943E+02  0.59301949305E+02  0.50000009625E+02 0.  0.
        -12    1    1    2    0    0 -0.14655161285E+02  0.71614775303E+01  0.27398169943E+02  0.31886050695E+02  0.00000000000E+00 0.  1.
         11    1    3    3    0    0  0.73534733726E+00  0.12528600484E+00 -0.17268723492E+02  0.17284826976E+02  0.51100000000E-03 0. -1.
        -11    1    3    3    0    0  0.39944470954E+01  0.11991384162E+02 -0.15180515238E+02  0.19753403374E+02  0.51100000000E-03 0.  1.
         12    1    3    3    0    0  0.99253668525E+01 -0.19278147697E+02  0.50510687872E+01  0.22263718955E+02  0.00000000000E+00 0. -1.
</event>
<event>
 7    1  0.6285940E-013  0.5930196E+02  0.7816164E-02  0.1266605E+00
        -11   -1    0    0    0    0  0.00000000000E+00  0.00000000000E+00  0.45593999997E+02  0.45594000000E+02  0.51100000000E-03 0. -1.
         11   -1    0    0    0    0 -0.00000000000E+00 -0.00000000000E+00 -0.45593999997E+02  0.45594000000E+02  0.51100000000E-03 0.  1.
    9900012    2    1    2    0    0 -0.31176028839E+00 -0.28928421542E+02 -0.13407782339E+02  0.59301962388E+02  0.50000033484E+02 0.  0.
        -12    1    1    2    0    0  0.31176028839E+00  0.28928421542E+02  0.13407782339E+02  0.31886037612E+02  0.00000000000E+00 0.  1.
         11    1    3    3    0    0 -0.47862178589E+01 -0.14352997995E+02 -0.16924737122E+01  0.15224352215E+02  0.51100000000E-03 0. -1.
        -11    1    3    3    0    0  0.16209026111E+02 -0.12189569729E+02 -0.20796882244E+02  0.29048725428E+02  0.51100000000E-03 0.  1.
         12    1    3    3    0    0 -0.11734568541E+02 -0.23858538176E+01  0.90815736180E+01  0.15028884744E+02  0.00000000000E+00 0. -1.
</event>
<event>
 7    1  0.6285940E-013  0.5930193E+02  0.7816164E-02  0.1266605E+00
        -11   -1    0    0    0    0  0.00000000000E+00  0.00000000000E+00  0.45593999997E+02  0.45594000000E+02  0.51100000000E-03 0.  1.
         11   -1    0    0    0    0 -0.00000000000E+00 -0.00000000000E+00 -0.45593999997E+02  0.45594000000E+02  0.51100000000E-03 0. -1.
    9900012    2    1    2    0    0 -0.10872659165E+02 -0.11138549780E+01 -0.29954404437E+02  0.59301925682E+02  0.49999966542E+02 0.  0.
        -12    1    1    2    0    0  0.10872659165E+02  0.11138549780E+01  0.29954404437E+02  0.31886074318E+02  0.00000000000E+00 0.  1.
         11    1    3    3    0    0  0.23030972165E+01 -0.23197986276E+01 -0.57697184718E+01  0.66313930638E+01  0.51100000000E-03 0.  1.
        -11    1    3    3    0    0  0.13570940235E+02  0.98132258848E+01 -0.19911856629E+01  0.16865190237E+02  0.51100000000E-03 0. -1.
         12    1    3    3    0    0 -0.26746696616E+02 -0.86072822352E+01 -0.22193500302E+02  0.35805342381E+02  0.00000000000E+00 0. -1.
</event>
<event>
 7    1  0.6285940E-013  0.5930173E+02  0.7816164E-02  0.1266606E+00
        -11   -1    0    0    0    0  0.00000000000E+00  0.00000000000E+00  0.45593999997E+02  0.45594000000E+02  0.51100000000E-03 0. -1.
         11   -1    0    0    0    0 -0.00000000000E+00 -0.00000000000E+00 -0.45593999997E+02  0.45594000000E+02  0.51100000000E-03 0.  1.
    9900012    2    1    2    0    0 -0.61658868828E+01 -0.28540849150E+02  0.12811561402E+02  0.59301728082E+02  0.49999606166E+02 0.  0.
        -12    1    1    2    0    0  0.61658868828E+01  0.28540849150E+02 -0.12811561402E+02  0.31886271918E+02  0.00000000000E+00 0.  1.
         11    1    3    3    0    0  0.18618343426E+01 -0.38198874295E+01  0.16175212457E+02  0.16724098343E+02  0.51100000000E-03 0. -1.
        -11    1    3    3    0    0  0.92033982307E+01 -0.53384608085E-01  0.60918892629E+01  0.11037051416E+02  0.51100000000E-03 0.  1.
        -12    1    3    3    0    0 -0.17231119456E+02 -0.24667577112E+02 -0.94555403176E+01  0.31540578324E+02  0.00000000000E+00 0.  1.
</event>
<event>
 7    1  0.6285940E-013  0.5930191E+02  0.7816164E-02  0.1266605E+00
        -11   -1    0    0    0    0  0.00000000000E+00  0.00000000000E+00  0.45593999997E+02  0.45594000000E+02  0.51100000000E-03 0. -1.
         11   -1    0    0    0    0 -0.00000000000E+00 -0.00000000000E+00 -0.45593999997E+02  0.45594000000E+02  0.51100000000E-03 0.  1.
    9900012    2    1    2    0    0  0.76099037730E+00 -0.27928896982E+01  0.31754426998E+02  0.59301906273E+02  0.49999931144E+02 0.  0.
        -12    1    1    2    0    0 -0.76099037730E+00  0.27928896982E+01 -0.31754426998E+02  0.31886093727E+02  0.00000000000E+00 0.  1.
         11    1    3    3    0    0  0.11248219799E+02  0.21423295908E+01  0.20336247969E+02  0.23338273424E+02  0.51100000000E-03 0. -1.
        -11    1    3    3    0    0  0.87171529697E+01 -0.20195202542E+01  0.13744294106E+02  0.16400391419E+02  0.51100000000E-03 0.  1.
        -12    1    3    3    0    0 -0.19204382391E+02 -0.29156990348E+01 -0.23261150773E+01  0.19563241430E+02  0.00000000000E+00 0.  1.
</event>
<event>
 7    1  0.6285940E-013  0.5930197E+02  0.7816164E-02  0.1266605E+00
        -11   -1    0    0    0    0  0.00000000000E+00  0.00000000000E+00  0.45593999997E+02  0.45594000000E+02  0.51100000000E-03 0.  1.
         11   -1    0    0    0    0 -0.00000000000E+00 -0.00000000000E+00 -0.45593999997E+02  0.45594000000E+02  0.51100000000E-03 0. -1.
    9900012    2    1    2    0    0 -0.25417066673E+02 -0.16356718382E+02 -0.10156253828E+02  0.59301968476E+02  0.50000044588E+02 0.  0.
        -12    1    1    2    0    0  0.25417066673E+02  0.16356718382E+02  0.10156253828E+02  0.31886031524E+02  0.00000000000E+00 0.  1.
         11    1    3    3    0    0  0.75399327362E+01 -0.17614040472E+01 -0.52061498017E+01  0.93304408203E+01  0.51100000000E-03 0. -1.
        -11    1    3    3    0    0 -0.86210794390E+01  0.93244720286E+01  0.61208819186E+01  0.14097304176E+02  0.51100000000E-03 0.  1.
         12    1    3    3    0    0 -0.24335919970E+02 -0.23919786364E+02 -0.11070985945E+02  0.35874223480E+02  0.00000000000E+00 0. -1.
</event>
<event>
 7    1  0.6285940E-013  0.5930192E+02  0.7816164E-02  0.1266605E+00
        -11   -1    0    0    0    0  0.00000000000E+00  0.00000000000E+00  0.45593999997E+02  0.45594000000E+02  0.51100000000E-03 0.  1.
         11   -1    0    0    0    0 -0.00000000000E+00 -0.00000000000E+00 -0.45593999997E+02  0.45594000000E+02  0.51100000000E-03 0. -1.
    9900012    2    1    2    0    0  0.98682486677E+01 -0.79888640985E+01 -0.29249235586E+02  0.59301920534E+02  0.49999957153E+02 0.  0.
        -12    1    1    2    0    0 -0.98682486677E+01  0.79888640985E+01  0.29249235586E+02  0.31886079466E+02  0.00000000000E+00 0.  1.
         11    1    3    3    0    0  0.38913630076E+01 -0.71181234044E+01 -0.22038426045E+02  0.23484092694E+02  0.51100000000E-03 0. -1.
        -11    1    3    3    0    0  0.18720874838E+02  0.37544108521E+01  0.23366138362E+01  0.19236073405E+02  0.51100000000E-03 0.  1.
         12    1    3    3    0    0 -0.12743989178E+02 -0.46251515462E+01 -0.95474233770E+01  0.16581754435E+02  0.00000000000E+00 0. -1.
</event>
<event>
 7    1  0.6285940E-013  0.5930179E+02  0.7816164E-02  0.1266605E+00
        -11   -1    0    0    0    0  0.00000000000E+00  0.00000000000E+00  0.45593999997E+02  0.45594000000E+02  0.51100000000E-03 0. -1.
         11   -1    0    0    0    0 -0.00000000000E+00 -0.00000000000E+00 -0.45593999997E+02  0.45594000000E+02  0.51100000000E-03 0.  1.
    9900012    2    1    2    0    0  0.22764554828E+02 -0.20076948407E+02  0.97684049868E+01  0.59301787465E+02  0.49999714467E+02 0.  0.
        -12    1    1    2    0    0 -0.22764554828E+02  0.20076948407E+02 -0.97684049868E+01  0.31886212535E+02  0.00000000000E+00 0.  1.
         11    1    3    3    0    0  0.19806402858E+02  0.90478724326E+01  0.15976986638E+02  0.27007807983E+02  0.51100000000E-03 0. -1.
        -11    1    3    3    0    0  0.76670342438E+01 -0.16123913552E+02 -0.39045982715E+01  0.18275937466E+02  0.51100000000E-03 0.  1.
        -12    1    3    3    0    0 -0.47088822742E+01 -0.13000907287E+02 -0.23039833802E+01  0.14018042017E+02  0.00000000000E+00 0.  1.
</event>
<event>
 7    1  0.6285940E-013  0.5930197E+02  0.7816164E-02  0.1266605E+00
        -11   -1    0    0    0    0  0.00000000000E+00  0.00000000000E+00  0.45593999997E+02  0.45594000000E+02  0.51100000000E-03 0. -1.
         11   -1    0    0    0    0 -0.00000000000E+00 -0.00000000000E+00 -0.45593999997E+02  0.45594000000E+02  0.51100000000E-03 0.  1.
    9900012    2    1    2    0    0  0.56958423151E+01 -0.49492350521E+01  0.30980339449E+02  0.59301968895E+02  0.50000045351E+02 0.  0.
        -12    1    1    2    0    0 -0.56958423151E+01  0.49492350521E+01 -0.30980339449E+02  0.31886031105E+02  0.00000000000E+00 0.  1.
         11    1    3    3    0    0  0.39684314486E+01 -0.13687793206E+02  0.18997283858E+02  0.23748703654E+02  0.51100000000E-03 0. -1.
        -11    1    3    3    0    0 -0.15032270488E+02  0.71247816788E+01  0.58544775222E+01  0.17635378570E+02  0.51100000000E-03 0.  1.
         12    1    3    3    0    0  0.16759681354E+02  0.16137764747E+01  0.61285780683E+01  0.17917886671E+02  0.00000000000E+00 0. -1.
</event>
<event>
 7    1  0.6285940E-013  0.5930194E+02  0.7816164E-02  0.1266605E+00
        -11   -1    0    0    0    0  0.00000000000E+00  0.00000000000E+00  0.45593999997E+02  0.45594000000E+02  0.51100000000E-03 0. -1.
         11   -1    0    0    0    0 -0.00000000000E+00 -0.00000000000E+00 -0.45593999997E+02  0.45594000000E+02  0.51100000000E-03 0.  1.
    9900012    2    1    2    0    0  0.31261805088E+02 -0.34141952937E+01  0.52691031720E+01  0.59301942936E+02  0.49999998009E+02 0.  0.
        -12    1    1    2    0    0 -0.31261805088E+02  0.34141952937E+01 -0.52691031720E+01  0.31886057064E+02  0.00000000000E+00 0.  1.
         11    1    3    3    0    0  0.11530104898E+02  0.54015527540E+00  0.16678142252E+02  0.20282887267E+02  0.51100000000E-03 0. -1.
        -11    1    3    3    0    0  0.25349342076E+02 -0.83929918551E+01 -0.15397059518E+02  0.30823706754E+02  0.51100000000E-03 0.  1.
         12    1    3    3    0    0 -0.56176418858E+01  0.44386412860E+01  0.39880204379E+01  0.81953489148E+01  0.00000000000E+00 0. -1.
</event>
<event>
 7    1  0.6285940E-013  0.5930168E+02  0.7816164E-02  0.1266606E+00
        -11   -1    0    0    0    0  0.00000000000E+00  0.00000000000E+00  0.45593999997E+02  0.45594000000E+02  0.51100000000E-03 0.  1.
         11   -1    0    0    0    0 -0.00000000000E+00 -0.00000000000E+00 -0.45593999997E+02  0.45594000000E+02  0.51100000000E-03 0. -1.
    9900012    2    1    2    0    0  0.12592702192E+02  0.74567639885E+01 -0.28329450676E+02  0.59301682350E+02  0.49999522760E+02 0.  0.
        -12    1    1    2    0    0 -0.12592702192E+02 -0.74567639885E+01  0.28329450676E+02  0.31886317650E+02  0.00000000000E+00 0.  1.
         11    1    3    3    0    0 -0.15371323950E+02  0.12359479578E+02 -0.18186644388E+02  0.26828871944E+02  0.51100000000E-03 0. -1.
        -11    1    3    3    0    0  0.22588099190E+02 -0.18382200642E+01 -0.12463560294E+02  0.25863905612E+02  0.51100000000E-03 0.  1.
        -12    1    3    3    0    0  0.53759269526E+01 -0.30644955254E+01  0.23207540054E+01  0.66089047942E+01  0.00000000000E+00 0.  1.
</event>
<event>
 7    1  0.6285940E-013  0.5930194E+02  0.7816164E-02  0.1266605E+00
        -11   -1    0    0    0    0  0.00000000000E+00  0.00000000000E+00  0.45593999997E+02  0.45594000000E+02  0.51100000000E-03 0.  1.
         11   -1    0    0    0    0 -0.00000000000E+00 -0.00000000000E+00 -0.45593999997E+02  0.45594000000E+02  0.51100000000E-03 0. -1.
    9900012    2    1    2    0    0 -0.26230746188E+02 -0.18028021047E+02 -0.19128321599E+01  0.59301944814E+02  0.50000001434E+02 0.  0.
        -12    1    1    2    0    0  0.26230746188E+02  0.18028021047E+02  0.19128321599E+01  0.31886055186E+02  0.00000000000E+00 0.  1.
         11    1    3    3    0    0 -0.11498704970E+02 -0.20111185295E+02 -0.94760913383E+00  0.23185727361E+02  0.51100000000E-03 0. -1.
        -11    1    3    3    0    0 -0.19920909155E+02 -0.10142411695E+02 -0.34073191024E+01  0.22612407219E+02  0.51100000000E-03 0.  1.
         12    1    3    3    0    0  0.51888679366E+01  0.12225575942E+02  0.24420960763E+01  0.13503810233E+02  0.00000000000E+00 0. -1.
</event>
<event>
 7    1  0.6285940E-013  0.5930186E+02  0.7816164E-02  0.1266605E+00
        -11   -1    0    0    0    0  0.00000000000E+00  0.00000000000E+00  0.45593999997E+02  0.45594000000E+02  0.51100000000E-03 0. -1.
         11   -1    0    0    0    0 -0.00000000000E+00 -0.00000000000E+00 -0.45593999997E+02  0.45594000000E+02  0.51100000000E-03 0.  1.
    9900012    2    1    2    0    0 -0.26463789946E+02 -0.17003300603E+02 -0.52231728536E+01  0.59301859682E+02  0.49999846174E+02 0.  0.
        -12    1    1    2    0    0  0.26463789946E+02  0.17003300603E+02  0.52231728536E+01  0.31886140318E+02  0.00000000000E+00 0.  1.
         11    1    3    3    0    0 -0.15038101335E+02 -0.26793336520E+02  0.13726606782E+01  0.30755675432E+02  0.51100000000E-03 0. -1.
        -11    1    3    3    0    0 -0.10758942720E+02 -0.56497310059E+01 -0.44619726616E+01  0.12945404945E+02  0.51100000000E-03 0.  1.
         12    1    3    3    0    0 -0.66674589042E+00  0.15439766923E+02 -0.21338608702E+01  0.15600779306E+02  0.00000000000E+00 0. -1.
</event>
<event>
 7    1  0.6285940E-013  0.5930192E+02  0.7816164E-02  0.1266605E+00
        -11   -1    0    0    0    0  0.00000000000E+00  0.00000000000E+00  0.45593999997E+02  0.45594000000E+02  0.51100000000E-03 0. -1.
         11   -1    0    0    0    0 -0.00000000000E+00 -0.00000000000E+00 -0.45593999997E+02  0.45594000000E+02  0.51100000000E-03 0.  1.
    9900012    2    1    2    0    0  0.19570378414E+02 -0.91804908573E+01  0.23440161471E+02  0.59301916932E+02  0.49999950583E+02 0.  0.
        -12    1    1    2    0    0 -0.19570378414E+02  0.91804908573E+01 -0.23440161471E+02  0.31886083068E+02  0.00000000000E+00 0.  1.
         11    1    3    3    0    0  0.14709850026E+02 -0.57768194938E+00  0.20050784658E+02  0.24874633060E+02  0.51100000000E-03 0. -1.
        -11    1    3    3    0    0  0.84627229241E+01  0.11232762162E+02  0.21714683191E+01  0.14230527046E+02  0.51100000000E-03 0.  1.
        -12    1    3    3    0    0 -0.36021945361E+01 -0.19835571070E+02  0.12179084937E+01  0.20196756825E+02  0.00000000000E+00 0.  1.
</event>
<event>
 7    1  0.6285940E-013  0.5930191E+02  0.7816164E-02  0.1266605E+00
        -11   -1    0    0    0    0  0.00000000000E+00  0.00000000000E+00  0.45593999997E+02  0.45594000000E+02  0.51100000000E-03 0. -1.
         11   -1    0    0    0    0 -0.00000000000E+00 -0.00000000000E+00 -0.45593999997E+02  0.45594000000E+02  0.51100000000E-03 0.  1.
    9900012    2    1    2    0    0  0.17177258662E+02 -0.19388079058E+02  0.18594805236E+02  0.59301912023E+02  0.49999941631E+02 0.  0.
        -12    1    1    2    0    0 -0.17177258662E+02  0.19388079058E+02 -0.18594805236E+02  0.31886087977E+02  0.00000000000E+00 0.  1.
         11    1    3    3    0    0 -0.62643971887E+01 -0.94138683903E+00 -0.28662716483E+01  0.69530133569E+01  0.51100000000E-03 0. -1.
        -11    1    3    3    0    0 -0.39334040073E+00 -0.16238626353E+02 -0.46798900394E+01  0.16904114101E+02  0.51100000000E-03 0.  1.
         12    1    3    3    0    0  0.23834996252E+02 -0.22080658665E+01  0.26140966924E+02  0.35444784565E+02  0.00000000000E+00 0. -1.
</event>
<event>
 7    1  0.6285940E-013  0.5930158E+02  0.7816164E-02  0.1266606E+00
        -11   -1    0    0    0    0  0.00000000000E+00  0.00000000000E+00  0.45593999997E+02  0.45594000000E+02  0.51100000000E-03 0.  1.
         11   -1    0    0    0    0 -0.00000000000E+00 -0.00000000000E+00 -0.45593999997E+02  0.45594000000E+02  0.51100000000E-03 0. -1.
    9900012    2    1    2    0    0 -0.14802868311E+02 -0.10614230633E+02 -0.26171686737E+02  0.59301576732E+02  0.49999330136E+02 0.  0.
        -12    1    1    2    0    0  0.14802868311E+02  0.10614230633E+02  0.26171686737E+02  0.31886423268E+02  0.00000000000E+00 0.  1.
         11    1    3    3    0    0 -0.88289420112E+01 -0.62352997327E+01 -0.62473490331E+00  0.10826794251E+02  0.51100000000E-03 0. -1.
        -11    1    3    3    0    0  0.59011566932E+01  0.68533606632E+00 -0.33025263277E+02  0.33555347571E+02  0.51100000000E-03 0.  1.
         12    1    3    3    0    0 -0.11875082993E+02 -0.50642669662E+01  0.74783114428E+01  0.14919434910E+02  0.00000000000E+00 0. -1.
</event>
<event>
 7    1  0.6285940E-013  0.5930192E+02  0.7816164E-02  0.1266605E+00
        -11   -1    0    0    0    0  0.00000000000E+00  0.00000000000E+00  0.45593999997E+02  0.45594000000E+02  0.51100000000E-03 0. -1.
         11   -1    0    0    0    0 -0.00000000000E+00 -0.00000000000E+00 -0.45593999997E+02  0.45594000000E+02  0.51100000000E-03 0.  1.
    9900012    2    1    2    0    0  0.28057625799E+02 -0.11407592144E+02  0.99678779360E+01  0.59301919736E+02  0.49999955699E+02 0.  0.
        -12    1    1    2    0    0 -0.28057625799E+02  0.11407592144E+02 -0.99678779360E+01  0.31886080264E+02  0.00000000000E+00 0.  1.
         11    1    3    3    0    0  0.12992204447E+01 -0.22389494214E+01  0.74021824117E+01  0.78417582845E+01  0.51100000000E-03 0. -1.
        -11    1    3    3    0    0 -0.10828720938E+02 -0.70027190907E+01  0.47615653180E+01  0.13746700562E+02  0.51100000000E-03 0.  1.
        -12    1    3    3    0    0  0.37587126293E+02 -0.21659236318E+01 -0.21958697936E+01  0.37713460890E+02  0.00000000000E+00 0.  1.
</event>
<event>
 7    1  0.6285940E-013  0.5930179E+02  0.7816164E-02  0.1266605E+00
        -11   -1    0    0    0    0  0.00000000000E+00  0.00000000000E+00  0.45593999997E+02  0.45594000000E+02  0.51100000000E-03 0. -1.
         11   -1    0    0    0    0 -0.00000000000E+00 -0.00000000000E+00 -0.45593999997E+02  0.45594000000E+02  0.51100000000E-03 0.  1.
    9900012    2    1    2    0    0 -0.19884630615E+02 -0.12809040838E+02  0.21383649710E+02  0.59301787669E+02  0.49999714839E+02 0.  0.
        -12    1    1    2    0    0  0.19884630615E+02  0.12809040838E+02 -0.21383649710E+02  0.31886212331E+02  0.00000000000E+00 0.  1.
         11    1    3    3    0    0 -0.18299202193E+01  0.54783778865E+01  0.50814816101E+01  0.76930285253E+01  0.51100000000E-03 0. -1.
        -11    1    3    3    0    0 -0.29126215190E+01  0.55873639822E+01  0.21899823239E+02  0.22788248255E+02  0.51100000000E-03 0.  1.
        -12    1    3    3    0    0 -0.15142088876E+02 -0.23874782707E+02 -0.55976551384E+01  0.28820510889E+02  0.00000000000E+00 0.  1.
</event>
<event>
 7    1  0.1389926E-012  0.5930196E+02  0.7816164E-02  0.1266605E+00
        -11   -1    0    0    0    0  0.00000000000E+00  0.00000000000E+00  0.45593999997E+02  0.45594000000E+02  0.51100000000E-03 0. -1.
         11   -1    0    0    0    0 -0.00000000000E+00 -0.00000000000E+00 -0.45593999997E+02  0.45594000000E+02  0.51100000000E-03 0.  1.
    9900012    2    1    2    0    0 -0.19877441196E+02  0.58287944233E+01  0.24241127054E+02  0.59301956755E+02  0.50000023212E+02 0.  0.
        -12    1    1    2    0    0  0.19877441196E+02 -0.58287944233E+01 -0.24241127054E+02  0.31886043245E+02  0.00000000000E+00 0.  1.
         11    1    3    3    0    0 -0.24413125206E+02  0.15336042074E+02  0.22952823811E+02  0.36851417747E+02  0.51100000000E-03 0. -1.
        -11    1    3    3    0    0  0.13642624834E+01  0.58947854543E+01 -0.20243321647E+01  0.63802530239E+01  0.51100000000E-03 0.  1.
        -12    1    3    3    0    0  0.31714215258E+01 -0.15402033105E+02  0.33126354077E+01  0.16070285984E+02  0.00000000000E+00 0.  1.
</event>
<event>
 7    1  0.6285940E-013  0.5930197E+02  0.7816164E-02  0.1266605E+00
        -11   -1    0    0    0    0  0.00000000000E+00  0.00000000000E+00  0.45593999997E+02  0.45594000000E+02  0.51100000000E-03 0. -1.
         11   -1    0    0    0    0 -0.00000000000E+00 -0.00000000000E+00 -0.45593999997E+02  0.45594000000E+02  0.51100000000E-03 0.  1.
    9900012    2    1    2    0    0  0.80249732889E+01  0.28382782360E+02  0.12113484920E+02  0.59301967828E+02  0.50000043406E+02 0.  0.
        -12    1    1    2    0    0 -0.80249732889E+01 -0.28382782360E+02 -0.12113484920E+02  0.31886032172E+02  0.00000000000E+00 0.  1.
         11    1    3    3    0    0  0.23957177260E+02  0.14735680435E+01  0.13258226829E+01  0.24039042225E+02  0.51100000000E-03 0. -1.
        -11    1    3    3    0    0 -0.51484246387E+01  0.28852175197E+01  0.61512485709E+01  0.85245888839E+01  0.51100000000E-03 0.  1.
        -12    1    3    3    0    0 -0.10783779333E+02  0.24023996797E+02  0.46364136662E+01  0.26738336719E+02  0.00000000000E+00 0.  1.
</event>
<event>
 7    1  0.6285940E-013  0.5930195E+02  0.7816164E-02  0.1266605E+00
        -11   -1    0    0    0    0  0.00000000000E+00  0.00000000000E+00  0.45593999997E+02  0.45594000000E+02  0.51100000000E-03 0.  1.
         11   -1    0    0    0    0 -0.00000000000E+00 -0.00000000000E+00 -0.45593999997E+02  0.45594000000E+02  0.51100000000E-03 0. -1.
    9900012    2    1    2    0    0  0.24735293103E+02  0.19623357255E+02  0.44507891383E+01  0.59301946641E+02  0.50000004767E+02 0.  0.
        -12    1    1    2    0    0 -0.24735293103E+02 -0.19623357255E+02 -0.44507891383E+01  0.31886053359E+02  0.00000000000E+00 0.  1.
         11    1    3    3    0    0  0.92955560232E+01  0.28008687283E+02 -0.24676583138E+01  0.29613903203E+02  0.51100000000E-03 0. -1.
        -11    1    3    3    0    0 -0.22217191032E+01 -0.47686700816E+00 -0.60034132972E+01  0.64190660844E+01  0.51100000000E-03 0.  1.
        -12    1    3    3    0    0  0.17661456183E+02 -0.79084630208E+01  0.12921860749E+02  0.23268977354E+02  0.00000000000E+00 0.  1.
</event>
<event>
 7    1  0.6285940E-013  0.5930193E+02  0.7816164E-02  0.1266605E+00
        -11   -1    0    0    0    0  0.00000000000E+00  0.00000000000E+00  0.45593999997E+02  0.45594000000E+02  0.51100000000E-03 0.  1.
         11   -1    0    0    0    0 -0.00000000000E+00 -0.00000000000E+00 -0.45593999997E+02  0.45594000000E+02  0.51100000000E-03 0. -1.
    9900012    2    1    2    0    0  0.25730558778E+02  0.16653452583E+02 -0.87932999580E+01  0.59301933103E+02  0.49999980076E+02 0.  0.
        -12    1    1    2    0    0 -0.25730558778E+02 -0.16653452583E+02  0.87932999580E+01  0.31886066897E+02  0.00000000000E+00 0.  1.
         11    1    3    3    0    0  0.11351947867E+02  0.69095306308E+01  0.67543766091E+01  0.14907378628E+02  0.51100000000E-03 0. -1.
        -11    1    3    3    0    0  0.39346071571E+01 -0.95002194102E+01  0.74062844017E+01  0.12672345924E+02  0.51100000000E-03 0.  1.
         12    1    3    3    0    0  0.10444003755E+02  0.19244141363E+02 -0.22953960969E+02  0.31722208551E+02  0.00000000000E+00 0. -1.
</event>
<event>
 7    1  0.6285940E-013  0.5930191E+02  0.7816164E-02  0.1266605E+00
        -11   -1    0    0    0    0  0.00000000000E+00  0.00000000000E+00  0.45593999997E+02  0.45594000000E+02  0.51100000000E-03 0.  1.
         11   -1    0    0    0    0 -0.00000000000E+00 -0.00000000000E+00 -0.45593999997E+02  0.45594000000E+02  0.51100000000E-03 0. -1.
    9900012    2    1    2    0    0 -0.17808367263E+02 -0.24714841660E+02 -0.94213286990E+01  0.59301909344E+02  0.49999936745E+02 0.  0.
        -12    1    1    2    0    0  0.17808367263E+02  0.24714841660E+02  0.94213286990E+01  0.31886090656E+02  0.00000000000E+00 0.  1.
         11    1    3    3    0    0 -0.87280129346E+01 -0.29101330114E+02 -0.20987620805E+02  0.36926221734E+02  0.51100000000E-03 0. -1.
        -11    1    3    3    0    0 -0.36656512538E+01 -0.59352010044E+01  0.69260406481E+01  0.98302415737E+01  0.51100000000E-03 0.  1.
        -12    1    3    3    0    0 -0.54147030750E+01  0.10321689459E+02  0.46402514581E+01  0.12545446037E+02  0.00000000000E+00 0.  1.
</event>
<event>
 7    1  0.6285940E-013  0.5930190E+02  0.7816164E-02  0.1266605E+00
        -11   -1    0    0    0    0  0.00000000000E+00  0.00000000000E+00  0.45593999997E+02  0.45594000000E+02  0.51100000000E-03 0.  1.
         11   -1    0    0    0    0 -0.00000000000E+00 -0.00000000000E+00 -0.45593999997E+02  0.45594000000E+02  0.51100000000E-03 0. -1.
    9900012    2    1    2    0    0 -0.16363572577E+02 -0.27310344752E+02 -0.17611999592E+01  0.59301901725E+02  0.49999922849E+02 0.  0.
        -12    1    1    2    0    0  0.16363572577E+02  0.27310344752E+02  0.17611999592E+01  0.31886098275E+02  0.00000000000E+00 0.  1.
         11    1    3    3    0    0 -0.11406276602E+02 -0.29939217984E+02 -0.15171424208E+02  0.35449006082E+02  0.51100000000E-03 0. -1.
        -11    1    3    3    0    0 -0.58436495684E+01 -0.70134563638E+01  0.29378571448E+01  0.95899851569E+01  0.51100000000E-03 0.  1.
        -12    1    3    3    0    0  0.88635359366E+00  0.96423295967E+01  0.10472367104E+02  0.14262910485E+02  0.00000000000E+00 0.  1.
</event>
<event>
 7    1  0.6285940E-013  0.5930196E+02  0.7816164E-02  0.1266605E+00
        -11   -1    0    0    0    0  0.00000000000E+00  0.00000000000E+00  0.45593999997E+02  0.45594000000E+02  0.51100000000E-03 0.  1.
         11   -1    0    0    0    0 -0.00000000000E+00 -0.00000000000E+00 -0.45593999997E+02  0.45594000000E+02  0.51100000000E-03 0. -1.
    9900012    2    1    2    0    0 -0.18746923050E+02 -0.18537741126E+02 -0.17933898034E+02  0.59301958091E+02  0.50000025649E+02 0.  0.
        -12    1    1    2    0    0  0.18746923050E+02  0.18537741126E+02  0.17933898034E+02  0.31886041909E+02  0.00000000000E+00 0.  1.
         11    1    3    3    0    0  0.83275227515E-01  0.41270681871E+01 -0.53078837293E+01  0.67240803482E+01  0.51100000000E-03 0. -1.
        -11    1    3    3    0    0 -0.30205437689E+00 -0.18100041382E+02  0.11779680523E+02  0.21597768597E+02  0.51100000000E-03 0.  1.
         12    1    3    3    0    0 -0.18528143901E+02 -0.45647679305E+01 -0.24405694828E+02  0.30980109146E+02  0.00000000000E+00 0. -1.
</event>
<event>
 7    1  0.6285940E-013  0.5930186E+02  0.7816164E-02  0.1266605E+00
        -11   -1    0    0    0    0  0.00000000000E+00  0.00000000000E+00  0.45593999997E+02  0.45594000000E+02  0.51100000000E-03 0. -1.
         11   -1    0    0    0    0 -0.00000000000E+00 -0.00000000000E+00 -0.45593999997E+02  0.45594000000E+02  0.51100000000E-03 0.  1.
    9900012    2    1    2    0    0  0.31462126898E+02 -0.15058138758E+01  0.49591097493E+01  0.59301863923E+02  0.49999853909E+02 0.  0.
        -12    1    1    2    0    0 -0.31462126898E+02  0.15058138758E+01 -0.49591097493E+01  0.31886136077E+02  0.00000000000E+00 0.  1.
         11    1    3    3    0    0  0.75642102778E+01 -0.14766602517E+02 -0.15439519503E+02  0.22663816752E+02  0.51100000000E-03 0.  1.
        -11    1    3    3    0    0  0.90251720925E+01 -0.18145720100E+01  0.52152442380E+01  0.10580414718E+02  0.51100000000E-03 0. -1.
        -12    1    3    3    0    0  0.14872744528E+02  0.15075360651E+02  0.15183385015E+02  0.26057632453E+02  0.00000000000E+00 0.  1.
</event>
<event>
 7    1  0.6285940E-013  0.5930215E+02  0.7816164E-02  0.1266604E+00
        -11   -1    0    0    0    0  0.00000000000E+00  0.00000000000E+00  0.45593999997E+02  0.45594000000E+02  0.51100000000E-03 0.  1.
         11   -1    0    0    0    0 -0.00000000000E+00 -0.00000000000E+00 -0.45593999997E+02  0.45594000000E+02  0.51100000000E-03 0. -1.
    9900012    2    1    2    0    0 -0.25215913689E+01 -0.18638447539E+02 -0.25747956562E+02  0.59302150210E+02  0.50000376025E+02 0.  0.
        -12    1    1    2    0    0  0.25215913689E+01  0.18638447539E+02  0.25747956562E+02  0.31885849790E+02  0.00000000000E+00 0.  1.
         11    1    3    3    0    0 -0.12067404455E+02 -0.75246081412E+00 -0.21610992630E+02  0.24763348931E+02  0.51100000000E-03 0. -1.
        -11    1    3    3    0    0 -0.97818302945E+01 -0.45969393612E+01 -0.19381081962E+01  0.10980542748E+02  0.51100000000E-03 0.  1.
         12    1    3    3    0    0  0.19327643380E+02 -0.13289047364E+02 -0.21988557362E+01  0.23558258531E+02  0.00000000000E+00 0. -1.
</event>
<event>
 7    1  0.6285940E-013  0.5930197E+02  0.7816164E-02  0.1266605E+00
        -11   -1    0    0    0    0  0.00000000000E+00  0.00000000000E+00  0.45593999997E+02  0.45594000000E+02  0.51100000000E-03 0. -1.
         11   -1    0    0    0    0 -0.00000000000E+00 -0.00000000000E+00 -0.45593999997E+02  0.45594000000E+02  0.51100000000E-03 0.  1.
    9900012    2    1    2    0    0 -0.17654125571E+01 -0.22120905445E+01  0.31760179082E+02  0.59301968553E+02  0.50000044729E+02 0.  0.
        -12    1    1    2    0    0  0.17654125571E+01  0.22120905445E+01 -0.31760179082E+02  0.31886031447E+02  0.00000000000E+00 0.  1.
         11    1    3    3    0    0 -0.99164504056E+01 -0.80499727542E+01  0.10469044701E+02  0.16514809935E+02  0.51100000000E-03 0. -1.
        -11    1    3    3    0    0 -0.10262824819E+02  0.76899046189E+01 -0.20631713525E+01  0.12989106305E+02  0.51100000000E-03 0.  1.
        -12    1    3    3    0    0  0.18413862667E+02 -0.18520224092E+01  0.23354305734E+02  0.29798052313E+02  0.00000000000E+00 0.  1.
</event>
<event>
 7    1  0.6285940E-013  0.5930193E+02  0.7816164E-02  0.1266605E+00
        -11   -1    0    0    0    0  0.00000000000E+00  0.00000000000E+00  0.45593999997E+02  0.45594000000E+02  0.51100000000E-03 0.  1.
         11   -1    0    0    0    0 -0.00000000000E+00 -0.00000000000E+00 -0.45593999997E+02  0.45594000000E+02  0.51100000000E-03 0. -1.
    9900012    2    1    2    0    0 -0.57742545005E+01 -0.21389008690E+01 -0.31285851497E+02  0.59301930693E+02  0.49999975681E+02 0.  0.
        -12    1    1    2    0    0  0.57742545005E+01  0.21389008690E+01  0.31285851497E+02  0.31886069307E+02  0.00000000000E+00 0.  1.
         11    1    3    3    0    0 -0.65242749980E+01 -0.17832749515E+02 -0.47263684964E+01  0.19568129163E+02  0.51100000000E-03 0. -1.
        -11    1    3    3    0    0 -0.10803497766E+02  0.12381144033E+02 -0.98747863641E+01  0.19170803258E+02  0.51100000000E-03 0.  1.
        -12    1    3    3    0    0  0.11553518263E+02  0.33127046129E+01 -0.16684696636E+02  0.20562998272E+02  0.00000000000E+00 0.  1.
</event>
<event>
 7    1  0.6285940E-013  0.5930192E+02  0.7816164E-02  0.1266605E+00
        -11   -1    0    0    0    0  0.00000000000E+00  0.00000000000E+00  0.45593999997E+02  0.45594000000E+02  0.51100000000E-03 0.  1.
         11   -1    0    0    0    0 -0.00000000000E+00 -0.00000000000E+00 -0.45593999997E+02  0.45594000000E+02  0.51100000000E-03 0. -1.
    9900012    2    1    2    0    0  0.86475069881E+00  0.22499169256E+02 -0.22577897196E+02  0.59301923841E+02  0.49999963185E+02 0.  0.
        -12    1    1    2    0    0 -0.86475069881E+00 -0.22499169256E+02  0.22577897196E+02  0.31886076159E+02  0.00000000000E+00 0.  1.
         11    1    3    3    0    0 -0.91999402607E+01  0.72308618183E+01 -0.16399698264E+02  0.20146323904E+02  0.51100000000E-03 0. -1.
        -11    1    3    3    0    0 -0.11984614753E+02  0.77430069913E+00  0.19158512362E+00  0.12011129733E+02  0.51100000000E-03 0.  1.
        -12    1    3    3    0    0  0.22049305712E+02  0.14494006739E+02 -0.63697840557E+01  0.27144470204E+02  0.00000000000E+00 0.  1.
</event>
<event>
 7    1  0.6285940E-013  0.5930203E+02  0.7816164E-02  0.1266604E+00
        -11   -1    0    0    0    0  0.00000000000E+00  0.00000000000E+00  0.45593999997E+02  0.45594000000E+02  0.51100000000E-03 0.  1.
         11   -1    0    0    0    0 -0.00000000000E+00 -0.00000000000E+00 -0.45593999997E+02  0.45594000000E+02  0.51100000000E-03 0. -1.
    9900012    2    1    2    0    0 -0.16940090892E+02 -0.23269745356E+02 -0.13721050400E+02  0.59302032045E+02  0.50000160521E+02 0.  0.
        -12    1    1    2    0    0  0.16940090892E+02  0.23269745356E+02  0.13721050400E+02  0.31885967955E+02  0.00000000000E+00 0.  1.
         11    1    3    3    0    0  0.76787125870E+01 -0.22329493612E+01 -0.17906393528E+02  0.19610905622E+02  0.51100000000E-03 0. -1.
        -11    1    3    3    0    0 -0.19244230475E+01 -0.12570418454E+02 -0.51665090170E+01  0.13726311954E+02  0.51100000000E-03 0.  1.
         12    1    3    3    0    0 -0.22694380432E+02 -0.84663775411E+01  0.93518521458E+01  0.25964814469E+02  0.00000000000E+00 0. -1.
</event>
<event>
 7    1  0.6285940E-013  0.5930196E+02  0.7816164E-02  0.1266605E+00
        -11   -1    0    0    0    0  0.00000000000E+00  0.00000000000E+00  0.45593999997E+02  0.45594000000E+02  0.51100000000E-03 0.  1.
         11   -1    0    0    0    0 -0.00000000000E+00 -0.00000000000E+00 -0.45593999997E+02  0.45594000000E+02  0.51100000000E-03 0. -1.
    9900012    2    1    2    0    0  0.30693047587E+02  0.81469255078E+01  0.28782092991E+01  0.59301958317E+02  0.50000026061E+02 0.  0.
        -12    1    1    2    0    0 -0.30693047587E+02 -0.81469255078E+01 -0.28782092991E+01  0.31886041683E+02  0.00000000000E+00 0.  1.
         11    1    3    3    0    0  0.96519093202E+01  0.67567301261E+01 -0.39569358511E+00  0.11788525319E+02  0.51100000000E-03 0. -1.
        -11    1    3    3    0    0  0.23981496964E+01  0.12430841698E+02  0.17495839518E+02  0.21595864140E+02  0.51100000000E-03 0.  1.
        -12    1    3    3    0    0  0.18642988570E+02 -0.11040646316E+02 -0.14221936634E+02  0.25917568858E+02  0.00000000000E+00 0.  1.
</event>
<event>
 7    1  0.6285940E-013  0.5930156E+02  0.7816164E-02  0.1266606E+00
        -11   -1    0    0    0    0  0.00000000000E+00  0.00000000000E+00  0.45593999997E+02  0.45594000000E+02  0.51100000000E-03 0. -1.
         11   -1    0    0    0    0 -0.00000000000E+00 -0.00000000000E+00 -0.45593999997E+02  0.45594000000E+02  0.51100000000E-03 0.  1.
    9900012    2    1    2    0    0  0.43063662851E+01 -0.16322898151E+02  0.27051128838E+02  0.59301555136E+02  0.49999290750E+02 0.  0.
        -12    1    1    2    0    0 -0.43063662851E+01  0.16322898151E+02 -0.27051128838E+02  0.31886444864E+02  0.00000000000E+00 0.  1.
         11    1    3    3    0    0  0.66124522022E+01 -0.24609789875E+02  0.22985953767E+02  0.34317930483E+02  0.51100000000E-03 0. -1.
        -11    1    3    3    0    0 -0.10488621271E+02 -0.21742307741E+01 -0.10248038227E+01  0.10760514800E+02  0.51100000000E-03 0.  1.
         12    1    3    3    0    0  0.81825353538E+01  0.10461122498E+02  0.50899788941E+01  0.14223109853E+02  0.00000000000E+00 0. -1.
</event>
<event>
 7    1  0.6285940E-013  0.5930193E+02  0.7816164E-02  0.1266605E+00
        -11   -1    0    0    0    0  0.00000000000E+00  0.00000000000E+00  0.45593999997E+02  0.45594000000E+02  0.51100000000E-03 0. -1.
         11   -1    0    0    0    0 -0.00000000000E+00 -0.00000000000E+00 -0.45593999997E+02  0.45594000000E+02  0.51100000000E-03 0.  1.
    9900012    2    1    2    0    0  0.19902257491E+02  0.63446792574E+01  0.24090796636E+02  0.59301932656E+02  0.49999979261E+02 0.  0.
        -12    1    1    2    0    0 -0.19902257491E+02 -0.63446792574E+01 -0.24090796636E+02  0.31886067344E+02  0.00000000000E+00 0.  1.
         11    1    3    3    0    0  0.21531493520E+02  0.51433189132E+01  0.18529281711E+00  0.22138050419E+02  0.51100000000E-03 0. -1.
        -11    1    3    3    0    0  0.72813026342E+01  0.11043294172E+02  0.18695567760E+02  0.22901876961E+02  0.51100000000E-03 0.  1.
        -12    1    3    3    0    0 -0.89105386640E+01 -0.98419338277E+01  0.52099360588E+01  0.14262005276E+02  0.00000000000E+00 0.  1.
</event>
<event>
 7    1  0.6285940E-013  0.5930195E+02  0.7816164E-02  0.1266605E+00
        -11   -1    0    0    0    0  0.00000000000E+00  0.00000000000E+00  0.45593999997E+02  0.45594000000E+02  0.51100000000E-03 0.  1.
         11   -1    0    0    0    0 -0.00000000000E+00 -0.00000000000E+00 -0.45593999997E+02  0.45594000000E+02  0.51100000000E-03 0. -1.
    9900012    2    1    2    0    0  0.21046488805E+02 -0.15317884306E+02 -0.18415419632E+02  0.59301953665E+02  0.50000017576E+02 0.  0.
        -12    1    1    2    0    0 -0.21046488805E+02  0.15317884306E+02  0.18415419632E+02  0.31886046335E+02  0.00000000000E+00 0.  1.
         11    1    3    3    0    0  0.74968125275E+00  0.58469336081E+01  0.47241804233E+01  0.75542395734E+01  0.51100000000E-03 0. -1.
        -11    1    3    3    0    0 -0.10911236100E+01  0.90927812700E+01 -0.57778010304E+01  0.10828305822E+02  0.51100000000E-03 0.  1.
         12    1    3    3    0    0  0.21387931163E+02 -0.30257599184E+02 -0.17361799025E+02  0.40919408270E+02  0.00000000000E+00 0. -1.
</event>
<event>
 7    1  0.6285940E-013  0.5930189E+02  0.7816164E-02  0.1266605E+00
        -11   -1    0    0    0    0  0.00000000000E+00  0.00000000000E+00  0.45593999997E+02  0.45594000000E+02  0.51100000000E-03 0.  1.
         11   -1    0    0    0    0 -0.00000000000E+00 -0.00000000000E+00 -0.45593999997E+02  0.45594000000E+02  0.51100000000E-03 0. -1.
    9900012    2    1    2    0    0 -0.70031649370E+01 -0.30311705936E+02 -0.69914485832E+01  0.59301887205E+02  0.49999896369E+02 0.  0.
        -12    1    1    2    0    0  0.70031649370E+01  0.30311705936E+02  0.69914485832E+01  0.31886112795E+02  0.00000000000E+00 0.  1.
         11    1    3    3    0    0  0.31090542615E+01 -0.15034248340E+02  0.12771184325E+01  0.15405384556E+02  0.51100000000E-03 0. -1.
        -11    1    3    3    0    0  0.11866472024E+02 -0.17334818722E+01 -0.12959683648E+02  0.17657052931E+02  0.51100000000E-03 0.  1.
         12    1    3    3    0    0 -0.21978691223E+02 -0.13543975724E+02  0.46911166322E+01  0.26239449718E+02  0.00000000000E+00 0. -1.
</event>
<event>
 7    1  0.6285940E-013  0.5930194E+02  0.7816164E-02  0.1266605E+00
        -11   -1    0    0    0    0  0.00000000000E+00  0.00000000000E+00  0.45593999997E+02  0.45594000000E+02  0.51100000000E-03 0. -1.
         11   -1    0    0    0    0 -0.00000000000E+00 -0.00000000000E+00 -0.45593999997E+02  0.45594000000E+02  0.51100000000E-03 0.  1.
    9900012    2    1    2    0    0 -0.34890444454E+01 -0.17944970213E+02  0.26125193505E+02  0.59301935289E+02  0.49999984063E+02 0.  0.
        -12    1    1    2    0    0  0.34890444454E+01  0.17944970213E+02 -0.26125193505E+02  0.31886064711E+02  0.00000000000E+00 0.  1.
         11    1    3    3    0    0  0.12934156933E+02 -0.53265000965E+01 -0.26364077325E+01  0.14234277812E+02  0.51100000000E-03 0. -1.
        -11    1    3    3    0    0  0.22406079910E+01  0.67283376714E+01  0.10108642544E+02  0.12348097276E+02  0.51100000000E-03 0.  1.
         12    1    3    3    0    0 -0.18663809369E+02 -0.19346807788E+02  0.18652958693E+02  0.32719560201E+02  0.00000000000E+00 0. -1.
</event>
<event>
 7    1  0.6285940E-013  0.5930191E+02  0.7816164E-02  0.1266605E+00
        -11   -1    0    0    0    0  0.00000000000E+00  0.00000000000E+00  0.45593999997E+02  0.45594000000E+02  0.51100000000E-03 0.  1.
         11   -1    0    0    0    0 -0.00000000000E+00 -0.00000000000E+00 -0.45593999997E+02  0.45594000000E+02  0.51100000000E-03 0. -1.
    9900012    2    1    2    0    0 -0.21457361170E+02  0.18947861293E+02 -0.14045734272E+02  0.59301914521E+02  0.49999946186E+02 0.  0.
        -12    1    1    2    0    0  0.21457361170E+02 -0.18947861293E+02  0.14045734272E+02  0.31886085479E+02  0.00000000000E+00 0.  1.
         11    1    3    3    0    0 -0.57228390101E+01  0.17621346129E+02 -0.28594245769E+02  0.34071888957E+02  0.51100000000E-03 0. -1.
        -11    1    3    3    0    0  0.20865553101E+01 -0.12647474886E+01  0.28666697077E+01  0.37644514536E+01  0.51100000000E-03 0.  1.
        -12    1    3    3    0    0 -0.17821077470E+02  0.25912626530E+01  0.11681841789E+02  0.21465574111E+02  0.00000000000E+00 0.  1.
</event>
<event>
 7    1  0.6285940E-013  0.5930193E+02  0.7816164E-02  0.1266605E+00
        -11   -1    0    0    0    0  0.00000000000E+00  0.00000000000E+00  0.45593999997E+02  0.45594000000E+02  0.51100000000E-03 0.  1.
         11   -1    0    0    0    0 -0.00000000000E+00 -0.00000000000E+00 -0.45593999997E+02  0.45594000000E+02  0.51100000000E-03 0. -1.
    9900012    2    1    2    0    0  0.11745726751E+02  0.90806605329E+01 -0.28218803386E+02  0.59301931613E+02  0.49999977359E+02 0.  0.
        -12    1    1    2    0    0 -0.11745726751E+02 -0.90806605329E+01  0.28218803386E+02  0.31886068387E+02  0.00000000000E+00 0.  1.
         11    1    3    3    0    0  0.18139113782E+01 -0.47714825474E+01  0.80773093488E+01  0.95551162612E+01  0.51100000000E-03 0. -1.
        -11    1    3    3    0    0 -0.86188797754E+01 -0.10766503115E+01 -0.38503801320E+01  0.95010363592E+01  0.51100000000E-03 0.  1.
         12    1    3    3    0    0  0.18550695149E+02  0.14928793392E+02 -0.32445732603E+02  0.40245778993E+02  0.00000000000E+00 0. -1.
</event>
<event>
 7    1  0.6285940E-013  0.5930194E+02  0.7816164E-02  0.1266605E+00
        -11   -1    0    0    0    0  0.00000000000E+00  0.00000000000E+00  0.45593999997E+02  0.45594000000E+02  0.51100000000E-03 0. -1.
         11   -1    0    0    0    0 -0.00000000000E+00 -0.00000000000E+00 -0.45593999997E+02  0.45594000000E+02  0.51100000000E-03 0.  1.
    9900012    2    1    2    0    0  0.13557386729E+02  0.33801081137E+01  0.28661701361E+02  0.59301937360E+02  0.49999987840E+02 0.  0.
        -12    1    1    2    0    0 -0.13557386729E+02 -0.33801081137E+01 -0.28661701361E+02  0.31886062640E+02  0.00000000000E+00 0.  1.
         11    1    3    3    0    0 -0.36274840230E+01 -0.23323841970E+01  0.92830283440E+01  0.10235881588E+02  0.51100000000E-03 0. -1.
        -11    1    3    3    0    0 -0.51596828583E+01  0.11287044613E+02  0.22628643560E+02  0.25808432980E+02  0.51100000000E-03 0.  1.
        -12    1    3    3    0    0  0.22344553610E+02 -0.55745523019E+01 -0.32499705429E+01  0.23257622792E+02  0.00000000000E+00 0.  1.
</event>
<event>
 7    1  0.6285940E-013  0.5930193E+02  0.7816164E-02  0.1266605E+00
        -11   -1    0    0    0    0  0.00000000000E+00  0.00000000000E+00  0.45593999997E+02  0.45594000000E+02  0.51100000000E-03 0. -1.
         11   -1    0    0    0    0 -0.00000000000E+00 -0.00000000000E+00 -0.45593999997E+02  0.45594000000E+02  0.51100000000E-03 0.  1.
    9900012    2    1    2    0    0  0.21098495709E+02 -0.23802966601E+02 -0.22346249130E+01  0.59301932687E+02  0.49999979317E+02 0.  0.
        -12    1    1    2    0    0 -0.21098495709E+02  0.23802966601E+02  0.22346249130E+01  0.31886067313E+02  0.00000000000E+00 0.  1.
         11    1    3    3    0    0  0.14190534344E+02 -0.10027911266E+02 -0.38302358646E+00  0.17380361810E+02  0.51100000000E-03 0. -1.
        -11    1    3    3    0    0 -0.59261683137E+00  0.51239232289E+00 -0.18627827762E+02  0.18644294247E+02  0.51100000000E-03 0.  1.
         12    1    3    3    0    0  0.75005781964E+01 -0.14287447658E+02  0.16776226435E+02  0.23277276629E+02  0.00000000000E+00 0. -1.
</event>
<event>
 7    1  0.6285940E-013  0.5930191E+02  0.7816164E-02  0.1266605E+00
        -11   -1    0    0    0    0  0.00000000000E+00  0.00000000000E+00  0.45593999997E+02  0.45594000000E+02  0.51100000000E-03 0. -1.
         11   -1    0    0    0    0 -0.00000000000E+00 -0.00000000000E+00 -0.45593999997E+02  0.45594000000E+02  0.51100000000E-03 0.  1.
    9900012    2    1    2    0    0  0.31283153059E+02 -0.23709593790E+00  0.61669264350E+01  0.59301908025E+02  0.49999934339E+02 0.  0.
        -12    1    1    2    0    0 -0.31283153059E+02  0.23709593790E+00 -0.61669264350E+01  0.31886091975E+02  0.00000000000E+00 0.  1.
         11    1    3    3    0    0  0.24122160050E+02 -0.12146056712E+02  0.68797212935E+01  0.27869981422E+02  0.51100000000E-03 0. -1.
        -11    1    3    3    0    0  0.44770590101E+01 -0.71047504339E+01  0.68067688144E+01  0.10809886126E+02  0.51100000000E-03 0.  1.
        -12    1    3    3    0    0  0.26839339989E+01  0.19013711208E+02 -0.75195636729E+01  0.20622040477E+02  0.00000000000E+00 0.  1.
</event>
<event>
 7    1  0.6285940E-013  0.5930195E+02  0.7816164E-02  0.1266605E+00
        -11   -1    0    0    0    0  0.00000000000E+00  0.00000000000E+00  0.45593999997E+02  0.45594000000E+02  0.51100000000E-03 0. -1.
         11   -1    0    0    0    0 -0.00000000000E+00 -0.00000000000E+00 -0.45593999997E+02  0.45594000000E+02  0.51100000000E-03 0.  1.
    9900012    2    1    2    0    0 -0.22132468246E+02 -0.22401159934E+02  0.50062092432E+01  0.59301949005E+02  0.50000009078E+02 0.  0.
        -12    1    1    2    0    0  0.22132468246E+02  0.22401159934E+02 -0.50062092432E+01  0.31886050995E+02  0.00000000000E+00 0.  1.
         11    1    3    3    0    0 -0.10305923860E+02 -0.36816544045E+01 -0.13836978996E+01  0.11030923166E+02  0.51100000000E-03 0. -1.
        -11    1    3    3    0    0 -0.12418464325E+02  0.42118720827E+01  0.18230112364E+02  0.22456516197E+02  0.51100000000E-03 0.  1.
         12    1    3    3    0    0  0.59191993888E+00 -0.22931377613E+02 -0.11840205221E+02  0.25814509643E+02  0.00000000000E+00 0. -1.
</event>
<event>
 7    1  0.6285940E-013  0.5930195E+02  0.7816164E-02  0.1266605E+00
        -11   -1    0    0    0    0  0.00000000000E+00  0.00000000000E+00  0.45593999997E+02  0.45594000000E+02  0.51100000000E-03 0.  1.
         11   -1    0    0    0    0 -0.00000000000E+00 -0.00000000000E+00 -0.45593999997E+02  0.45594000000E+02  0.51100000000E-03 0. -1.
    9900012    2    1    2    0    0  0.20028919216E+02 -0.18274685803E+02 -0.16780894224E+02  0.59301950431E+02  0.50000011679E+02 0.  0.
        -12    1    1    2    0    0 -0.20028919216E+02  0.18274685803E+02  0.16780894224E+02  0.31886049569E+02  0.00000000000E+00 0.  1.
         11    1    3    3    0    0  0.13134653685E+02 -0.34638136045E+01 -0.41680764890E+01  0.14208799879E+02  0.51100000000E-03 0. -1.
        -11    1    3    3    0    0  0.15594000788E+02 -0.19667244457E+02  0.42988467815E+01  0.25464749146E+02  0.51100000000E-03 0.  1.
         12    1    3    3    0    0 -0.86997352578E+01  0.48563722593E+01 -0.16911664516E+02  0.19628401407E+02  0.00000000000E+00 0. -1.
</event>
<event>
 7    1  0.6285940E-013  0.5930197E+02  0.7816164E-02  0.1266605E+00
        -11   -1    0    0    0    0  0.00000000000E+00  0.00000000000E+00  0.45593999997E+02  0.45594000000E+02  0.51100000000E-03 0.  1.
         11   -1    0    0    0    0 -0.00000000000E+00 -0.00000000000E+00 -0.45593999997E+02  0.45594000000E+02  0.51100000000E-03 0. -1.
    9900012    2    1    2    0    0  0.38819165468E+01 -0.19422633847E+02 -0.24988221286E+02  0.59301965680E+02  0.50000039488E+02 0.  0.
        -12    1    1    2    0    0 -0.38819165468E+01  0.19422633847E+02  0.24988221286E+02  0.31886034320E+02  0.00000000000E+00 0.  1.
         11    1    3    3    0    0 -0.72859833089E+00  0.89525429924E+01 -0.36370229187E+01  0.96905530044E+01  0.51100000000E-03 0.  1.
        -11    1    3    3    0    0 -0.94942299937E+01 -0.13188540054E+01  0.35564089896E+01  0.10223884987E+02  0.51100000000E-03 0. -1.
         12    1    3    3    0    0  0.14104744871E+02 -0.27056322834E+02 -0.24907607357E+02  0.39387527689E+02  0.00000000000E+00 0. -1.
</event>
<event>
 7    1  0.6285940E-013  0.5930198E+02  0.7816164E-02  0.1266605E+00
        -11   -1    0    0    0    0  0.00000000000E+00  0.00000000000E+00  0.45593999997E+02  0.45594000000E+02  0.51100000000E-03 0.  1.
         11   -1    0    0    0    0 -0.00000000000E+00 -0.00000000000E+00 -0.45593999997E+02  0.45594000000E+02  0.51100000000E-03 0. -1.
    9900012    2    1    2    0    0  0.26507397148E+02  0.16576183246E+02  0.62694832321E+01  0.59301978383E+02  0.50000062655E+02 0.  0.
        -12    1    1    2    0    0 -0.26507397148E+02 -0.16576183246E+02 -0.62694832321E+01  0.31886021617E+02  0.00000000000E+00 0.  1.
         11    1    3    3    0    0  0.14422133709E+02  0.23955830755E+01  0.20065287949E+01  0.14756792235E+02  0.51100000000E-03 0. -1.
        -11    1    3    3    0    0  0.14759068667E+02  0.17475188848E+02  0.18670234120E+02  0.29526089744E+02  0.51100000000E-03 0.  1.
         12    1    3    3    0    0 -0.26738052278E+01 -0.32945886773E+01 -0.14407279683E+02  0.15019096404E+02  0.00000000000E+00 0. -1.
</event>
<event>
 7    1  0.6285940E-013  0.5930194E+02  0.7816164E-02  0.1266605E+00
        -11   -1    0    0    0    0  0.00000000000E+00  0.00000000000E+00  0.45593999997E+02  0.45594000000E+02  0.51100000000E-03 0.  1.
         11   -1    0    0    0    0 -0.00000000000E+00 -0.00000000000E+00 -0.45593999997E+02  0.45594000000E+02  0.51100000000E-03 0. -1.
    9900012    2    1    2    0    0  0.14324854529E+02  0.86805534465E+01 -0.27132405239E+02  0.59301939104E+02  0.49999991020E+02 0.  0.
        -12    1    1    2    0    0 -0.14324854529E+02 -0.86805534465E+01  0.27132405239E+02  0.31886060896E+02  0.00000000000E+00 0.  1.
         11    1    3    3    0    0  0.34183135342E+01  0.59471356722E+01 -0.31263418607E+01  0.75383886748E+01  0.51100000000E-03 0.  1.
        -11    1    3    3    0    0  0.21662648513E+02  0.17236165997E+02 -0.12678122841E+02  0.30448161815E+02  0.51100000000E-03 0. -1.
         12    1    3    3    0    0 -0.10756107519E+02 -0.14502748222E+02 -0.11327940537E+02  0.21315388614E+02  0.00000000000E+00 0. -1.
</event>
<event>
 7    1  0.6285940E-013  0.5930198E+02  0.7816164E-02  0.1266605E+00
        -11   -1    0    0    0    0  0.00000000000E+00  0.00000000000E+00  0.45593999997E+02  0.45594000000E+02  0.51100000000E-03 0. -1.
         11   -1    0    0    0    0 -0.00000000000E+00 -0.00000000000E+00 -0.45593999997E+02  0.45594000000E+02  0.51100000000E-03 0.  1.
    9900012    2    1    2    0    0 -0.67159281799E+00  0.36791253963E+01  0.31665930787E+02  0.59301981540E+02  0.50000068414E+02 0.  0.
        -12    1    1    2    0    0  0.67159281799E+00 -0.36791253963E+01 -0.31665930787E+02  0.31886018460E+02  0.00000000000E+00 0.  1.
         11    1    3    3    0    0  0.10624227318E+02 -0.48757470918E+01  0.84355316488E+01  0.14415453870E+02  0.51100000000E-03 0. -1.
        -11    1    3    3    0    0  0.23307971088E+01 -0.12784789090E+02  0.93746145809E+01  0.16023946020E+02  0.51100000000E-03 0.  1.
        -12    1    3    3    0    0 -0.13626617245E+02  0.21339661579E+02  0.13855784558E+02  0.28862581651E+02  0.00000000000E+00 0.  1.
</event>
<event>
 7    1  0.6285940E-013  0.5930198E+02  0.7816164E-02  0.1266605E+00
        -11   -1    0    0    0    0  0.00000000000E+00  0.00000000000E+00  0.45593999997E+02  0.45594000000E+02  0.51100000000E-03 0. -1.
         11   -1    0    0    0    0 -0.00000000000E+00 -0.00000000000E+00 -0.45593999997E+02  0.45594000000E+02  0.51100000000E-03 0.  1.
    9900012    2    1    2    0    0 -0.18110725184E+02 -0.18553262147E+02  0.18560606053E+02  0.59301984255E+02  0.50000073366E+02 0.  0.
        -12    1    1    2    0    0  0.18110725184E+02  0.18553262147E+02 -0.18560606053E+02  0.31886015745E+02  0.00000000000E+00 0.  1.
         11    1    3    3    0    0 -0.14120101490E+02 -0.11670099856E+02  0.22755264447E+01  0.18459320616E+02  0.51100000000E-03 0. -1.
        -11    1    3    3    0    0 -0.71330208162E+01 -0.15050717569E+02  0.23975195825E+02  0.29192706287E+02  0.51100000000E-03 0.  1.
        -12    1    3    3    0    0  0.31423971227E+01  0.81675552776E+01 -0.76901162158E+01  0.11649957352E+02  0.00000000000E+00 0.  1.
</event>
<event>
 7    1  0.6285940E-013  0.5930194E+02  0.7816164E-02  0.1266605E+00
        -11   -1    0    0    0    0  0.00000000000E+00  0.00000000000E+00  0.45593999997E+02  0.45594000000E+02  0.51100000000E-03 0. -1.
         11   -1    0    0    0    0 -0.00000000000E+00 -0.00000000000E+00 -0.45593999997E+02  0.45594000000E+02  0.51100000000E-03 0.  1.
    9900012    2    1    2    0    0 -0.29699094105E+02  0.11054028051E+02  0.35345642150E+01  0.59301939236E+02  0.49999991262E+02 0.  0.
        -12    1    1    2    0    0  0.29699094105E+02 -0.11054028051E+02 -0.35345642150E+01  0.31886060764E+02  0.00000000000E+00 0.  1.
         11    1    3    3    0    0 -0.36387903236E+01 -0.83084720802E+01 -0.48598299539E+01  0.10290259995E+02  0.51100000000E-03 0. -1.
        -11    1    3    3    0    0 -0.17449361107E+02 -0.77089078526E+01 -0.96757063795E+00  0.19100881041E+02  0.51100000000E-03 0.  1.
         12    1    3    3    0    0 -0.86109426746E+01  0.27071407984E+02  0.93619648069E+01  0.29910798201E+02  0.00000000000E+00 0. -1.
</event>
<event>
 7    1  0.6285940E-013  0.5930192E+02  0.7816164E-02  0.1266605E+00
        -11   -1    0    0    0    0  0.00000000000E+00  0.00000000000E+00  0.45593999997E+02  0.45594000000E+02  0.51100000000E-03 0. -1.
         11   -1    0    0    0    0 -0.00000000000E+00 -0.00000000000E+00 -0.45593999997E+02  0.45594000000E+02  0.51100000000E-03 0.  1.
    9900012    2    1    2    0    0  0.48725101079E+01  0.50738986244E+00  0.31507512017E+02  0.59301919766E+02  0.49999955752E+02 0.  0.
        -12    1    1    2    0    0 -0.48725101079E+01 -0.50738986244E+00 -0.31507512017E+02  0.31886080234E+02  0.00000000000E+00 0.  1.
         11    1    3    3    0    0  0.56638878597E+01 -0.19774037837E+02  0.25879386647E+02  0.33058052749E+02  0.51100000000E-03 0. -1.
        -11    1    3    3    0    0  0.42131617681E+01 -0.17855030133E+00  0.26262731030E+01  0.49678891862E+01  0.51100000000E-03 0.  1.
        -12    1    3    3    0    0 -0.50045395198E+01  0.20459978001E+02  0.30018522663E+01  0.21275977830E+02  0.00000000000E+00 0.  1.
</event>
<event>
 7    1  0.6285940E-013  0.5930195E+02  0.7816164E-02  0.1266605E+00
        -11   -1    0    0    0    0  0.00000000000E+00  0.00000000000E+00  0.45593999997E+02  0.45594000000E+02  0.51100000000E-03 0.  1.
         11   -1    0    0    0    0 -0.00000000000E+00 -0.00000000000E+00 -0.45593999997E+02  0.45594000000E+02  0.51100000000E-03 0. -1.
    9900012    2    1    2    0    0  0.25103574043E+02 -0.14966515229E+02 -0.12748887650E+02  0.59301950635E+02  0.50000012050E+02 0.  0.
        -12    1    1    2    0    0 -0.25103574043E+02  0.14966515229E+02  0.12748887650E+02  0.31886049365E+02  0.00000000000E+00 0.  1.
         11    1    3    3    0    0  0.10217796263E+00 -0.84159945171E+01 -0.50868539989E+01  0.98344032821E+01  0.51100000000E-03 0. -1.
        -11    1    3    3    0    0 -0.46296993126E+01  0.11677786138E+02 -0.75929957507E+01  0.14678500930E+02  0.51100000000E-03 0.  1.
         12    1    3    3    0    0  0.29631095393E+02 -0.18228306849E+02 -0.69037900568E-01  0.34789046423E+02  0.00000000000E+00 0. -1.
</event>
<event>
 7    1  0.6285940E-013  0.5930194E+02  0.7816164E-02  0.1266605E+00
        -11   -1    0    0    0    0  0.00000000000E+00  0.00000000000E+00  0.45593999997E+02  0.45594000000E+02  0.51100000000E-03 0. -1.
         11   -1    0    0    0    0 -0.00000000000E+00 -0.00000000000E+00 -0.45593999997E+02  0.45594000000E+02  0.51100000000E-03 0.  1.
    9900012    2    1    2    0    0  0.18995044524E+02 -0.21005087347E+02  0.14652483285E+02  0.59301942274E+02  0.49999996801E+02 0.  0.
        -12    1    1    2    0    0 -0.18995044524E+02  0.21005087347E+02 -0.14652483285E+02  0.31886057726E+02  0.00000000000E+00 0.  1.
         11    1    3    3    0    0  0.10451570435E+02 -0.17919327391E+02  0.20067848896E+02  0.28862712594E+02  0.51100000000E-03 0. -1.
        -11    1    3    3    0    0  0.13682097772E+02 -0.62855542290E+01  0.70168532553E+01  0.16611568899E+02  0.51100000000E-03 0.  1.
         12    1    3    3    0    0 -0.51386236829E+01  0.31997942733E+01 -0.12432218866E+02  0.13827660781E+02  0.00000000000E+00 0. -1.
</event>
<event>
 7    1  0.6285940E-013  0.5930194E+02  0.7816164E-02  0.1266605E+00
        -11   -1    0    0    0    0  0.00000000000E+00  0.00000000000E+00  0.45593999997E+02  0.45594000000E+02  0.51100000000E-03 0. -1.
         11   -1    0    0    0    0 -0.00000000000E+00 -0.00000000000E+00 -0.45593999997E+02  0.45594000000E+02  0.51100000000E-03 0.  1.
    9900012    2    1    2    0    0  0.29763268981E+02  0.48129368078E+01 -0.10378082384E+02  0.59301935096E+02  0.49999983710E+02 0.  0.
        -12    1    1    2    0    0 -0.29763268981E+02 -0.48129368078E+01  0.10378082384E+02  0.31886064904E+02  0.00000000000E+00 0.  1.
         11    1    3    3    0    0  0.77242074914E+01  0.11393076330E+02  0.90571966941E-01  0.13764947264E+02  0.51100000000E-03 0. -1.
        -11    1    3    3    0    0  0.61374620124E+01 -0.28445413373E+01  0.14327497538E+02  0.15844148489E+02  0.51100000000E-03 0.  1.
        -12    1    3    3    0    0  0.15901599477E+02 -0.37355981851E+01 -0.24796151889E+02  0.29692839342E+02  0.00000000000E+00 0.  1.
</event>
<event>
 7    1  0.6285940E-013  0.5930194E+02  0.7816164E-02  0.1266605E+00
        -11   -1    0    0    0    0  0.00000000000E+00  0.00000000000E+00  0.45593999997E+02  0.45594000000E+02  0.51100000000E-03 0.  1.
         11   -1    0    0    0    0 -0.00000000000E+00 -0.00000000000E+00 -0.45593999997E+02  0.45594000000E+02  0.51100000000E-03 0. -1.
    9900012    2    1    2    0    0  0.18022429000E+02 -0.16068474767E+02 -0.20825878067E+02  0.59301936812E+02  0.49999986840E+02 0.  0.
        -12    1    1    2    0    0 -0.18022429000E+02  0.16068474767E+02  0.20825878067E+02  0.31886063188E+02  0.00000000000E+00 0.  1.
         11    1    3    3    0    0  0.27009478147E+01  0.10433976362E+02 -0.83013946009E+01  0.13604268977E+02  0.51100000000E-03 0. -1.
        -11    1    3    3    0    0  0.88619548315E+01  0.54290221140E+01  0.96423581630E+00  0.10437350024E+02  0.51100000000E-03 0.  1.
         12    1    3    3    0    0  0.64595263535E+01 -0.31931473243E+02 -0.13488719283E+02  0.35260317810E+02  0.00000000000E+00 0. -1.
</event>
<event>
 7    1  0.6285940E-013  0.5930201E+02  0.7816164E-02  0.1266605E+00
        -11   -1    0    0    0    0  0.00000000000E+00  0.00000000000E+00  0.45593999997E+02  0.45594000000E+02  0.51100000000E-03 0. -1.
         11   -1    0    0    0    0 -0.00000000000E+00 -0.00000000000E+00 -0.45593999997E+02  0.45594000000E+02  0.51100000000E-03 0.  1.
    9900012    2    1    2    0    0 -0.21979231698E+02 -0.22213660304E+02  0.63389886708E+01  0.59302013933E+02  0.50000127490E+02 0.  0.
        -12    1    1    2    0    0  0.21979231698E+02  0.22213660304E+02 -0.63389886708E+01  0.31885986067E+02  0.00000000000E+00 0.  1.
         11    1    3    3    0    0 -0.17429910795E+02 -0.16762308666E+02  0.16757839840E+02  0.29421114501E+02  0.51100000000E-03 0. -1.
        -11    1    3    3    0    0 -0.14694807657E+02 -0.90179160556E+01 -0.60220375762E+01  0.18262670092E+02  0.51100000000E-03 0.  1.
         12    1    3    3    0    0  0.10145486754E+02  0.35665644179E+01 -0.43968135926E+01  0.11618229340E+02  0.00000000000E+00 0. -1.
</event>
<event>
 7    1  0.6285940E-013  0.5930195E+02  0.7816164E-02  0.1266605E+00
        -11   -1    0    0    0    0  0.00000000000E+00  0.00000000000E+00  0.45593999997E+02  0.45594000000E+02  0.51100000000E-03 0.  1.
         11   -1    0    0    0    0 -0.00000000000E+00 -0.00000000000E+00 -0.45593999997E+02  0.45594000000E+02  0.51100000000E-03 0. -1.
    9900012    2    1    2    0    0  0.69558439118E+01 -0.30714179263E+02 -0.49975320800E+01  0.59301954475E+02  0.50000019053E+02 0.  0.
        -12    1    1    2    0    0 -0.69558439118E+01  0.30714179263E+02  0.49975320800E+01  0.31886045525E+02  0.00000000000E+00 0.  1.
         11    1    3    3    0    0  0.42325808219E+01  0.59820234930E+01 -0.58824181504E+01  0.93969244459E+01  0.51100000000E-03 0.  1.
        -11    1    3    3    0    0  0.11688990989E+02  0.42252213455E+00  0.71532376357E+00  0.11718477872E+02  0.51100000000E-03 0. -1.
        -12    1    3    3    0    0 -0.89657278988E+01 -0.37118724891E+02  0.16956230685E+00  0.38186552157E+02  0.00000000000E+00 0.  1.
</event>
<event>
 7    1  0.6285940E-013  0.5930194E+02  0.7816164E-02  0.1266605E+00
        -11   -1    0    0    0    0  0.00000000000E+00  0.00000000000E+00  0.45593999997E+02  0.45594000000E+02  0.51100000000E-03 0.  1.
         11   -1    0    0    0    0 -0.00000000000E+00 -0.00000000000E+00 -0.45593999997E+02  0.45594000000E+02  0.51100000000E-03 0. -1.
    9900012    2    1    2    0    0  0.15144761239E+02 -0.24716679396E+02 -0.13283184895E+02  0.59301936676E+02  0.49999986592E+02 0.  0.
        -12    1    1    2    0    0 -0.15144761239E+02  0.24716679396E+02  0.13283184895E+02  0.31886063324E+02  0.00000000000E+00 0.  1.
         11    1    3    3    0    0  0.14756217279E+01 -0.14176634168E+01 -0.15771280408E+02  0.15903474935E+02  0.51100000000E-03 0. -1.
        -11    1    3    3    0    0 -0.96263368922E+01  0.56412339597E+00 -0.16877572943E+01  0.97894393156E+01  0.51100000000E-03 0.  1.
        -12    1    3    3    0    0  0.23295476404E+02 -0.23863139375E+02  0.41758528070E+01  0.33609022425E+02  0.00000000000E+00 0.  1.
</event>
<event>
 7    1  0.6285940E-013  0.5930196E+02  0.7816164E-02  0.1266605E+00
        -11   -1    0    0    0    0  0.00000000000E+00  0.00000000000E+00  0.45593999997E+02  0.45594000000E+02  0.51100000000E-03 0.  1.
         11   -1    0    0    0    0 -0.00000000000E+00 -0.00000000000E+00 -0.45593999997E+02  0.45594000000E+02  0.51100000000E-03 0. -1.
    9900012    2    1    2    0    0  0.18430034316E+02  0.26011628594E+02 -0.66966944105E+00  0.59301961611E+02  0.50000032067E+02 0.  0.
        -12    1    1    2    0    0 -0.18430034316E+02 -0.26011628594E+02  0.66966944105E+00  0.31886038389E+02  0.00000000000E+00 0.  1.
         11    1    3    3    0    0 -0.23735544326E+01  0.82070213277E+01 -0.41782889960E+01  0.95103658665E+01  0.51100000000E-03 0. -1.
        -11    1    3    3    0    0  0.50797101621E+01  0.10371475024E+02 -0.18458118638E+02  0.21773219639E+02  0.51100000000E-03 0.  1.
        -12    1    3    3    0    0  0.15723878587E+02  0.74331322422E+01  0.21966738193E+02  0.28018376106E+02  0.00000000000E+00 0.  1.
</event>
<event>
 7    1  0.6285940E-013  0.5930194E+02  0.7816164E-02  0.1266605E+00
        -11   -1    0    0    0    0  0.00000000000E+00  0.00000000000E+00  0.45593999997E+02  0.45594000000E+02  0.51100000000E-03 0. -1.
         11   -1    0    0    0    0 -0.00000000000E+00 -0.00000000000E+00 -0.45593999997E+02  0.45594000000E+02  0.51100000000E-03 0.  1.
    9900012    2    1    2    0    0  0.16155478535E+02  0.26601701902E+02 -0.69332949480E+01  0.59301943335E+02  0.49999998737E+02 0.  0.
        -12    1    1    2    0    0 -0.16155478535E+02 -0.26601701902E+02  0.69332949480E+01  0.31886056665E+02  0.00000000000E+00 0.  1.
         11    1    3    3    0    0 -0.48635323450E+01  0.33762828471E+00 -0.33882517849E+00  0.48869972879E+01  0.51100000000E-03 0. -1.
        -11    1    3    3    0    0 -0.51288986660E+01  0.15784285780E+02  0.12158691514E+02  0.20573844043E+02  0.51100000000E-03 0.  1.
        -12    1    3    3    0    0  0.26147909546E+02  0.10479787837E+02 -0.18753161284E+02  0.33841102005E+02  0.00000000000E+00 0.  1.
</event>
<event>
 7    1  0.6285940E-013  0.5930193E+02  0.7816164E-02  0.1266605E+00
        -11   -1    0    0    0    0  0.00000000000E+00  0.00000000000E+00  0.45593999997E+02  0.45594000000E+02  0.51100000000E-03 0.  1.
         11   -1    0    0    0    0 -0.00000000000E+00 -0.00000000000E+00 -0.45593999997E+02  0.45594000000E+02  0.51100000000E-03 0. -1.
    9900012    2    1    2    0    0 -0.55336844352E+01 -0.17951078944E+02 -0.25765452276E+02  0.59301930477E+02  0.49999975286E+02 0.  0.
        -12    1    1    2    0    0  0.55336844352E+01  0.17951078944E+02  0.25765452276E+02  0.31886069523E+02  0.00000000000E+00 0.  1.
         11    1    3    3    0    0 -0.99836607165E+01  0.29136154493E+00  0.34166194026E+01  0.10556119612E+02  0.51100000000E-03 0. -1.
        -11    1    3    3    0    0  0.31975643288E+01  0.97883712888E+01 -0.40101097997E+01  0.11050683734E+02  0.51100000000E-03 0.  1.
         12    1    3    3    0    0  0.12524119525E+01 -0.28030811777E+02 -0.25171961879E+02  0.37695127131E+02  0.00000000000E+00 0. -1.
</event>
<event>
 7    1  0.6285940E-013  0.5930189E+02  0.7816164E-02  0.1266605E+00
        -11   -1    0    0    0    0  0.00000000000E+00  0.00000000000E+00  0.45593999997E+02  0.45594000000E+02  0.51100000000E-03 0.  1.
         11   -1    0    0    0    0 -0.00000000000E+00 -0.00000000000E+00 -0.45593999997E+02  0.45594000000E+02  0.51100000000E-03 0. -1.
    9900012    2    1    2    0    0  0.12085987369E+02 -0.70937257933E+01 -0.28641438401E+02  0.59301889701E+02  0.49999900921E+02 0.  0.
        -12    1    1    2    0    0 -0.12085987369E+02  0.70937257933E+01  0.28641438401E+02  0.31886110299E+02  0.00000000000E+00 0.  1.
         11    1    3    3    0    0 -0.10429348958E+02 -0.17145728963E+02 -0.14366575156E+02  0.24680879712E+02  0.51100000000E-03 0. -1.
        -11    1    3    3    0    0 -0.24357194782E+01  0.53424200278E+01 -0.95780049215E+00  0.59490808680E+01  0.51100000000E-03 0.  1.
        -12    1    3    3    0    0  0.24951055805E+02  0.47095831416E+01 -0.13317062753E+02  0.28671929121E+02  0.00000000000E+00 0.  1.
</event>
<event>
 7    1  0.6285940E-013  0.5930197E+02  0.7816164E-02  0.1266605E+00
        -11   -1    0    0    0    0  0.00000000000E+00  0.00000000000E+00  0.45593999997E+02  0.45594000000E+02  0.51100000000E-03 0.  1.
         11   -1    0    0    0    0 -0.00000000000E+00 -0.00000000000E+00 -0.45593999997E+02  0.45594000000E+02  0.51100000000E-03 0. -1.
    9900012    2    1    2    0    0 -0.25678925528E+02 -0.61119230920E+01  0.17887309557E+02  0.59301973855E+02  0.50000054397E+02 0.  0.
        -12    1    1    2    0    0  0.25678925528E+02  0.61119230920E+01 -0.17887309557E+02  0.31886026145E+02  0.00000000000E+00 0.  1.
         11    1    3    3    0    0  0.35753785873E+01 -0.26618232792E+01 -0.77162245718E+01  0.89111591342E+01  0.51100000000E-03 0. -1.
        -11    1    3    3    0    0  0.60505452737E+01  0.40819455386E+01  0.45449037537E+01  0.85981118788E+01  0.51100000000E-03 0.  1.
         12    1    3    3    0    0 -0.35304849389E+02 -0.75320453514E+01  0.21058630375E+02  0.41792702842E+02  0.00000000000E+00 0. -1.
</event>
<event>
 7    1  0.6285940E-013  0.5930194E+02  0.7816164E-02  0.1266605E+00
        -11   -1    0    0    0    0  0.00000000000E+00  0.00000000000E+00  0.45593999997E+02  0.45594000000E+02  0.51100000000E-03 0.  1.
         11   -1    0    0    0    0 -0.00000000000E+00 -0.00000000000E+00 -0.45593999997E+02  0.45594000000E+02  0.51100000000E-03 0. -1.
    9900012    2    1    2    0    0  0.27478025732E+01 -0.31376894537E+02 -0.49659515409E+01  0.59301943416E+02  0.49999998885E+02 0.  0.
        -12    1    1    2    0    0 -0.27478025732E+01  0.31376894537E+02  0.49659515409E+01  0.31886056584E+02  0.00000000000E+00 0.  1.
         11    1    3    3    0    0 -0.92422935562E+01 -0.15500754699E+02 -0.54758695127E+01  0.18859441497E+02  0.51100000000E-03 0. -1.
        -11    1    3    3    0    0  0.12239999908E+02  0.91907982338E+01 -0.91541073791E+00  0.15333830148E+02  0.51100000000E-03 0.  1.
         12    1    3    3    0    0 -0.24990377827E+00 -0.25066938072E+02  0.14253287098E+01  0.25108671771E+02  0.00000000000E+00 0. -1.
</event>
<event>
 7    1  0.6285940E-013  0.5930194E+02  0.7816164E-02  0.1266605E+00
        -11   -1    0    0    0    0  0.00000000000E+00  0.00000000000E+00  0.45593999997E+02  0.45594000000E+02  0.51100000000E-03 0.  1.
         11   -1    0    0    0    0 -0.00000000000E+00 -0.00000000000E+00 -0.45593999997E+02  0.45594000000E+02  0.51100000000E-03 0. -1.
    9900012    2    1    2    0    0 -0.49356489863E+01  0.31490392149E+02  0.84565957765E+00  0.59301943977E+02  0.49999999907E+02 0.  0.
        -12    1    1    2    0    0  0.49356489863E+01 -0.31490392149E+02 -0.84565957765E+00  0.31886056023E+02  0.00000000000E+00 0.  1.
         11    1    3    3    0    0 -0.37143155691E+01 -0.88417773063E+01 -0.85002131310E+01  0.12815100063E+02  0.51100000000E-03 0. -1.
        -11    1    3    3    0    0  0.85073271194E+01  0.84273217248E+01  0.44472690796E+01  0.12773901859E+02  0.51100000000E-03 0.  1.
         12    1    3    3    0    0 -0.97286605366E+01  0.31904847730E+02  0.48986036291E+01  0.33712942055E+02  0.00000000000E+00 0. -1.
</event>
<event>
 7    1  0.6285940E-013  0.5930197E+02  0.7816164E-02  0.1266605E+00
        -11   -1    0    0    0    0  0.00000000000E+00  0.00000000000E+00  0.45593999997E+02  0.45594000000E+02  0.51100000000E-03 0.  1.
         11   -1    0    0    0    0 -0.00000000000E+00 -0.00000000000E+00 -0.45593999997E+02  0.45594000000E+02  0.51100000000E-03 0. -1.
    9900012    2    1    2    0    0 -0.90678331135E+01  0.46811161191E+01 -0.30208950620E+02  0.59301966332E+02  0.50000040678E+02 0.  0.
        -12    1    1    2    0    0  0.90678331135E+01 -0.46811161191E+01  0.30208950620E+02  0.31886033668E+02  0.00000000000E+00 0.  1.
         11    1    3    3    0    0 -0.33530926097E+01 -0.11920748716E+02 -0.48799747346E+01  0.13310207874E+02  0.51100000000E-03 0. -1.
        -11    1    3    3    0    0 -0.48046276182E+01 -0.21234782778E+01 -0.26683312899E+02  0.27195455393E+02  0.51100000000E-03 0.  1.
        -12    1    3    3    0    0 -0.91011288554E+00  0.18725343112E+02  0.13543370129E+01  0.18796303064E+02  0.00000000000E+00 0.  1.
</event>
<event>
 7    1  0.6285940E-013  0.5930196E+02  0.7816164E-02  0.1266605E+00
        -11   -1    0    0    0    0  0.00000000000E+00  0.00000000000E+00  0.45593999997E+02  0.45594000000E+02  0.51100000000E-03 0.  1.
         11   -1    0    0    0    0 -0.00000000000E+00 -0.00000000000E+00 -0.45593999997E+02  0.45594000000E+02  0.51100000000E-03 0. -1.
    9900012    2    1    2    0    0 -0.46788420688E+01 -0.28431340934E+02 -0.13656010053E+02  0.59301963543E+02  0.50000035591E+02 0.  0.
        -12    1    1    2    0    0  0.46788420688E+01  0.28431340934E+02  0.13656010053E+02  0.31886036457E+02  0.00000000000E+00 0.  1.
         11    1    3    3    0    0 -0.23918384069E+01 -0.72102333527E+01  0.28962223396E+01  0.81299729438E+01  0.51100000000E-03 0. -1.
        -11    1    3    3    0    0 -0.17919220755E+02 -0.56422374255E+00  0.36805056673E+01  0.18301992873E+02  0.51100000000E-03 0.  1.
         12    1    3    3    0    0  0.15632217093E+02 -0.20656883838E+02 -0.20232738060E+02  0.32869997726E+02  0.00000000000E+00 0. -1.
</event>
<event>
 7    1  0.6285940E-013  0.5930180E+02  0.7816164E-02  0.1266605E+00
        -11   -1    0    0    0    0  0.00000000000E+00  0.00000000000E+00  0.45593999997E+02  0.45594000000E+02  0.51100000000E-03 0.  1.
         11   -1    0    0    0    0 -0.00000000000E+00 -0.00000000000E+00 -0.45593999997E+02  0.45594000000E+02  0.51100000000E-03 0. -1.
    9900012    2    1    2    0    0  0.15884627940E+02 -0.20244456625E+02 -0.18830036360E+02  0.59301800820E+02  0.49999738822E+02 0.  0.
        -12    1    1    2    0    0 -0.15884627940E+02  0.20244456625E+02  0.18830036360E+02  0.31886199180E+02  0.00000000000E+00 0.  1.
         11    1    3    3    0    0  0.15651956079E+02  0.47128484953E+01 -0.25296324698E+02  0.30118079512E+02  0.51100000000E-03 0. -1.
        -11    1    3    3    0    0  0.21381983299E+01 -0.69828570586E+01 -0.39697899495E+01  0.83121247165E+01  0.51100000000E-03 0.  1.
        -12    1    3    3    0    0 -0.19055264683E+01 -0.17974448062E+02  0.10436078287E+02  0.20871596591E+02  0.00000000000E+00 0.  1.
</event>
<event>
 7    1  0.6285940E-013  0.5930201E+02  0.7816164E-02  0.1266605E+00
        -11   -1    0    0    0    0  0.00000000000E+00  0.00000000000E+00  0.45593999997E+02  0.45594000000E+02  0.51100000000E-03 0. -1.
         11   -1    0    0    0    0 -0.00000000000E+00 -0.00000000000E+00 -0.45593999997E+02  0.45594000000E+02  0.51100000000E-03 0.  1.
    9900012    2    1    2    0    0 -0.20273338432E+02 -0.20700312149E+02  0.13311841325E+02  0.59302011013E+02  0.50000122164E+02 0.  0.
        -12    1    1    2    0    0  0.20273338432E+02  0.20700312149E+02 -0.13311841325E+02  0.31885988987E+02  0.00000000000E+00 0.  1.
         11    1    3    3    0    0 -0.30989322062E+01 -0.15511143817E+02  0.23802265601E+01  0.15995763254E+02  0.51100000000E-03 0. -1.
        -11    1    3    3    0    0 -0.17720004775E+01 -0.29709283257E+01 -0.13722517305E+02  0.14151815511E+02  0.51100000000E-03 0.  1.
         12    1    3    3    0    0 -0.15402405748E+02 -0.22182400058E+01  0.24654132070E+02  0.29154432248E+02  0.00000000000E+00 0. -1.
</event>
<event>
 7    1  0.6285940E-013  0.5930197E+02  0.7816164E-02  0.1266605E+00
        -11   -1    0    0    0    0  0.00000000000E+00  0.00000000000E+00  0.45593999997E+02  0.45594000000E+02  0.51100000000E-03 0.  1.
         11   -1    0    0    0    0 -0.00000000000E+00 -0.00000000000E+00 -0.45593999997E+02  0.45594000000E+02  0.51100000000E-03 0. -1.
    9900012    2    1    2    0    0 -0.95436301196E+01 -0.12205072890E+02 -0.27868876529E+02  0.59301969217E+02  0.50000045939E+02 0.  0.
        -12    1    1    2    0    0  0.95436301196E+01  0.12205072890E+02  0.27868876529E+02  0.31886030783E+02  0.00000000000E+00 0.  1.
         11    1    3    3    0    0 -0.11835091027E+02 -0.34062855753E+01 -0.91151721731E+00  0.12349211511E+02  0.51100000000E-03 0. -1.
        -11    1    3    3    0    0  0.26657806154E+01  0.33508489087E+00  0.92380357921E+01  0.96208094114E+01  0.51100000000E-03 0.  1.
        -12    1    3    3    0    0 -0.37431970765E+00 -0.91338722055E+01 -0.36195395104E+02  0.37331948294E+02  0.00000000000E+00 0.  1.
</event>
<event>
 7    1  0.6285940E-013  0.5930195E+02  0.7816164E-02  0.1266605E+00
        -11   -1    0    0    0    0  0.00000000000E+00  0.00000000000E+00  0.45593999997E+02  0.45594000000E+02  0.51100000000E-03 0.  1.
         11   -1    0    0    0    0 -0.00000000000E+00 -0.00000000000E+00 -0.45593999997E+02  0.45594000000E+02  0.51100000000E-03 0. -1.
    9900012    2    1    2    0    0  0.90194675879E+01  0.29791441863E+02  0.69166000030E+01  0.59301950395E+02  0.50000011612E+02 0.  0.
        -12    1    1    2    0    0 -0.90194675879E+01 -0.29791441863E+02 -0.69166000030E+01  0.31886049605E+02  0.00000000000E+00 0.  1.
         11    1    3    3    0    0  0.38544558478E+01  0.15092397488E+02 -0.13843468096E+02  0.20839359419E+02  0.51100000000E-03 0. -1.
        -11    1    3    3    0    0  0.12939764819E+02  0.11461227422E+02  0.13908882007E+01  0.17341620969E+02  0.51100000000E-03 0.  1.
        -12    1    3    3    0    0 -0.77747530789E+01  0.32378169529E+01  0.19369179899E+02  0.21120970006E+02  0.00000000000E+00 0.  1.
</event>
<event>
 7    1  0.6285940E-013  0.5930190E+02  0.7816164E-02  0.1266605E+00
        -11   -1    0    0    0    0  0.00000000000E+00  0.00000000000E+00  0.45593999997E+02  0.45594000000E+02  0.51100000000E-03 0.  1.
         11   -1    0    0    0    0 -0.00000000000E+00 -0.00000000000E+00 -0.45593999997E+02  0.45594000000E+02  0.51100000000E-03 0. -1.
    9900012    2    1    2    0    0  0.18646771096E+02  0.10041063070E+02 -0.23836907014E+02  0.59301903408E+02  0.49999925920E+02 0.  0.
        -12    1    1    2    0    0 -0.18646771096E+02 -0.10041063070E+02  0.23836907014E+02  0.31886096592E+02  0.00000000000E+00 0.  1.
         11    1    3    3    0    0  0.10710028023E+01  0.11889192025E+02 -0.51942500646E+01  0.13018454901E+02  0.51100000000E-03 0. -1.
        -11    1    3    3    0    0 -0.59828376332E+01 -0.69703831594E+00  0.84404663681E+01  0.10369266191E+02  0.51100000000E-03 0.  1.
         12    1    3    3    0    0  0.23558605927E+02 -0.11510906390E+01 -0.27083123317E+02  0.35914182317E+02  0.00000000000E+00 0. -1.
</event>
<event>
 7    1  0.6285940E-013  0.5930193E+02  0.7816164E-02  0.1266605E+00
        -11   -1    0    0    0    0  0.00000000000E+00  0.00000000000E+00  0.45593999997E+02  0.45594000000E+02  0.51100000000E-03 0. -1.
         11   -1    0    0    0    0 -0.00000000000E+00 -0.00000000000E+00 -0.45593999997E+02  0.45594000000E+02  0.51100000000E-03 0.  1.
    9900012    2    1    2    0    0 -0.21646900569E+02 -0.21189116391E+02 -0.99576332917E+01  0.59301930653E+02  0.49999975607E+02 0.  0.
        -12    1    1    2    0    0  0.21646900569E+02  0.21189116391E+02  0.99576332917E+01  0.31886069347E+02  0.00000000000E+00 0.  1.
         11    1    3    3    0    0 -0.33652921988E+00 -0.50063514199E+01  0.75549647522E+01  0.90694155889E+01  0.51100000000E-03 0. -1.
        -11    1    3    3    0    0 -0.87365176350E+01 -0.26075893038E+02 -0.14155943600E+01  0.27536936028E+02  0.51100000000E-03 0.  1.
        -12    1    3    3    0    0 -0.12573853714E+02  0.98931280677E+01 -0.16097003684E+02  0.22695579036E+02  0.00000000000E+00 0.  1.
</event>
<event>
 7    1  0.6285940E-013  0.5930195E+02  0.7816164E-02  0.1266605E+00
        -11   -1    0    0    0    0  0.00000000000E+00  0.00000000000E+00  0.45593999997E+02  0.45594000000E+02  0.51100000000E-03 0.  1.
         11   -1    0    0    0    0 -0.00000000000E+00 -0.00000000000E+00 -0.45593999997E+02  0.45594000000E+02  0.51100000000E-03 0. -1.
    9900012    2    1    2    0    0 -0.74614910845E+01 -0.76579413818E+01 -0.30040015601E+02  0.59301945796E+02  0.50000003224E+02 0.  0.
        -12    1    1    2    0    0  0.74614910845E+01  0.76579413818E+01  0.30040015601E+02  0.31886054204E+02  0.00000000000E+00 0.  1.
         11    1    3    3    0    0 -0.49986725786E+01  0.10657833716E+02  0.16186517535E+01  0.11882599919E+02  0.51100000000E-03 0. -1.
        -11    1    3    3    0    0 -0.51942713421E+01 -0.11165322187E+02  0.23700056133E+01  0.12540406739E+02  0.51100000000E-03 0.  1.
         12    1    3    3    0    0  0.27314528362E+01 -0.71504529105E+01 -0.34028672968E+02  0.34878939138E+02  0.00000000000E+00 0. -1.
</event>
<event>
 7    1  0.6285940E-013  0.5930199E+02  0.7816164E-02  0.1266605E+00
        -11   -1    0    0    0    0  0.00000000000E+00  0.00000000000E+00  0.45593999997E+02  0.45594000000E+02  0.51100000000E-03 0. -1.
         11   -1    0    0    0    0 -0.00000000000E+00 -0.00000000000E+00 -0.45593999997E+02  0.45594000000E+02  0.51100000000E-03 0.  1.
    9900012    2    1    2    0    0 -0.77947283945E+01  0.30295088583E+01  0.30769825651E+02  0.59301986055E+02  0.50000076648E+02 0.  0.
        -12    1    1    2    0    0  0.77947283945E+01 -0.30295088583E+01 -0.30769825651E+02  0.31886013945E+02  0.00000000000E+00 0.  1.
         11    1    3    3    0    0  0.10814133815E+01  0.52160746981E+01  0.11169336058E+01  0.54428330030E+01  0.51100000000E-03 0. -1.
        -11    1    3    3    0    0 -0.93872070601E+01 -0.18138675993E+01 -0.10212086980E+02  0.13989156258E+02  0.51100000000E-03 0.  1.
         12    1    3    3    0    0  0.51106528408E+00 -0.37269824039E+00  0.39864979025E+02  0.39869996795E+02  0.00000000000E+00 0. -1.
</event>
<event>
 7    1  0.6285940E-013  0.5930199E+02  0.7816164E-02  0.1266605E+00
        -11   -1    0    0    0    0  0.00000000000E+00  0.00000000000E+00  0.45593999997E+02  0.45594000000E+02  0.51100000000E-03 0.  1.
         11   -1    0    0    0    0 -0.00000000000E+00 -0.00000000000E+00 -0.45593999997E+02  0.45594000000E+02  0.51100000000E-03 0. -1.
    9900012    2    1    2    0    0 -0.12125134059E+02  0.26037655739E+02  0.13846994763E+02  0.59301989646E+02  0.50000083198E+02 0.  0.
        -12    1    1    2    0    0  0.12125134059E+02 -0.26037655739E+02 -0.13846994763E+02  0.31886010354E+02  0.00000000000E+00 0.  1.
         11    1    3    3    0    0  0.11390922802E+02 -0.25925308994E+01  0.32702652248E+01  0.12131322008E+02  0.51100000000E-03 0. -1.
        -11    1    3    3    0    0 -0.93094623940E+01 -0.39727413157E+01  0.45604904144E+01  0.11101659187E+02  0.51100000000E-03 0.  1.
        -12    1    3    3    0    0 -0.14206594467E+02  0.32602927954E+02  0.60162391235E+01  0.36069008452E+02  0.00000000000E+00 0.  1.
</event>
<event>
 7    1  0.6285940E-013  0.5930195E+02  0.7816164E-02  0.1266605E+00
        -11   -1    0    0    0    0  0.00000000000E+00  0.00000000000E+00  0.45593999997E+02  0.45594000000E+02  0.51100000000E-03 0. -1.
         11   -1    0    0    0    0 -0.00000000000E+00 -0.00000000000E+00 -0.45593999997E+02  0.45594000000E+02  0.51100000000E-03 0.  1.
    9900012    2    1    2    0    0  0.27132885112E+02  0.33766644644E+01  0.16405032820E+02  0.59301946321E+02  0.50000004182E+02 0.  0.
        -12    1    1    2    0    0 -0.27132885112E+02 -0.33766644644E+01 -0.16405032820E+02  0.31886053679E+02  0.00000000000E+00 0.  1.
         11    1    3    3    0    0  0.10851783618E+02 -0.90305330541E+01  0.73159630162E+01  0.15900787718E+02  0.51100000000E-03 0. -1.
        -11    1    3    3    0    0  0.21884487187E+02 -0.34088331482E+01 -0.35013978277E+01  0.22423441080E+02  0.51100000000E-03 0.  1.
        -12    1    3    3    0    0 -0.56033856929E+01  0.15816030667E+02  0.12590467632E+02  0.20977717523E+02  0.00000000000E+00 0.  1.
</event>
<event>
 7    1  0.6285940E-013  0.5930198E+02  0.7816164E-02  0.1266605E+00
        -11   -1    0    0    0    0  0.00000000000E+00  0.00000000000E+00  0.45593999997E+02  0.45594000000E+02  0.51100000000E-03 0. -1.
         11   -1    0    0    0    0 -0.00000000000E+00 -0.00000000000E+00 -0.45593999997E+02  0.45594000000E+02  0.51100000000E-03 0.  1.
    9900012    2    1    2    0    0  0.77993115959E+01  0.13197480350E+02  0.27959178472E+02  0.59301977831E+02  0.50000061648E+02 0.  0.
        -12    1    1    2    0    0 -0.77993115959E+01 -0.13197480350E+02 -0.27959178472E+02  0.31886022169E+02  0.00000000000E+00 0.  1.
         11    1    3    3    0    0 -0.67748538176E-01  0.17589374467E+02  0.11136431638E+02  0.20818520454E+02  0.51100000000E-03 0. -1.
        -11    1    3    3    0    0  0.20645065019E+02 -0.62289807502E+01  0.12168570101E+02  0.24760715042E+02  0.51100000000E-03 0.  1.
         12    1    3    3    0    0 -0.12778004885E+02  0.18370866333E+01  0.46541767326E+01  0.13722742335E+02  0.00000000000E+00 0. -1.
</event>
<event>
 7    1  0.6285940E-013  0.5930195E+02  0.7816164E-02  0.1266605E+00
        -11   -1    0    0    0    0  0.00000000000E+00  0.00000000000E+00  0.45593999997E+02  0.45594000000E+02  0.51100000000E-03 0.  1.
         11   -1    0    0    0    0 -0.00000000000E+00 -0.00000000000E+00 -0.45593999997E+02  0.45594000000E+02  0.51100000000E-03 0. -1.
    9900012    2    1    2    0    0  0.61647117126E+00  0.53806997557E+01 -0.31422736424E+02  0.59301947705E+02  0.50000006707E+02 0.  0.
        -12    1    1    2    0    0 -0.61647117126E+00 -0.53806997557E+01  0.31422736424E+02  0.31886052295E+02  0.00000000000E+00 0.  1.
         11    1    3    3    0    0  0.17626117633E+02  0.62747789086E+01 -0.52014270602E+01  0.19419261491E+02  0.51100000000E-03 0. -1.
        -11    1    3    3    0    0  0.23321533920E+01  0.37165379673E+01 -0.17724628807E+02  0.18259629254E+02  0.51100000000E-03 0.  1.
        -12    1    3    3    0    0 -0.19341799853E+02 -0.46106171202E+01 -0.84966805569E+01  0.21623056960E+02  0.00000000000E+00 0.  1.
</event>
<event>
 7    1  0.6285940E-013  0.5930200E+02  0.7816164E-02  0.1266605E+00
        -11   -1    0    0    0    0  0.00000000000E+00  0.00000000000E+00  0.45593999997E+02  0.45594000000E+02  0.51100000000E-03 0.  1.
         11   -1    0    0    0    0 -0.00000000000E+00 -0.00000000000E+00 -0.45593999997E+02  0.45594000000E+02  0.51100000000E-03 0. -1.
    9900012    2    1    2    0    0 -0.24864572513E+02 -0.74825031334E+01 -0.18506266511E+02  0.59302004334E+02  0.50000109984E+02 0.  0.
        -12    1    1    2    0    0  0.24864572513E+02  0.74825031334E+01  0.18506266511E+02  0.31885995666E+02  0.00000000000E+00 0.  1.
         11    1    3    3    0    0 -0.93878834618E+01 -0.87765293500E+01 -0.52525943286E+01  0.13883427918E+02  0.51100000000E-03 0. -1.
        -11    1    3    3    0    0 -0.87591603735E+01 -0.11280373441E+02  0.10492374109E+02  0.17721727628E+02  0.51100000000E-03 0.  1.
        -12    1    3    3    0    0 -0.67175286779E+01  0.12574399658E+02 -0.23746046292E+02  0.27696848788E+02  0.00000000000E+00 0.  1.
</event>
<event>
 7    1  0.6285940E-013  0.5930196E+02  0.7816164E-02  0.1266605E+00
        -11   -1    0    0    0    0  0.00000000000E+00  0.00000000000E+00  0.45593999997E+02  0.45594000000E+02  0.51100000000E-03 0. -1.
         11   -1    0    0    0    0 -0.00000000000E+00 -0.00000000000E+00 -0.45593999997E+02  0.45594000000E+02  0.51100000000E-03 0.  1.
    9900012    2    1    2    0    0 -0.16628606826E+02 -0.23435070760E+02  0.13820517258E+02  0.59301955971E+02  0.50000021782E+02 0.  0.
        -12    1    1    2    0    0  0.16628606826E+02  0.23435070760E+02 -0.13820517258E+02  0.31886044029E+02  0.00000000000E+00 0.  1.
         11    1    3    3    0    0  0.35764007896E+01  0.62814165698E+01 -0.77595481733E+01  0.10604594516E+02  0.51100000000E-03 0. -1.
        -11    1    3    3    0    0  0.55743750404E+01 -0.86389324656E+01  0.63159778580E+01  0.12066332823E+02  0.51100000000E-03 0.  1.
         12    1    3    3    0    0 -0.25779382656E+02 -0.21077554864E+02  0.15264087574E+02  0.36631028632E+02  0.00000000000E+00 0. -1.
</event>
<event>
 7    1  0.6285940E-013  0.5930195E+02  0.7816164E-02  0.1266605E+00
        -11   -1    0    0    0    0  0.00000000000E+00  0.00000000000E+00  0.45593999997E+02  0.45594000000E+02  0.51100000000E-03 0. -1.
         11   -1    0    0    0    0 -0.00000000000E+00 -0.00000000000E+00 -0.45593999997E+02  0.45594000000E+02  0.51100000000E-03 0.  1.
    9900012    2    1    2    0    0 -0.41220845761E+01 -0.16561880804E+02  0.26933863930E+02  0.59301945004E+02  0.50000001781E+02 0.  0.
        -12    1    1    2    0    0  0.41220845761E+01  0.16561880804E+02 -0.26933863930E+02  0.31886054996E+02  0.00000000000E+00 0.  1.
         11    1    3    3    0    0 -0.41160137126E+01  0.40660009113E+01 -0.63394861453E+01  0.85827161866E+01  0.51100000000E-03 0. -1.
        -11    1    3    3    0    0  0.41188608640E+01  0.76154263403E+01  0.13345936414E+02  0.15908291932E+02  0.51100000000E-03 0.  1.
         12    1    3    3    0    0 -0.41249317274E+01 -0.28243308055E+02  0.19927413661E+02  0.34810936886E+02  0.00000000000E+00 0. -1.
</event>
<event>
 7    1  0.6285940E-013  0.5930188E+02  0.7816164E-02  0.1266605E+00
        -11   -1    0    0    0    0  0.00000000000E+00  0.00000000000E+00  0.45593999997E+02  0.45594000000E+02  0.51100000000E-03 0.  1.
         11   -1    0    0    0    0 -0.00000000000E+00 -0.00000000000E+00 -0.45593999997E+02  0.45594000000E+02  0.51100000000E-03 0. -1.
    9900012    2    1    2    0    0  0.54800688309E+01  0.31004713992E+02 -0.50399661131E+01  0.59301879155E+02  0.49999881687E+02 0.  0.
        -12    1    1    2    0    0 -0.54800688309E+01 -0.31004713992E+02  0.50399661131E+01  0.31886120845E+02  0.00000000000E+00 0.  1.
         11    1    3    3    0    0  0.70297118615E+01  0.27257269968E+01 -0.10977160163E+02  0.13317074829E+02  0.51100000000E-03 0. -1.
        -11    1    3    3    0    0  0.97571448451E+01  0.31068786346E+02  0.92933218774E+01  0.33864984753E+02  0.51100000000E-03 0.  1.
         12    1    3    3    0    0 -0.11306787876E+02 -0.27897993500E+01 -0.33561278280E+01  0.12119819573E+02  0.00000000000E+00 0. -1.
</event>
<event>
 7    1  0.6285940E-013  0.5930194E+02  0.7816164E-02  0.1266605E+00
        -11   -1    0    0    0    0  0.00000000000E+00  0.00000000000E+00  0.45593999997E+02  0.45594000000E+02  0.51100000000E-03 0.  1.
         11   -1    0    0    0    0 -0.00000000000E+00 -0.00000000000E+00 -0.45593999997E+02  0.45594000000E+02  0.51100000000E-03 0. -1.
    9900012    2    1    2    0    0  0.23296360028E+02  0.66768694000E+01 -0.20722447403E+02  0.59301940320E+02  0.49999993237E+02 0.  0.
        -12    1    1    2    0    0 -0.23296360028E+02 -0.66768694000E+01  0.20722447403E+02  0.31886059680E+02  0.00000000000E+00 0.  1.
         11    1    3    3    0    0 -0.38267058906E+01  0.32063028967E+01 -0.61009976742E+01  0.78832879638E+01  0.51100000000E-03 0. -1.
        -11    1    3    3    0    0  0.13122406314E+02  0.16836883321E+02 -0.22045826038E+02  0.30687075999E+02  0.51100000000E-03 0.  1.
        -12    1    3    3    0    0  0.14000659605E+02 -0.13366316818E+02  0.74243763088E+01  0.20731576356E+02  0.00000000000E+00 0.  1.
</event>
<event>
 7    1  0.6285940E-013  0.5930195E+02  0.7816164E-02  0.1266605E+00
        -11   -1    0    0    0    0  0.00000000000E+00  0.00000000000E+00  0.45593999997E+02  0.45594000000E+02  0.51100000000E-03 0.  1.
         11   -1    0    0    0    0 -0.00000000000E+00 -0.00000000000E+00 -0.45593999997E+02  0.45594000000E+02  0.51100000000E-03 0. -1.
    9900012    2    1    2    0    0 -0.11169506460E+02 -0.21262218388E+02 -0.20973329154E+02  0.59301947545E+02  0.50000006416E+02 0.  0.
        -12    1    1    2    0    0  0.11169506460E+02  0.21262218388E+02  0.20973329154E+02  0.31886052455E+02  0.00000000000E+00 0.  1.
         11    1    3    3    0    0  0.20057453303E+01  0.14937827751E+01 -0.72778226695E+01  0.76955249580E+01  0.51100000000E-03 0.  1.
        -11    1    3    3    0    0  0.14730407295E+02 -0.10729077063E+02 -0.10549818644E+02  0.21056986189E+02  0.51100000000E-03 0. -1.
        -12    1    3    3    0    0 -0.27905659085E+02 -0.12026924100E+02 -0.31456878408E+01  0.30549436399E+02  0.00000000000E+00 0.  1.
</event>
<event>
 7    1  0.6285940E-013  0.5930193E+02  0.7816164E-02  0.1266605E+00
        -11   -1    0    0    0    0  0.00000000000E+00  0.00000000000E+00  0.45593999997E+02  0.45594000000E+02  0.51100000000E-03 0.  1.
         11   -1    0    0    0    0 -0.00000000000E+00 -0.00000000000E+00 -0.45593999997E+02  0.45594000000E+02  0.51100000000E-03 0. -1.
    9900012    2    1    2    0    0 -0.19495184020E+02  0.32753254985E+01 -0.25018622555E+02  0.59301930445E+02  0.49999975229E+02 0.  0.
        -12    1    1    2    0    0  0.19495184020E+02 -0.32753254985E+01  0.25018622555E+02  0.31886069555E+02  0.00000000000E+00 0.  1.
         11    1    3    3    0    0 -0.18786173165E-01  0.63042000107E+01  0.54667818527E+01  0.83443990066E+01  0.51100000000E-03 0. -1.
        -11    1    3    3    0    0  0.53844789940E+01 -0.10791252420E+02 -0.17680247524E+01  0.12188915235E+02  0.51100000000E-03 0.  1.
         12    1    3    3    0    0 -0.24860876841E+02  0.77623779078E+01 -0.28717379655E+02  0.38768616203E+02  0.00000000000E+00 0. -1.
</event>
<event>
 7    1  0.6285940E-013  0.5930198E+02  0.7816164E-02  0.1266605E+00
        -11   -1    0    0    0    0  0.00000000000E+00  0.00000000000E+00  0.45593999997E+02  0.45594000000E+02  0.51100000000E-03 0.  1.
         11   -1    0    0    0    0 -0.00000000000E+00 -0.00000000000E+00 -0.45593999997E+02  0.45594000000E+02  0.51100000000E-03 0. -1.
    9900012    2    1    2    0    0  0.21201514797E+02 -0.19713598180E+02 -0.13363687544E+02  0.59301979119E+02  0.50000063997E+02 0.  0.
        -12    1    1    2    0    0 -0.21201514797E+02  0.19713598180E+02  0.13363687544E+02  0.31886020881E+02  0.00000000000E+00 0.  1.
         11    1    3    3    0    0 -0.29486338794E+01 -0.23870421838E+01  0.56631992823E+01  0.68164681848E+01  0.51100000000E-03 0.  1.
        -11    1    3    3    0    0  0.34425059134E+02 -0.13664302903E+02 -0.18889526845E+02  0.41576581087E+02  0.51100000000E-03 0. -1.
         12    1    3    3    0    0 -0.10274910458E+02 -0.36622530928E+01 -0.13735998104E+00  0.10908929847E+02  0.00000000000E+00 0. -1.
</event>
<event>
 7    1  0.6285940E-013  0.5930195E+02  0.7816164E-02  0.1266605E+00
        -11   -1    0    0    0    0  0.00000000000E+00  0.00000000000E+00  0.45593999997E+02  0.45594000000E+02  0.51100000000E-03 0. -1.
         11   -1    0    0    0    0 -0.00000000000E+00 -0.00000000000E+00 -0.45593999997E+02  0.45594000000E+02  0.51100000000E-03 0.  1.
    9900012    2    1    2    0    0 -0.17947051032E+02  0.26347092487E+02  0.67380742516E+00  0.59301953840E+02  0.50000017895E+02 0.  0.
        -12    1    1    2    0    0  0.17947051032E+02 -0.26347092487E+02 -0.67380742516E+00  0.31886046160E+02  0.00000000000E+00 0.  1.
         11    1    3    3    0    0  0.15656109092E+00  0.13180029893E+02  0.90717688412E+01  0.16001084011E+02  0.51100000000E-03 0. -1.
        -11    1    3    3    0    0  0.29743819743E+00 -0.25441405309E+01 -0.17323034240E+02  0.17511385898E+02  0.51100000000E-03 0.  1.
         12    1    3    3    0    0 -0.18401050320E+02  0.15711203126E+02  0.89250728242E+01  0.25789483931E+02  0.00000000000E+00 0. -1.
</event>
<event>
 7    1  0.6285940E-013  0.5930193E+02  0.7816164E-02  0.1266605E+00
        -11   -1    0    0    0    0  0.00000000000E+00  0.00000000000E+00  0.45593999997E+02  0.45594000000E+02  0.51100000000E-03 0.  1.
         11   -1    0    0    0    0 -0.00000000000E+00 -0.00000000000E+00 -0.45593999997E+02  0.45594000000E+02  0.51100000000E-03 0. -1.
    9900012    2    1    2    0    0  0.16197559258E+02  0.15391297609E+02 -0.22747927610E+02  0.59301934414E+02  0.49999982467E+02 0.  0.
        -12    1    1    2    0    0 -0.16197559258E+02 -0.15391297609E+02  0.22747927610E+02  0.31886065586E+02  0.00000000000E+00 0.  1.
         11    1    3    3    0    0  0.37753248433E+01  0.15957881617E+02 -0.67774139136E+01  0.17743742643E+02  0.51100000000E-03 0. -1.
        -11    1    3    3    0    0  0.96998852060E+01 -0.14523523425E+01  0.10826570678E+02  0.14608618458E+02  0.51100000000E-03 0.  1.
         12    1    3    3    0    0  0.27223492091E+01  0.88576833451E+00 -0.26797084375E+02  0.26949573313E+02  0.00000000000E+00 0. -1.
</event>
<event>
 7    1  0.6285940E-013  0.5930194E+02  0.7816164E-02  0.1266605E+00
        -11   -1    0    0    0    0  0.00000000000E+00  0.00000000000E+00  0.45593999997E+02  0.45594000000E+02  0.51100000000E-03 0.  1.
         11   -1    0    0    0    0 -0.00000000000E+00 -0.00000000000E+00 -0.45593999997E+02  0.45594000000E+02  0.51100000000E-03 0. -1.
    9900012    2    1    2    0    0  0.23076065595E+02  0.52214921588E+01 -0.21376432885E+02  0.59301942442E+02  0.49999997108E+02 0.  0.
        -12    1    1    2    0    0 -0.23076065595E+02 -0.52214921588E+01  0.21376432885E+02  0.31886057558E+02  0.00000000000E+00 0.  1.
         11    1    3    3    0    0  0.96695032253E+00 -0.91818209199E+01 -0.62820523581E+01  0.11167139760E+02  0.51100000000E-03 0. -1.
        -11    1    3    3    0    0  0.55195273779E+01  0.15922305632E+02  0.87962827342E+01  0.19009460522E+02  0.51100000000E-03 0.  1.
        -12    1    3    3    0    0  0.16589587895E+02 -0.15189925535E+01 -0.23890663261E+02  0.29125342160E+02  0.00000000000E+00 0.  1.
</event>
<event>
 7    1  0.6285940E-013  0.5930192E+02  0.7816164E-02  0.1266605E+00
        -11   -1    0    0    0    0  0.00000000000E+00  0.00000000000E+00  0.45593999997E+02  0.45594000000E+02  0.51100000000E-03 0. -1.
         11   -1    0    0    0    0 -0.00000000000E+00 -0.00000000000E+00 -0.45593999997E+02  0.45594000000E+02  0.51100000000E-03 0.  1.
    9900012    2    1    2    0    0 -0.35270254954E+01  0.30280114874E+02 -0.93486350829E+01  0.59301917714E+02  0.49999952010E+02 0.  0.
        -12    1    1    2    0    0  0.35270254954E+01 -0.30280114874E+02  0.93486350829E+01  0.31886082286E+02  0.00000000000E+00 0.  1.
         11    1    3    3    0    0  0.24304725075E+01  0.17397607617E+02 -0.42788032075E+01  0.18080157758E+02  0.51100000000E-03 0. -1.
        -11    1    3    3    0    0 -0.15145782266E+02  0.17041402683E+02 -0.14820893036E+02  0.27193068905E+02  0.51100000000E-03 0.  1.
         12    1    3    3    0    0  0.91882842626E+01 -0.41588954252E+01  0.97510611611E+01  0.14028691051E+02  0.00000000000E+00 0. -1.
</event>
<event>
 7    1  0.6285940E-013  0.5930196E+02  0.7816164E-02  0.1266605E+00
        -11   -1    0    0    0    0  0.00000000000E+00  0.00000000000E+00  0.45593999997E+02  0.45594000000E+02  0.51100000000E-03 0.  1.
         11   -1    0    0    0    0 -0.00000000000E+00 -0.00000000000E+00 -0.45593999997E+02  0.45594000000E+02  0.51100000000E-03 0. -1.
    9900012    2    1    2    0    0 -0.99099755986E+01 -0.27326587634E+02 -0.13106081450E+02  0.59301962631E+02  0.50000033928E+02 0.  0.
        -12    1    1    2    0    0  0.99099755986E+01  0.27326587634E+02  0.13106081450E+02  0.31886037369E+02  0.00000000000E+00 0.  1.
         11    1    3    3    0    0  0.27186139664E+01  0.43969058486E+01 -0.11712644394E+01  0.53005191810E+01  0.51100000000E-03 0. -1.
        -11    1    3    3    0    0 -0.70725666983E+01  0.55415841510E+01  0.74118684985E+01  0.11647581273E+02  0.51100000000E-03 0.  1.
         12    1    3    3    0    0 -0.55560228667E+01 -0.37265077634E+02 -0.19346685510E+02  0.42353862178E+02  0.00000000000E+00 0. -1.
</event>
<event>
 7    1  0.6285940E-013  0.5930196E+02  0.7816164E-02  0.1266605E+00
        -11   -1    0    0    0    0  0.00000000000E+00  0.00000000000E+00  0.45593999997E+02  0.45594000000E+02  0.51100000000E-03 0. -1.
         11   -1    0    0    0    0 -0.00000000000E+00 -0.00000000000E+00 -0.45593999997E+02  0.45594000000E+02  0.51100000000E-03 0.  1.
    9900012    2    1    2    0    0 -0.12911688908E+02 -0.18150305127E+01 -0.29098347337E+02  0.59301955028E+02  0.50000020061E+02 0.  0.
        -12    1    1    2    0    0  0.12911688908E+02  0.18150305127E+01  0.29098347337E+02  0.31886044972E+02  0.00000000000E+00 0.  1.
         11    1    3    3    0    0 -0.47827767608E+01 -0.13152052496E+02  0.30086367430E+01  0.14314444932E+02  0.51100000000E-03 0. -1.
        -11    1    3    3    0    0  0.71445849497E+01 -0.11121785778E+01 -0.21343476766E+02  0.22534995807E+02  0.51100000000E-03 0.  1.
         12    1    3    3    0    0 -0.15273497097E+02  0.12449200561E+02 -0.10763507314E+02  0.22452514289E+02  0.00000000000E+00 0. -1.
</event>
<event>
 7    1  0.6285940E-013  0.5930199E+02  0.7816164E-02  0.1266605E+00
        -11   -1    0    0    0    0  0.00000000000E+00  0.00000000000E+00  0.45593999997E+02  0.45594000000E+02  0.51100000000E-03 0.  1.
         11   -1    0    0    0    0 -0.00000000000E+00 -0.00000000000E+00 -0.45593999997E+02  0.45594000000E+02  0.51100000000E-03 0. -1.
    9900012    2    1    2    0    0  0.23937993718E+02  0.12599291243E+02 -0.16880410529E+02  0.59301985155E+02  0.50000075005E+02 0.  0.
        -12    1    1    2    0    0 -0.23937993718E+02 -0.12599291243E+02  0.16880410529E+02  0.31886014845E+02  0.00000000000E+00 0.  1.
         11    1    3    3    0    0 -0.14070558569E+01  0.10655666051E+01  0.57018316266E+01  0.59687622279E+01  0.51100000000E-03 0.  1.
        -11    1    3    3    0    0  0.12939186418E+02  0.25242373222E+02 -0.19902650876E+02  0.34651341434E+02  0.51100000000E-03 0. -1.
         12    1    3    3    0    0  0.12405863157E+02 -0.13708648584E+02 -0.26795912797E+01  0.18681881492E+02  0.00000000000E+00 0. -1.
</event>
<event>
 7    1  0.6285940E-013  0.5930195E+02  0.7816164E-02  0.1266605E+00
        -11   -1    0    0    0    0  0.00000000000E+00  0.00000000000E+00  0.45593999997E+02  0.45594000000E+02  0.51100000000E-03 0. -1.
         11   -1    0    0    0    0 -0.00000000000E+00 -0.00000000000E+00 -0.45593999997E+02  0.45594000000E+02  0.51100000000E-03 0.  1.
    9900012    2    1    2    0    0  0.16700531147E+02 -0.12834945841E+01  0.27132362322E+02  0.59301950008E+02  0.50000010907E+02 0.  0.
        -12    1    1    2    0    0 -0.16700531147E+02  0.12834945841E+01 -0.27132362322E+02  0.31886049992E+02  0.00000000000E+00 0.  1.
         11    1    3    3    0    0 -0.37143746044E+01 -0.72409206481E+00  0.15022116090E+00  0.37872753634E+01  0.51100000000E-03 0. -1.
        -11    1    3    3    0    0  0.16227225797E+01 -0.20738916356E+02  0.95304067608E+01  0.22881532586E+02  0.51100000000E-03 0.  1.
        -12    1    3    3    0    0  0.18792183171E+02  0.20179513837E+02  0.17451734400E+02  0.32633142059E+02  0.00000000000E+00 0.  1.
</event>
<event>
 7    1  0.6285940E-013  0.5930195E+02  0.7816164E-02  0.1266605E+00
        -11   -1    0    0    0    0  0.00000000000E+00  0.00000000000E+00  0.45593999997E+02  0.45594000000E+02  0.51100000000E-03 0.  1.
         11   -1    0    0    0    0 -0.00000000000E+00 -0.00000000000E+00 -0.45593999997E+02  0.45594000000E+02  0.51100000000E-03 0. -1.
    9900012    2    1    2    0    0 -0.11923523734E+02  0.38042628056E+01 -0.29327074959E+02  0.59301950396E+02  0.50000011614E+02 0.  0.
        -12    1    1    2    0    0  0.11923523734E+02 -0.38042628056E+01  0.29327074959E+02  0.31886049604E+02  0.00000000000E+00 0.  1.
         11    1    3    3    0    0  0.42057675480E+01  0.12118907502E+02 -0.78317761465E+01  0.15029741102E+02  0.51100000000E-03 0. -1.
        -11    1    3    3    0    0  0.10240691739E+02 -0.14954429200E+01 -0.14427103734E+01  0.10449379422E+02  0.51100000000E-03 0.  1.
         12    1    3    3    0    0 -0.26369983022E+02 -0.68192017765E+01 -0.20052588439E+02  0.33822829872E+02  0.00000000000E+00 0. -1.
</event>
<event>
 7    1  0.6285940E-013  0.5930195E+02  0.7816164E-02  0.1266605E+00
        -11   -1    0    0    0    0  0.00000000000E+00  0.00000000000E+00  0.45593999997E+02  0.45594000000E+02  0.51100000000E-03 0. -1.
         11   -1    0    0    0    0 -0.00000000000E+00 -0.00000000000E+00 -0.45593999997E+02  0.45594000000E+02  0.51100000000E-03 0.  1.
    9900012    2    1    2    0    0 -0.92428315039E+01  0.27004650426E+02  0.14214045812E+02  0.59301950116E+02  0.50000011104E+02 0.  0.
        -12    1    1    2    0    0  0.92428315039E+01 -0.27004650426E+02 -0.14214045812E+02  0.31886049884E+02  0.00000000000E+00 0.  1.
         11    1    3    3    0    0 -0.46935485555E+01 -0.58874060636E+01  0.18404474427E+01  0.77510125307E+01  0.51100000000E-03 0. -1.
        -11    1    3    3    0    0  0.69783533369E+01  0.32231226846E+02  0.19177606689E+02  0.38148787633E+02  0.51100000000E-03 0.  1.
         12    1    3    3    0    0 -0.11527636285E+02  0.66082964385E+00 -0.68040083195E+01  0.13402149953E+02  0.00000000000E+00 0. -1.
</event>
<event>
 7    1  0.6285940E-013  0.5930196E+02  0.7816164E-02  0.1266605E+00
        -11   -1    0    0    0    0  0.00000000000E+00  0.00000000000E+00  0.45593999997E+02  0.45594000000E+02  0.51100000000E-03 0.  1.
         11   -1    0    0    0    0 -0.00000000000E+00 -0.00000000000E+00 -0.45593999997E+02  0.45594000000E+02  0.51100000000E-03 0. -1.
    9900012    2    1    2    0    0 -0.18304134072E+02 -0.73197744308E+00 -0.26098702554E+02  0.59301962458E+02  0.50000033613E+02 0.  0.
        -12    1    1    2    0    0  0.18304134072E+02  0.73197744308E+00  0.26098702554E+02  0.31886037542E+02  0.00000000000E+00 0.  1.
         11    1    3    3    0    0  0.39235364524E+01 -0.14730501973E+01 -0.84494194169E+00  0.42752710234E+01  0.51100000000E-03 0. -1.
        -11    1    3    3    0    0 -0.56994438032E+01  0.19971070600E+02 -0.24288662342E+01  0.20909966811E+02  0.51100000000E-03 0.  1.
         12    1    3    3    0    0 -0.16528226722E+02 -0.19229997846E+02 -0.22824894378E+02  0.34116724624E+02  0.00000000000E+00 0. -1.
</event>
<event>
 7    1  0.6285940E-013  0.5930194E+02  0.7816164E-02  0.1266605E+00
        -11   -1    0    0    0    0  0.00000000000E+00  0.00000000000E+00  0.45593999997E+02  0.45594000000E+02  0.51100000000E-03 0.  1.
         11   -1    0    0    0    0 -0.00000000000E+00 -0.00000000000E+00 -0.45593999997E+02  0.45594000000E+02  0.51100000000E-03 0. -1.
    9900012    2    1    2    0    0 -0.12301802248E+02  0.27750127697E+02 -0.97630449586E+01  0.59301937644E+02  0.49999988357E+02 0.  0.
        -12    1    1    2    0    0  0.12301802248E+02 -0.27750127697E+02  0.97630449586E+01  0.31886062356E+02  0.00000000000E+00 0.  1.
         11    1    3    3    0    0  0.18512321327E+00  0.75119351616E+01  0.30630815478E+01  0.81145492361E+01  0.51100000000E-03 0. -1.
        -11    1    3    3    0    0  0.10181340706E+02  0.31321451994E+01  0.10108018398E+02  0.14684756325E+02  0.51100000000E-03 0.  1.
         12    1    3    3    0    0 -0.22668266167E+02  0.17106047336E+02 -0.22934144904E+02  0.36502632083E+02  0.00000000000E+00 0. -1.
</event>
<event>
 7    1  0.6285940E-013  0.5930202E+02  0.7816164E-02  0.1266605E+00
        -11   -1    0    0    0    0  0.00000000000E+00  0.00000000000E+00  0.45593999997E+02  0.45594000000E+02  0.51100000000E-03 0. -1.
         11   -1    0    0    0    0 -0.00000000000E+00 -0.00000000000E+00 -0.45593999997E+02  0.45594000000E+02  0.51100000000E-03 0.  1.
    9900012    2    1    2    0    0  0.55811240821E+01 -0.15206026826E+02  0.27465320454E+02  0.59302015218E+02  0.50000129833E+02 0.  0.
        -12    1    1    2    0    0 -0.55811240821E+01  0.15206026826E+02 -0.27465320454E+02  0.31885984782E+02  0.00000000000E+00 0.  1.
         11    1    3    3    0    0 -0.10799869693E+02 -0.17783979242E+02  0.19180903769E+02  0.28298660263E+02  0.51100000000E-03 0. -1.
        -11    1    3    3    0    0  0.19160544027E+02 -0.63848235119E+01  0.76549104893E+01  0.21598381271E+02  0.51100000000E-03 0.  1.
         12    1    3    3    0    0 -0.27795502521E+01  0.89627759273E+01  0.62950619614E+00  0.94049736830E+01  0.00000000000E+00 0. -1.
</event>
<event>
 7    1  0.6285940E-013  0.5930198E+02  0.7816164E-02  0.1266605E+00
        -11   -1    0    0    0    0  0.00000000000E+00  0.00000000000E+00  0.45593999997E+02  0.45594000000E+02  0.51100000000E-03 0.  1.
         11   -1    0    0    0    0 -0.00000000000E+00 -0.00000000000E+00 -0.45593999997E+02  0.45594000000E+02  0.51100000000E-03 0. -1.
    9900012    2    1    2    0    0 -0.76822474497E+01 -0.30922517406E+02 -0.12244623145E+01  0.59301979292E+02  0.50000064314E+02 0.  0.
        -12    1    1    2    0    0  0.76822474497E+01  0.30922517406E+02  0.12244623145E+01  0.31886020708E+02  0.00000000000E+00 0.  1.
         11    1    3    3    0    0 -0.17614201634E+01 -0.29574231861E+02 -0.94204215805E+01  0.31088295775E+02  0.51100000000E-03 0. -1.
        -11    1    3    3    0    0 -0.54614671609E+01 -0.12865419732E+02  0.90580837523E+01  0.16655195284E+02  0.51100000000E-03 0.  1.
         12    1    3    3    0    0 -0.45936012537E+00  0.11517134187E+02 -0.86212448631E+00  0.11558488233E+02  0.00000000000E+00 0. -1.
</event>
<event>
 7    1  0.6285940E-013  0.5930198E+02  0.7816164E-02  0.1266605E+00
        -11   -1    0    0    0    0  0.00000000000E+00  0.00000000000E+00  0.45593999997E+02  0.45594000000E+02  0.51100000000E-03 0. -1.
         11   -1    0    0    0    0 -0.00000000000E+00 -0.00000000000E+00 -0.45593999997E+02  0.45594000000E+02  0.51100000000E-03 0.  1.
    9900012    2    1    2    0    0 -0.21916634587E+02  0.22209707002E+02 -0.65657093959E+01  0.59301976469E+02  0.50000059165E+02 0.  0.
        -12    1    1    2    0    0  0.21916634587E+02 -0.22209707002E+02  0.65657093959E+01  0.31886023531E+02  0.00000000000E+00 0.  1.
         11    1    3    3    0    0  0.36901779352E+01  0.18225208261E+02 -0.97227724823E-01  0.18595297331E+02  0.51100000000E-03 0. -1.
        -11    1    3    3    0    0 -0.25824943327E+02  0.12372305537E+02 -0.11572408988E+02  0.30885632456E+02  0.51100000000E-03 0.  1.
        -12    1    3    3    0    0  0.21813080509E+00 -0.83878067954E+01  0.51039273166E+01  0.98210466824E+01  0.00000000000E+00 0.  1.
</event>
<event>
 7    1  0.6285940E-013  0.5930196E+02  0.7816164E-02  0.1266605E+00
        -11   -1    0    0    0    0  0.00000000000E+00  0.00000000000E+00  0.45593999997E+02  0.45594000000E+02  0.51100000000E-03 0. -1.
         11   -1    0    0    0    0 -0.00000000000E+00 -0.00000000000E+00 -0.45593999997E+02  0.45594000000E+02  0.51100000000E-03 0.  1.
    9900012    2    1    2    0    0 -0.13113501979E+02  0.15719485689E+02  0.24446949117E+02  0.59301960960E+02  0.50000030881E+02 0.  0.
        -12    1    1    2    0    0  0.13113501979E+02 -0.15719485689E+02 -0.24446949117E+02  0.31886039040E+02  0.00000000000E+00 0.  1.
         11    1    3    3    0    0 -0.80937322619E+00 -0.32155470932E+01  0.56684915628E+01  0.65670864915E+01  0.51100000000E-03 0. -1.
        -11    1    3    3    0    0  0.93428279045E+01  0.49284854207E+01  0.24184783186E+02  0.26390948066E+02  0.51100000000E-03 0.  1.
         12    1    3    3    0    0 -0.21646956657E+02  0.14006547362E+02 -0.54063256312E+01  0.26343926403E+02  0.00000000000E+00 0. -1.
</event>
<event>
 7    1  0.6285940E-013  0.5930195E+02  0.7816164E-02  0.1266605E+00
        -11   -1    0    0    0    0  0.00000000000E+00  0.00000000000E+00  0.45593999997E+02  0.45594000000E+02  0.51100000000E-03 0.  1.
         11   -1    0    0    0    0 -0.00000000000E+00 -0.00000000000E+00 -0.45593999997E+02  0.45594000000E+02  0.51100000000E-03 0. -1.
    9900012    2    1    2    0    0  0.55154743573E+01  0.22617425271E+02 -0.21788801280E+02  0.59301949061E+02  0.50000009179E+02 0.  0.
        -12    1    1    2    0    0 -0.55154743573E+01 -0.22617425271E+02  0.21788801280E+02  0.31886050939E+02  0.00000000000E+00 0.  1.
         11    1    3    3    0    0 -0.82273291666E+01  0.14011801882E+02 -0.34360119729E+01  0.16608001558E+02  0.51100000000E-03 0. -1.
        -11    1    3    3    0    0 -0.89013158161E+01 -0.36432723105E+01  0.20629169264E+01  0.98367923070E+01  0.51100000000E-03 0.  1.
        -12    1    3    3    0    0  0.22644119340E+02  0.12248895700E+02 -0.20415706234E+02  0.32857155196E+02  0.00000000000E+00 0.  1.
</event>
<event>
 7    1  0.6285940E-013  0.5930192E+02  0.7816164E-02  0.1266605E+00
        -11   -1    0    0    0    0  0.00000000000E+00  0.00000000000E+00  0.45593999997E+02  0.45594000000E+02  0.51100000000E-03 0.  1.
         11   -1    0    0    0    0 -0.00000000000E+00 -0.00000000000E+00 -0.45593999997E+02  0.45594000000E+02  0.51100000000E-03 0. -1.
    9900012    2    1    2    0    0  0.69952606344E+00  0.31781593213E+02 -0.24826185068E+01  0.59301915284E+02  0.49999947578E+02 0.  0.
        -12    1    1    2    0    0 -0.69952606344E+00 -0.31781593213E+02  0.24826185068E+01  0.31886084716E+02  0.00000000000E+00 0.  1.
         11    1    3    3    0    0  0.46438419259E+01  0.12407854059E+02 -0.80244348053E+01  0.15489082103E+02  0.51100000000E-03 0. -1.
        -11    1    3    3    0    0 -0.48603127673E+01 -0.10596381877E+02  0.73378460826E+01  0.13774974936E+02  0.51100000000E-03 0.  1.
         12    1    3    3    0    0  0.91599690479E+00  0.29970121032E+02 -0.17960297840E+01  0.30037858245E+02  0.00000000000E+00 0. -1.
</event>
<event>
 7    1  0.6285940E-013  0.5930192E+02  0.7816164E-02  0.1266605E+00
        -11   -1    0    0    0    0  0.00000000000E+00  0.00000000000E+00  0.45593999997E+02  0.45594000000E+02  0.51100000000E-03 0.  1.
         11   -1    0    0    0    0 -0.00000000000E+00 -0.00000000000E+00 -0.45593999997E+02  0.45594000000E+02  0.51100000000E-03 0. -1.
    9900012    2    1    2    0    0  0.22440935707E+01 -0.84809048157E+01 -0.30655516617E+02  0.59301915237E+02  0.49999947492E+02 0.  0.
        -12    1    1    2    0    0 -0.22440935707E+01  0.84809048157E+01  0.30655516617E+02  0.31886084763E+02  0.00000000000E+00 0.  1.
         11    1    3    3    0    0 -0.26554559312E+01  0.39339242263E+01 -0.18361303991E+02  0.18964827722E+02  0.51100000000E-03 0. -1.
        -11    1    3    3    0    0  0.81691538809E+01  0.14712782669E+01 -0.21710910165E+02  0.23243565891E+02  0.51100000000E-03 0.  1.
        -12    1    3    3    0    0 -0.32696043790E+01 -0.13886107309E+02  0.94166975383E+01  0.17093521624E+02  0.00000000000E+00 0.  1.
</event>
<event>
 7    1  0.6285940E-013  0.5930194E+02  0.7816164E-02  0.1266605E+00
        -11   -1    0    0    0    0  0.00000000000E+00  0.00000000000E+00  0.45593999997E+02  0.45594000000E+02  0.51100000000E-03 0.  1.
         11   -1    0    0    0    0 -0.00000000000E+00 -0.00000000000E+00 -0.45593999997E+02  0.45594000000E+02  0.51100000000E-03 0. -1.
    9900012    2    1    2    0    0  0.12015511441E+02 -0.28647929219E+02 -0.71864110228E+01  0.59301939298E+02  0.49999991374E+02 0.  0.
        -12    1    1    2    0    0 -0.12015511441E+02  0.28647929219E+02  0.71864110228E+01  0.31886060702E+02  0.00000000000E+00 0.  1.
         11    1    3    3    0    0 -0.91210854617E+00 -0.24310660466E+01  0.74961066413E+01  0.79330724919E+01  0.51100000000E-03 0.  1.
        -11    1    3    3    0    0  0.26473050430E+02 -0.23388613476E+02 -0.93693120762E+01  0.36546321955E+02  0.51100000000E-03 0. -1.
         12    1    3    3    0    0 -0.13545430443E+02 -0.28282496959E+01 -0.53132055879E+01  0.14822544850E+02  0.00000000000E+00 0. -1.
</event>
<event>
 7    1  0.6285940E-013  0.5930193E+02  0.7816164E-02  0.1266605E+00
        -11   -1    0    0    0    0  0.00000000000E+00  0.00000000000E+00  0.45593999997E+02  0.45594000000E+02  0.51100000000E-03 0. -1.
         11   -1    0    0    0    0 -0.00000000000E+00 -0.00000000000E+00 -0.45593999997E+02  0.45594000000E+02  0.51100000000E-03 0.  1.
    9900012    2    1    2    0    0 -0.98887530423E+01 -0.28608046351E+02  0.10025637323E+02  0.59301934760E+02  0.49999983098E+02 0.  0.
        -12    1    1    2    0    0  0.98887530423E+01  0.28608046351E+02 -0.10025637323E+02  0.31886065240E+02  0.00000000000E+00 0.  1.
         11    1    3    3    0    0 -0.62852343480E+01 -0.19086815789E+02  0.35741745822E+01  0.20410424591E+02  0.51100000000E-03 0. -1.
        -11    1    3    3    0    0  0.10438471340E+02 -0.11007600316E+02 -0.92554732567E+01  0.17770558069E+02  0.51100000000E-03 0.  1.
        -12    1    3    3    0    0 -0.14041990035E+02  0.14863697538E+01  0.15706935998E+02  0.21120952100E+02  0.00000000000E+00 0.  1.
</event>
<event>
 7    1  0.7993233E-013  0.5930194E+02  0.7816164E-02  0.1266605E+00
        -11   -1    0    0    0    0  0.00000000000E+00  0.00000000000E+00  0.45593999997E+02  0.45594000000E+02  0.51100000000E-03 0. -1.
         11   -1    0    0    0    0 -0.00000000000E+00 -0.00000000000E+00 -0.45593999997E+02  0.45594000000E+02  0.51100000000E-03 0.  1.
    9900012    2    1    2    0    0 -0.95896638264E+01 -0.14935771282E+02  0.26489275247E+02  0.59301943185E+02  0.49999998464E+02 0.  0.
        -12    1    1    2    0    0  0.95896638264E+01  0.14935771282E+02 -0.26489275247E+02  0.31886056815E+02  0.00000000000E+00 0.  1.
         11    1    3    3    0    0 -0.15118147817E+02 -0.11368256008E+01  0.21215821787E+02  0.26076078314E+02  0.51100000000E-03 0. -1.
        -11    1    3    3    0    0 -0.83615067390E+01  0.31119520719E+01 -0.35873483992E+01  0.96160339767E+01  0.51100000000E-03 0.  1.
         12    1    3    3    0    0  0.13889990730E+02 -0.16910897753E+02  0.88608018583E+01  0.23609830895E+02  0.00000000000E+00 0. -1.
</event>
<event>
 7    1  0.6285940E-013  0.5930208E+02  0.7816164E-02  0.1266604E+00
        -11   -1    0    0    0    0  0.00000000000E+00  0.00000000000E+00  0.45593999997E+02  0.45594000000E+02  0.51100000000E-03 0.  1.
         11   -1    0    0    0    0 -0.00000000000E+00 -0.00000000000E+00 -0.45593999997E+02  0.45594000000E+02  0.51100000000E-03 0. -1.
    9900012    2    1    2    0    0  0.16303482388E+02  0.15827172262E+02 -0.22369825467E+02  0.59302078166E+02  0.50000244636E+02 0.  0.
        -12    1    1    2    0    0 -0.16303482388E+02 -0.15827172262E+02  0.22369825467E+02  0.31885921834E+02  0.00000000000E+00 0.  1.
         11    1    3    3    0    0  0.61825375432E+01  0.86766639081E+00 -0.32953570668E+01  0.70594613036E+01  0.51100000000E-03 0. -1.
        -11    1    3    3    0    0 -0.11512152319E+02 -0.95856574977E+01 -0.13731963575E+01  0.15043275879E+02  0.51100000000E-03 0.  1.
         12    1    3    3    0    0  0.21633097163E+02  0.24545163369E+02 -0.17701272042E+02  0.37199340984E+02  0.00000000000E+00 0. -1.
</event>
<event>
 7    1  0.6285940E-013  0.5930195E+02  0.7816164E-02  0.1266605E+00
        -11   -1    0    0    0    0  0.00000000000E+00  0.00000000000E+00  0.45593999997E+02  0.45594000000E+02  0.51100000000E-03 0.  1.
         11   -1    0    0    0    0 -0.00000000000E+00 -0.00000000000E+00 -0.45593999997E+02  0.45594000000E+02  0.51100000000E-03 0. -1.
    9900012    2    1    2    0    0  0.67791052960E+01 -0.30286393976E+02  0.73142615354E+01  0.59301947398E+02  0.50000006147E+02 0.  0.
        -12    1    1    2    0    0 -0.67791052960E+01  0.30286393976E+02 -0.73142615354E+01  0.31886052602E+02  0.00000000000E+00 0.  1.
         11    1    3    3    0    0  0.17655540178E+02 -0.34584358588E+02  0.10792358305E+02  0.40302245049E+02  0.51100000000E-03 0. -1.
        -11    1    3    3    0    0  0.36157025688E+01  0.44261957363E+00 -0.11761443006E+01  0.38278626974E+01  0.51100000000E-03 0.  1.
        -12    1    3    3    0    0 -0.14492137451E+02  0.38553450380E+01 -0.23019524691E+01  0.15171839652E+02  0.00000000000E+00 0.  1.
</event>
<event>
 7    1  0.6285940E-013  0.5930191E+02  0.7816164E-02  0.1266605E+00
        -11   -1    0    0    0    0  0.00000000000E+00  0.00000000000E+00  0.45593999997E+02  0.45594000000E+02  0.51100000000E-03 0.  1.
         11   -1    0    0    0    0 -0.00000000000E+00 -0.00000000000E+00 -0.45593999997E+02  0.45594000000E+02  0.51100000000E-03 0. -1.
    9900012    2    1    2    0    0 -0.13244169801E+02  0.25577184856E+02 -0.13679264944E+02  0.59301910426E+02  0.49999938719E+02 0.  0.
        -12    1    1    2    0    0  0.13244169801E+02 -0.25577184856E+02  0.13679264944E+02  0.31886089574E+02  0.00000000000E+00 0.  1.
         11    1    3    3    0    0  0.92659548557E+01  0.23508333054E+02 -0.19364604000E+01  0.25342642355E+02  0.51100000000E-03 0. -1.
        -11    1    3    3    0    0 -0.76281229250E+01 -0.82759800816E+01  0.17146854617E+01  0.11385089028E+02  0.51100000000E-03 0.  1.
        -12    1    3    3    0    0 -0.14882001732E+02  0.10344831883E+02 -0.13457490006E+02  0.22574179044E+02  0.00000000000E+00 0.  1.
</event>
<event>
 7    1  0.6285940E-013  0.5930196E+02  0.7816164E-02  0.1266605E+00
        -11   -1    0    0    0    0  0.00000000000E+00  0.00000000000E+00  0.45593999997E+02  0.45594000000E+02  0.51100000000E-03 0.  1.
         11   -1    0    0    0    0 -0.00000000000E+00 -0.00000000000E+00 -0.45593999997E+02  0.45594000000E+02  0.51100000000E-03 0. -1.
    9900012    2    1    2    0    0  0.24912113888E+02  0.49692606906E+01 -0.19272070169E+02  0.59301958245E+02  0.50000025929E+02 0.  0.
        -12    1    1    2    0    0 -0.24912113888E+02 -0.49692606906E+01  0.19272070169E+02  0.31886041755E+02  0.00000000000E+00 0.  1.
         11    1    3    3    0    0  0.25456031267E+01 -0.63519779868E+01  0.76400899796E+01  0.10256641496E+02  0.51100000000E-03 0. -1.
        -11    1    3    3    0    0  0.52925018760E+01  0.55793393427E+01  0.71580827518E+01  0.10506081694E+02  0.51100000000E-03 0.  1.
         12    1    3    3    0    0  0.17074008886E+02  0.57418993347E+01 -0.34070242900E+02  0.38539235056E+02  0.00000000000E+00 0. -1.
</event>
<event>
 7    1  0.6285940E-013  0.5930196E+02  0.7816164E-02  0.1266605E+00
        -11   -1    0    0    0    0  0.00000000000E+00  0.00000000000E+00  0.45593999997E+02  0.45594000000E+02  0.51100000000E-03 0.  1.
         11   -1    0    0    0    0 -0.00000000000E+00 -0.00000000000E+00 -0.45593999997E+02  0.45594000000E+02  0.51100000000E-03 0. -1.
    9900012    2    1    2    0    0  0.25771947756E+02 -0.62486860354E+01 -0.17705371285E+02  0.59301960098E+02  0.50000029309E+02 0.  0.
        -12    1    1    2    0    0 -0.25771947756E+02  0.62486860354E+01  0.17705371285E+02  0.31886039902E+02  0.00000000000E+00 0.  1.
         11    1    3    3    0    0 -0.51611478954E+00  0.28657174563E+01 -0.77028644473E+01  0.82348547025E+01  0.51100000000E-03 0. -1.
        -11    1    3    3    0    0  0.34132763471E+01 -0.94866853702E+01  0.14425095789E+02  0.17599177353E+02  0.51100000000E-03 0.  1.
         12    1    3    3    0    0  0.22874786198E+02  0.37228187850E+00 -0.24427602626E+02  0.33467928043E+02  0.00000000000E+00 0. -1.
</event>
<event>
 7    1  0.6285940E-013  0.5930196E+02  0.7816164E-02  0.1266605E+00
        -11   -1    0    0    0    0  0.00000000000E+00  0.00000000000E+00  0.45593999997E+02  0.45594000000E+02  0.51100000000E-03 0. -1.
         11   -1    0    0    0    0 -0.00000000000E+00 -0.00000000000E+00 -0.45593999997E+02  0.45594000000E+02  0.51100000000E-03 0.  1.
    9900012    2    1    2    0    0 -0.30757765381E+02 -0.80791637399E+01  0.23252491064E+01  0.59301956009E+02  0.50000021852E+02 0.  0.
        -12    1    1    2    0    0  0.30757765381E+02  0.80791637399E+01 -0.23252491064E+01  0.31886043991E+02  0.00000000000E+00 0.  1.
         11    1    3    3    0    0 -0.19069768502E+02  0.13828561312E+01  0.16185623265E+01  0.19188228320E+02  0.51100000000E-03 0. -1.
        -11    1    3    3    0    0 -0.23976463995E+02 -0.33682163600E+01  0.67347746827E+01  0.25131114131E+02  0.51100000000E-03 0.  1.
        -12    1    3    3    0    0  0.12288467116E+02 -0.60938035110E+01 -0.60280879027E+01  0.14982613559E+02  0.00000000000E+00 0.  1.
</event>
<event>
 7    1  0.6285940E-013  0.5930204E+02  0.7816164E-02  0.1266604E+00
        -11   -1    0    0    0    0  0.00000000000E+00  0.00000000000E+00  0.45593999997E+02  0.45594000000E+02  0.51100000000E-03 0.  1.
         11   -1    0    0    0    0 -0.00000000000E+00 -0.00000000000E+00 -0.45593999997E+02  0.45594000000E+02  0.51100000000E-03 0. -1.
    9900012    2    1    2    0    0 -0.13760205978E+01  0.31622855796E+02  0.38491305273E+01  0.59302043103E+02  0.50000180690E+02 0.  0.
        -12    1    1    2    0    0  0.13760205978E+01 -0.31622855796E+02 -0.38491305273E+01  0.31885956897E+02  0.00000000000E+00 0.  1.
         11    1    3    3    0    0  0.47313405378E+01  0.18841364535E+01 -0.76508023244E+01  0.91907741746E+01  0.51100000000E-03 0. -1.
        -11    1    3    3    0    0 -0.48414866118E+01 -0.84411005704E+01 -0.13124706338E+01  0.98191013274E+01  0.51100000000E-03 0.  1.
         12    1    3    3    0    0 -0.12658745238E+01  0.38179819913E+02  0.12812403485E+02  0.40292167601E+02  0.00000000000E+00 0. -1.
</event>
<event>
 7    1  0.6285940E-013  0.5930177E+02  0.7816164E-02  0.1266605E+00
        -11   -1    0    0    0    0  0.00000000000E+00  0.00000000000E+00  0.45593999997E+02  0.45594000000E+02  0.51100000000E-03 0.  1.
         11   -1    0    0    0    0 -0.00000000000E+00 -0.00000000000E+00 -0.45593999997E+02  0.45594000000E+02  0.51100000000E-03 0. -1.
    9900012    2    1    2    0    0  0.34026268314E+01 -0.26538431400E+02 -0.17345482643E+02  0.59301765060E+02  0.49999673605E+02 0.  0.
        -12    1    1    2    0    0 -0.34026268314E+01  0.26538431400E+02  0.17345482643E+02  0.31886234940E+02  0.00000000000E+00 0.  1.
         11    1    3    3    0    0  0.13208591077E+02 -0.11836276513E+02  0.13912909396E+02  0.22541813770E+02  0.51100000000E-03 0.  1.
        -11    1    3    3    0    0 -0.24912812719E+01 -0.28162254884E+01 -0.14356411541E+02  0.14840625356E+02  0.51100000000E-03 0. -1.
        -12    1    3    3    0    0 -0.73146829738E+01 -0.11885929398E+02 -0.16901980497E+02  0.21919325934E+02  0.00000000000E+00 0.  1.
</event>
<event>
 7    1  0.6285940E-013  0.5930185E+02  0.7816164E-02  0.1266605E+00
        -11   -1    0    0    0    0  0.00000000000E+00  0.00000000000E+00  0.45593999997E+02  0.45594000000E+02  0.51100000000E-03 0.  1.
         11   -1    0    0    0    0 -0.00000000000E+00 -0.00000000000E+00 -0.45593999997E+02  0.45594000000E+02  0.51100000000E-03 0. -1.
    9900012    2    1    2    0    0 -0.69308677438E+01 -0.40136454277E+01 -0.30863896152E+02  0.59301853118E+02  0.49999834203E+02 0.  0.
        -12    1    1    2    0    0  0.69308677438E+01  0.40136454277E+01  0.30863896152E+02  0.31886146882E+02  0.00000000000E+00 0.  1.
         11    1    3    3    0    0  0.32283428295E+01  0.47126625837E+01 -0.19010055065E+02  0.19849775311E+02  0.51100000000E-03 0. -1.
        -11    1    3    3    0    0  0.13089952586E+02 -0.12194709689E+01 -0.31680740313E+01  0.13522967924E+02  0.51100000000E-03 0.  1.
        -12    1    3    3    0    0 -0.23249163160E+02 -0.75068370425E+01 -0.86857670555E+01  0.25929109883E+02  0.00000000000E+00 0.  1.
</event>
<event>
 7    1  0.6285940E-013  0.5930203E+02  0.7816164E-02  0.1266604E+00
        -11   -1    0    0    0    0  0.00000000000E+00  0.00000000000E+00  0.45593999997E+02  0.45594000000E+02  0.51100000000E-03 0. -1.
         11   -1    0    0    0    0 -0.00000000000E+00 -0.00000000000E+00 -0.45593999997E+02  0.45594000000E+02  0.51100000000E-03 0.  1.
    9900012    2    1    2    0    0 -0.15397196873E+01  0.11673005566E+02  0.29632505364E+02  0.59302028637E+02  0.50000154306E+02 0.  0.
        -12    1    1    2    0    0  0.15397196873E+01 -0.11673005566E+02 -0.29632505364E+02  0.31885971363E+02  0.00000000000E+00 0.  1.
         11    1    3    3    0    0 -0.64115599513E+01 -0.46931052562E+01  0.31351659244E+02  0.32342848909E+02  0.51100000000E-03 0. -1.
        -11    1    3    3    0    0 -0.78524003023E+01  0.36026177296E+01  0.11293508794E+01  0.87128915225E+01  0.51100000000E-03 0.  1.
         12    1    3    3    0    0  0.12724240566E+02  0.12763493092E+02 -0.28485047594E+01  0.18246288205E+02  0.00000000000E+00 0. -1.
</event>
<event>
 7    1  0.6285940E-013  0.5930195E+02  0.7816164E-02  0.1266605E+00
        -11   -1    0    0    0    0  0.00000000000E+00  0.00000000000E+00  0.45593999997E+02  0.45594000000E+02  0.51100000000E-03 0.  1.
         11   -1    0    0    0    0 -0.00000000000E+00 -0.00000000000E+00 -0.45593999997E+02  0.45594000000E+02  0.51100000000E-03 0. -1.
    9900012    2    1    2    0    0 -0.27268190663E+02 -0.16349241528E+02  0.24224961255E+01  0.59301946496E+02  0.50000004502E+02 0.  0.
        -12    1    1    2    0    0  0.27268190663E+02  0.16349241528E+02 -0.24224961255E+01  0.31886053504E+02  0.00000000000E+00 0.  1.
         11    1    3    3    0    0 -0.14530495211E+02  0.95002017349E+01  0.71489550192E+01  0.18774894999E+02  0.51100000000E-03 0. -1.
        -11    1    3    3    0    0 -0.16992086129E+02 -0.64634354897E+01 -0.89064647377E+01  0.20244310404E+02  0.51100000000E-03 0.  1.
        -12    1    3    3    0    0  0.42543906776E+01 -0.19386007773E+02  0.41800058441E+01  0.20282741094E+02  0.00000000000E+00 0.  1.
</event>
<event>
 7    1  0.6285940E-013  0.5930188E+02  0.7816164E-02  0.1266605E+00
        -11   -1    0    0    0    0  0.00000000000E+00  0.00000000000E+00  0.45593999997E+02  0.45594000000E+02  0.51100000000E-03 0. -1.
         11   -1    0    0    0    0 -0.00000000000E+00 -0.00000000000E+00 -0.45593999997E+02  0.45594000000E+02  0.51100000000E-03 0.  1.
    9900012    2    1    2    0    0  0.10130598331E+02  0.10456457377E+02  0.28368262047E+02  0.59301877392E+02  0.49999878472E+02 0.  0.
        -12    1    1    2    0    0 -0.10130598331E+02 -0.10456457377E+02 -0.28368262047E+02  0.31886122608E+02  0.00000000000E+00 0.  1.
         11    1    3    3    0    0  0.24240473730E+02  0.18293101009E+02  0.21498472155E+02  0.37207827355E+02  0.51100000000E-03 0. -1.
        -11    1    3    3    0    0  0.14622361237E+01 -0.64752616039E+00  0.45048337647E+01  0.47802669506E+01  0.51100000000E-03 0.  1.
        -12    1    3    3    0    0 -0.15572111522E+02 -0.71891174717E+01  0.23649561265E+01  0.17313783086E+02  0.00000000000E+00 0.  1.
</event>
<event>
 7    1  0.6285940E-013  0.5930197E+02  0.7816164E-02  0.1266605E+00
        -11   -1    0    0    0    0  0.00000000000E+00  0.00000000000E+00  0.45593999997E+02  0.45594000000E+02  0.51100000000E-03 0. -1.
         11   -1    0    0    0    0 -0.00000000000E+00 -0.00000000000E+00 -0.45593999997E+02  0.45594000000E+02  0.51100000000E-03 0.  1.
    9900012    2    1    2    0    0  0.24003681608E+02  0.58021109558E+01  0.20171208030E+02  0.59301970839E+02  0.50000048897E+02 0.  0.
        -12    1    1    2    0    0 -0.24003681608E+02 -0.58021109558E+01 -0.20171208030E+02  0.31886029161E+02  0.00000000000E+00 0.  1.
         11    1    3    3    0    0  0.18226750830E+02 -0.32234772461E+01  0.38373532071E+00  0.18513576220E+02  0.51100000000E-03 0. -1.
        -11    1    3    3    0    0  0.14660562920E+02  0.12151980658E+02  0.18730217476E+00  0.19043051788E+02  0.51100000000E-03 0.  1.
        -12    1    3    3    0    0 -0.88836321428E+01 -0.31263924561E+01  0.19600170535E+02  0.21745342831E+02  0.00000000000E+00 0.  1.
</event>
<event>
 7    1  0.6285940E-013  0.5930195E+02  0.7816164E-02  0.1266605E+00
        -11   -1    0    0    0    0  0.00000000000E+00  0.00000000000E+00  0.45593999997E+02  0.45594000000E+02  0.51100000000E-03 0. -1.
         11   -1    0    0    0    0 -0.00000000000E+00 -0.00000000000E+00 -0.45593999997E+02  0.45594000000E+02  0.51100000000E-03 0.  1.
    9900012    2    1    2    0    0 -0.92601543803E+01 -0.30356525758E+02 -0.30742839088E+01  0.59301947614E+02  0.50000006540E+02 0.  0.
        -12    1    1    2    0    0  0.92601543803E+01  0.30356525758E+02  0.30742839088E+01  0.31886052386E+02  0.00000000000E+00 0.  1.
         11    1    3    3    0    0  0.77062805039E+01 -0.27689691228E+02 -0.46681914132E+01  0.29118684222E+02  0.51100000000E-03 0. -1.
        -11    1    3    3    0    0 -0.15325402966E+02 -0.81292226845E+01  0.10000808665E+02  0.20024195657E+02  0.51100000000E-03 0.  1.
        -12    1    3    3    0    0 -0.16410319185E+01  0.54623881549E+01 -0.84069011601E+01  0.10159067734E+02  0.00000000000E+00 0.  1.
</event>
<event>
 7    1  0.6285940E-013  0.5930193E+02  0.7816164E-02  0.1266605E+00
        -11   -1    0    0    0    0  0.00000000000E+00  0.00000000000E+00  0.45593999997E+02  0.45594000000E+02  0.51100000000E-03 0.  1.
         11   -1    0    0    0    0 -0.00000000000E+00 -0.00000000000E+00 -0.45593999997E+02  0.45594000000E+02  0.51100000000E-03 0. -1.
    9900012    2    1    2    0    0 -0.85354150697E+01  0.21789453565E+02 -0.21658433612E+02  0.59301931826E+02  0.49999977747E+02 0.  0.
        -12    1    1    2    0    0  0.85354150697E+01 -0.21789453565E+02  0.21658433612E+02  0.31886068174E+02  0.00000000000E+00 0.  1.
         11    1    3    3    0    0  0.44836366001E+01 -0.58504306688E+01 -0.20846763895E+02  0.22111492517E+02  0.51100000000E-03 0. -1.
        -11    1    3    3    0    0  0.31774959258E+01 -0.10477215108E+01  0.23596395207E+01  0.40941543268E+01  0.51100000000E-03 0.  1.
        -12    1    3    3    0    0 -0.16196547596E+02  0.28687605744E+02 -0.31713092379E+01  0.33096284983E+02  0.00000000000E+00 0.  1.
</event>
<event>
 7    1  0.6285940E-013  0.5930227E+02  0.7816164E-02  0.1266604E+00
        -11   -1    0    0    0    0  0.00000000000E+00  0.00000000000E+00  0.45593999997E+02  0.45594000000E+02  0.51100000000E-03 0.  1.
         11   -1    0    0    0    0 -0.00000000000E+00 -0.00000000000E+00 -0.45593999997E+02  0.45594000000E+02  0.51100000000E-03 0. -1.
    9900012    2    1    2    0    0  0.24138391945E+02 -0.72198380062E+00 -0.20821057834E+02  0.59302271599E+02  0.50000597408E+02 0.  0.
        -12    1    1    2    0    0 -0.24138391945E+02  0.72198380062E+00  0.20821057834E+02  0.31885728401E+02  0.00000000000E+00 0.  1.
         11    1    3    3    0    0  0.53613696675E+01  0.39976565621E+01  0.11153978628E+02  0.13005259790E+02  0.51100000000E-03 0. -1.
        -11    1    3    3    0    0  0.24492910425E+02 -0.48289457041E+01 -0.16826707538E+02  0.30105804499E+02  0.51100000000E-03 0.  1.
         12    1    3    3    0    0 -0.57158881473E+01  0.10930534141E+00 -0.15148328924E+02  0.16191207310E+02  0.00000000000E+00 0. -1.
</event>
<event>
 7    1  0.6285940E-013  0.5930194E+02  0.7816164E-02  0.1266605E+00
        -11   -1    0    0    0    0  0.00000000000E+00  0.00000000000E+00  0.45593999997E+02  0.45594000000E+02  0.51100000000E-03 0.  1.
         11   -1    0    0    0    0 -0.00000000000E+00 -0.00000000000E+00 -0.45593999997E+02  0.45594000000E+02  0.51100000000E-03 0. -1.
    9900012    2    1    2    0    0 -0.13899516349E+02 -0.16166838657E+02 -0.23709867039E+02  0.59301936870E+02  0.49999986946E+02 0.  0.
        -12    1    1    2    0    0  0.13899516349E+02  0.16166838657E+02  0.23709867039E+02  0.31886063130E+02  0.00000000000E+00 0.  1.
         11    1    3    3    0    0 -0.55261364502E+01 -0.11220341528E+02 -0.18157513506E+02  0.22048345631E+02  0.51100000000E-03 0. -1.
        -11    1    3    3    0    0 -0.21608838075E+02 -0.81121203527E+01 -0.50958213154E+01  0.23637169346E+02  0.51100000000E-03 0.  1.
        -12    1    3    3    0    0  0.13235458176E+02  0.31656232234E+01 -0.45653221800E+00  0.13616421894E+02  0.00000000000E+00 0.  1.
</event>
<event>
 7    1  0.6285940E-013  0.5930196E+02  0.7816164E-02  0.1266605E+00
        -11   -1    0    0    0    0  0.00000000000E+00  0.00000000000E+00  0.45593999997E+02  0.45594000000E+02  0.51100000000E-03 0.  1.
         11   -1    0    0    0    0 -0.00000000000E+00 -0.00000000000E+00 -0.45593999997E+02  0.45594000000E+02  0.51100000000E-03 0. -1.
    9900012    2    1    2    0    0  0.20109073842E+01  0.30771505576E+02 -0.81111235797E+01  0.59301958702E+02  0.50000026763E+02 0.  0.
        -12    1    1    2    0    0 -0.20109073842E+01 -0.30771505576E+02  0.81111235797E+01  0.31886041298E+02  0.00000000000E+00 0.  1.
         11    1    3    3    0    0 -0.42697003454E+01 -0.42804895936E+01 -0.42861512362E+01  0.74110744755E+01  0.51100000000E-03 0. -1.
        -11    1    3    3    0    0  0.10906784811E+02  0.22430856105E+01  0.10945846586E+02  0.15614126479E+02  0.51100000000E-03 0.  1.
         12    1    3    3    0    0 -0.46261770809E+01  0.32808909559E+02 -0.14770818930E+02  0.36276757748E+02  0.00000000000E+00 0. -1.
</event>
<event>
 7    1  0.6285940E-013  0.5930194E+02  0.7816164E-02  0.1266605E+00
        -11   -1    0    0    0    0  0.00000000000E+00  0.00000000000E+00  0.45593999997E+02  0.45594000000E+02  0.51100000000E-03 0. -1.
         11   -1    0    0    0    0 -0.00000000000E+00 -0.00000000000E+00 -0.45593999997E+02  0.45594000000E+02  0.51100000000E-03 0.  1.
    9900012    2    1    2    0    0  0.15573102355E+02  0.22431551988E+02  0.16462826011E+02  0.59301942203E+02  0.49999996673E+02 0.  0.
        -12    1    1    2    0    0 -0.15573102355E+02 -0.22431551988E+02 -0.16462826011E+02  0.31886057797E+02  0.00000000000E+00 0.  1.
         11    1    3    3    0    0  0.47905918827E+01 -0.69990015955E+01  0.81196997471E+01  0.11741606286E+02  0.51100000000E-03 0. -1.
        -11    1    3    3    0    0  0.18610591322E+02  0.42424735606E+01 -0.20759647865E+01  0.19200581276E+02  0.51100000000E-03 0.  1.
        -12    1    3    3    0    0 -0.78280808501E+01  0.25188080023E+02  0.10419091051E+02  0.28359754642E+02  0.00000000000E+00 0.  1.
</event>
<event>
 7    1  0.6285940E-013  0.5930195E+02  0.7816164E-02  0.1266605E+00
        -11   -1    0    0    0    0  0.00000000000E+00  0.00000000000E+00  0.45593999997E+02  0.45594000000E+02  0.51100000000E-03 0.  1.
         11   -1    0    0    0    0 -0.00000000000E+00 -0.00000000000E+00 -0.45593999997E+02  0.45594000000E+02  0.51100000000E-03 0. -1.
    9900012    2    1    2    0    0 -0.28466657225E+02  0.94462697975E+01 -0.10822999455E+02  0.59301954402E+02  0.50000018921E+02 0.  0.
        -12    1    1    2    0    0  0.28466657225E+02 -0.94462697975E+01  0.10822999455E+02  0.31886045598E+02  0.00000000000E+00 0.  1.
         11    1    3    3    0    0  0.55516794805E+01  0.70271636113E+01 -0.58849850751E+01  0.10716119777E+02  0.51100000000E-03 0. -1.
        -11    1    3    3    0    0 -0.13105917521E+02 -0.15735799687E+02 -0.13688205921E+00  0.20479238336E+02  0.51100000000E-03 0.  1.
         12    1    3    3    0    0 -0.20912419185E+02  0.18154905874E+02 -0.48011323202E+01  0.28106596290E+02  0.00000000000E+00 0. -1.
</event>
<event>
 7    1  0.6285940E-013  0.5930195E+02  0.7816164E-02  0.1266605E+00
        -11   -1    0    0    0    0  0.00000000000E+00  0.00000000000E+00  0.45593999997E+02  0.45594000000E+02  0.51100000000E-03 0.  1.
         11   -1    0    0    0    0 -0.00000000000E+00 -0.00000000000E+00 -0.45593999997E+02  0.45594000000E+02  0.51100000000E-03 0. -1.
    9900012    2    1    2    0    0  0.16837937195E+02  0.97542308271E+01 -0.25259831689E+02  0.59301949054E+02  0.50000009166E+02 0.  0.
        -12    1    1    2    0    0 -0.16837937195E+02 -0.97542308271E+01  0.25259831689E+02  0.31886050946E+02  0.00000000000E+00 0.  1.
         11    1    3    3    0    0 -0.12975106444E+02  0.76295091249E+01 -0.63450766315E+01  0.16334711336E+02  0.51100000000E-03 0. -1.
        -11    1    3    3    0    0  0.13801256369E+02 -0.11019625329E+02 -0.65175758668E+01  0.18825132541E+02  0.51100000000E-03 0.  1.
         12    1    3    3    0    0  0.16011787270E+02  0.13144347031E+02 -0.12397179190E+02  0.24142105176E+02  0.00000000000E+00 0. -1.
</event>
<event>
 7    1  0.6285940E-013  0.5930196E+02  0.7816164E-02  0.1266605E+00
        -11   -1    0    0    0    0  0.00000000000E+00  0.00000000000E+00  0.45593999997E+02  0.45594000000E+02  0.51100000000E-03 0.  1.
         11   -1    0    0    0    0 -0.00000000000E+00 -0.00000000000E+00 -0.45593999997E+02  0.45594000000E+02  0.51100000000E-03 0. -1.
    9900012    2    1    2    0    0 -0.18365743948E+02  0.75137924631E+01 -0.24959211427E+02  0.59301955043E+02  0.50000020089E+02 0.  0.
        -12    1    1    2    0    0  0.18365743948E+02 -0.75137924631E+01  0.24959211427E+02  0.31886044957E+02  0.00000000000E+00 0.  1.
         11    1    3    3    0    0 -0.88622243734E+01 -0.43567452345E+01 -0.29696712478E+02  0.31295606436E+02  0.51100000000E-03 0. -1.
        -11    1    3    3    0    0 -0.81206926922E+01 -0.53139710127E+01 -0.11860144579E+01  0.97770429211E+01  0.51100000000E-03 0.  1.
        -12    1    3    3    0    0 -0.13828268828E+01  0.17184508710E+02  0.59235155093E+01  0.18229305686E+02  0.00000000000E+00 0.  1.
</event>
<event>
 7    1  0.6285940E-013  0.5930196E+02  0.7816164E-02  0.1266605E+00
        -11   -1    0    0    0    0  0.00000000000E+00  0.00000000000E+00  0.45593999997E+02  0.45594000000E+02  0.51100000000E-03 0.  1.
         11   -1    0    0    0    0 -0.00000000000E+00 -0.00000000000E+00 -0.45593999997E+02  0.45594000000E+02  0.51100000000E-03 0. -1.
    9900012    2    1    2    0    0  0.69103786479E+00  0.31361604953E+02 -0.57176540333E+01  0.59301962833E+02  0.50000034297E+02 0.  0.
        -12    1    1    2    0    0 -0.69103786479E+00 -0.31361604953E+02  0.57176540333E+01  0.31886037167E+02  0.00000000000E+00 0.  1.
         11    1    3    3    0    0 -0.14416472745E+02  0.10875506314E+02  0.39510314613E+01  0.18485723515E+02  0.51100000000E-03 0. -1.
        -11    1    3    3    0    0  0.13173036166E+01  0.11280423854E+02  0.99713109089E+01  0.15113248911E+02  0.51100000000E-03 0.  1.
         12    1    3    3    0    0  0.13790206993E+02  0.92056747849E+01 -0.19639996403E+02  0.25702990407E+02  0.00000000000E+00 0. -1.
</event>
<event>
 7    1  0.6285940E-013  0.5930194E+02  0.7816164E-02  0.1266605E+00
        -11   -1    0    0    0    0  0.00000000000E+00  0.00000000000E+00  0.45593999997E+02  0.45594000000E+02  0.51100000000E-03 0.  1.
         11   -1    0    0    0    0 -0.00000000000E+00 -0.00000000000E+00 -0.45593999997E+02  0.45594000000E+02  0.51100000000E-03 0. -1.
    9900012    2    1    2    0    0  0.21499637335E+02  0.42187277629E+01 -0.23166549286E+02  0.59301936034E+02  0.49999985421E+02 0.  0.
        -12    1    1    2    0    0 -0.21499637335E+02 -0.42187277629E+01  0.23166549286E+02  0.31886063966E+02  0.00000000000E+00 0.  1.
         11    1    3    3    0    0  0.20892090524E+02 -0.18404971980E+01 -0.18241201578E+02  0.27795832631E+02  0.51100000000E-03 0. -1.
        -11    1    3    3    0    0  0.15351878109E+02  0.62761296235E+00 -0.32439876769E+01  0.15703423697E+02  0.51100000000E-03 0.  1.
        -12    1    3    3    0    0 -0.14744331298E+02  0.54316119985E+01 -0.16813600303E+01  0.15802679705E+02  0.00000000000E+00 0.  1.
</event>
<event>
 7    1  0.6285940E-013  0.5930168E+02  0.7816164E-02  0.1266606E+00
        -11   -1    0    0    0    0  0.00000000000E+00  0.00000000000E+00  0.45593999997E+02  0.45594000000E+02  0.51100000000E-03 0. -1.
         11   -1    0    0    0    0 -0.00000000000E+00 -0.00000000000E+00 -0.45593999997E+02  0.45594000000E+02  0.51100000000E-03 0.  1.
    9900012    2    1    2    0    0 -0.94977391072E+01 -0.29972632620E+02  0.53077149298E+01  0.59301677037E+02  0.49999513070E+02 0.  0.
        -12    1    1    2    0    0  0.94977391072E+01  0.29972632620E+02 -0.53077149298E+01  0.31886322963E+02  0.00000000000E+00 0.  1.
         11    1    3    3    0    0 -0.20068858496E+00 -0.60741782341E+01 -0.13097075123E+02  0.14438465783E+02  0.51100000000E-03 0. -1.
        -11    1    3    3    0    0  0.94301734579E+01  0.11070312849E+01  0.25595551272E+01  0.98338706734E+01  0.51100000000E-03 0.  1.
         12    1    3    3    0    0 -0.18727223980E+02 -0.25005485671E+02  0.15845234926E+02  0.35029340580E+02  0.00000000000E+00 0. -1.
</event>
<event>
 7    1  0.6285940E-013  0.5930192E+02  0.7816164E-02  0.1266605E+00
        -11   -1    0    0    0    0  0.00000000000E+00  0.00000000000E+00  0.45593999997E+02  0.45594000000E+02  0.51100000000E-03 0.  1.
         11   -1    0    0    0    0 -0.00000000000E+00 -0.00000000000E+00 -0.45593999997E+02  0.45594000000E+02  0.51100000000E-03 0. -1.
    9900012    2    1    2    0    0  0.18856822523E+02 -0.10661863368E+01 -0.25690577858E+02  0.59301916835E+02  0.49999950406E+02 0.  0.
        -12    1    1    2    0    0 -0.18856822523E+02  0.10661863368E+01  0.25690577858E+02  0.31886083165E+02  0.00000000000E+00 0.  1.
         11    1    3    3    0    0 -0.30114484906E+01 -0.95182805867E+01 -0.48912771928E+01  0.11117152521E+02  0.51100000000E-03 0. -1.
        -11    1    3    3    0    0  0.19789623635E+02 -0.25743090410E+01  0.45452848299E+01  0.20467434746E+02  0.51100000000E-03 0.  1.
         12    1    3    3    0    0  0.20786473793E+01  0.11026403291E+02 -0.25344585495E+02  0.27717329567E+02  0.00000000000E+00 0. -1.
</event>
<event>
 7    1  0.6285940E-013  0.5930193E+02  0.7816164E-02  0.1266605E+00
        -11   -1    0    0    0    0  0.00000000000E+00  0.00000000000E+00  0.45593999997E+02  0.45594000000E+02  0.51100000000E-03 0.  1.
         11   -1    0    0    0    0 -0.00000000000E+00 -0.00000000000E+00 -0.45593999997E+02  0.45594000000E+02  0.51100000000E-03 0. -1.
    9900012    2    1    2    0    0  0.29550133902E+02  0.10015317098E+02  0.65730102939E+01  0.59301930086E+02  0.49999974574E+02 0.  0.
        -12    1    1    2    0    0 -0.29550133902E+02 -0.10015317098E+02 -0.65730102939E+01  0.31886069914E+02  0.00000000000E+00 0.  1.
         11    1    3    3    0    0  0.14356164235E+02 -0.10288172662E+02 -0.10290645768E+02  0.20441216668E+02  0.51100000000E-03 0. -1.
        -11    1    3    3    0    0  0.14092008785E+02  0.42952927055E+01 -0.11011101254E+01  0.14773174838E+02  0.51100000000E-03 0.  1.
        -12    1    3    3    0    0  0.11019608827E+01  0.16008197055E+02  0.17964766188E+02  0.24087538581E+02  0.00000000000E+00 0.  1.
</event>
<event>
 7    1  0.6285940E-013  0.5930193E+02  0.7816164E-02  0.1266605E+00
        -11   -1    0    0    0    0  0.00000000000E+00  0.00000000000E+00  0.45593999997E+02  0.45594000000E+02  0.51100000000E-03 0.  1.
         11   -1    0    0    0    0 -0.00000000000E+00 -0.00000000000E+00 -0.45593999997E+02  0.45594000000E+02  0.51100000000E-03 0. -1.
    9900012    2    1    2    0    0 -0.11704230433E+02  0.17061810965E+02 -0.24261632743E+02  0.59301933658E+02  0.49999981088E+02 0.  0.
        -12    1    1    2    0    0  0.11704230433E+02 -0.17061810965E+02  0.24261632743E+02  0.31886066342E+02  0.00000000000E+00 0.  1.
         11    1    3    3    0    0  0.21144608019E+01  0.39368027080E+01 -0.12949223042E+02  0.13698603494E+02  0.51100000000E-03 0. -1.
        -11    1    3    3    0    0  0.33635322948E+01  0.23701010653E+02 -0.49220058217E+01  0.24439259339E+02  0.51100000000E-03 0.  1.
         12    1    3    3    0    0 -0.17182223530E+02 -0.10576002397E+02 -0.63904038795E+01  0.21164070824E+02  0.00000000000E+00 0. -1.
</event>
<event>
 7    1  0.6285940E-013  0.5930194E+02  0.7816164E-02  0.1266605E+00
        -11   -1    0    0    0    0  0.00000000000E+00  0.00000000000E+00  0.45593999997E+02  0.45594000000E+02  0.51100000000E-03 0. -1.
         11   -1    0    0    0    0 -0.00000000000E+00 -0.00000000000E+00 -0.45593999997E+02  0.45594000000E+02  0.51100000000E-03 0.  1.
    9900012    2    1    2    0    0  0.15594046679E+02  0.27083394896E+02  0.63274397602E+01  0.59301936197E+02  0.49999985719E+02 0.  0.
        -12    1    1    2    0    0 -0.15594046679E+02 -0.27083394896E+02 -0.63274397602E+01  0.31886063803E+02  0.00000000000E+00 0.  1.
         11    1    3    3    0    0  0.17383655260E+01  0.34673154308E+01 -0.11540546114E+02  0.12174908455E+02  0.51100000000E-03 0.  1.
        -11    1    3    3    0    0 -0.72185635347E+01  0.20635163572E+02  0.12475418500E+02  0.25170492688E+02  0.51100000000E-03 0. -1.
        -12    1    3    3    0    0  0.21074244688E+02  0.29809158938E+01  0.53925673745E+01  0.21956535055E+02  0.00000000000E+00 0.  1.
</event>
<event>
 7    1  0.6285940E-013  0.5930192E+02  0.7816164E-02  0.1266605E+00
        -11   -1    0    0    0    0  0.00000000000E+00  0.00000000000E+00  0.45593999997E+02  0.45594000000E+02  0.51100000000E-03 0. -1.
         11   -1    0    0    0    0 -0.00000000000E+00 -0.00000000000E+00 -0.45593999997E+02  0.45594000000E+02  0.51100000000E-03 0.  1.
    9900012    2    1    2    0    0 -0.25850738326E+02  0.16678122617E+02 -0.83846222902E+01  0.59301916249E+02  0.49999949338E+02 0.  0.
        -12    1    1    2    0    0  0.25850738326E+02 -0.16678122617E+02  0.83846222902E+01  0.31886083751E+02  0.00000000000E+00 0.  1.
         11    1    3    3    0    0  0.17253968470E+01  0.58676361306E+01  0.67406742390E+00  0.61530898900E+01  0.51100000000E-03 0. -1.
        -11    1    3    3    0    0  0.59723965147E+01 -0.96759927003E+01  0.34751000890E+01  0.11889940107E+02  0.51100000000E-03 0.  1.
        -12    1    3    3    0    0 -0.33548531688E+02  0.20486479187E+02 -0.12533789803E+02  0.41258886251E+02  0.00000000000E+00 0.  1.
</event>
<event>
 7    1  0.6285940E-013  0.5930194E+02  0.7816164E-02  0.1266605E+00
        -11   -1    0    0    0    0  0.00000000000E+00  0.00000000000E+00  0.45593999997E+02  0.45594000000E+02  0.51100000000E-03 0. -1.
         11   -1    0    0    0    0 -0.00000000000E+00 -0.00000000000E+00 -0.45593999997E+02  0.45594000000E+02  0.51100000000E-03 0.  1.
    9900012    2    1    2    0    0 -0.80894652801E+01  0.28854683868E+02  0.10894418892E+02  0.59301943602E+02  0.49999999223E+02 0.  0.
        -12    1    1    2    0    0  0.80894652801E+01 -0.28854683868E+02 -0.10894418892E+02  0.31886056398E+02  0.00000000000E+00 0.  1.
         11    1    3    3    0    0  0.11217224430E+02  0.18699988075E+02  0.15604489865E+02  0.26814469641E+02  0.51100000000E-03 0.  1.
        -11    1    3    3    0    0 -0.15873114476E+02  0.17350174812E+02 -0.61292771989E+00  0.23523605374E+02  0.51100000000E-03 0. -1.
        -12    1    3    3    0    0 -0.34335752343E+01 -0.71954790184E+01 -0.40971432537E+01  0.89638685865E+01  0.00000000000E+00 0.  1.
</event>
<event>
 7    1  0.6285940E-013  0.5930193E+02  0.7816164E-02  0.1266605E+00
        -11   -1    0    0    0    0  0.00000000000E+00  0.00000000000E+00  0.45593999997E+02  0.45594000000E+02  0.51100000000E-03 0. -1.
         11   -1    0    0    0    0 -0.00000000000E+00 -0.00000000000E+00 -0.45593999997E+02  0.45594000000E+02  0.51100000000E-03 0.  1.
    9900012    2    1    2    0    0  0.48677538644E+01  0.19656682040E+02  0.24630087620E+02  0.59301931057E+02  0.49999976344E+02 0.  0.
        -12    1    1    2    0    0 -0.48677538644E+01 -0.19656682040E+02 -0.24630087620E+02  0.31886068943E+02  0.00000000000E+00 0.  1.
         11    1    3    3    0    0 -0.40723066999E+01  0.18665577277E+02  0.13233584684E+02  0.23240379102E+02  0.51100000000E-03 0. -1.
        -11    1    3    3    0    0 -0.10127185170E+02 -0.14562594538E+01  0.13259318193E+02  0.16747838376E+02  0.51100000000E-03 0.  1.
        -12    1    3    3    0    0  0.19067245734E+02  0.24473642164E+01 -0.18628152581E+01  0.19313713579E+02  0.00000000000E+00 0.  1.
</event>
<event>
 7    1  0.6285940E-013  0.5930196E+02  0.7816164E-02  0.1266605E+00
        -11   -1    0    0    0    0  0.00000000000E+00  0.00000000000E+00  0.45593999997E+02  0.45594000000E+02  0.51100000000E-03 0. -1.
         11   -1    0    0    0    0 -0.00000000000E+00 -0.00000000000E+00 -0.45593999997E+02  0.45594000000E+02  0.51100000000E-03 0.  1.
    9900012    2    1    2    0    0  0.13547486591E+02  0.24715215723E+02  0.14911173243E+02  0.59301962795E+02  0.50000034227E+02 0.  0.
        -12    1    1    2    0    0 -0.13547486591E+02 -0.24715215723E+02 -0.14911173243E+02  0.31886037205E+02  0.00000000000E+00 0.  1.
         11    1    3    3    0    0 -0.64039092128E+01  0.15702917705E+02 -0.68710703721E+00  0.16972442193E+02  0.51100000000E-03 0. -1.
        -11    1    3    3    0    0 -0.45581369029E+01  0.58009194252E+01  0.15987323115E+02  0.17607435328E+02  0.51100000000E-03 0.  1.
         12    1    3    3    0    0  0.24509532707E+02  0.32113785926E+01 -0.38904283433E+00  0.24722085274E+02  0.00000000000E+00 0. -1.
</event>
<event>
 7    1  0.6285940E-013  0.5930195E+02  0.7816164E-02  0.1266605E+00
        -11   -1    0    0    0    0  0.00000000000E+00  0.00000000000E+00  0.45593999997E+02  0.45594000000E+02  0.51100000000E-03 0.  1.
         11   -1    0    0    0    0 -0.00000000000E+00 -0.00000000000E+00 -0.45593999997E+02  0.45594000000E+02  0.51100000000E-03 0. -1.
    9900012    2    1    2    0    0 -0.68845411505E+01 -0.30875064034E+02 -0.40066716633E+01  0.59301954404E+02  0.50000018924E+02 0.  0.
        -12    1    1    2    0    0  0.68845411505E+01  0.30875064034E+02  0.40066716633E+01  0.31886045596E+02  0.00000000000E+00 0.  1.
         11    1    3    3    0    0  0.19032205443E+01  0.69235551812E+00 -0.25053891386E+01  0.32215802956E+01  0.51100000000E-03 0. -1.
        -11    1    3    3    0    0 -0.92993149351E+01  0.12185379606E+00  0.17003185956E+02  0.19380413812E+02  0.51100000000E-03 0.  1.
         12    1    3    3    0    0  0.51155324025E+00 -0.31689273348E+02 -0.18504468480E+02  0.36699960297E+02  0.00000000000E+00 0. -1.
</event>
<event>
 7    1  0.6285940E-013  0.5930201E+02  0.7816164E-02  0.1266605E+00
        -11   -1    0    0    0    0  0.00000000000E+00  0.00000000000E+00  0.45593999997E+02  0.45594000000E+02  0.51100000000E-03 0.  1.
         11   -1    0    0    0    0 -0.00000000000E+00 -0.00000000000E+00 -0.45593999997E+02  0.45594000000E+02  0.51100000000E-03 0. -1.
    9900012    2    1    2    0    0 -0.99942193569E+01  0.25575932814E+01 -0.30171018267E+02  0.59302014878E+02  0.50000129214E+02 0.  0.
        -12    1    1    2    0    0  0.99942193569E+01 -0.25575932814E+01  0.30171018267E+02  0.31885985122E+02  0.00000000000E+00 0.  1.
         11    1    3    3    0    0 -0.95340825975E+01 -0.94316193082E+01 -0.35972111626E+01  0.13885031587E+02  0.51100000000E-03 0. -1.
        -11    1    3    3    0    0 -0.14287888837E+02  0.78545448938E+01 -0.13555458667E+01  0.16360780781E+02  0.51100000000E-03 0.  1.
         12    1    3    3    0    0  0.13827752078E+02  0.41346676958E+01 -0.25218261237E+02  0.29056202510E+02  0.00000000000E+00 0. -1.
</event>
<event>
 7    1  0.6285940E-013  0.5930211E+02  0.7816164E-02  0.1266604E+00
        -11   -1    0    0    0    0  0.00000000000E+00  0.00000000000E+00  0.45593999997E+02  0.45594000000E+02  0.51100000000E-03 0.  1.
         11   -1    0    0    0    0 -0.00000000000E+00 -0.00000000000E+00 -0.45593999997E+02  0.45594000000E+02  0.51100000000E-03 0. -1.
    9900012    2    1    2    0    0 -0.66139603806E+01  0.14103976956E+02 -0.27821636506E+02  0.59302108202E+02  0.50000299413E+02 0.  0.
        -12    1    1    2    0    0  0.66139603806E+01 -0.14103976956E+02  0.27821636506E+02  0.31885891798E+02  0.00000000000E+00 0.  1.
         11    1    3    3    0    0 -0.17111020387E+02 -0.67554298397E+01 -0.31084545799E+01  0.18657045349E+02  0.51100000000E-03 0. -1.
        -11    1    3    3    0    0 -0.42925079046E+01  0.70677901506E+01  0.54720691072E+00  0.82872623579E+01  0.51100000000E-03 0.  1.
         12    1    3    3    0    0  0.14789567911E+02  0.13791616645E+02 -0.25260388837E+02  0.32357800495E+02  0.00000000000E+00 0. -1.
</event>
<event>
 7    1  0.6285940E-013  0.5930194E+02  0.7816164E-02  0.1266605E+00
        -11   -1    0    0    0    0  0.00000000000E+00  0.00000000000E+00  0.45593999997E+02  0.45594000000E+02  0.51100000000E-03 0.  1.
         11   -1    0    0    0    0 -0.00000000000E+00 -0.00000000000E+00 -0.45593999997E+02  0.45594000000E+02  0.51100000000E-03 0. -1.
    9900012    2    1    2    0    0 -0.21984130532E+02 -0.14660919901E+02 -0.17845897972E+02  0.59301942828E+02  0.49999997811E+02 0.  0.
        -12    1    1    2    0    0  0.21984130532E+02  0.14660919901E+02  0.17845897972E+02  0.31886057172E+02  0.00000000000E+00 0.  1.
         11    1    3    3    0    0 -0.18742582496E+02  0.27064237636E+01 -0.22196443395E+02  0.29176895446E+02  0.51100000000E-03 0. -1.
        -11    1    3    3    0    0 -0.10702349132E+02  0.12770481387E+00  0.46799499097E+00  0.10713337717E+02  0.51100000000E-03 0.  1.
        -12    1    3    3    0    0  0.74608010967E+01 -0.17495048478E+02  0.38825504315E+01  0.19411709665E+02  0.00000000000E+00 0.  1.
</event>
<event>
 7    1  0.6285940E-013  0.5930194E+02  0.7816164E-02  0.1266605E+00
        -11   -1    0    0    0    0  0.00000000000E+00  0.00000000000E+00  0.45593999997E+02  0.45594000000E+02  0.51100000000E-03 0.  1.
         11   -1    0    0    0    0 -0.00000000000E+00 -0.00000000000E+00 -0.45593999997E+02  0.45594000000E+02  0.51100000000E-03 0. -1.
    9900012    2    1    2    0    0 -0.16001044042E+02 -0.12110871853E+02 -0.24779313878E+02  0.59301936842E+02  0.49999986895E+02 0.  0.
        -12    1    1    2    0    0  0.16001044042E+02  0.12110871853E+02  0.24779313878E+02  0.31886063158E+02  0.00000000000E+00 0.  1.
         11    1    3    3    0    0  0.13672011492E+01 -0.17267609303E+02 -0.11352910717E+02  0.20710580678E+02  0.51100000000E-03 0. -1.
        -11    1    3    3    0    0 -0.85131736379E+01 -0.22415582669E+01  0.94834692232E+01  0.12939663737E+02  0.51100000000E-03 0.  1.
        -12    1    3    3    0    0 -0.88550715527E+01  0.73982957171E+01 -0.22909872384E+02  0.25651692427E+02  0.00000000000E+00 0.  1.
</event>
<event>
 7    1  0.6285940E-013  0.5930195E+02  0.7816164E-02  0.1266605E+00
        -11   -1    0    0    0    0  0.00000000000E+00  0.00000000000E+00  0.45593999997E+02  0.45594000000E+02  0.51100000000E-03 0.  1.
         11   -1    0    0    0    0 -0.00000000000E+00 -0.00000000000E+00 -0.45593999997E+02  0.45594000000E+02  0.51100000000E-03 0. -1.
    9900012    2    1    2    0    0  0.27026092619E+02 -0.18430149198E+01 -0.16820035216E+02  0.59301953351E+02  0.50000017003E+02 0.  0.
        -12    1    1    2    0    0 -0.27026092619E+02  0.18430149198E+01  0.16820035216E+02  0.31886046649E+02  0.00000000000E+00 0.  1.
         11    1    3    3    0    0 -0.58030409744E+01  0.46281443807E+01 -0.10333460064E+02  0.12723026453E+02  0.51100000000E-03 0. -1.
        -11    1    3    3    0    0  0.46187982036E+01 -0.26208712994E+00 -0.15614533010E+02  0.16285442208E+02  0.51100000000E-03 0.  1.
        -12    1    3    3    0    0  0.28210335390E+02 -0.62090721706E+01  0.91279578582E+01  0.30293484690E+02  0.00000000000E+00 0.  1.
</event>
<event>
 7    1  0.6285940E-013  0.5930183E+02  0.7816164E-02  0.1266605E+00
        -11   -1    0    0    0    0  0.00000000000E+00  0.00000000000E+00  0.45593999997E+02  0.45594000000E+02  0.51100000000E-03 0. -1.
         11   -1    0    0    0    0 -0.00000000000E+00 -0.00000000000E+00 -0.45593999997E+02  0.45594000000E+02  0.51100000000E-03 0.  1.
    9900012    2    1    2    0    0  0.26943856428E+02 -0.16379030168E+02 -0.47417053361E+01  0.59301830616E+02  0.49999793164E+02 0.  0.
        -12    1    1    2    0    0 -0.26943856428E+02  0.16379030168E+02  0.47417053361E+01  0.31886169384E+02  0.00000000000E+00 0.  1.
         11    1    3    3    0    0  0.12256356618E+02 -0.16848691760E+01  0.19047886622E+02  0.22712970892E+02  0.51100000000E-03 0. -1.
        -11    1    3    3    0    0 -0.20293511399E+01 -0.27132140639E+00  0.18455605757E+01  0.27564425360E+01  0.51100000000E-03 0.  1.
        -12    1    3    3    0    0  0.16716850950E+02 -0.14422839586E+02 -0.25635152534E+02  0.33832417189E+02  0.00000000000E+00 0.  1.
</event>
<event>
 7    1  0.6285940E-013  0.5930196E+02  0.7816164E-02  0.1266605E+00
        -11   -1    0    0    0    0  0.00000000000E+00  0.00000000000E+00  0.45593999997E+02  0.45594000000E+02  0.51100000000E-03 0.  1.
         11   -1    0    0    0    0 -0.00000000000E+00 -0.00000000000E+00 -0.45593999997E+02  0.45594000000E+02  0.51100000000E-03 0. -1.
    9900012    2    1    2    0    0 -0.68901095932E+01 -0.24956462505E+02 -0.18612392270E+02  0.59301956392E+02  0.50000022549E+02 0.  0.
        -12    1    1    2    0    0  0.68901095932E+01  0.24956462505E+02  0.18612392270E+02  0.31886043608E+02  0.00000000000E+00 0.  1.
         11    1    3    3    0    0  0.12647882807E+02 -0.58479522320E+01 -0.10132024142E+02  0.17228621486E+02  0.51100000000E-03 0. -1.
        -11    1    3    3    0    0 -0.90050335440E+01  0.80455113885E+01 -0.20890254676E+01  0.12254995320E+02  0.51100000000E-03 0.  1.
         12    1    3    3    0    0 -0.10532958857E+02 -0.27154021662E+02 -0.63913426597E+01  0.29818339586E+02  0.00000000000E+00 0. -1.
</event>
<event>
 7    1  0.6285940E-013  0.5930194E+02  0.7816164E-02  0.1266605E+00
        -11   -1    0    0    0    0  0.00000000000E+00  0.00000000000E+00  0.45593999997E+02  0.45594000000E+02  0.51100000000E-03 0.  1.
         11   -1    0    0    0    0 -0.00000000000E+00 -0.00000000000E+00 -0.45593999997E+02  0.45594000000E+02  0.51100000000E-03 0. -1.
    9900012    2    1    2    0    0 -0.18711275853E+02 -0.22932406945E+02 -0.11862293123E+02  0.59301935168E+02  0.49999983842E+02 0.  0.
        -12    1    1    2    0    0  0.18711275853E+02  0.22932406945E+02  0.11862293123E+02  0.31886064832E+02  0.00000000000E+00 0.  1.
         11    1    3    3    0    0 -0.22044225654E+02 -0.94190590986E+01 -0.12240461523E+02  0.26916453287E+02  0.51100000000E-03 0. -1.
        -11    1    3    3    0    0 -0.12806568936E+02 -0.88934619214E+01  0.43107361456E+00  0.15597682443E+02  0.51100000000E-03 0.  1.
        -12    1    3    3    0    0  0.16139518737E+02 -0.46198859252E+01 -0.52905214022E-01  0.16787799439E+02  0.00000000000E+00 0.  1.
</event>
<event>
 7    1  0.6285940E-013  0.5930195E+02  0.7816164E-02  0.1266605E+00
        -11   -1    0    0    0    0  0.00000000000E+00  0.00000000000E+00  0.45593999997E+02  0.45594000000E+02  0.51100000000E-03 0. -1.
         11   -1    0    0    0    0 -0.00000000000E+00 -0.00000000000E+00 -0.45593999997E+02  0.45594000000E+02  0.51100000000E-03 0.  1.
    9900012    2    1    2    0    0  0.10405829972E+02  0.29604860111E+02 -0.56560874323E+01  0.59301947177E+02  0.50000005744E+02 0.  0.
        -12    1    1    2    0    0 -0.10405829972E+02 -0.29604860111E+02  0.56560874323E+01  0.31886052823E+02  0.00000000000E+00 0.  1.
         11    1    3    3    0    0 -0.56379885443E+01  0.14587175537E+02 -0.85813184640E+01  0.17838487375E+02  0.51100000000E-03 0. -1.
        -11    1    3    3    0    0  0.25096432248E+02  0.78146348650E+01 -0.58683573477E+01  0.26932082130E+02  0.51100000000E-03 0.  1.
         12    1    3    3    0    0 -0.90526137318E+01  0.72030497082E+01  0.87935883794E+01  0.14531377673E+02  0.00000000000E+00 0. -1.
</event>
<event>
 7    1  0.6285940E-013  0.5930197E+02  0.7816164E-02  0.1266605E+00
        -11   -1    0    0    0    0  0.00000000000E+00  0.00000000000E+00  0.45593999997E+02  0.45594000000E+02  0.51100000000E-03 0.  1.
         11   -1    0    0    0    0 -0.00000000000E+00 -0.00000000000E+00 -0.45593999997E+02  0.45594000000E+02  0.51100000000E-03 0. -1.
    9900012    2    1    2    0    0  0.19058332796E+02 -0.25556880725E+02 -0.58729328457E+00  0.59301966776E+02  0.50000041487E+02 0.  0.
        -12    1    1    2    0    0 -0.19058332796E+02  0.25556880725E+02  0.58729328457E+00  0.31886033224E+02  0.00000000000E+00 0.  1.
         11    1    3    3    0    0  0.84458907118E+01 -0.34324043179E+02  0.58535010294E+00  0.35352731791E+02  0.51100000000E-03 0. -1.
        -11    1    3    3    0    0 -0.22040322730E+01 -0.17080306408E+00 -0.69476779196E+01  0.72908957394E+01  0.51100000000E-03 0.  1.
         12    1    3    3    0    0  0.12816474357E+02  0.89379655183E+01  0.57750345320E+01  0.16658339245E+02  0.00000000000E+00 0. -1.
</event>
<event>
 7    1  0.6285940E-013  0.5930195E+02  0.7816164E-02  0.1266605E+00
        -11   -1    0    0    0    0  0.00000000000E+00  0.00000000000E+00  0.45593999997E+02  0.45594000000E+02  0.51100000000E-03 0.  1.
         11   -1    0    0    0    0 -0.00000000000E+00 -0.00000000000E+00 -0.45593999997E+02  0.45594000000E+02  0.51100000000E-03 0. -1.
    9900012    2    1    2    0    0 -0.16133513283E+01  0.24993216096E+01 -0.31746982019E+02  0.59301946962E+02  0.50000005352E+02 0.  0.
        -12    1    1    2    0    0  0.16133513283E+01 -0.24993216096E+01  0.31746982019E+02  0.31886053038E+02  0.00000000000E+00 0.  1.
         11    1    3    3    0    0  0.97557288897E+01  0.53775115609E+01  0.16278880230E+01  0.11257970351E+02  0.51100000000E-03 0. -1.
        -11    1    3    3    0    0 -0.28756578161E+01  0.40780516455E+01  0.56302540000E+01  0.75232754479E+01  0.51100000000E-03 0.  1.
         12    1    3    3    0    0 -0.84934224019E+01 -0.69562415968E+01 -0.39005124042E+02  0.40520701163E+02  0.00000000000E+00 0. -1.
</event>
<event>
 7    1  0.6285940E-013  0.5930198E+02  0.7816164E-02  0.1266605E+00
        -11   -1    0    0    0    0  0.00000000000E+00  0.00000000000E+00  0.45593999997E+02  0.45594000000E+02  0.51100000000E-03 0.  1.
         11   -1    0    0    0    0 -0.00000000000E+00 -0.00000000000E+00 -0.45593999997E+02  0.45594000000E+02  0.51100000000E-03 0. -1.
    9900012    2    1    2    0    0  0.18744049915E+02  0.10196884588E+02 -0.23693927952E+02  0.59301982935E+02  0.50000070957E+02 0.  0.
        -12    1    1    2    0    0 -0.18744049915E+02 -0.10196884588E+02  0.23693927952E+02  0.31886017065E+02  0.00000000000E+00 0.  1.
         11    1    3    3    0    0  0.11817603639E+02 -0.84600032481E+01  0.24416349513E+01  0.14737333281E+02  0.51100000000E-03 0.  1.
        -11    1    3    3    0    0  0.77189801025E+01 -0.14802209419E+01 -0.22826961160E+02  0.24142159471E+02  0.51100000000E-03 0. -1.
        -12    1    3    3    0    0 -0.79253382660E+00  0.20137108778E+02 -0.33086017432E+01  0.20422490183E+02  0.00000000000E+00 0.  1.
</event>
<event>
 7    1  0.6285940E-013  0.5930182E+02  0.7816164E-02  0.1266605E+00
        -11   -1    0    0    0    0  0.00000000000E+00  0.00000000000E+00  0.45593999997E+02  0.45594000000E+02  0.51100000000E-03 0. -1.
         11   -1    0    0    0    0 -0.00000000000E+00 -0.00000000000E+00 -0.45593999997E+02  0.45594000000E+02  0.51100000000E-03 0.  1.
    9900012    2    1    2    0    0  0.22235710796E+02 -0.15903579092E+02  0.16412727435E+02  0.59301822989E+02  0.49999779254E+02 0.  0.
        -12    1    1    2    0    0 -0.22235710796E+02  0.15903579092E+02 -0.16412727435E+02  0.31886177011E+02  0.00000000000E+00 0.  1.
         11    1    3    3    0    0 -0.26631247405E+01  0.59566790312E+01 -0.52769399293E+01  0.83916836060E+01  0.51100000000E-03 0. -1.
        -11    1    3    3    0    0 -0.73194310165E+01 -0.46216851171E+01  0.83037428746E+01  0.11995256967E+02  0.51100000000E-03 0.  1.
         12    1    3    3    0    0  0.32218266553E+02 -0.17238573006E+02  0.13385924490E+02  0.38914882415E+02  0.00000000000E+00 0. -1.
</event>
<event>
 7    1  0.6285940E-013  0.5930194E+02  0.7816164E-02  0.1266605E+00
        -11   -1    0    0    0    0  0.00000000000E+00  0.00000000000E+00  0.45593999997E+02  0.45594000000E+02  0.51100000000E-03 0.  1.
         11   -1    0    0    0    0 -0.00000000000E+00 -0.00000000000E+00 -0.45593999997E+02  0.45594000000E+02  0.51100000000E-03 0. -1.
    9900012    2    1    2    0    0 -0.92799535716E+01  0.19237080436E+02 -0.23675682077E+02  0.59301941545E+02  0.49999995473E+02 0.  0.
        -12    1    1    2    0    0  0.92799535716E+01 -0.19237080436E+02  0.23675682077E+02  0.31886058455E+02  0.00000000000E+00 0.  1.
         11    1    3    3    0    0  0.90801746954E+01  0.32581467872E+01  0.28000608183E+01  0.10045169677E+02  0.51100000000E-03 0. -1.
        -11    1    3    3    0    0 -0.46423132211E+01  0.10844450827E+02  0.62883026976E+01  0.13367719958E+02  0.51100000000E-03 0.  1.
         12    1    3    3    0    0 -0.13717815046E+02  0.51344828211E+01 -0.32764045593E+02  0.35889051911E+02  0.00000000000E+00 0. -1.
</event>
<event>
 7    1  0.6285940E-013  0.5930196E+02  0.7816164E-02  0.1266605E+00
        -11   -1    0    0    0    0  0.00000000000E+00  0.00000000000E+00  0.45593999997E+02  0.45594000000E+02  0.51100000000E-03 0.  1.
         11   -1    0    0    0    0 -0.00000000000E+00 -0.00000000000E+00 -0.45593999997E+02  0.45594000000E+02  0.51100000000E-03 0. -1.
    9900012    2    1    2    0    0 -0.11256453861E+02 -0.16738387389E+02  0.24694900710E+02  0.59301960939E+02  0.50000030843E+02 0.  0.
        -12    1    1    2    0    0  0.11256453861E+02  0.16738387389E+02 -0.24694900710E+02  0.31886039061E+02  0.00000000000E+00 0.  1.
         11    1    3    3    0    0  0.19235323040E+02 -0.20998317470E+01  0.61689806724E+01  0.20309191727E+02  0.51100000000E-03 0.  1.
        -11    1    3    3    0    0 -0.13639165427E+02 -0.89291172359E+01  0.66846015579E+01  0.17619303801E+02  0.51100000000E-03 0. -1.
        -12    1    3    3    0    0 -0.16852611473E+02 -0.57094384062E+01  0.11841318480E+02  0.21373465412E+02  0.00000000000E+00 0.  1.
</event>
<event>
 7    1  0.6285940E-013  0.5930196E+02  0.7816164E-02  0.1266605E+00
        -11   -1    0    0    0    0  0.00000000000E+00  0.00000000000E+00  0.45593999997E+02  0.45594000000E+02  0.51100000000E-03 0.  1.
         11   -1    0    0    0    0 -0.00000000000E+00 -0.00000000000E+00 -0.45593999997E+02  0.45594000000E+02  0.51100000000E-03 0. -1.
    9900012    2    1    2    0    0 -0.27553448556E+02 -0.12725060131E+02 -0.97775120277E+01  0.59301961925E+02  0.50000032641E+02 0.  0.
        -12    1    1    2    0    0  0.27553448556E+02  0.12725060131E+02  0.97775120277E+01  0.31886038075E+02  0.00000000000E+00 0.  1.
         11    1    3    3    0    0 -0.19639403265E+02 -0.53346745442E+01 -0.76356145406E+00  0.20365361265E+02  0.51100000000E-03 0. -1.
        -11    1    3    3    0    0 -0.17655934510E+02 -0.94747976423E+01 -0.16914125920E+02  0.26221965405E+02  0.51100000000E-03 0.  1.
        -12    1    3    3    0    0  0.97418892187E+01  0.20844120559E+01  0.79001753468E+01  0.12714635255E+02  0.00000000000E+00 0.  1.
</event>
<event>
 7    1  0.6285940E-013  0.5930192E+02  0.7816164E-02  0.1266605E+00
        -11   -1    0    0    0    0  0.00000000000E+00  0.00000000000E+00  0.45593999997E+02  0.45594000000E+02  0.51100000000E-03 0.  1.
         11   -1    0    0    0    0 -0.00000000000E+00 -0.00000000000E+00 -0.45593999997E+02  0.45594000000E+02  0.51100000000E-03 0. -1.
    9900012    2    1    2    0    0 -0.12461880729E+01 -0.29292962045E+02 -0.12533602437E+02  0.59301924667E+02  0.49999964691E+02 0.  0.
        -12    1    1    2    0    0  0.12461880729E+01  0.29292962045E+02  0.12533602437E+02  0.31886075333E+02  0.00000000000E+00 0.  1.
         11    1    3    3    0    0  0.64016066979E+01 -0.57072376758E+01  0.57959068589E+01  0.10351119108E+02  0.51100000000E-03 0. -1.
        -11    1    3    3    0    0  0.98763505395E+01 -0.24597477444E+02 -0.51534912058E+01  0.27002530779E+02  0.51100000000E-03 0.  1.
         12    1    3    3    0    0 -0.17524145310E+02  0.10117530754E+01 -0.13176018090E+02  0.21948274781E+02  0.00000000000E+00 0. -1.
</event>
<event>
 7    1  0.6285940E-013  0.5930210E+02  0.7816164E-02  0.1266604E+00
        -11   -1    0    0    0    0  0.00000000000E+00  0.00000000000E+00  0.45593999997E+02  0.45594000000E+02  0.51100000000E-03 0.  1.
         11   -1    0    0    0    0 -0.00000000000E+00 -0.00000000000E+00 -0.45593999997E+02  0.45594000000E+02  0.51100000000E-03 0. -1.
    9900012    2    1    2    0    0 -0.18034309026E+02  0.18806623288E+02 -0.18378939543E+02  0.59302097155E+02  0.50000279266E+02 0.  0.
        -12    1    1    2    0    0  0.18034309026E+02 -0.18806623288E+02  0.18378939543E+02  0.31885902845E+02  0.00000000000E+00 0.  1.
         11    1    3    3    0    0 -0.11954222674E+02  0.16648430911E+02 -0.32110049656E+01  0.20745704246E+02  0.51100000000E-03 0. -1.
        -11    1    3    3    0    0 -0.89980001535E+00 -0.12964015423E+02  0.40009558686E+01  0.13597168237E+02  0.51100000000E-03 0.  1.
         12    1    3    3    0    0 -0.51802863367E+01  0.15122207800E+02 -0.19168890446E+02  0.24959224671E+02  0.00000000000E+00 0. -1.
</event>
<event>
 7    1  0.6285940E-013  0.5930196E+02  0.7816164E-02  0.1266605E+00
        -11   -1    0    0    0    0  0.00000000000E+00  0.00000000000E+00  0.45593999997E+02  0.45594000000E+02  0.51100000000E-03 0.  1.
         11   -1    0    0    0    0 -0.00000000000E+00 -0.00000000000E+00 -0.45593999997E+02  0.45594000000E+02  0.51100000000E-03 0. -1.
    9900012    2    1    2    0    0  0.29937218931E+01 -0.30186972070E+02  0.98236476109E+01  0.59301957506E+02  0.50000024581E+02 0.  0.
        -12    1    1    2    0    0 -0.29937218931E+01  0.30186972070E+02 -0.98236476109E+01  0.31886042494E+02  0.00000000000E+00 0.  1.
         11    1    3    3    0    0  0.14391157016E+01 -0.52693470414E+01 -0.84471896514E+01  0.10059427693E+02  0.51100000000E-03 0. -1.
        -11    1    3    3    0    0  0.11096228721E+02  0.60394330306E+01  0.13778933940E+01  0.12708250612E+02  0.51100000000E-03 0.  1.
        -12    1    3    3    0    0 -0.95416225293E+01 -0.30957058059E+02  0.16892943868E+02  0.36534279201E+02  0.00000000000E+00 0.  1.
</event>
<event>
 7    1  0.6285940E-013  0.5930194E+02  0.7816164E-02  0.1266605E+00
        -11   -1    0    0    0    0  0.00000000000E+00  0.00000000000E+00  0.45593999997E+02  0.45594000000E+02  0.51100000000E-03 0.  1.
         11   -1    0    0    0    0 -0.00000000000E+00 -0.00000000000E+00 -0.45593999997E+02  0.45594000000E+02  0.51100000000E-03 0. -1.
    9900012    2    1    2    0    0 -0.21873454274E+02  0.21461951360E+02  0.88123523963E+01  0.59301938581E+02  0.49999990066E+02 0.  0.
        -12    1    1    2    0    0  0.21873454274E+02 -0.21461951360E+02 -0.88123523963E+01  0.31886061419E+02  0.00000000000E+00 0.  1.
         11    1    3    3    0    0  0.80650085692E+01  0.18671721179E+02  0.23149063052E+01  0.20470376803E+02  0.51100000000E-03 0. -1.
        -11    1    3    3    0    0 -0.22990684248E+00 -0.51919935113E+01  0.61706242878E+01  0.80676054775E+01  0.51100000000E-03 0.  1.
        -12    1    3    3    0    0 -0.29708556001E+02  0.79822236927E+01  0.32682180328E+00  0.30763956300E+02  0.00000000000E+00 0.  1.
</event>
<event>
 7    1  0.6285940E-013  0.5930194E+02  0.7816164E-02  0.1266605E+00
        -11   -1    0    0    0    0  0.00000000000E+00  0.00000000000E+00  0.45593999997E+02  0.45594000000E+02  0.51100000000E-03 0.  1.
         11   -1    0    0    0    0 -0.00000000000E+00 -0.00000000000E+00 -0.45593999997E+02  0.45594000000E+02  0.51100000000E-03 0. -1.
    9900012    2    1    2    0    0 -0.87487317913E+01 -0.15840510983E+02 -0.26253736816E+02  0.59301940460E+02  0.49999993494E+02 0.  0.
        -12    1    1    2    0    0  0.87487317913E+01  0.15840510983E+02  0.26253736816E+02  0.31886059540E+02  0.00000000000E+00 0.  1.
         11    1    3    3    0    0  0.70956484618E+01 -0.28527609673E+02 -0.16905594450E+02  0.33911235081E+02  0.51100000000E-03 0. -1.
        -11    1    3    3    0    0 -0.69016287757E+00  0.74917982395E+01 -0.38655652156E+01  0.84584845189E+01  0.51100000000E-03 0.  1.
        -12    1    3    3    0    0 -0.15154217376E+02  0.51953004512E+01 -0.54825771505E+01  0.16932220860E+02  0.00000000000E+00 0.  1.
</event>
<event>
 7    1  0.6285940E-013  0.5930193E+02  0.7816164E-02  0.1266605E+00
        -11   -1    0    0    0    0  0.00000000000E+00  0.00000000000E+00  0.45593999997E+02  0.45594000000E+02  0.51100000000E-03 0.  1.
         11   -1    0    0    0    0 -0.00000000000E+00 -0.00000000000E+00 -0.45593999997E+02  0.45594000000E+02  0.51100000000E-03 0. -1.
    9900012    2    1    2    0    0 -0.13763603402E+02 -0.86326204150E+01 -0.27436520143E+02  0.59301928568E+02  0.49999971805E+02 0.  0.
        -12    1    1    2    0    0  0.13763603402E+02  0.86326204150E+01  0.27436520143E+02  0.31886071432E+02  0.00000000000E+00 0.  1.
         11    1    3    3    0    0 -0.56068773281E+01 -0.98743153418E+01  0.94903446137E+01  0.14798845157E+02  0.51100000000E-03 0. -1.
        -11    1    3    3    0    0  0.84490644390E+00 -0.10063665755E+02 -0.11940902397E+02  0.15638938124E+02  0.51100000000E-03 0.  1.
        -12    1    3    3    0    0 -0.90016325174E+01  0.11305360682E+02 -0.24985962360E+02  0.28864145287E+02  0.00000000000E+00 0.  1.
</event>
<event>
 7    1  0.6285940E-013  0.5930195E+02  0.7816164E-02  0.1266605E+00
        -11   -1    0    0    0    0  0.00000000000E+00  0.00000000000E+00  0.45593999997E+02  0.45594000000E+02  0.51100000000E-03 0. -1.
         11   -1    0    0    0    0 -0.00000000000E+00 -0.00000000000E+00 -0.45593999997E+02  0.45594000000E+02  0.51100000000E-03 0.  1.
    9900012    2    1    2    0    0 -0.26518332842E+02  0.16855161353E+02  0.54223646337E+01  0.59301945381E+02  0.50000002468E+02 0.  0.
        -12    1    1    2    0    0  0.26518332842E+02 -0.16855161353E+02 -0.54223646337E+01  0.31886054619E+02  0.00000000000E+00 0.  1.
         11    1    3    3    0    0 -0.13048583975E+02  0.14685840703E+02 -0.78036061553E+01  0.21138489307E+02  0.51100000000E-03 0. -1.
        -11    1    3    3    0    0 -0.17353468622E+02  0.56935015450E+00 -0.60870897173E+01  0.18398904704E+02  0.51100000000E-03 0.  1.
        -12    1    3    3    0    0  0.38837197549E+01  0.15999704958E+01  0.19313060506E+02  0.19764551370E+02  0.00000000000E+00 0.  1.
</event>
<event>
 7    1  0.6285940E-013  0.5930195E+02  0.7816164E-02  0.1266605E+00
        -11   -1    0    0    0    0  0.00000000000E+00  0.00000000000E+00  0.45593999997E+02  0.45594000000E+02  0.51100000000E-03 0. -1.
         11   -1    0    0    0    0 -0.00000000000E+00 -0.00000000000E+00 -0.45593999997E+02  0.45594000000E+02  0.51100000000E-03 0.  1.
    9900012    2    1    2    0    0  0.92727632849E+01  0.16367977882E+02 -0.25745393082E+02  0.59301951267E+02  0.50000013202E+02 0.  0.
        -12    1    1    2    0    0 -0.92727632849E+01 -0.16367977882E+02  0.25745393082E+02  0.31886048733E+02  0.00000000000E+00 0.  1.
         11    1    3    3    0    0  0.32416056448E+01 -0.28388538714E+01  0.11031191138E+02  0.11842899841E+02  0.51100000000E-03 0. -1.
        -11    1    3    3    0    0 -0.41640346768E+01  0.43972734825E+01  0.49628320185E+00  0.60763061268E+01  0.51100000000E-03 0.  1.
        -12    1    3    3    0    0  0.10195192317E+02  0.14809558271E+02 -0.37272867422E+02  0.41382745298E+02  0.00000000000E+00 0.  1.
</event>
<event>
 7    1  0.6285940E-013  0.5930192E+02  0.7816164E-02  0.1266605E+00
        -11   -1    0    0    0    0  0.00000000000E+00  0.00000000000E+00  0.45593999997E+02  0.45594000000E+02  0.51100000000E-03 0. -1.
         11   -1    0    0    0    0 -0.00000000000E+00 -0.00000000000E+00 -0.45593999997E+02  0.45594000000E+02  0.51100000000E-03 0.  1.
    9900012    2    1    2    0    0 -0.47078496978E+01 -0.88942349075E+01 -0.30256418457E+02  0.59301919632E+02  0.49999955508E+02 0.  0.
        -12    1    1    2    0    0  0.47078496978E+01  0.88942349075E+01  0.30256418457E+02  0.31886080368E+02  0.00000000000E+00 0.  1.
         11    1    3    3    0    0 -0.12740592095E+02 -0.53694329185E+01 -0.24348531490E+01  0.14038589919E+02  0.51100000000E-03 0. -1.
        -11    1    3    3    0    0 -0.51339037403E+01 -0.16130797967E+02 -0.17355579880E+02  0.24244087194E+02  0.51100000000E-03 0.  1.
        -12    1    3    3    0    0  0.13166646137E+02  0.12605995978E+02 -0.10465985429E+02  0.21019242519E+02  0.00000000000E+00 0.  1.
</event>
<event>
 7    1  0.6285940E-013  0.5930194E+02  0.7816164E-02  0.1266605E+00
        -11   -1    0    0    0    0  0.00000000000E+00  0.00000000000E+00  0.45593999997E+02  0.45594000000E+02  0.51100000000E-03 0.  1.
         11   -1    0    0    0    0 -0.00000000000E+00 -0.00000000000E+00 -0.45593999997E+02  0.45594000000E+02  0.51100000000E-03 0. -1.
    9900012    2    1    2    0    0  0.70877633612E+01 -0.25382079906E+02 -0.17950888287E+02  0.59301940976E+02  0.49999994434E+02 0.  0.
        -12    1    1    2    0    0 -0.70877633612E+01  0.25382079906E+02  0.17950888287E+02  0.31886059024E+02  0.00000000000E+00 0.  1.
         11    1    3    3    0    0 -0.45558767613E+01 -0.96545136434E+01 -0.23606759553E+02  0.25908391374E+02  0.51100000000E-03 0. -1.
        -11    1    3    3    0    0 -0.78074810539E+00 -0.19661965105E+02  0.52007975252E+01  0.20353150482E+02  0.51100000000E-03 0.  1.
        -12    1    3    3    0    0  0.12424388228E+02  0.39343988421E+01  0.45507374119E+00  0.13040399120E+02  0.00000000000E+00 0.  1.
</event>
<event>
 7    1  0.6285940E-013  0.5930196E+02  0.7816164E-02  0.1266605E+00
        -11   -1    0    0    0    0  0.00000000000E+00  0.00000000000E+00  0.45593999997E+02  0.45594000000E+02  0.51100000000E-03 0. -1.
         11   -1    0    0    0    0 -0.00000000000E+00 -0.00000000000E+00 -0.45593999997E+02  0.45594000000E+02  0.51100000000E-03 0.  1.
    9900012    2    1    2    0    0 -0.18740235947E+02  0.24535882170E+02 -0.79695586946E+01  0.59301955670E+02  0.50000021233E+02 0.  0.
        -12    1    1    2    0    0  0.18740235947E+02 -0.24535882170E+02  0.79695586946E+01  0.31886044330E+02  0.00000000000E+00 0.  1.
         11    1    3    3    0    0 -0.25515877280E+02  0.68296824608E+01  0.75246773817E+01  0.27464983631E+02  0.51100000000E-03 0. -1.
        -11    1    3    3    0    0 -0.66868561584E+01  0.32867607634E+01 -0.74384602353E+01  0.10528415481E+02  0.51100000000E-03 0.  1.
        -12    1    3    3    0    0  0.13462497491E+02  0.14419438946E+02 -0.80557758411E+01  0.21308556559E+02  0.00000000000E+00 0.  1.
</event>
<event>
 7    1  0.6285940E-013  0.5930198E+02  0.7816164E-02  0.1266605E+00
        -11   -1    0    0    0    0  0.00000000000E+00  0.00000000000E+00  0.45593999997E+02  0.45594000000E+02  0.51100000000E-03 0.  1.
         11   -1    0    0    0    0 -0.00000000000E+00 -0.00000000000E+00 -0.45593999997E+02  0.45594000000E+02  0.51100000000E-03 0. -1.
    9900012    2    1    2    0    0  0.17924567144E+00 -0.31478207706E+02  0.50802081969E+01  0.59301981047E+02  0.50000067513E+02 0.  0.
        -12    1    1    2    0    0 -0.17924567144E+00  0.31478207706E+02 -0.50802081969E+01  0.31886018953E+02  0.00000000000E+00 0.  1.
         11    1    3    3    0    0 -0.79024199080E+01 -0.34776341223E+02  0.65659314824E+01  0.36262289031E+02  0.51100000000E-03 0. -1.
        -11    1    3    3    0    0 -0.57268598976E+01 -0.38035750710E+00 -0.57526471066E+01  0.81261642313E+01  0.51100000000E-03 0.  1.
        -12    1    3    3    0    0  0.13808525477E+02  0.36784910249E+01  0.42669238210E+01  0.14913527784E+02  0.00000000000E+00 0.  1.
</event>
<event>
 7    1  0.6285940E-013  0.5930201E+02  0.7816164E-02  0.1266605E+00
        -11   -1    0    0    0    0  0.00000000000E+00  0.00000000000E+00  0.45593999997E+02  0.45594000000E+02  0.51100000000E-03 0.  1.
         11   -1    0    0    0    0 -0.00000000000E+00 -0.00000000000E+00 -0.45593999997E+02  0.45594000000E+02  0.51100000000E-03 0. -1.
    9900012    2    1    2    0    0  0.18210071424E+02 -0.15851937512E+02 -0.20828483242E+02  0.59302010313E+02  0.50000120889E+02 0.  0.
        -12    1    1    2    0    0 -0.18210071424E+02  0.15851937512E+02  0.20828483242E+02  0.31885989687E+02  0.00000000000E+00 0.  1.
         11    1    3    3    0    0  0.53355056135E+01 -0.58683019415E+01 -0.18920578310E+02  0.20515673805E+02  0.51100000000E-03 0. -1.
        -11    1    3    3    0    0  0.20171647581E+02 -0.90462459724E+01 -0.12872782392E+02  0.25581994822E+02  0.51100000000E-03 0.  1.
        -12    1    3    3    0    0 -0.72970817698E+01 -0.93738959816E+00  0.10964877461E+02  0.13204341686E+02  0.00000000000E+00 0.  1.
</event>
<event>
 7    1  0.6285940E-013  0.5930193E+02  0.7816164E-02  0.1266605E+00
        -11   -1    0    0    0    0  0.00000000000E+00  0.00000000000E+00  0.45593999997E+02  0.45594000000E+02  0.51100000000E-03 0. -1.
         11   -1    0    0    0    0 -0.00000000000E+00 -0.00000000000E+00 -0.45593999997E+02  0.45594000000E+02  0.51100000000E-03 0.  1.
    9900012    2    1    2    0    0 -0.19123961303E+02 -0.21503128072E+02 -0.13733573507E+02  0.59301930093E+02  0.49999974587E+02 0.  0.
        -12    1    1    2    0    0  0.19123961303E+02  0.21503128072E+02  0.13733573507E+02  0.31886069907E+02  0.00000000000E+00 0.  1.
         11    1    3    3    0    0 -0.19281530245E+02 -0.62567586408E+01  0.47092955380E+01  0.20811100451E+02  0.51100000000E-03 0. -1.
        -11    1    3    3    0    0 -0.63792833264E+01 -0.20607650781E+02 -0.20532951651E+02  0.29782085727E+02  0.51100000000E-03 0.  1.
        -12    1    3    3    0    0  0.65368522676E+01  0.53612813496E+01  0.20900826062E+01  0.87087439151E+01  0.00000000000E+00 0.  1.
</event>
<event>
 7    1  0.6285940E-013  0.5930171E+02  0.7816164E-02  0.1266606E+00
        -11   -1    0    0    0    0  0.00000000000E+00  0.00000000000E+00  0.45593999997E+02  0.45594000000E+02  0.51100000000E-03 0. -1.
         11   -1    0    0    0    0 -0.00000000000E+00 -0.00000000000E+00 -0.45593999997E+02  0.45594000000E+02  0.51100000000E-03 0.  1.
    9900012    2    1    2    0    0 -0.23497889588E+02 -0.20932671367E+02  0.51388736289E+01  0.59301708780E+02  0.49999570962E+02 0.  0.
        -12    1    1    2    0    0  0.23497889588E+02  0.20932671367E+02 -0.51388736289E+01  0.31886291220E+02  0.00000000000E+00 0.  1.
         11    1    3    3    0    0 -0.26029688915E+02 -0.16969973168E+02  0.41411148738E+00  0.31075652574E+02  0.51100000000E-03 0. -1.
        -11    1    3    3    0    0 -0.39156147536E+01  0.10901787830E+02  0.27317498638E+01  0.11901406403E+02  0.51100000000E-03 0.  1.
        -12    1    3    3    0    0  0.64474140810E+01 -0.14864486029E+02  0.19930122777E+01  0.16324649802E+02  0.00000000000E+00 0.  1.
</event>
<event>
 7    1  0.6285940E-013  0.5930209E+02  0.7816164E-02  0.1266604E+00
        -11   -1    0    0    0    0  0.00000000000E+00  0.00000000000E+00  0.45593999997E+02  0.45594000000E+02  0.51100000000E-03 0.  1.
         11   -1    0    0    0    0 -0.00000000000E+00 -0.00000000000E+00 -0.45593999997E+02  0.45594000000E+02  0.51100000000E-03 0. -1.
    9900012    2    1    2    0    0  0.29558545602E+02  0.96306238463E+01 -0.70890389794E+01  0.59302093906E+02  0.50000273342E+02 0.  0.
        -12    1    1    2    0    0 -0.29558545602E+02 -0.96306238463E+01  0.70890389794E+01  0.31885906094E+02  0.00000000000E+00 0.  1.
         11    1    3    3    0    0 -0.20164481202E+01  0.14616179847E+02 -0.77049113236E+00  0.14774722779E+02  0.51100000000E-03 0. -1.
        -11    1    3    3    0    0 -0.15527219001E+01 -0.44667123925E+01  0.73065858005E+01  0.87033706814E+01  0.51100000000E-03 0.  1.
        -12    1    3    3    0    0  0.33127715622E+02 -0.51884360854E+00 -0.13625133648E+02  0.35824000446E+02  0.00000000000E+00 0.  1.
</event>
<event>
 7    1  0.6285940E-013  0.5930196E+02  0.7816164E-02  0.1266605E+00
        -11   -1    0    0    0    0  0.00000000000E+00  0.00000000000E+00  0.45593999997E+02  0.45594000000E+02  0.51100000000E-03 0.  1.
         11   -1    0    0    0    0 -0.00000000000E+00 -0.00000000000E+00 -0.45593999997E+02  0.45594000000E+02  0.51100000000E-03 0. -1.
    9900012    2    1    2    0    0  0.17950982770E+02 -0.17559886112E+02 -0.19650245196E+02  0.59301960438E+02  0.50000029929E+02 0.  0.
        -12    1    1    2    0    0 -0.17950982770E+02  0.17559886112E+02  0.19650245196E+02  0.31886039562E+02  0.00000000000E+00 0.  1.
         11    1    3    3    0    0  0.84795895254E+01 -0.26844280745E+01 -0.58577959763E-01  0.88945502553E+01  0.51100000000E-03 0. -1.
        -11    1    3    3    0    0  0.58704678000E+01 -0.70657079142E+01  0.13437290565E+02  0.16277204874E+02  0.51100000000E-03 0.  1.
         12    1    3    3    0    0  0.36009254450E+01 -0.78097501229E+01 -0.33028957801E+02  0.34130205309E+02  0.00000000000E+00 0. -1.
</event>
<event>
 7    1  0.6285940E-013  0.5930194E+02  0.7816164E-02  0.1266605E+00
        -11   -1    0    0    0    0  0.00000000000E+00  0.00000000000E+00  0.45593999997E+02  0.45594000000E+02  0.51100000000E-03 0. -1.
         11   -1    0    0    0    0 -0.00000000000E+00 -0.00000000000E+00 -0.45593999997E+02  0.45594000000E+02  0.51100000000E-03 0.  1.
    9900012    2    1    2    0    0  0.85505732543E+00 -0.13115687640E+02  0.29051134395E+02  0.59301940430E+02  0.49999993438E+02 0.  0.
        -12    1    1    2    0    0 -0.85505732543E+00  0.13115687640E+02 -0.29051134395E+02  0.31886059570E+02  0.00000000000E+00 0.  1.
         11    1    3    3    0    0 -0.15204059250E+02 -0.67047039442E+01  0.16673328030E+02  0.23539675880E+02  0.51100000000E-03 0. -1.
        -11    1    3    3    0    0 -0.11414717202E+01 -0.14188915704E+02  0.82014687334E+01  0.16428401511E+02  0.51100000000E-03 0.  1.
        -12    1    3    3    0    0  0.17200588295E+02  0.77779320083E+01  0.41763376308E+01  0.19333863040E+02  0.00000000000E+00 0.  1.
</event>
<event>
 7    1  0.6285940E-013  0.5930194E+02  0.7816164E-02  0.1266605E+00
        -11   -1    0    0    0    0  0.00000000000E+00  0.00000000000E+00  0.45593999997E+02  0.45594000000E+02  0.51100000000E-03 0. -1.
         11   -1    0    0    0    0 -0.00000000000E+00 -0.00000000000E+00 -0.45593999997E+02  0.45594000000E+02  0.51100000000E-03 0.  1.
    9900012    2    1    2    0    0 -0.17394911779E+02  0.23443809585E+02  0.12826757050E+02  0.59301939408E+02  0.49999991575E+02 0.  0.
        -12    1    1    2    0    0  0.17394911779E+02 -0.23443809585E+02 -0.12826757050E+02  0.31886060592E+02  0.00000000000E+00 0.  1.
         11    1    3    3    0    0 -0.17780460667E+02  0.15809535898E+02  0.32403791765E+01  0.24012210733E+02  0.51100000000E-03 0. -1.
        -11    1    3    3    0    0  0.11499330161E+01  0.18984753712E+02 -0.19111672639E+01  0.19115328405E+02  0.51100000000E-03 0.  1.
        -12    1    3    3    0    0 -0.76438412777E+00 -0.11350480025E+02  0.11497545137E+02  0.16174400270E+02  0.00000000000E+00 0.  1.
</event>
<event>
 7    1  0.6285940E-013  0.5930197E+02  0.7816164E-02  0.1266605E+00
        -11   -1    0    0    0    0  0.00000000000E+00  0.00000000000E+00  0.45593999997E+02  0.45594000000E+02  0.51100000000E-03 0. -1.
         11   -1    0    0    0    0 -0.00000000000E+00 -0.00000000000E+00 -0.45593999997E+02  0.45594000000E+02  0.51100000000E-03 0.  1.
    9900012    2    1    2    0    0  0.32157012927E+01  0.20770929457E+02  0.23978051859E+02  0.59301965184E+02  0.50000038584E+02 0.  0.
        -12    1    1    2    0    0 -0.32157012927E+01 -0.20770929457E+02 -0.23978051859E+02  0.31886034816E+02  0.00000000000E+00 0.  1.
         11    1    3    3    0    0  0.37401602884E+01  0.75987741582E+01  0.91862000447E+00  0.85190393040E+01  0.51100000000E-03 0. -1.
        -11    1    3    3    0    0 -0.17969872183E+02  0.14073369298E+02  0.12763163606E+01  0.22860555841E+02  0.51100000000E-03 0.  1.
         12    1    3    3    0    0  0.17445413187E+02 -0.90121399892E+00  0.21783115494E+02  0.27922370039E+02  0.00000000000E+00 0. -1.
</event>
<event>
 7    1  0.6285940E-013  0.5930195E+02  0.7816164E-02  0.1266605E+00
        -11   -1    0    0    0    0  0.00000000000E+00  0.00000000000E+00  0.45593999997E+02  0.45594000000E+02  0.51100000000E-03 0.  1.
         11   -1    0    0    0    0 -0.00000000000E+00 -0.00000000000E+00 -0.45593999997E+02  0.45594000000E+02  0.51100000000E-03 0. -1.
    9900012    2    1    2    0    0 -0.20830378703E+02  0.13290456041E+01 -0.24104962756E+02  0.59301948683E+02  0.50000008490E+02 0.  0.
        -12    1    1    2    0    0  0.20830378703E+02 -0.13290456041E+01  0.24104962756E+02  0.31886051317E+02  0.00000000000E+00 0.  1.
         11    1    3    3    0    0  0.85618928633E+00  0.13750066950E+02 -0.22296212043E+02  0.26209129573E+02  0.51100000000E-03 0. -1.
        -11    1    3    3    0    0 -0.18824950156E+02 -0.45139866579E+01 -0.96186973746E+01  0.21616525238E+02  0.51100000000E-03 0.  1.
        -12    1    3    3    0    0 -0.28616178332E+01 -0.79070346885E+01  0.78099466616E+01  0.11476293872E+02  0.00000000000E+00 0.  1.
</event>
<event>
 7    1  0.6285940E-013  0.5930196E+02  0.7816164E-02  0.1266605E+00
        -11   -1    0    0    0    0  0.00000000000E+00  0.00000000000E+00  0.45593999997E+02  0.45594000000E+02  0.51100000000E-03 0. -1.
         11   -1    0    0    0    0 -0.00000000000E+00 -0.00000000000E+00 -0.45593999997E+02  0.45594000000E+02  0.51100000000E-03 0.  1.
    9900012    2    1    2    0    0 -0.11800593054E+02  0.29487607702E+02  0.28189150552E+01  0.59301964083E+02  0.50000036576E+02 0.  0.
        -12    1    1    2    0    0  0.11800593054E+02 -0.29487607702E+02 -0.28189150552E+01  0.31886035917E+02  0.00000000000E+00 0.  1.
         11    1    3    3    0    0 -0.66301642513E+01 -0.29994411625E+01  0.49422645742E+01  0.87966871417E+01  0.51100000000E-03 0. -1.
        -11    1    3    3    0    0  0.10874438652E+02  0.29992914798E+02  0.58183313552E+01  0.32429636663E+02  0.51100000000E-03 0.  1.
         12    1    3    3    0    0 -0.16044867454E+02  0.24941340665E+01 -0.79416808742E+01  0.18075640278E+02  0.00000000000E+00 0. -1.
</event>
<event>
 7    1  0.6285940E-013  0.5930192E+02  0.7816164E-02  0.1266605E+00
        -11   -1    0    0    0    0  0.00000000000E+00  0.00000000000E+00  0.45593999997E+02  0.45594000000E+02  0.51100000000E-03 0.  1.
         11   -1    0    0    0    0 -0.00000000000E+00 -0.00000000000E+00 -0.45593999997E+02  0.45594000000E+02  0.51100000000E-03 0. -1.
    9900012    2    1    2    0    0  0.26138479715E+02 -0.59687222993E+01 -0.17259101582E+02  0.59301915965E+02  0.49999948820E+02 0.  0.
        -12    1    1    2    0    0 -0.26138479715E+02  0.59687222993E+01  0.17259101582E+02  0.31886084035E+02  0.00000000000E+00 0.  1.
         11    1    3    3    0    0  0.20933995108E+02 -0.62498368499E+01 -0.19851904141E+02  0.29519327738E+02  0.51100000000E-03 0. -1.
        -11    1    3    3    0    0  0.98350835841E+01 -0.96817244492E+01 -0.67477960353E+01  0.15362207166E+02  0.51100000000E-03 0.  1.
        -12    1    3    3    0    0 -0.46305989768E+01  0.99628389999E+01  0.93405985949E+01  0.14420381061E+02  0.00000000000E+00 0.  1.
</event>
<event>
 7    1  0.6341916E-013  0.5930194E+02  0.7816164E-02  0.1266605E+00
        -11   -1    0    0    0    0  0.00000000000E+00  0.00000000000E+00  0.45593999997E+02  0.45594000000E+02  0.51100000000E-03 0. -1.
         11   -1    0    0    0    0 -0.00000000000E+00 -0.00000000000E+00 -0.45593999997E+02  0.45594000000E+02  0.51100000000E-03 0.  1.
    9900012    2    1    2    0    0  0.11116875776E+02  0.50297670730E+01  0.29459081071E+02  0.59301938133E+02  0.49999989249E+02 0.  0.
        -12    1    1    2    0    0 -0.11116875776E+02 -0.50297670730E+01 -0.29459081071E+02  0.31886061867E+02  0.00000000000E+00 0.  1.
         11    1    3    3    0    0  0.21760010986E+02  0.10744742650E+02  0.26070217139E+02  0.35617464742E+02  0.51100000000E-03 0. -1.
        -11    1    3    3    0    0  0.22116976672E+01  0.47052481379E+01 -0.29340282269E+01  0.59698817834E+01  0.51100000000E-03 0.  1.
        -12    1    3    3    0    0 -0.12854832877E+02 -0.10420223715E+02  0.63228921597E+01  0.17714591607E+02  0.00000000000E+00 0.  1.
</event>
<event>
 7    1  0.6285940E-013  0.5930192E+02  0.7816164E-02  0.1266605E+00
        -11   -1    0    0    0    0  0.00000000000E+00  0.00000000000E+00  0.45593999997E+02  0.45594000000E+02  0.51100000000E-03 0.  1.
         11   -1    0    0    0    0 -0.00000000000E+00 -0.00000000000E+00 -0.45593999997E+02  0.45594000000E+02  0.51100000000E-03 0. -1.
    9900012    2    1    2    0    0 -0.28651234463E+02  0.13164420217E+01 -0.13931821951E+02  0.59301922807E+02  0.49999961299E+02 0.  0.
        -12    1    1    2    0    0  0.28651234463E+02 -0.13164420217E+01  0.13931821951E+02  0.31886077193E+02  0.00000000000E+00 0.  1.
         11    1    3    3    0    0  0.53572484011E+01 -0.52165721766E+00 -0.13556284336E+02  0.14585783556E+02  0.51100000000E-03 0. -1.
        -11    1    3    3    0    0 -0.48961744790E+00 -0.80492096480E-01  0.96614747820E+01  0.96742079493E+01  0.51100000000E-03 0.  1.
        -12    1    3    3    0    0 -0.33518865416E+02  0.19185913359E+01 -0.10037012397E+02  0.35041931302E+02  0.00000000000E+00 0.  1.
</event>
<event>
 7    1  0.6285940E-013  0.5930195E+02  0.7816164E-02  0.1266605E+00
        -11   -1    0    0    0    0  0.00000000000E+00  0.00000000000E+00  0.45593999997E+02  0.45594000000E+02  0.51100000000E-03 0.  1.
         11   -1    0    0    0    0 -0.00000000000E+00 -0.00000000000E+00 -0.45593999997E+02  0.45594000000E+02  0.51100000000E-03 0. -1.
    9900012    2    1    2    0    0  0.20206042004E+02  0.68479928200E+01 -0.23696863830E+02  0.59301945140E+02  0.50000002028E+02 0.  0.
        -12    1    1    2    0    0 -0.20206042004E+02 -0.68479928200E+01  0.23696863830E+02  0.31886054860E+02  0.00000000000E+00 0.  1.
         11    1    3    3    0    0  0.41196446779E+01  0.13215680576E+01 -0.29577712268E+02  0.29892458542E+02  0.51100000000E-03 0. -1.
        -11    1    3    3    0    0 -0.57235410715E+01  0.27124184584E+01  0.36392405870E+01  0.73048072255E+01  0.51100000000E-03 0.  1.
        -12    1    3    3    0    0  0.21809938398E+02  0.28140063041E+01  0.22416078508E+01  0.22104679372E+02  0.00000000000E+00 0.  1.
</event>
<event>
 7    1  0.6285940E-013  0.5930195E+02  0.7816164E-02  0.1266605E+00
        -11   -1    0    0    0    0  0.00000000000E+00  0.00000000000E+00  0.45593999997E+02  0.45594000000E+02  0.51100000000E-03 0.  1.
         11   -1    0    0    0    0 -0.00000000000E+00 -0.00000000000E+00 -0.45593999997E+02  0.45594000000E+02  0.51100000000E-03 0. -1.
    9900012    2    1    2    0    0  0.27807025107E+02  0.37091342003E+01 -0.15156917180E+02  0.59301945678E+02  0.50000003010E+02 0.  0.
        -12    1    1    2    0    0 -0.27807025107E+02 -0.37091342003E+01  0.15156917180E+02  0.31886054322E+02  0.00000000000E+00 0.  1.
         11    1    3    3    0    0 -0.50720172578E+01 -0.29185199028E+01  0.31040074686E+01  0.66240456001E+01  0.51100000000E-03 0. -1.
        -11    1    3    3    0    0  0.13344140187E+02  0.13120167382E+02 -0.24809378951E+02  0.31075877359E+02  0.51100000000E-03 0.  1.
         12    1    3    3    0    0  0.19534902178E+02 -0.64925132794E+01  0.65484543023E+01  0.21602022719E+02  0.00000000000E+00 0. -1.
</event>
<event>
 7    1  0.6285940E-013  0.5930195E+02  0.7816164E-02  0.1266605E+00
        -11   -1    0    0    0    0  0.00000000000E+00  0.00000000000E+00  0.45593999997E+02  0.45594000000E+02  0.51100000000E-03 0.  1.
         11   -1    0    0    0    0 -0.00000000000E+00 -0.00000000000E+00 -0.45593999997E+02  0.45594000000E+02  0.51100000000E-03 0. -1.
    9900012    2    1    2    0    0 -0.85942539372E+01  0.30130966749E+02 -0.59147029297E+01  0.59301951817E+02  0.50000014206E+02 0.  0.
        -12    1    1    2    0    0  0.85942539372E+01 -0.30130966749E+02  0.59147029297E+01  0.31886048183E+02  0.00000000000E+00 0.  1.
         11    1    3    3    0    0  0.12079331267E+02 -0.43439301797E+01  0.95589297808E+01  0.16004784037E+02  0.51100000000E-03 0.  1.
        -11    1    3    3    0    0 -0.31285313116E+01  0.73453342881E+01 -0.45646424969E+01  0.91966083616E+01  0.51100000000E-03 0. -1.
        -12    1    3    3    0    0 -0.17545053892E+02  0.27129562641E+02 -0.10908990214E+02  0.34100559418E+02  0.00000000000E+00 0.  1.
</event>
<event>
 7    1  0.6285940E-013  0.5930195E+02  0.7816164E-02  0.1266605E+00
        -11   -1    0    0    0    0  0.00000000000E+00  0.00000000000E+00  0.45593999997E+02  0.45594000000E+02  0.51100000000E-03 0.  1.
         11   -1    0    0    0    0 -0.00000000000E+00 -0.00000000000E+00 -0.45593999997E+02  0.45594000000E+02  0.51100000000E-03 0. -1.
    9900012    2    1    2    0    0  0.74584824781E+00 -0.13215971351E+02 -0.29008659309E+02  0.59301945003E+02  0.50000001779E+02 0.  0.
        -12    1    1    2    0    0 -0.74584824781E+00  0.13215971351E+02  0.29008659309E+02  0.31886054997E+02  0.00000000000E+00 0.  1.
         11    1    3    3    0    0 -0.33740067395E+01 -0.51606483272E+01 -0.22914237036E+02  0.23729274575E+02  0.51100000000E-03 0. -1.
        -11    1    3    3    0    0 -0.14271011844E+02 -0.79140003413E+01 -0.53243873003E+01  0.17165147271E+02  0.51100000000E-03 0.  1.
         12    1    3    3    0    0  0.18390866832E+02 -0.14132268288E+00 -0.77003497234E+00  0.18407523157E+02  0.00000000000E+00 0. -1.
</event>
<event>
 7    1  0.6285940E-013  0.5930203E+02  0.7816164E-02  0.1266604E+00
        -11   -1    0    0    0    0  0.00000000000E+00  0.00000000000E+00  0.45593999997E+02  0.45594000000E+02  0.51100000000E-03 0.  1.
         11   -1    0    0    0    0 -0.00000000000E+00 -0.00000000000E+00 -0.45593999997E+02  0.45594000000E+02  0.51100000000E-03 0. -1.
    9900012    2    1    2    0    0 -0.22519452030E+02 -0.22108117254E+02  0.45629680846E+01  0.59302027442E+02  0.50000152127E+02 0.  0.
        -12    1    1    2    0    0  0.22519452030E+02  0.22108117254E+02 -0.45629680846E+01  0.31885972558E+02  0.00000000000E+00 0.  1.
         11    1    3    3    0    0  0.23085067656E+01  0.38548531815E+00  0.43575579273E+01  0.49463232575E+01  0.51100000000E-03 0.  1.
        -11    1    3    3    0    0 -0.25572540703E+01  0.83762356763E+01 -0.11570208502E+02  0.14511050876E+02  0.51100000000E-03 0. -1.
         12    1    3    3    0    0 -0.22270704725E+02 -0.30869838248E+02  0.11775618660E+02  0.39844653308E+02  0.00000000000E+00 0. -1.
</event>
<event>
 7    1  0.6285940E-013  0.5930195E+02  0.7816164E-02  0.1266605E+00
        -11   -1    0    0    0    0  0.00000000000E+00  0.00000000000E+00  0.45593999997E+02  0.45594000000E+02  0.51100000000E-03 0.  1.
         11   -1    0    0    0    0 -0.00000000000E+00 -0.00000000000E+00 -0.45593999997E+02  0.45594000000E+02  0.51100000000E-03 0. -1.
    9900012    2    1    2    0    0  0.18554641228E+02  0.89008633868E+01 -0.24356115687E+02  0.59301945815E+02  0.50000003259E+02 0.  0.
        -12    1    1    2    0    0 -0.18554641228E+02 -0.89008633868E+01  0.24356115687E+02  0.31886054185E+02  0.00000000000E+00 0.  1.
         11    1    3    3    0    0 -0.71960046062E+00  0.20549618562E+02 -0.81769317443E+01  0.22128417496E+02  0.51100000000E-03 0. -1.
        -11    1    3    3    0    0  0.13052900013E+02  0.50270956883E+01 -0.14344673735E+01  0.14060852987E+02  0.51100000000E-03 0.  1.
         12    1    3    3    0    0  0.62213416760E+01 -0.16675850864E+02 -0.14744716570E+02  0.23112675332E+02  0.00000000000E+00 0. -1.
</event>
<event>
 7    1  0.6285940E-013  0.5930192E+02  0.7816164E-02  0.1266605E+00
        -11   -1    0    0    0    0  0.00000000000E+00  0.00000000000E+00  0.45593999997E+02  0.45594000000E+02  0.51100000000E-03 0.  1.
         11   -1    0    0    0    0 -0.00000000000E+00 -0.00000000000E+00 -0.45593999997E+02  0.45594000000E+02  0.51100000000E-03 0. -1.
    9900012    2    1    2    0    0  0.12641734214E+02  0.19510723971E+02 -0.21822926358E+02  0.59301922966E+02  0.49999961588E+02 0.  0.
        -12    1    1    2    0    0 -0.12641734214E+02 -0.19510723971E+02  0.21822926358E+02  0.31886077034E+02  0.00000000000E+00 0.  1.
         11    1    3    3    0    0 -0.39988513433E+01  0.55336412494E+01 -0.23787486768E+00  0.68314407161E+01  0.51100000000E-03 0. -1.
        -11    1    3    3    0    0  0.85185486183E+01  0.17024895141E+02  0.87265306663E+01  0.20941945059E+02  0.51100000000E-03 0.  1.
         12    1    3    3    0    0  0.81220369395E+01 -0.30478124195E+01 -0.30311582156E+02  0.31528537191E+02  0.00000000000E+00 0. -1.
</event>
<event>
 7    1  0.6285940E-013  0.5930195E+02  0.7816164E-02  0.1266605E+00
        -11   -1    0    0    0    0  0.00000000000E+00  0.00000000000E+00  0.45593999997E+02  0.45594000000E+02  0.51100000000E-03 0.  1.
         11   -1    0    0    0    0 -0.00000000000E+00 -0.00000000000E+00 -0.45593999997E+02  0.45594000000E+02  0.51100000000E-03 0. -1.
    9900012    2    1    2    0    0 -0.34983208144E+01  0.18158233619E+02 -0.25976146612E+02  0.59301954628E+02  0.50000019332E+02 0.  0.
        -12    1    1    2    0    0  0.34983208144E+01 -0.18158233619E+02  0.25976146612E+02  0.31886045372E+02  0.00000000000E+00 0.  1.
         11    1    3    3    0    0 -0.58585281435E+01 -0.51742919989E+01 -0.26759081705E+02  0.27877304455E+02  0.51100000000E-03 0. -1.
        -11    1    3    3    0    0  0.92954279724E+01  0.27910107864E+01  0.86462603214E+00  0.97438339906E+01  0.51100000000E-03 0.  1.
        -12    1    3    3    0    0 -0.69352206433E+01  0.20541514831E+02 -0.81690938693E-01  0.21680816182E+02  0.00000000000E+00 0.  1.
</event>
<event>
 7    1  0.6285940E-013  0.5930197E+02  0.7816164E-02  0.1266605E+00
        -11   -1    0    0    0    0  0.00000000000E+00  0.00000000000E+00  0.45593999997E+02  0.45594000000E+02  0.51100000000E-03 0. -1.
         11   -1    0    0    0    0 -0.00000000000E+00 -0.00000000000E+00 -0.45593999997E+02  0.45594000000E+02  0.51100000000E-03 0.  1.
    9900012    2    1    2    0    0 -0.12004773311E+02  0.25368538623E+02 -0.15134129606E+02  0.59301965234E+02  0.50000038676E+02 0.  0.
        -12    1    1    2    0    0  0.12004773311E+02 -0.25368538623E+02  0.15134129606E+02  0.31886034766E+02  0.00000000000E+00 0.  1.
         11    1    3    3    0    0 -0.20738358866E+01  0.25387240691E+02  0.59125184786E+01  0.26149008780E+02  0.51100000000E-03 0. -1.
        -11    1    3    3    0    0  0.75023446930E+01  0.10761630011E+01 -0.97557308658E+01  0.12353849104E+02  0.51100000000E-03 0.  1.
         12    1    3    3    0    0 -0.17433282118E+02 -0.10948650687E+01 -0.11290917219E+02  0.20799107350E+02  0.00000000000E+00 0. -1.
</event>
<event>
 7    1  0.6285940E-013  0.5930197E+02  0.7816164E-02  0.1266605E+00
        -11   -1    0    0    0    0  0.00000000000E+00  0.00000000000E+00  0.45593999997E+02  0.45594000000E+02  0.51100000000E-03 0.  1.
         11   -1    0    0    0    0 -0.00000000000E+00 -0.00000000000E+00 -0.45593999997E+02  0.45594000000E+02  0.51100000000E-03 0. -1.
    9900012    2    1    2    0    0  0.12960286729E+02 -0.25962430965E+02 -0.13217486622E+02  0.59301971613E+02  0.50000050308E+02 0.  0.
        -12    1    1    2    0    0 -0.12960286729E+02  0.25962430965E+02  0.13217486622E+02  0.31886028387E+02  0.00000000000E+00 0.  1.
         11    1    3    3    0    0  0.15534309995E+02 -0.33027108649E+00 -0.17591694973E+02  0.23471080042E+02  0.51100000000E-03 0. -1.
        -11    1    3    3    0    0  0.10547168532E+02 -0.70827713070E+01  0.64990713089E-01  0.12704827330E+02  0.51100000000E-03 0.  1.
        -12    1    3    3    0    0 -0.13121191799E+02 -0.18549388572E+02  0.43092176378E+01  0.23126064241E+02  0.00000000000E+00 0.  1.
</event>
<event>
 7    1  0.6285940E-013  0.5930195E+02  0.7816164E-02  0.1266605E+00
        -11   -1    0    0    0    0  0.00000000000E+00  0.00000000000E+00  0.45593999997E+02  0.45594000000E+02  0.51100000000E-03 0. -1.
         11   -1    0    0    0    0 -0.00000000000E+00 -0.00000000000E+00 -0.45593999997E+02  0.45594000000E+02  0.51100000000E-03 0.  1.
    9900012    2    1    2    0    0  0.19422859891E+02  0.48932017419E+01  0.24809865133E+02  0.59301947915E+02  0.50000007090E+02 0.  0.
        -12    1    1    2    0    0 -0.19422859891E+02 -0.48932017419E+01 -0.24809865133E+02  0.31886052085E+02  0.00000000000E+00 0.  1.
         11    1    3    3    0    0  0.10327117258E+01  0.59284880692E+01  0.69763758280E+01  0.92132124826E+01  0.51100000000E-03 0. -1.
        -11    1    3    3    0    0  0.95074118012E+01  0.70987227341E+00  0.31937144956E+02  0.33329806870E+02  0.51100000000E-03 0.  1.
        -12    1    3    3    0    0  0.88827363643E+01 -0.17451586008E+01 -0.14103655651E+02  0.16758928563E+02  0.00000000000E+00 0.  1.
</event>
<event>
 7    1  0.6285940E-013  0.5930194E+02  0.7816164E-02  0.1266605E+00
        -11   -1    0    0    0    0  0.00000000000E+00  0.00000000000E+00  0.45593999997E+02  0.45594000000E+02  0.51100000000E-03 0.  1.
         11   -1    0    0    0    0 -0.00000000000E+00 -0.00000000000E+00 -0.45593999997E+02  0.45594000000E+02  0.51100000000E-03 0. -1.
    9900012    2    1    2    0    0  0.25750369578E+02  0.18135813767E+02 -0.49730972011E+01  0.59301937682E+02  0.49999988427E+02 0.  0.
        -12    1    1    2    0    0 -0.25750369578E+02 -0.18135813767E+02  0.49730972011E+01  0.31886062318E+02  0.00000000000E+00 0.  1.
         11    1    3    3    0    0  0.13555411583E+02  0.27207893941E+02 -0.65110672038E+01  0.31087178584E+02  0.51100000000E-03 0. -1.
        -11    1    3    3    0    0 -0.40497921964E+01  0.51034574166E+01  0.13519449188E+01  0.66538597643E+01  0.51100000000E-03 0.  1.
        -12    1    3    3    0    0  0.16244750191E+02 -0.14175537591E+02  0.18602508387E+00  0.21560899334E+02  0.00000000000E+00 0.  1.
</event>
<event>
 7    1  0.6285940E-013  0.5930195E+02  0.7816164E-02  0.1266605E+00
        -11   -1    0    0    0    0  0.00000000000E+00  0.00000000000E+00  0.45593999997E+02  0.45594000000E+02  0.51100000000E-03 0.  1.
         11   -1    0    0    0    0 -0.00000000000E+00 -0.00000000000E+00 -0.45593999997E+02  0.45594000000E+02  0.51100000000E-03 0. -1.
    9900012    2    1    2    0    0  0.20209665240E+02  0.22157378546E+02 -0.10832354704E+02  0.59301954438E+02  0.50000018987E+02 0.  0.
        -12    1    1    2    0    0 -0.20209665240E+02 -0.22157378546E+02  0.10832354704E+02  0.31886045562E+02  0.00000000000E+00 0.  1.
         11    1    3    3    0    0  0.13796235142E+02  0.74817181739E+01 -0.60461098668E+01  0.16818669856E+02  0.51100000000E-03 0. -1.
        -11    1    3    3    0    0  0.19446399437E+02  0.39717752277E+01  0.79176515207E+01  0.21368824380E+02  0.51100000000E-03 0.  1.
         12    1    3    3    0    0 -0.13032969339E+02  0.10703885144E+02 -0.12703896358E+02  0.21114460203E+02  0.00000000000E+00 0. -1.
</event>
<event>
 7    1  0.6285940E-013  0.5930195E+02  0.7816164E-02  0.1266605E+00
        -11   -1    0    0    0    0  0.00000000000E+00  0.00000000000E+00  0.45593999997E+02  0.45594000000E+02  0.51100000000E-03 0.  1.
         11   -1    0    0    0    0 -0.00000000000E+00 -0.00000000000E+00 -0.45593999997E+02  0.45594000000E+02  0.51100000000E-03 0. -1.
    9900012    2    1    2    0    0 -0.40933263293E+01  0.12298745221E+02 -0.29132549638E+02  0.59301954418E+02  0.50000018949E+02 0.  0.
        -12    1    1    2    0    0  0.40933263293E+01 -0.12298745221E+02  0.29132549638E+02  0.31886045582E+02  0.00000000000E+00 0.  1.
         11    1    3    3    0    0  0.67063837287E+01  0.87286965567E+01 -0.90607199102E+01  0.14257011322E+02  0.51100000000E-03 0. -1.
        -11    1    3    3    0    0  0.89809633104E+01 -0.11819116331E+02 -0.43843876293E+01  0.15478115776E+02  0.51100000000E-03 0.  1.
         12    1    3    3    0    0 -0.19780673368E+02  0.15389164995E+02 -0.15687442099E+02  0.29566827320E+02  0.00000000000E+00 0. -1.
</event>
<event>
 7    1  0.6285940E-013  0.5930196E+02  0.7816164E-02  0.1266605E+00
        -11   -1    0    0    0    0  0.00000000000E+00  0.00000000000E+00  0.45593999997E+02  0.45594000000E+02  0.51100000000E-03 0.  1.
         11   -1    0    0    0    0 -0.00000000000E+00 -0.00000000000E+00 -0.45593999997E+02  0.45594000000E+02  0.51100000000E-03 0. -1.
    9900012    2    1    2    0    0 -0.84880725154E+01 -0.19235305127E+02 -0.23972386633E+02  0.59301958238E+02  0.50000025916E+02 0.  0.
        -12    1    1    2    0    0  0.84880725154E+01  0.19235305127E+02  0.23972386633E+02  0.31886041762E+02  0.00000000000E+00 0.  1.
         11    1    3    3    0    0 -0.10996712307E+00 -0.71699510034E+01 -0.15473706970E+02  0.17054497876E+02  0.51100000000E-03 0. -1.
        -11    1    3    3    0    0  0.14621671407E+01  0.10080060662E+02 -0.14081802286E+02  0.17379376042E+02  0.51100000000E-03 0.  1.
        -12    1    3    3    0    0 -0.98402725331E+01 -0.22145414786E+02  0.55831226224E+01  0.24868084321E+02  0.00000000000E+00 0.  1.
</event>
<event>
 7    1  0.6285940E-013  0.5930196E+02  0.7816164E-02  0.1266605E+00
        -11   -1    0    0    0    0  0.00000000000E+00  0.00000000000E+00  0.45593999997E+02  0.45594000000E+02  0.51100000000E-03 0. -1.
         11   -1    0    0    0    0 -0.00000000000E+00 -0.00000000000E+00 -0.45593999997E+02  0.45594000000E+02  0.51100000000E-03 0.  1.
    9900012    2    1    2    0    0  0.21437916926E+02 -0.22629996821E+02  0.67095969670E+01  0.59301957133E+02  0.50000023901E+02 0.  0.
        -12    1    1    2    0    0 -0.21437916926E+02  0.22629996821E+02 -0.67095969670E+01  0.31886042867E+02  0.00000000000E+00 0.  1.
         11    1    3    3    0    0 -0.79726201944E+01  0.48718619444E+01  0.80251117482E+01  0.12316660684E+02  0.51100000000E-03 0. -1.
        -11    1    3    3    0    0  0.70063255947E+01  0.34726415699E+01 -0.37653339289E+01  0.86790309176E+01  0.51100000000E-03 0.  1.
         12    1    3    3    0    0  0.22404211526E+02 -0.30974500335E+02  0.24498191477E+01  0.38306265532E+02  0.00000000000E+00 0. -1.
</event>
<event>
 7    1  0.6285940E-013  0.5930195E+02  0.7816164E-02  0.1266605E+00
        -11   -1    0    0    0    0  0.00000000000E+00  0.00000000000E+00  0.45593999997E+02  0.45594000000E+02  0.51100000000E-03 0. -1.
         11   -1    0    0    0    0 -0.00000000000E+00 -0.00000000000E+00 -0.45593999997E+02  0.45594000000E+02  0.51100000000E-03 0.  1.
    9900012    2    1    2    0    0 -0.87177386738E+01 -0.54940092817E+01  0.30175109170E+02  0.59301947893E+02  0.50000007049E+02 0.  0.
        -12    1    1    2    0    0  0.87177386738E+01  0.54940092817E+01 -0.30175109170E+02  0.31886052107E+02  0.00000000000E+00 0.  1.
         11    1    3    3    0    0 -0.11462506394E+01  0.14257307779E+02  0.26646802560E+02  0.30242962860E+02  0.51100000000E-03 0. -1.
        -11    1    3    3    0    0  0.58242993708E+01 -0.10774020847E+02 -0.10596828996E+01  0.12293287456E+02  0.51100000000E-03 0.  1.
        -12    1    3    3    0    0 -0.13395787405E+02 -0.89772962135E+01  0.45879895097E+01  0.16765697577E+02  0.00000000000E+00 0.  1.
</event>
<event>
 7    1  0.6285940E-013  0.5930183E+02  0.7816164E-02  0.1266605E+00
        -11   -1    0    0    0    0  0.00000000000E+00  0.00000000000E+00  0.45593999997E+02  0.45594000000E+02  0.51100000000E-03 0.  1.
         11   -1    0    0    0    0 -0.00000000000E+00 -0.00000000000E+00 -0.45593999997E+02  0.45594000000E+02  0.51100000000E-03 0. -1.
    9900012    2    1    2    0    0  0.21236155655E+02  0.49197555484E+01 -0.23271222333E+02  0.59301826028E+02  0.49999784797E+02 0.  0.
        -12    1    1    2    0    0 -0.21236155655E+02 -0.49197555484E+01  0.23271222333E+02  0.31886173972E+02  0.00000000000E+00 0.  1.
         11    1    3    3    0    0  0.16694107674E+02  0.56845183195E+01 -0.50832308633E+01  0.18353370694E+02  0.51100000000E-03 0.  1.
        -11    1    3    3    0    0  0.14523841532E+02 -0.13894118061E+02 -0.85193569730E+01  0.21830435933E+02  0.51100000000E-03 0. -1.
         12    1    3    3    0    0 -0.99817935505E+01  0.13129355290E+02 -0.96686344970E+01  0.19118019402E+02  0.00000000000E+00 0. -1.
</event>
<event>
 7    1  0.6285940E-013  0.5930188E+02  0.7816164E-02  0.1266605E+00
        -11   -1    0    0    0    0  0.00000000000E+00  0.00000000000E+00  0.45593999997E+02  0.45594000000E+02  0.51100000000E-03 0. -1.
         11   -1    0    0    0    0 -0.00000000000E+00 -0.00000000000E+00 -0.45593999997E+02  0.45594000000E+02  0.51100000000E-03 0.  1.
    9900012    2    1    2    0    0  0.79823544315E+00  0.11214000203E+02  0.29838460068E+02  0.59301879515E+02  0.49999882343E+02 0.  0.
        -12    1    1    2    0    0 -0.79823544315E+00 -0.11214000203E+02 -0.29838460068E+02  0.31886120485E+02  0.00000000000E+00 0.  1.
         11    1    3    3    0    0 -0.11453117664E+02  0.94675996340E+01  0.70202737773E+01  0.16434524368E+02  0.51100000000E-03 0. -1.
        -11    1    3    3    0    0  0.14477544950E+02  0.15606605218E+02  0.88189412577E+01  0.23042117077E+02  0.51100000000E-03 0.  1.
         12    1    3    3    0    0 -0.22261918434E+01 -0.13860204648E+02  0.13999245033E+02  0.19825238070E+02  0.00000000000E+00 0. -1.
</event>
<event>
 7    1  0.6285940E-013  0.5930194E+02  0.7816164E-02  0.1266605E+00
        -11   -1    0    0    0    0  0.00000000000E+00  0.00000000000E+00  0.45593999997E+02  0.45594000000E+02  0.51100000000E-03 0. -1.
         11   -1    0    0    0    0 -0.00000000000E+00 -0.00000000000E+00 -0.45593999997E+02  0.45594000000E+02  0.51100000000E-03 0.  1.
    9900012    2    1    2    0    0  0.70979723258E+01  0.17251145287E+02  0.25859960302E+02  0.59301940794E+02  0.49999994103E+02 0.  0.
        -12    1    1    2    0    0 -0.70979723258E+01 -0.17251145287E+02 -0.25859960302E+02  0.31886059206E+02  0.00000000000E+00 0.  1.
         11    1    3    3    0    0 -0.10547700044E+01  0.12146759775E+02  0.73060967944E+00  0.12214340078E+02  0.51100000000E-03 0. -1.
        -11    1    3    3    0    0  0.12007571754E+02  0.72495080536E+01 -0.62814000513E+01  0.15368576164E+02  0.51100000000E-03 0.  1.
         12    1    3    3    0    0 -0.38548294235E+01 -0.21451225415E+01  0.31410750674E+02  0.31719024552E+02  0.00000000000E+00 0. -1.
</event>
<event>
 7    1  0.6285940E-013  0.5930195E+02  0.7816164E-02  0.1266605E+00
        -11   -1    0    0    0    0  0.00000000000E+00  0.00000000000E+00  0.45593999997E+02  0.45594000000E+02  0.51100000000E-03 0. -1.
         11   -1    0    0    0    0 -0.00000000000E+00 -0.00000000000E+00 -0.45593999997E+02  0.45594000000E+02  0.51100000000E-03 0.  1.
    9900012    2    1    2    0    0  0.29648788040E+02 -0.21228659628E+01  0.11539624858E+02  0.59301950794E+02  0.50000012339E+02 0.  0.
        -12    1    1    2    0    0 -0.29648788040E+02  0.21228659628E+01 -0.11539624858E+02  0.31886049206E+02  0.00000000000E+00 0.  1.
         11    1    3    3    0    0  0.44743365535E+01 -0.19227933506E+02  0.15177164531E+02  0.24901394298E+02  0.51100000000E-03 0. -1.
        -11    1    3    3    0    0  0.25762770462E+01 -0.15072358718E+01 -0.41596249150E+01  0.51197112308E+01  0.51100000000E-03 0.  1.
        -12    1    3    3    0    0  0.22598174440E+02  0.18612303415E+02  0.52208524202E+00  0.29280845265E+02  0.00000000000E+00 0.  1.
</event>
<event>
 7    1  0.6285940E-013  0.5930197E+02  0.7816164E-02  0.1266605E+00
        -11   -1    0    0    0    0  0.00000000000E+00  0.00000000000E+00  0.45593999997E+02  0.45594000000E+02  0.51100000000E-03 0. -1.
         11   -1    0    0    0    0 -0.00000000000E+00 -0.00000000000E+00 -0.45593999997E+02  0.45594000000E+02  0.51100000000E-03 0.  1.
    9900012    2    1    2    0    0  0.26872609103E+02 -0.13070080208E+02 -0.11124516272E+02  0.59301968906E+02  0.50000045372E+02 0.  0.
        -12    1    1    2    0    0 -0.26872609103E+02  0.13070080208E+02  0.11124516272E+02  0.31886031094E+02  0.00000000000E+00 0.  1.
         11    1    3    3    0    0  0.23077495273E+02 -0.21040972128E+01  0.51490397367E+01  0.23738378707E+02  0.51100000000E-03 0. -1.
        -11    1    3    3    0    0 -0.10794854521E+02 -0.54354308498E+01  0.11906019811E+01  0.12144559523E+02  0.51100000000E-03 0.  1.
         12    1    3    3    0    0  0.14589968351E+02 -0.55305521455E+01 -0.17464157990E+02  0.23419030676E+02  0.00000000000E+00 0. -1.
</event>
<event>
 7    1  0.6285940E-013  0.5930194E+02  0.7816164E-02  0.1266605E+00
        -11   -1    0    0    0    0  0.00000000000E+00  0.00000000000E+00  0.45593999997E+02  0.45594000000E+02  0.51100000000E-03 0.  1.
         11   -1    0    0    0    0 -0.00000000000E+00 -0.00000000000E+00 -0.45593999997E+02  0.45594000000E+02  0.51100000000E-03 0. -1.
    9900012    2    1    2    0    0 -0.56994756686E+00 -0.24060990727E+02 -0.20915655755E+02  0.59301940810E+02  0.49999994132E+02 0.  0.
        -12    1    1    2    0    0  0.56994756686E+00  0.24060990727E+02  0.20915655755E+02  0.31886059190E+02  0.00000000000E+00 0.  1.
         11    1    3    3    0    0  0.94760932764E+00  0.54937110611E+01 -0.46875984429E+01  0.72837081272E+01  0.51100000000E-03 0. -1.
        -11    1    3    3    0    0 -0.16790811384E+02 -0.71834776962E+01 -0.16956109699E+02  0.24920741464E+02  0.51100000000E-03 0.  1.
        -12    1    3    3    0    0  0.15273254489E+02 -0.22371224092E+02  0.72805238758E+00  0.27097491219E+02  0.00000000000E+00 0.  1.
</event>
<event>
 7    1  0.6285940E-013  0.5930203E+02  0.7816164E-02  0.1266604E+00
        -11   -1    0    0    0    0  0.00000000000E+00  0.00000000000E+00  0.45593999997E+02  0.45594000000E+02  0.51100000000E-03 0.  1.
         11   -1    0    0    0    0 -0.00000000000E+00 -0.00000000000E+00 -0.45593999997E+02  0.45594000000E+02  0.51100000000E-03 0. -1.
    9900012    2    1    2    0    0 -0.11065653309E+02 -0.21018991018E+02 -0.21271300650E+02  0.59302032900E+02  0.50000162081E+02 0.  0.
        -12    1    1    2    0    0  0.11065653309E+02  0.21018991018E+02  0.21271300650E+02  0.31885967100E+02  0.00000000000E+00 0.  1.
         11    1    3    3    0    0 -0.16476205864E+02 -0.16464848618E+02 -0.14100874282E+02  0.27228500794E+02  0.51100000000E-03 0. -1.
        -11    1    3    3    0    0  0.46999743000E+01 -0.16198722516E+02  0.23317364009E+01  0.17027194850E+02  0.51100000000E-03 0.  1.
        -12    1    3    3    0    0  0.71057825530E+00  0.11644580116E+02 -0.95021627693E+01  0.15046337256E+02  0.00000000000E+00 0.  1.
</event>
<event>
 7    1  0.6285940E-013  0.5930195E+02  0.7816164E-02  0.1266605E+00
        -11   -1    0    0    0    0  0.00000000000E+00  0.00000000000E+00  0.45593999997E+02  0.45594000000E+02  0.51100000000E-03 0. -1.
         11   -1    0    0    0    0 -0.00000000000E+00 -0.00000000000E+00 -0.45593999997E+02  0.45594000000E+02  0.51100000000E-03 0.  1.
    9900012    2    1    2    0    0 -0.26029818599E+02 -0.18192984416E+02  0.28607569439E+01  0.59301951820E+02  0.50000014211E+02 0.  0.
        -12    1    1    2    0    0  0.26029818599E+02  0.18192984416E+02 -0.28607569439E+01  0.31886048180E+02  0.00000000000E+00 0.  1.
         11    1    3    3    0    0 -0.25139086956E+01 -0.12953749118E+02 -0.35563613297E+01  0.13666274522E+02  0.51100000000E-03 0. -1.
        -11    1    3    3    0    0 -0.25626138756E+02  0.40255268167E+01 -0.90578152153E+01  0.27476314717E+02  0.51100000000E-03 0.  1.
         12    1    3    3    0    0  0.21102288526E+01 -0.92647621142E+01  0.15474933489E+02  0.18159362581E+02  0.00000000000E+00 0. -1.
</event>
<event>
 7    1  0.6285940E-013  0.5930199E+02  0.7816164E-02  0.1266605E+00
        -11   -1    0    0    0    0  0.00000000000E+00  0.00000000000E+00  0.45593999997E+02  0.45594000000E+02  0.51100000000E-03 0. -1.
         11   -1    0    0    0    0 -0.00000000000E+00 -0.00000000000E+00 -0.45593999997E+02  0.45594000000E+02  0.51100000000E-03 0.  1.
    9900012    2    1    2    0    0  0.12289730332E+02  0.20020547870E+02 -0.21560555174E+02  0.59301994479E+02  0.50000092011E+02 0.  0.
        -12    1    1    2    0    0 -0.12289730332E+02 -0.20020547870E+02  0.21560555174E+02  0.31886005521E+02  0.00000000000E+00 0.  1.
         11    1    3    3    0    0  0.85056692167E+01  0.45276685857E+01  0.72488383222E+01  0.12057854242E+02  0.51100000000E-03 0. -1.
        -11    1    3    3    0    0 -0.10986209035E+02  0.17507276827E+02 -0.23790556855E+02  0.31514950842E+02  0.51100000000E-03 0.  1.
         12    1    3    3    0    0  0.14770270150E+02 -0.20143975429E+01 -0.50188366418E+01  0.15729189394E+02  0.00000000000E+00 0. -1.
</event>
<event>
 7    1  0.6285940E-013  0.5930195E+02  0.7816164E-02  0.1266605E+00
        -11   -1    0    0    0    0  0.00000000000E+00  0.00000000000E+00  0.45593999997E+02  0.45594000000E+02  0.51100000000E-03 0.  1.
         11   -1    0    0    0    0 -0.00000000000E+00 -0.00000000000E+00 -0.45593999997E+02  0.45594000000E+02  0.51100000000E-03 0. -1.
    9900012    2    1    2    0    0  0.17337530281E+02  0.24511653435E+02  0.10738213882E+02  0.59301947441E+02  0.50000006225E+02 0.  0.
        -12    1    1    2    0    0 -0.17337530281E+02 -0.24511653435E+02 -0.10738213882E+02  0.31886052559E+02  0.00000000000E+00 0.  1.
         11    1    3    3    0    0  0.10502060943E+02  0.19159606534E+02  0.41270092377E+01  0.22235467436E+02  0.51100000000E-03 0. -1.
        -11    1    3    3    0    0  0.66004699921E+01  0.12851731231E+02  0.18214379431E+02  0.23248587443E+02  0.51100000000E-03 0.  1.
        -12    1    3    3    0    0  0.23499934648E+00 -0.74996843298E+01 -0.11603174787E+02  0.13817892562E+02  0.00000000000E+00 0.  1.
</event>
<event>
 7    1  0.6285940E-013  0.5930189E+02  0.7816164E-02  0.1266605E+00
        -11   -1    0    0    0    0  0.00000000000E+00  0.00000000000E+00  0.45593999997E+02  0.45594000000E+02  0.51100000000E-03 0.  1.
         11   -1    0    0    0    0 -0.00000000000E+00 -0.00000000000E+00 -0.45593999997E+02  0.45594000000E+02  0.51100000000E-03 0. -1.
    9900012    2    1    2    0    0  0.10507530757E+02  0.25315397498E+02 -0.16292518266E+02  0.59301894805E+02  0.49999910229E+02 0.  0.
        -12    1    1    2    0    0 -0.10507530757E+02 -0.25315397498E+02  0.16292518266E+02  0.31886105195E+02  0.00000000000E+00 0.  1.
         11    1    3    3    0    0 -0.40764870273E+01  0.16172673432E+02 -0.10557298126E+02  0.19739038892E+02  0.51100000000E-03 0. -1.
        -11    1    3    3    0    0  0.23644903491E+02  0.11229939176E+02 -0.11534012475E+02  0.28604657646E+02  0.51100000000E-03 0.  1.
        -12    1    3    3    0    0 -0.90608857065E+01 -0.20872151096E+01  0.57987923354E+01  0.10958198267E+02  0.00000000000E+00 0.  1.
</event>
<event>
 7    1  0.6285940E-013  0.5930195E+02  0.7816164E-02  0.1266605E+00
        -11   -1    0    0    0    0  0.00000000000E+00  0.00000000000E+00  0.45593999997E+02  0.45594000000E+02  0.51100000000E-03 0.  1.
         11   -1    0    0    0    0 -0.00000000000E+00 -0.00000000000E+00 -0.45593999997E+02  0.45594000000E+02  0.51100000000E-03 0. -1.
    9900012    2    1    2    0    0  0.27420652113E+02 -0.90910797051E+01 -0.13497421806E+02  0.59301948380E+02  0.50000007937E+02 0.  0.
        -12    1    1    2    0    0 -0.27420652113E+02  0.90910797051E+01  0.13497421806E+02  0.31886051620E+02  0.00000000000E+00 0.  1.
         11    1    3    3    0    0  0.12141708803E+02  0.10000233216E+02 -0.83241007823E+01  0.17796528064E+02  0.51100000000E-03 0. -1.
        -11    1    3    3    0    0 -0.95138372741E+01 -0.10650715506E+02  0.18225797245E+01  0.14396966263E+02  0.51100000000E-03 0.  1.
         12    1    3    3    0    0  0.24792780585E+02 -0.84405974150E+01 -0.69959007481E+01  0.27108454052E+02  0.00000000000E+00 0. -1.
</event>
<event>
 7    1  0.6285940E-013  0.5930195E+02  0.7816164E-02  0.1266605E+00
        -11   -1    0    0    0    0  0.00000000000E+00  0.00000000000E+00  0.45593999997E+02  0.45594000000E+02  0.51100000000E-03 0. -1.
         11   -1    0    0    0    0 -0.00000000000E+00 -0.00000000000E+00 -0.45593999997E+02  0.45594000000E+02  0.51100000000E-03 0.  1.
    9900012    2    1    2    0    0  0.13198222441E+02 -0.24035349175E+02  0.16273576962E+02  0.59301946737E+02  0.50000004941E+02 0.  0.
        -12    1    1    2    0    0 -0.13198222441E+02  0.24035349175E+02 -0.16273576962E+02  0.31886053263E+02  0.00000000000E+00 0.  1.
         11    1    3    3    0    0  0.97549140403E+01 -0.17987593142E+01 -0.30542064096E+01  0.10378923839E+02  0.51100000000E-03 0. -1.
        -11    1    3    3    0    0  0.11057957299E+02 -0.56872263264E+01  0.26556913055E+02  0.29323925286E+02  0.51100000000E-03 0.  1.
         12    1    3    3    0    0 -0.76146488979E+01 -0.16549363534E+02 -0.72291296830E+01  0.19599097612E+02  0.00000000000E+00 0. -1.
</event>
<event>
 7    1  0.6285940E-013  0.5930193E+02  0.7816164E-02  0.1266605E+00
        -11   -1    0    0    0    0  0.00000000000E+00  0.00000000000E+00  0.45593999997E+02  0.45594000000E+02  0.51100000000E-03 0.  1.
         11   -1    0    0    0    0 -0.00000000000E+00 -0.00000000000E+00 -0.45593999997E+02  0.45594000000E+02  0.51100000000E-03 0. -1.
    9900012    2    1    2    0    0  0.19408195690E+02 -0.22226367693E+02 -0.12084367974E+02  0.59301930470E+02  0.49999975273E+02 0.  0.
        -12    1    1    2    0    0 -0.19408195690E+02  0.22226367693E+02  0.12084367974E+02  0.31886069530E+02  0.00000000000E+00 0.  1.
         11    1    3    3    0    0  0.24072726580E+02 -0.34392304543E+01  0.37385285635E+01  0.24602867053E+02  0.51100000000E-03 0.  1.
        -11    1    3    3    0    0  0.12302515723E+01 -0.10824346606E+02  0.47348938119E+01  0.11878519186E+02  0.51100000000E-03 0. -1.
        -12    1    3    3    0    0 -0.58947824626E+01 -0.79627906325E+01 -0.20557790350E+02  0.22820544231E+02  0.00000000000E+00 0.  1.
</event>
<event>
 7    1  0.6285940E-013  0.5930198E+02  0.7816164E-02  0.1266605E+00
        -11   -1    0    0    0    0  0.00000000000E+00  0.00000000000E+00  0.45593999997E+02  0.45594000000E+02  0.51100000000E-03 0.  1.
         11   -1    0    0    0    0 -0.00000000000E+00 -0.00000000000E+00 -0.45593999997E+02  0.45594000000E+02  0.51100000000E-03 0. -1.
    9900012    2    1    2    0    0 -0.71138172527E+01 -0.64191990655E+01 -0.30412260316E+02  0.59301982844E+02  0.50000070791E+02 0.  0.
        -12    1    1    2    0    0  0.71138172527E+01  0.64191990655E+01  0.30412260316E+02  0.31886017156E+02  0.00000000000E+00 0.  1.
         11    1    3    3    0    0 -0.10801828550E+02 -0.37555806218E+01 -0.57822849916E+01  0.12814784657E+02  0.51100000000E-03 0. -1.
        -11    1    3    3    0    0  0.22749948376E+01 -0.64301091239E+01  0.97355124508E+01  0.11887056313E+02  0.51100000000E-03 0.  1.
         12    1    3    3    0    0  0.14130164595E+01  0.37664906803E+01 -0.34365487776E+02  0.34600141873E+02  0.00000000000E+00 0. -1.
</event>
<event>
 7    1  0.6285940E-013  0.5930195E+02  0.7816164E-02  0.1266605E+00
        -11   -1    0    0    0    0  0.00000000000E+00  0.00000000000E+00  0.45593999997E+02  0.45594000000E+02  0.51100000000E-03 0. -1.
         11   -1    0    0    0    0 -0.00000000000E+00 -0.00000000000E+00 -0.45593999997E+02  0.45594000000E+02  0.51100000000E-03 0.  1.
    9900012    2    1    2    0    0 -0.30504562888E+02 -0.20046355618E+01  0.90649512053E+01  0.59301948801E+02  0.50000008705E+02 0.  0.
        -12    1    1    2    0    0  0.30504562888E+02  0.20046355618E+01 -0.90649512053E+01  0.31886051199E+02  0.00000000000E+00 0.  1.
         11    1    3    3    0    0 -0.12866087413E+02  0.84706667041E+01 -0.11447299322E+02  0.19191900942E+02  0.51100000000E-03 0. -1.
        -11    1    3    3    0    0  0.43972527788E+01  0.51707808101E+01  0.11985551004E+01  0.68927019939E+01  0.51100000000E-03 0.  1.
         12    1    3    3    0    0 -0.22035728254E+02 -0.15646083076E+02  0.19313695427E+02  0.33217345865E+02  0.00000000000E+00 0. -1.
</event>
<event>
 7    1  0.6285940E-013  0.5930195E+02  0.7816164E-02  0.1266605E+00
        -11   -1    0    0    0    0  0.00000000000E+00  0.00000000000E+00  0.45593999997E+02  0.45594000000E+02  0.51100000000E-03 0.  1.
         11   -1    0    0    0    0 -0.00000000000E+00 -0.00000000000E+00 -0.45593999997E+02  0.45594000000E+02  0.51100000000E-03 0. -1.
    9900012    2    1    2    0    0 -0.10875006445E+01 -0.69629193657E+01 -0.31097509931E+02  0.59301952461E+02  0.50000015380E+02 0.  0.
        -12    1    1    2    0    0  0.10875006445E+01  0.69629193657E+01  0.31097509931E+02  0.31886047539E+02  0.00000000000E+00 0.  1.
         11    1    3    3    0    0 -0.17490530057E+01  0.55507993311E+01 -0.27589112927E+01  0.64406638953E+01  0.51100000000E-03 0. -1.
        -11    1    3    3    0    0  0.14543401265E+02 -0.61390233932E+01  0.46927929429E+01  0.16468771492E+02  0.51100000000E-03 0.  1.
        -12    1    3    3    0    0 -0.13881848904E+02 -0.63746953036E+01 -0.33031391581E+02  0.36392517074E+02  0.00000000000E+00 0.  1.
</event>
<event>
 7    1  0.1423320E-012  0.5930198E+02  0.7816164E-02  0.1266605E+00
        -11   -1    0    0    0    0  0.00000000000E+00  0.00000000000E+00  0.45593999997E+02  0.45594000000E+02  0.51100000000E-03 0. -1.
         11   -1    0    0    0    0 -0.00000000000E+00 -0.00000000000E+00 -0.45593999997E+02  0.45594000000E+02  0.51100000000E-03 0.  1.
    9900012    2    1    2    0    0 -0.10924343201E+02 -0.12840527156E+02  0.27064699247E+02  0.59301978652E+02  0.50000063147E+02 0.  0.
        -12    1    1    2    0    0  0.10924343201E+02  0.12840527156E+02 -0.27064699247E+02  0.31886021348E+02  0.00000000000E+00 0.  1.
         11    1    3    3    0    0 -0.17694583677E+02 -0.69060176564E+01  0.30697204656E+02  0.36098611404E+02  0.51100000000E-03 0. -1.
        -11    1    3    3    0    0 -0.60949619683E+01  0.19572871554E+01 -0.48939047471E+01  0.80579053320E+01  0.51100000000E-03 0.  1.
        -12    1    3    3    0    0  0.12865202444E+02 -0.78917966551E+01  0.12613993390E+01  0.15145461916E+02  0.00000000000E+00 0.  1.
</event>
<event>
 7    1  0.6285940E-013  0.5930194E+02  0.7816164E-02  0.1266605E+00
        -11   -1    0    0    0    0  0.00000000000E+00  0.00000000000E+00  0.45593999997E+02  0.45594000000E+02  0.51100000000E-03 0.  1.
         11   -1    0    0    0    0 -0.00000000000E+00 -0.00000000000E+00 -0.45593999997E+02  0.45594000000E+02  0.51100000000E-03 0. -1.
    9900012    2    1    2    0    0 -0.21825362281E+02  0.28813979416E+01 -0.23066683312E+02  0.59301940792E+02  0.49999994098E+02 0.  0.
        -12    1    1    2    0    0  0.21825362281E+02 -0.28813979416E+01  0.23066683312E+02  0.31886059208E+02  0.00000000000E+00 0.  1.
         11    1    3    3    0    0 -0.10806332486E+02  0.17881477056E+02 -0.42198930616E+01  0.21315054332E+02  0.51100000000E-03 0. -1.
        -11    1    3    3    0    0 -0.13247131375E+02  0.27106474324E+01 -0.24361057122E+01  0.13739312591E+02  0.51100000000E-03 0.  1.
         12    1    3    3    0    0  0.22281015801E+01 -0.17710726546E+02 -0.16410684539E+02  0.24247573868E+02  0.00000000000E+00 0. -1.
</event>
<event>
 7    1  0.6285940E-013  0.5930195E+02  0.7816164E-02  0.1266605E+00
        -11   -1    0    0    0    0  0.00000000000E+00  0.00000000000E+00  0.45593999997E+02  0.45594000000E+02  0.51100000000E-03 0.  1.
         11   -1    0    0    0    0 -0.00000000000E+00 -0.00000000000E+00 -0.45593999997E+02  0.45594000000E+02  0.51100000000E-03 0. -1.
    9900012    2    1    2    0    0  0.12614193536E+02  0.14567629220E+02 -0.25404454129E+02  0.59301953063E+02  0.50000016478E+02 0.  0.
        -12    1    1    2    0    0 -0.12614193536E+02 -0.14567629220E+02  0.25404454129E+02  0.31886046937E+02  0.00000000000E+00 0.  1.
         11    1    3    3    0    0 -0.96620868273E+01  0.11664732691E+01 -0.41085105446E+01  0.10563921663E+02  0.51100000000E-03 0. -1.
        -11    1    3    3    0    0  0.28792245816E+01 -0.11517406252E+02 -0.30097667458E+01  0.12247419201E+02  0.51100000000E-03 0.  1.
         12    1    3    3    0    0  0.19397055782E+02  0.24918562203E+02 -0.18286176839E+02  0.36490612199E+02  0.00000000000E+00 0. -1.
</event>
<event>
 7    1  0.6285940E-013  0.5930207E+02  0.7816164E-02  0.1266604E+00
        -11   -1    0    0    0    0  0.00000000000E+00  0.00000000000E+00  0.45593999997E+02  0.45594000000E+02  0.51100000000E-03 0.  1.
         11   -1    0    0    0    0 -0.00000000000E+00 -0.00000000000E+00 -0.45593999997E+02  0.45594000000E+02  0.51100000000E-03 0. -1.
    9900012    2    1    2    0    0 -0.25731907387E+02 -0.21569581013E+01 -0.18706383380E+02  0.59302073557E+02  0.50000236229E+02 0.  0.
        -12    1    1    2    0    0  0.25731907387E+02  0.21569581013E+01  0.18706383380E+02  0.31885926443E+02  0.00000000000E+00 0.  1.
         11    1    3    3    0    0  0.48225079648E+01  0.20272825177E+01 -0.22581755671E+02  0.23179778837E+02  0.51100000000E-03 0. -1.
        -11    1    3    3    0    0 -0.18167946701E+02 -0.42723115706E+01 -0.67055281526E+01  0.19831566795E+02  0.51100000000E-03 0.  1.
        -12    1    3    3    0    0 -0.12386468650E+02  0.88070951594E-01  0.10580900444E+02  0.16290727925E+02  0.00000000000E+00 0.  1.
</event>
<event>
 7    1  0.6285940E-013  0.5930193E+02  0.7816164E-02  0.1266605E+00
        -11   -1    0    0    0    0  0.00000000000E+00  0.00000000000E+00  0.45593999997E+02  0.45594000000E+02  0.51100000000E-03 0. -1.
         11   -1    0    0    0    0 -0.00000000000E+00 -0.00000000000E+00 -0.45593999997E+02  0.45594000000E+02  0.51100000000E-03 0.  1.
    9900012    2    1    2    0    0  0.24271265602E+02 -0.20085778069E+02 -0.49182221280E+01  0.59301925869E+02  0.49999966883E+02 0.  0.
        -12    1    1    2    0    0 -0.24271265602E+02  0.20085778069E+02  0.49182221280E+01  0.31886074131E+02  0.00000000000E+00 0.  1.
         11    1    3    3    0    0  0.19754458961E+02 -0.22726244563E+01 -0.17510878690E+02  0.26495930697E+02  0.51100000000E-03 0. -1.
        -11    1    3    3    0    0  0.27620811927E+01 -0.60703267722E+01 -0.71440375560E+01  0.97731894743E+01  0.51100000000E-03 0.  1.
        -12    1    3    3    0    0  0.17547254485E+01 -0.11742826840E+02  0.19736694118E+02  0.23032805698E+02  0.00000000000E+00 0.  1.
</event>
<event>
 7    1  0.6285940E-013  0.5930194E+02  0.7816164E-02  0.1266605E+00
        -11   -1    0    0    0    0  0.00000000000E+00  0.00000000000E+00  0.45593999997E+02  0.45594000000E+02  0.51100000000E-03 0. -1.
         11   -1    0    0    0    0 -0.00000000000E+00 -0.00000000000E+00 -0.45593999997E+02  0.45594000000E+02  0.51100000000E-03 0.  1.
    9900012    2    1    2    0    0 -0.53725511556E+01  0.31330684072E+02 -0.24988941408E+01  0.59301944391E+02  0.50000000663E+02 0.  0.
        -12    1    1    2    0    0  0.53725511556E+01 -0.31330684072E+02  0.24988941408E+01  0.31886055609E+02  0.00000000000E+00 0.  1.
         11    1    3    3    0    0 -0.11990079645E+01 -0.46902113097E+01 -0.84019995861E+01  0.96968706053E+01  0.51100000000E-03 0. -1.
        -11    1    3    3    0    0  0.59500956950E+01 -0.43734495920E+01 -0.79145180580E+00  0.74267823676E+01  0.51100000000E-03 0.  1.
         12    1    3    3    0    0 -0.10123638886E+02  0.40394344974E+02  0.66945572512E+01  0.42178291418E+02  0.00000000000E+00 0. -1.
</event>
<event>
 7    1  0.6285940E-013  0.5930163E+02  0.7816164E-02  0.1266606E+00
        -11   -1    0    0    0    0  0.00000000000E+00  0.00000000000E+00  0.45593999997E+02  0.45594000000E+02  0.51100000000E-03 0.  1.
         11   -1    0    0    0    0 -0.00000000000E+00 -0.00000000000E+00 -0.45593999997E+02  0.45594000000E+02  0.51100000000E-03 0. -1.
    9900012    2    1    2    0    0  0.26340718571E+02 -0.49226806803E+01 -0.17282193879E+02  0.59301631985E+02  0.49999430905E+02 0.  0.
        -12    1    1    2    0    0 -0.26340718571E+02  0.49226806803E+01  0.17282193879E+02  0.31886368015E+02  0.00000000000E+00 0.  1.
         11    1    3    3    0    0  0.64502573466E+01 -0.18181308446E+02 -0.30565220901E+00  0.19294020322E+02  0.51100000000E-03 0. -1.
        -11    1    3    3    0    0  0.37133503779E+01 -0.31856700276E+01  0.58015530008E+01  0.75891687315E+01  0.51100000000E-03 0.  1.
         12    1    3    3    0    0  0.16177110847E+02  0.16444297793E+02 -0.22778094670E+02  0.32418442931E+02  0.00000000000E+00 0. -1.
</event>
<event>
 7    1  0.6285940E-013  0.5930195E+02  0.7816164E-02  0.1266605E+00
        -11   -1    0    0    0    0  0.00000000000E+00  0.00000000000E+00  0.45593999997E+02  0.45594000000E+02  0.51100000000E-03 0.  1.
         11   -1    0    0    0    0 -0.00000000000E+00 -0.00000000000E+00 -0.45593999997E+02  0.45594000000E+02  0.51100000000E-03 0. -1.
    9900012    2    1    2    0    0  0.12617565806E+02  0.28071535020E+02  0.83370307995E+01  0.59301950891E+02  0.50000012517E+02 0.  0.
        -12    1    1    2    0    0 -0.12617565806E+02 -0.28071535020E+02 -0.83370307995E+01  0.31886049109E+02  0.00000000000E+00 0.  1.
         11    1    3    3    0    0  0.40449077709E+01 -0.36006346082E+01  0.11152963812E+02  0.12398163191E+02  0.51100000000E-03 0.  1.
        -11    1    3    3    0    0 -0.10817034777E+02  0.79866181773E+01  0.64627402747E+01  0.14918489314E+02  0.51100000000E-03 0. -1.
         12    1    3    3    0    0  0.19389692812E+02  0.23685551451E+02 -0.92786732876E+01  0.31985298386E+02  0.00000000000E+00 0. -1.
</event>
<event>
 7    1  0.6285940E-013  0.5930193E+02  0.7816164E-02  0.1266605E+00
        -11   -1    0    0    0    0  0.00000000000E+00  0.00000000000E+00  0.45593999997E+02  0.45594000000E+02  0.51100000000E-03 0.  1.
         11   -1    0    0    0    0 -0.00000000000E+00 -0.00000000000E+00 -0.45593999997E+02  0.45594000000E+02  0.51100000000E-03 0. -1.
    9900012    2    1    2    0    0 -0.11854234312E+02 -0.19451119746E+02 -0.22312613567E+02  0.59301926948E+02  0.49999968850E+02 0.  0.
        -12    1    1    2    0    0  0.11854234312E+02  0.19451119746E+02  0.22312613567E+02  0.31886073052E+02  0.00000000000E+00 0.  1.
         11    1    3    3    0    0  0.78891869270E+01 -0.94518885973E+01 -0.56630147573E+01  0.13551649524E+02  0.51100000000E-03 0. -1.
        -11    1    3    3    0    0 -0.84533570647E+01  0.81841359486E+01 -0.20848051587E+02  0.23939101532E+02  0.51100000000E-03 0.  1.
        -12    1    3    3    0    0 -0.11290064174E+02 -0.18183367097E+02  0.41984527773E+01  0.21811175892E+02  0.00000000000E+00 0.  1.
</event>
<event>
 7    1  0.6285940E-013  0.5930192E+02  0.7816164E-02  0.1266605E+00
        -11   -1    0    0    0    0  0.00000000000E+00  0.00000000000E+00  0.45593999997E+02  0.45594000000E+02  0.51100000000E-03 0. -1.
         11   -1    0    0    0    0 -0.00000000000E+00 -0.00000000000E+00 -0.45593999997E+02  0.45594000000E+02  0.51100000000E-03 0.  1.
    9900012    2    1    2    0    0  0.27104272574E+02 -0.80833984432E+01  0.14722060538E+02  0.59301921712E+02  0.49999959301E+02 0.  0.
        -12    1    1    2    0    0 -0.27104272574E+02  0.80833984432E+01 -0.14722060538E+02  0.31886078288E+02  0.00000000000E+00 0.  1.
         11    1    3    3    0    0 -0.33067228470E+01  0.83121482171E+01 -0.48232171363E+00  0.89587308514E+01  0.51100000000E-03 0. -1.
        -11    1    3    3    0    0 -0.70484589657E+01 -0.56173957214E+01  0.28717665159E+01  0.94595428888E+01  0.51100000000E-03 0.  1.
         12    1    3    3    0    0  0.37459454386E+02 -0.10778150939E+02  0.12332615736E+02  0.40883647971E+02  0.00000000000E+00 0. -1.
</event>
<event>
 7    1  0.1489196E-012  0.5930193E+02  0.7816164E-02  0.1266605E+00
        -11   -1    0    0    0    0  0.00000000000E+00  0.00000000000E+00  0.45593999997E+02  0.45594000000E+02  0.51100000000E-03 0. -1.
         11   -1    0    0    0    0 -0.00000000000E+00 -0.00000000000E+00 -0.45593999997E+02  0.45594000000E+02  0.51100000000E-03 0.  1.
    9900012    2    1    2    0    0 -0.22457854595E+02  0.12597354160E+02  0.18806189796E+02  0.59301931891E+02  0.49999977865E+02 0.  0.
        -12    1    1    2    0    0  0.22457854595E+02 -0.12597354160E+02 -0.18806189796E+02  0.31886068109E+02  0.00000000000E+00 0.  1.
         11    1    3    3    0    0 -0.19936768616E+02  0.17247473844E+02  0.22604513433E+02  0.34726274270E+02  0.51100000000E-03 0. -1.
        -11    1    3    3    0    0 -0.69260331800E+01  0.42724959833E+01 -0.99676039924E+01  0.12867683830E+02  0.51100000000E-03 0.  1.
        -12    1    3    3    0    0  0.44049472013E+01 -0.89226156675E+01  0.61692803554E+01  0.11707973791E+02  0.00000000000E+00 0.  1.
</event>
<event>
 7    1  0.6285940E-013  0.5930211E+02  0.7816164E-02  0.1266604E+00
        -11   -1    0    0    0    0  0.00000000000E+00  0.00000000000E+00  0.45593999997E+02  0.45594000000E+02  0.51100000000E-03 0.  1.
         11   -1    0    0    0    0 -0.00000000000E+00 -0.00000000000E+00 -0.45593999997E+02  0.45594000000E+02  0.51100000000E-03 0. -1.
    9900012    2    1    2    0    0  0.16123419469E+02  0.14392247520E+02 -0.23443733988E+02  0.59302108020E+02  0.50000299082E+02 0.  0.
        -12    1    1    2    0    0 -0.16123419469E+02 -0.14392247520E+02  0.23443733988E+02  0.31885891980E+02  0.00000000000E+00 0.  1.
         11    1    3    3    0    0  0.12043326350E+02  0.24374661154E+02 -0.25110977059E+02  0.37009822819E+02  0.51100000000E-03 0. -1.
        -11    1    3    3    0    0  0.11462035632E+02 -0.25390579686E+01  0.60550852967E+00  0.11755497311E+02  0.51100000000E-03 0.  1.
        -12    1    3    3    0    0 -0.73819425121E+01 -0.74433556651E+01  0.10617345418E+01  0.10536787890E+02  0.00000000000E+00 0.  1.
</event>
<event>
 7    1  0.6285940E-013  0.5930193E+02  0.7816164E-02  0.1266605E+00
        -11   -1    0    0    0    0  0.00000000000E+00  0.00000000000E+00  0.45593999997E+02  0.45594000000E+02  0.51100000000E-03 0.  1.
         11   -1    0    0    0    0 -0.00000000000E+00 -0.00000000000E+00 -0.45593999997E+02  0.45594000000E+02  0.51100000000E-03 0. -1.
    9900012    2    1    2    0    0  0.16472292642E+02 -0.25805282455E+01 -0.27179510762E+02  0.59301931629E+02  0.49999977388E+02 0.  0.
        -12    1    1    2    0    0 -0.16472292642E+02  0.25805282455E+01  0.27179510762E+02  0.31886068371E+02  0.00000000000E+00 0.  1.
         11    1    3    3    0    0 -0.11616086334E+01 -0.12188704115E+02 -0.15506846515E+02  0.19757938448E+02  0.51100000000E-03 0. -1.
        -11    1    3    3    0    0  0.18717265478E+02  0.12672154385E+01  0.62270639645E+01  0.19766592722E+02  0.51100000000E-03 0.  1.
         12    1    3    3    0    0 -0.10833642027E+01  0.83409604306E+01 -0.17899728211E+02  0.19777400459E+02  0.00000000000E+00 0. -1.
</event>
<event>
 7    1  0.6285940E-013  0.5930194E+02  0.7816164E-02  0.1266605E+00
        -11   -1    0    0    0    0  0.00000000000E+00  0.00000000000E+00  0.45593999997E+02  0.45594000000E+02  0.51100000000E-03 0.  1.
         11   -1    0    0    0    0 -0.00000000000E+00 -0.00000000000E+00 -0.45593999997E+02  0.45594000000E+02  0.51100000000E-03 0. -1.
    9900012    2    1    2    0    0 -0.14008008388E+02  0.23100979169E+02 -0.16936381919E+02  0.59301943956E+02  0.49999999869E+02 0.  0.
        -12    1    1    2    0    0  0.14008008388E+02 -0.23100979169E+02  0.16936381919E+02  0.31886056044E+02  0.00000000000E+00 0.  1.
         11    1    3    3    0    0  0.62411428805E+01 -0.45866242583E+01 -0.50384168904E+01  0.92398393690E+01  0.51100000000E-03 0. -1.
        -11    1    3    3    0    0 -0.10242399407E+02  0.74369879532E+01  0.11813313229E+02  0.17313864535E+02  0.51100000000E-03 0.  1.
         12    1    3    3    0    0 -0.10006751862E+02  0.20250615474E+02 -0.23711278258E+02  0.32748240052E+02  0.00000000000E+00 0. -1.
</event>
<event>
 7    1  0.6285940E-013  0.5930166E+02  0.7816164E-02  0.1266606E+00
        -11   -1    0    0    0    0  0.00000000000E+00  0.00000000000E+00  0.45593999997E+02  0.45594000000E+02  0.51100000000E-03 0. -1.
         11   -1    0    0    0    0 -0.00000000000E+00 -0.00000000000E+00 -0.45593999997E+02  0.45594000000E+02  0.51100000000E-03 0.  1.
    9900012    2    1    2    0    0 -0.13044189799E+02 -0.23675496439E+02  0.16913276558E+02  0.59301655853E+02  0.49999474435E+02 0.  0.
        -12    1    1    2    0    0  0.13044189799E+02  0.23675496439E+02 -0.16913276558E+02  0.31886344147E+02  0.00000000000E+00 0.  1.
         11    1    3    3    0    0  0.48741970302E+01 -0.15454288605E+01  0.12888763875E+02  0.13866015345E+02  0.51100000000E-03 0. -1.
        -11    1    3    3    0    0 -0.49146135682E+01 -0.10723745005E+02  0.19127545396E+02  0.22472541614E+02  0.51100000000E-03 0.  1.
        -12    1    3    3    0    0 -0.13003773261E+02 -0.11406322574E+02 -0.15103032713E+02  0.22963098894E+02  0.00000000000E+00 0.  1.
</event>
<event>
 7    1  0.6285940E-013  0.5930195E+02  0.7816164E-02  0.1266605E+00
        -11   -1    0    0    0    0  0.00000000000E+00  0.00000000000E+00  0.45593999997E+02  0.45594000000E+02  0.51100000000E-03 0.  1.
         11   -1    0    0    0    0 -0.00000000000E+00 -0.00000000000E+00 -0.45593999997E+02  0.45594000000E+02  0.51100000000E-03 0. -1.
    9900012    2    1    2    0    0 -0.19555146782E+02 -0.29504638336E+00 -0.25183913697E+02  0.59301947765E+02  0.50000006816E+02 0.  0.
        -12    1    1    2    0    0  0.19555146782E+02  0.29504638336E+00  0.25183913697E+02  0.31886052235E+02  0.00000000000E+00 0.  1.
         11    1    3    3    0    0 -0.17296907795E+02 -0.67968430589E+01 -0.26230481325E+02  0.32146823259E+02  0.51100000000E-03 0. -1.
        -11    1    3    3    0    0  0.49306753450E+01 -0.85775216418E+01 -0.22047499366E+01  0.10136387888E+02  0.51100000000E-03 0.  1.
        -12    1    3    3    0    0 -0.71889143315E+01  0.15079318317E+02  0.32513175639E+01  0.17018736618E+02  0.00000000000E+00 0.  1.
</event>
<event>
 7    1  0.6285940E-013  0.5930194E+02  0.7816164E-02  0.1266605E+00
        -11   -1    0    0    0    0  0.00000000000E+00  0.00000000000E+00  0.45593999997E+02  0.45594000000E+02  0.51100000000E-03 0.  1.
         11   -1    0    0    0    0 -0.00000000000E+00 -0.00000000000E+00 -0.45593999997E+02  0.45594000000E+02  0.51100000000E-03 0. -1.
    9900012    2    1    2    0    0 -0.23613673129E+02 -0.21425999017E+02 -0.20519240403E+00  0.59301935702E+02  0.49999984816E+02 0.  0.
        -12    1    1    2    0    0  0.23613673129E+02  0.21425999017E+02  0.20519240403E+00  0.31886064298E+02  0.00000000000E+00 0.  1.
         11    1    3    3    0    0 -0.86714436837E+00 -0.20437312413E+02 -0.75660350006E+01  0.21810102336E+02  0.51100000000E-03 0. -1.
        -11    1    3    3    0    0 -0.11258760709E+02 -0.14733637653E+02  0.13305523510E+01  0.18590592809E+02  0.51100000000E-03 0.  1.
        -12    1    3    3    0    0 -0.11487768052E+02  0.13744951049E+02  0.60302902456E+01  0.18901240557E+02  0.00000000000E+00 0.  1.
</event>
<event>
 7    1  0.6285940E-013  0.5930191E+02  0.7816164E-02  0.1266605E+00
        -11   -1    0    0    0    0  0.00000000000E+00  0.00000000000E+00  0.45593999997E+02  0.45594000000E+02  0.51100000000E-03 0. -1.
         11   -1    0    0    0    0 -0.00000000000E+00 -0.00000000000E+00 -0.45593999997E+02  0.45594000000E+02  0.51100000000E-03 0.  1.
    9900012    2    1    2    0    0  0.25186887284E+02 -0.18812594371E+02 -0.53319440442E+01  0.59301911727E+02  0.49999941091E+02 0.  0.
        -12    1    1    2    0    0 -0.25186887284E+02  0.18812594371E+02  0.53319440442E+01  0.31886088273E+02  0.00000000000E+00 0.  1.
         11    1    3    3    0    0  0.16343317403E+02  0.16358415388E+01 -0.46073627323E+01  0.17058950521E+02  0.51100000000E-03 0. -1.
        -11    1    3    3    0    0  0.10024197221E+02  0.15153729228E+01 -0.13441272350E+02  0.16835934416E+02  0.51100000000E-03 0.  1.
        -12    1    3    3    0    0 -0.11806273390E+01 -0.21963808833E+02  0.12716691038E+02  0.25407026790E+02  0.00000000000E+00 0.  1.
</event>
<event>
 7    1  0.6285940E-013  0.5930197E+02  0.7816164E-02  0.1266605E+00
        -11   -1    0    0    0    0  0.00000000000E+00  0.00000000000E+00  0.45593999997E+02  0.45594000000E+02  0.51100000000E-03 0.  1.
         11   -1    0    0    0    0 -0.00000000000E+00 -0.00000000000E+00 -0.45593999997E+02  0.45594000000E+02  0.51100000000E-03 0. -1.
    9900012    2    1    2    0    0  0.18985804432E+02 -0.13198747279E+02 -0.21955667580E+02  0.59301967972E+02  0.50000043668E+02 0.  0.
        -12    1    1    2    0    0 -0.18985804432E+02  0.13198747279E+02  0.21955667580E+02  0.31886032028E+02  0.00000000000E+00 0.  1.
         11    1    3    3    0    0 -0.39785527227E+01 -0.30248204994E+01 -0.14553774672E+02  0.15388007612E+02  0.51100000000E-03 0. -1.
        -11    1    3    3    0    0 -0.18678808986E+01  0.35715645910E+01  0.98892126729E+01  0.10679025247E+02  0.51100000000E-03 0.  1.
         12    1    3    3    0    0  0.24832238053E+02 -0.13745491370E+02 -0.17291105581E+02  0.33234935112E+02  0.00000000000E+00 0. -1.
</event>
<event>
 7    1  0.6285940E-013  0.5930196E+02  0.7816164E-02  0.1266605E+00
        -11   -1    0    0    0    0  0.00000000000E+00  0.00000000000E+00  0.45593999997E+02  0.45594000000E+02  0.51100000000E-03 0. -1.
         11   -1    0    0    0    0 -0.00000000000E+00 -0.00000000000E+00 -0.45593999997E+02  0.45594000000E+02  0.51100000000E-03 0.  1.
    9900012    2    1    2    0    0  0.30191699224E+02  0.40877194432E+01  0.94059098911E+01  0.59301963979E+02  0.50000036385E+02 0.  0.
        -12    1    1    2    0    0 -0.30191699224E+02 -0.40877194432E+01 -0.94059098911E+01  0.31886036021E+02  0.00000000000E+00 0.  1.
         11    1    3    3    0    0 -0.21871872248E+01 -0.15446378544E+02 -0.12298051846E+01  0.15648859995E+02  0.51100000000E-03 0. -1.
        -11    1    3    3    0    0 -0.24873085102E+01  0.13577787751E+01 -0.27692925665E+00  0.28472718348E+01  0.51100000000E-03 0.  1.
        -12    1    3    3    0    0  0.34866194959E+02  0.18176319212E+02  0.10912644332E+02  0.40805832149E+02  0.00000000000E+00 0.  1.
</event>
<event>
 7    1  0.6285940E-013  0.5930194E+02  0.7816164E-02  0.1266605E+00
        -11   -1    0    0    0    0  0.00000000000E+00  0.00000000000E+00  0.45593999997E+02  0.45594000000E+02  0.51100000000E-03 0. -1.
         11   -1    0    0    0    0 -0.00000000000E+00 -0.00000000000E+00 -0.45593999997E+02  0.45594000000E+02  0.51100000000E-03 0.  1.
    9900012    2    1    2    0    0  0.31706042609E+02 -0.42579847913E+00  0.33565602838E+01  0.59301938167E+02  0.49999989312E+02 0.  0.
        -12    1    1    2    0    0 -0.31706042609E+02  0.42579847913E+00 -0.33565602838E+01  0.31886061833E+02  0.00000000000E+00 0.  1.
         11    1    3    3    0    0  0.11536145763E+02  0.19809661475E+02 -0.40092390727E+01  0.23271857360E+02  0.51100000000E-03 0. -1.
        -11    1    3    3    0    0  0.10501504945E+02 -0.43544184669E+01 -0.62609648448E+01  0.12978530246E+02  0.51100000000E-03 0.  1.
         12    1    3    3    0    0  0.96683919013E+01 -0.15881041487E+02  0.13626764201E+02  0.23051550561E+02  0.00000000000E+00 0. -1.
</event>
<event>
 7    1  0.6285940E-013  0.5930193E+02  0.7816164E-02  0.1266605E+00
        -11   -1    0    0    0    0  0.00000000000E+00  0.00000000000E+00  0.45593999997E+02  0.45594000000E+02  0.51100000000E-03 0.  1.
         11   -1    0    0    0    0 -0.00000000000E+00 -0.00000000000E+00 -0.45593999997E+02  0.45594000000E+02  0.51100000000E-03 0. -1.
    9900012    2    1    2    0    0  0.11761546459E+02 -0.12961994618E+02 -0.26652846809E+02  0.59301929019E+02  0.49999972627E+02 0.  0.
        -12    1    1    2    0    0 -0.11761546459E+02  0.12961994618E+02  0.26652846809E+02  0.31886070981E+02  0.00000000000E+00 0.  1.
         11    1    3    3    0    0 -0.88449688838E+01 -0.12573539814E+02 -0.30977455240E+02  0.34582222477E+02  0.51100000000E-03 0. -1.
        -11    1    3    3    0    0 -0.12290682614E+01  0.12113284301E+01  0.20922403521E+01  0.27120832046E+01  0.51100000000E-03 0.  1.
         12    1    3    3    0    0  0.21835583604E+02 -0.15997832344E+01  0.22323680789E+01  0.22007623337E+02  0.00000000000E+00 0. -1.
</event>
<event>
 7    1  0.6285940E-013  0.5930177E+02  0.7816164E-02  0.1266605E+00
        -11   -1    0    0    0    0  0.00000000000E+00  0.00000000000E+00  0.45593999997E+02  0.45594000000E+02  0.51100000000E-03 0. -1.
         11   -1    0    0    0    0 -0.00000000000E+00 -0.00000000000E+00 -0.45593999997E+02  0.45594000000E+02  0.51100000000E-03 0.  1.
    9900012    2    1    2    0    0  0.21913205414E+02 -0.69743389026E+01  0.22088496906E+02  0.59301769896E+02  0.49999682425E+02 0.  0.
        -12    1    1    2    0    0 -0.21913205414E+02  0.69743389026E+01 -0.22088496906E+02  0.31886230104E+02  0.00000000000E+00 0.  1.
         11    1    3    3    0    0 -0.54392226695E+01 -0.34729431709E+01 -0.23877681501E+01  0.68809820896E+01  0.51100000000E-03 0. -1.
        -11    1    3    3    0    0  0.74463395757E+01 -0.12805637988E+02 -0.50190436305E+01  0.15640432749E+02  0.51100000000E-03 0.  1.
         12    1    3    3    0    0  0.19906088508E+02  0.93042422563E+01  0.29495308687E+02  0.36780355058E+02  0.00000000000E+00 0. -1.
</event>
<event>
 7    1  0.6285940E-013  0.5930195E+02  0.7816164E-02  0.1266605E+00
        -11   -1    0    0    0    0  0.00000000000E+00  0.00000000000E+00  0.45593999997E+02  0.45594000000E+02  0.51100000000E-03 0.  1.
         11   -1    0    0    0    0 -0.00000000000E+00 -0.00000000000E+00 -0.45593999997E+02  0.45594000000E+02  0.51100000000E-03 0. -1.
    9900012    2    1    2    0    0 -0.24846093723E+02 -0.86078503842E+01  0.18035977531E+02  0.59301953726E+02  0.50000017687E+02 0.  0.
        -12    1    1    2    0    0  0.24846093723E+02  0.86078503842E+01 -0.18035977531E+02  0.31886046274E+02  0.00000000000E+00 0.  1.
         11    1    3    3    0    0  0.72301441684E+01 -0.83716025903E-02 -0.11264088273E+02  0.13384869804E+02  0.51100000000E-03 0. -1.
        -11    1    3    3    0    0 -0.53940101947E+01  0.30886665996E+01  0.47841406168E+01  0.78436731859E+01  0.51100000000E-03 0.  1.
        -12    1    3    3    0    0 -0.26682227696E+02 -0.11688145381E+02  0.24515925187E+02  0.38073410736E+02  0.00000000000E+00 0.  1.
</event>
<event>
 7    1  0.6285940E-013  0.5930194E+02  0.7816164E-02  0.1266605E+00
        -11   -1    0    0    0    0  0.00000000000E+00  0.00000000000E+00  0.45593999997E+02  0.45594000000E+02  0.51100000000E-03 0.  1.
         11   -1    0    0    0    0 -0.00000000000E+00 -0.00000000000E+00 -0.45593999997E+02  0.45594000000E+02  0.51100000000E-03 0. -1.
    9900012    2    1    2    0    0 -0.21483153548E+01  0.46781957626E+01 -0.31467760754E+02  0.59301941270E+02  0.49999994970E+02 0.  0.
        -12    1    1    2    0    0  0.21483153548E+01 -0.46781957626E+01  0.31467760754E+02  0.31886058730E+02  0.00000000000E+00 0.  1.
         11    1    3    3    0    0  0.66451436882E+01  0.56264748546E+01 -0.73419681998E+01  0.11389453509E+02  0.51100000000E-03 0. -1.
        -11    1    3    3    0    0  0.92334454267E+01 -0.71488497202E+01 -0.26250791194E+02  0.28730934641E+02  0.51100000000E-03 0.  1.
        -12    1    3    3    0    0 -0.18026904470E+02  0.62005706283E+01  0.21249986397E+01  0.19181553120E+02  0.00000000000E+00 0.  1.
</event>
<event>
 7    1  0.6285940E-013  0.5930195E+02  0.7816164E-02  0.1266605E+00
        -11   -1    0    0    0    0  0.00000000000E+00  0.00000000000E+00  0.45593999997E+02  0.45594000000E+02  0.51100000000E-03 0. -1.
         11   -1    0    0    0    0 -0.00000000000E+00 -0.00000000000E+00 -0.45593999997E+02  0.45594000000E+02  0.51100000000E-03 0.  1.
    9900012    2    1    2    0    0 -0.72562003740E+00 -0.29364142690E+02 -0.12407293309E+02  0.59301947757E+02  0.50000006802E+02 0.  0.
        -12    1    1    2    0    0  0.72562003740E+00  0.29364142690E+02  0.12407293309E+02  0.31886052243E+02  0.00000000000E+00 0.  1.
         11    1    3    3    0    0  0.10182809396E+02 -0.57804157979E+00  0.44230511096E+01  0.11116974437E+02  0.51100000000E-03 0. -1.
        -11    1    3    3    0    0 -0.23456907390E+01 -0.19038090797E+01  0.92704173945E+01  0.97502509190E+01  0.51100000000E-03 0.  1.
        -12    1    3    3    0    0 -0.85627386945E+01 -0.26882292031E+02 -0.26100761813E+02  0.38434722401E+02  0.00000000000E+00 0.  1.
</event>
<event>
 7    1  0.6285940E-013  0.5930201E+02  0.7816164E-02  0.1266605E+00
        -11   -1    0    0    0    0  0.00000000000E+00  0.00000000000E+00  0.45593999997E+02  0.45594000000E+02  0.51100000000E-03 0.  1.
         11   -1    0    0    0    0 -0.00000000000E+00 -0.00000000000E+00 -0.45593999997E+02  0.45594000000E+02  0.51100000000E-03 0. -1.
    9900012    2    1    2    0    0  0.16060145802E+02 -0.24641223152E+02 -0.12312511225E+02  0.59302014140E+02  0.50000127868E+02 0.  0.
        -12    1    1    2    0    0 -0.16060145802E+02  0.24641223152E+02  0.12312511225E+02  0.31885985860E+02  0.00000000000E+00 0.  1.
         11    1    3    3    0    0  0.47815311937E+01  0.58214869369E+01  0.72061912064E+01  0.10425063198E+02  0.51100000000E-03 0. -1.
        -11    1    3    3    0    0  0.16430111710E+02 -0.22881706712E+02 -0.96878900576E+00  0.28186160172E+02  0.51100000000E-03 0.  1.
         12    1    3    3    0    0 -0.51514971017E+01 -0.75810033770E+01 -0.18549913426E+02  0.20690790770E+02  0.00000000000E+00 0. -1.
</event>
<event>
 7    1  0.6285940E-013  0.5930194E+02  0.7816164E-02  0.1266605E+00
        -11   -1    0    0    0    0  0.00000000000E+00  0.00000000000E+00  0.45593999997E+02  0.45594000000E+02  0.51100000000E-03 0. -1.
         11   -1    0    0    0    0 -0.00000000000E+00 -0.00000000000E+00 -0.45593999997E+02  0.45594000000E+02  0.51100000000E-03 0.  1.
    9900012    2    1    2    0    0  0.30890998085E+02 -0.71891077070E+01 -0.32838984915E+01  0.59301936875E+02  0.49999986955E+02 0.  0.
        -12    1    1    2    0    0 -0.30890998085E+02  0.71891077070E+01  0.32838984915E+01  0.31886063125E+02  0.00000000000E+00 0.  1.
         11    1    3    3    0    0  0.83448661505E+01 -0.33072637761E+01 -0.75194526923E+01  0.11709694864E+02  0.51100000000E-03 0. -1.
        -11    1    3    3    0    0  0.20285234641E+02  0.13880507110E+02 -0.80645878351E+01  0.25868838383E+02  0.51100000000E-03 0.  1.
         12    1    3    3    0    0  0.22608972933E+01 -0.17762351041E+02  0.12300142036E+02  0.21723403628E+02  0.00000000000E+00 0. -1.
</event>
<event>
 7    1  0.6285940E-013  0.5930199E+02  0.7816164E-02  0.1266605E+00
        -11   -1    0    0    0    0  0.00000000000E+00  0.00000000000E+00  0.45593999997E+02  0.45594000000E+02  0.51100000000E-03 0. -1.
         11   -1    0    0    0    0 -0.00000000000E+00 -0.00000000000E+00 -0.45593999997E+02  0.45594000000E+02  0.51100000000E-03 0.  1.
    9900012    2    1    2    0    0  0.51947569695E+01  0.27703759768E+02 -0.14907518877E+02  0.59301985443E+02  0.50000075531E+02 0.  0.
        -12    1    1    2    0    0 -0.51947569695E+01 -0.27703759768E+02  0.14907518877E+02  0.31886014557E+02  0.00000000000E+00 0.  1.
         11    1    3    3    0    0 -0.91684000856E+01  0.12160715361E+01 -0.59917600703E+00  0.92680851452E+01  0.51100000000E-03 0. -1.
        -11    1    3    3    0    0 -0.15823404953E+01 -0.26461499914E+01 -0.16465697860E+02  0.16751869075E+02  0.51100000000E-03 0.  1.
         12    1    3    3    0    0  0.15945497550E+02  0.29133838224E+02  0.21573549906E+01  0.33282031223E+02  0.00000000000E+00 0. -1.
</event>
<event>
 7    1  0.6285940E-013  0.5930194E+02  0.7816164E-02  0.1266605E+00
        -11   -1    0    0    0    0  0.00000000000E+00  0.00000000000E+00  0.45593999997E+02  0.45594000000E+02  0.51100000000E-03 0.  1.
         11   -1    0    0    0    0 -0.00000000000E+00 -0.00000000000E+00 -0.45593999997E+02  0.45594000000E+02  0.51100000000E-03 0. -1.
    9900012    2    1    2    0    0 -0.19968546541E+02  0.12936325454E+02 -0.21228035910E+02  0.59301939162E+02  0.49999991126E+02 0.  0.
        -12    1    1    2    0    0  0.19968546541E+02 -0.12936325454E+02  0.21228035910E+02  0.31886060838E+02  0.00000000000E+00 0.  1.
         11    1    3    3    0    0  0.40830704271E+01 -0.33055584071E+01 -0.52485382222E+01  0.74259904543E+01  0.51100000000E-03 0. -1.
        -11    1    3    3    0    0 -0.10950758551E+02 -0.41402702155E+01 -0.23710269221E+02  0.26443105285E+02  0.51100000000E-03 0.  1.
        -12    1    3    3    0    0 -0.13100858417E+02  0.20382154076E+02  0.77307715340E+01  0.25432843423E+02  0.00000000000E+00 0.  1.
</event>
<event>
 7    1  0.6285940E-013  0.5930196E+02  0.7816164E-02  0.1266605E+00
        -11   -1    0    0    0    0  0.00000000000E+00  0.00000000000E+00  0.45593999997E+02  0.45594000000E+02  0.51100000000E-03 0.  1.
         11   -1    0    0    0    0 -0.00000000000E+00 -0.00000000000E+00 -0.45593999997E+02  0.45594000000E+02  0.51100000000E-03 0. -1.
    9900012    2    1    2    0    0 -0.51791908751E+01 -0.25757162357E+02 -0.18068320387E+02  0.59301958659E+02  0.50000026683E+02 0.  0.
        -12    1    1    2    0    0  0.51791908751E+01  0.25757162357E+02  0.18068320387E+02  0.31886041341E+02  0.00000000000E+00 0.  1.
         11    1    3    3    0    0 -0.20784344372E+02 -0.24516107125E+01 -0.14288812563E+02  0.25341064121E+02  0.51100000000E-03 0. -1.
        -11    1    3    3    0    0 -0.30508581960E+01 -0.13622277904E+01  0.28662104902E+01  0.44021089401E+01  0.51100000000E-03 0.  1.
        -12    1    3    3    0    0  0.18656011693E+02 -0.21943323855E+02 -0.66457183136E+01  0.29558785597E+02  0.00000000000E+00 0.  1.
</event>
<event>
 7    1  0.6285940E-013  0.5930198E+02  0.7816164E-02  0.1266605E+00
        -11   -1    0    0    0    0  0.00000000000E+00  0.00000000000E+00  0.45593999997E+02  0.45594000000E+02  0.51100000000E-03 0.  1.
         11   -1    0    0    0    0 -0.00000000000E+00 -0.00000000000E+00 -0.45593999997E+02  0.45594000000E+02  0.51100000000E-03 0. -1.
    9900012    2    1    2    0    0 -0.44780504199E+01  0.27852125150E+02  0.14863537987E+02  0.59301975280E+02  0.50000056997E+02 0.  0.
        -12    1    1    2    0    0  0.44780504199E+01 -0.27852125150E+02 -0.14863537987E+02  0.31886024720E+02  0.00000000000E+00 0.  1.
         11    1    3    3    0    0  0.30354966175E+01  0.23003699425E+02  0.32847307009E+01  0.23434459307E+02  0.51100000000E-03 0. -1.
        -11    1    3    3    0    0  0.12614983224E+02  0.31735684019E+01  0.82320629927E+01  0.15394031295E+02  0.51100000000E-03 0.  1.
        -12    1    3    3    0    0 -0.20128530261E+02  0.16748573232E+01  0.33467442934E+01  0.20473484679E+02  0.00000000000E+00 0.  1.
</event>
<event>
 7    1  0.6285940E-013  0.5930196E+02  0.7816164E-02  0.1266605E+00
        -11   -1    0    0    0    0  0.00000000000E+00  0.00000000000E+00  0.45593999997E+02  0.45594000000E+02  0.51100000000E-03 0. -1.
         11   -1    0    0    0    0 -0.00000000000E+00 -0.00000000000E+00 -0.45593999997E+02  0.45594000000E+02  0.51100000000E-03 0.  1.
    9900012    2    1    2    0    0 -0.47793225056E+01 -0.25572902665E+01  0.31421936455E+02  0.59301956851E+02  0.50000023387E+02 0.  0.
        -12    1    1    2    0    0  0.47793225056E+01  0.25572902665E+01 -0.31421936455E+02  0.31886043149E+02  0.00000000000E+00 0.  1.
         11    1    3    3    0    0  0.50311429641E+01 -0.10030581133E+02  0.13723706398E+02  0.17727523091E+02  0.51100000000E-03 0. -1.
        -11    1    3    3    0    0 -0.16724054284E+02  0.40130006503E+00  0.24431485906E+02  0.29610007384E+02  0.51100000000E-03 0.  1.
        -12    1    3    3    0    0  0.69135888141E+01  0.70719908011E+01 -0.67332558491E+01  0.11964426376E+02  0.00000000000E+00 0.  1.
</event>
<event>
 7    1  0.6285940E-013  0.5930195E+02  0.7816164E-02  0.1266605E+00
        -11   -1    0    0    0    0  0.00000000000E+00  0.00000000000E+00  0.45593999997E+02  0.45594000000E+02  0.51100000000E-03 0.  1.
         11   -1    0    0    0    0 -0.00000000000E+00 -0.00000000000E+00 -0.45593999997E+02  0.45594000000E+02  0.51100000000E-03 0. -1.
    9900012    2    1    2    0    0  0.83194312884E+01  0.28288702073E+02 -0.12134925321E+02  0.59301952668E+02  0.50000015757E+02 0.  0.
        -12    1    1    2    0    0 -0.83194312884E+01 -0.28288702073E+02  0.12134925321E+02  0.31886047332E+02  0.00000000000E+00 0.  1.
         11    1    3    3    0    0 -0.38601783606E+01 -0.16289053738E+00 -0.96395404450E+00  0.39820494678E+01  0.51100000000E-03 0. -1.
        -11    1    3    3    0    0 -0.66039724467E+01  0.25681020732E+02  0.86311659021E+01  0.27885915853E+02  0.51100000000E-03 0.  1.
         12    1    3    3    0    0  0.18783582096E+02  0.27705718789E+01 -0.19802137178E+02  0.27433987346E+02  0.00000000000E+00 0. -1.
</event>
<event>
 7    1  0.6285940E-013  0.5930195E+02  0.7816164E-02  0.1266605E+00
        -11   -1    0    0    0    0  0.00000000000E+00  0.00000000000E+00  0.45593999997E+02  0.45594000000E+02  0.51100000000E-03 0. -1.
         11   -1    0    0    0    0 -0.00000000000E+00 -0.00000000000E+00 -0.45593999997E+02  0.45594000000E+02  0.51100000000E-03 0.  1.
    9900012    2    1    2    0    0 -0.29352846324E+02  0.31684277255E+01  0.12045409766E+02  0.59301946340E+02  0.50000004217E+02 0.  0.
        -12    1    1    2    0    0  0.29352846324E+02 -0.31684277255E+01 -0.12045409766E+02  0.31886053660E+02  0.00000000000E+00 0.  1.
         11    1    3    3    0    0 -0.10044250312E+02 -0.11961281330E+02  0.16580523581E+02  0.22778783503E+02  0.51100000000E-03 0. -1.
        -11    1    3    3    0    0  0.30552714702E+01  0.54777226227E+00  0.68336066735E+01  0.75055258734E+01  0.51100000000E-03 0.  1.
        -12    1    3    3    0    0 -0.22363867482E+02  0.14581936793E+02 -0.11368720489E+02  0.29017636964E+02  0.00000000000E+00 0.  1.
</event>
<event>
 7    1  0.6285940E-013  0.5930197E+02  0.7816164E-02  0.1266605E+00
        -11   -1    0    0    0    0  0.00000000000E+00  0.00000000000E+00  0.45593999997E+02  0.45594000000E+02  0.51100000000E-03 0.  1.
         11   -1    0    0    0    0 -0.00000000000E+00 -0.00000000000E+00 -0.45593999997E+02  0.45594000000E+02  0.51100000000E-03 0. -1.
    9900012    2    1    2    0    0 -0.95906384655E+01 -0.43772276373E+00 -0.30406362678E+02  0.59301971105E+02  0.50000049383E+02 0.  0.
        -12    1    1    2    0    0  0.95906384655E+01  0.43772276373E+00  0.30406362678E+02  0.31886028895E+02  0.00000000000E+00 0.  1.
         11    1    3    3    0    0 -0.10734071803E+02 -0.12371837683E+02 -0.10638398652E+02  0.19530954694E+02  0.51100000000E-03 0. -1.
        -11    1    3    3    0    0 -0.12502287907E+02  0.69810861853E+00 -0.18109532454E+02  0.22017032600E+02  0.51100000000E-03 0.  1.
         12    1    3    3    0    0  0.13645721245E+02  0.11236006301E+02 -0.16584315716E+01  0.17753983811E+02  0.00000000000E+00 0. -1.
</event>
<event>
 7    1  0.6285940E-013  0.5930199E+02  0.7816164E-02  0.1266605E+00
        -11   -1    0    0    0    0  0.00000000000E+00  0.00000000000E+00  0.45593999997E+02  0.45594000000E+02  0.51100000000E-03 0. -1.
         11   -1    0    0    0    0 -0.00000000000E+00 -0.00000000000E+00 -0.45593999997E+02  0.45594000000E+02  0.51100000000E-03 0.  1.
    9900012    2    1    2    0    0  0.94296616517E+01  0.19784202682E+02  0.23159980289E+02  0.59301986113E+02  0.50000076753E+02 0.  0.
        -12    1    1    2    0    0 -0.94296616517E+01 -0.19784202682E+02 -0.23159980289E+02  0.31886013887E+02  0.00000000000E+00 0.  1.
         11    1    3    3    0    0  0.16434263611E+01  0.53750081882E+01 -0.22313031471E+01  0.60473363742E+01  0.51100000000E-03 0. -1.
        -11    1    3    3    0    0 -0.17086831537E+02  0.54219595489E+01  0.18845274501E+02  0.26009648760E+02  0.51100000000E-03 0.  1.
         12    1    3    3    0    0  0.24873066828E+02  0.89872349448E+01  0.65460089351E+01  0.27245000979E+02  0.00000000000E+00 0. -1.
</event>
<event>
 7    1  0.6285940E-013  0.5930194E+02  0.7816164E-02  0.1266605E+00
        -11   -1    0    0    0    0  0.00000000000E+00  0.00000000000E+00  0.45593999997E+02  0.45594000000E+02  0.51100000000E-03 0. -1.
         11   -1    0    0    0    0 -0.00000000000E+00 -0.00000000000E+00 -0.45593999997E+02  0.45594000000E+02  0.51100000000E-03 0.  1.
    9900012    2    1    2    0    0  0.22980476860E+02  0.14312565739E+02  0.16845444596E+02  0.59301939434E+02  0.49999991623E+02 0.  0.
        -12    1    1    2    0    0 -0.22980476860E+02 -0.14312565739E+02 -0.16845444596E+02  0.31886060566E+02  0.00000000000E+00 0.  1.
         11    1    3    3    0    0  0.59444601003E+01  0.51635669575E+01 -0.38613630761E+01  0.87697864669E+01  0.51100000000E-03 0. -1.
        -11    1    3    3    0    0 -0.59049334362E+01  0.13103730446E+02 -0.55810987646E+01  0.15418322028E+02  0.51100000000E-03 0.  1.
         12    1    3    3    0    0  0.22940950196E+02 -0.39547316643E+01  0.26287906436E+02  0.35113830939E+02  0.00000000000E+00 0. -1.
</event>
<event>
 7    1  0.6285940E-013  0.5930208E+02  0.7816164E-02  0.1266604E+00
        -11   -1    0    0    0    0  0.00000000000E+00  0.00000000000E+00  0.45593999997E+02  0.45594000000E+02  0.51100000000E-03 0.  1.
         11   -1    0    0    0    0 -0.00000000000E+00 -0.00000000000E+00 -0.45593999997E+02  0.45594000000E+02  0.51100000000E-03 0. -1.
    9900012    2    1    2    0    0  0.12477724524E+02  0.23205705821E+02 -0.17958666901E+02  0.59302076636E+02  0.50000241845E+02 0.  0.
        -12    1    1    2    0    0 -0.12477724524E+02 -0.23205705821E+02  0.17958666901E+02  0.31885923364E+02  0.00000000000E+00 0.  1.
         11    1    3    3    0    0 -0.14200816160E+01 -0.78884620044E+00 -0.12579620896E+02  0.12684075539E+02  0.51100000000E-03 0. -1.
        -11    1    3    3    0    0  0.12574574520E+02  0.12842700969E+02 -0.20832827969E+02  0.27514752661E+02  0.51100000000E-03 0.  1.
        -12    1    3    3    0    0  0.13232316200E+01  0.11151851052E+02  0.15453781965E+02  0.19103248436E+02  0.00000000000E+00 0.  1.
</event>
<event>
 7    1  0.6285940E-013  0.5930198E+02  0.7816164E-02  0.1266605E+00
        -11   -1    0    0    0    0  0.00000000000E+00  0.00000000000E+00  0.45593999997E+02  0.45594000000E+02  0.51100000000E-03 0.  1.
         11   -1    0    0    0    0 -0.00000000000E+00 -0.00000000000E+00 -0.45593999997E+02  0.45594000000E+02  0.51100000000E-03 0. -1.
    9900012    2    1    2    0    0  0.99811649167E+01 -0.89986356582E+00 -0.30270202786E+02  0.59301975095E+02  0.50000056659E+02 0.  0.
        -12    1    1    2    0    0 -0.99811649167E+01  0.89986356582E+00  0.30270202786E+02  0.31886024905E+02  0.00000000000E+00 0.  1.
         11    1    3    3    0    0 -0.50641397583E+01 -0.20958689590E+00  0.11760988917E+01  0.52031381898E+01  0.51100000000E-03 0. -1.
        -11    1    3    3    0    0 -0.86481664737E+01  0.13344788565E+02 -0.15843166776E+02  0.22447273753E+02  0.51100000000E-03 0.  1.
         12    1    3    3    0    0  0.23693471149E+02 -0.14035065235E+02 -0.15603134902E+02  0.31651563152E+02  0.00000000000E+00 0. -1.
</event>
<event>
 7    1  0.6285940E-013  0.5930195E+02  0.7816164E-02  0.1266605E+00
        -11   -1    0    0    0    0  0.00000000000E+00  0.00000000000E+00  0.45593999997E+02  0.45594000000E+02  0.51100000000E-03 0. -1.
         11   -1    0    0    0    0 -0.00000000000E+00 -0.00000000000E+00 -0.45593999997E+02  0.45594000000E+02  0.51100000000E-03 0.  1.
    9900012    2    1    2    0    0  0.27624458553E+02  0.64609503268E+01  0.14555593732E+02  0.59301954488E+02  0.50000019078E+02 0.  0.
        -12    1    1    2    0    0 -0.27624458553E+02 -0.64609503268E+01 -0.14555593732E+02  0.31886045512E+02  0.00000000000E+00 0.  1.
         11    1    3    3    0    0  0.14852422076E+02 -0.26017082822E+01  0.16268481494E+02  0.22181677526E+02  0.51100000000E-03 0. -1.
        -11    1    3    3    0    0  0.81551037516E+01 -0.12480345196E+02 -0.22738583116E+01  0.15080953726E+02  0.51100000000E-03 0.  1.
         12    1    3    3    0    0  0.46169327259E+01  0.21543003805E+02  0.56097054960E+00  0.22039323236E+02  0.00000000000E+00 0. -1.
</event>
<event>
 7    1  0.6285940E-013  0.5930194E+02  0.7816164E-02  0.1266605E+00
        -11   -1    0    0    0    0  0.00000000000E+00  0.00000000000E+00  0.45593999997E+02  0.45594000000E+02  0.51100000000E-03 0.  1.
         11   -1    0    0    0    0 -0.00000000000E+00 -0.00000000000E+00 -0.45593999997E+02  0.45594000000E+02  0.51100000000E-03 0. -1.
    9900012    2    1    2    0    0  0.11976273641E+02 -0.29438660107E+02  0.25796679418E+01  0.59301944648E+02  0.50000001131E+02 0.  0.
        -12    1    1    2    0    0 -0.11976273641E+02  0.29438660107E+02 -0.25796679418E+01  0.31886055352E+02  0.00000000000E+00 0.  1.
         11    1    3    3    0    0  0.58454878368E+01  0.56288497367E+01 -0.13280320729E+02  0.15563437806E+02  0.51100000000E-03 0. -1.
        -11    1    3    3    0    0 -0.48711513034E+01 -0.11323747861E+01  0.29140672174E+01  0.57881063989E+01  0.51100000000E-03 0.  1.
        -12    1    3    3    0    0  0.11001937107E+02 -0.33935135058E+02  0.12945921454E+02  0.37950400443E+02  0.00000000000E+00 0.  1.
</event>
<event>
 7    1  0.6285940E-013  0.5930196E+02  0.7816164E-02  0.1266605E+00
        -11   -1    0    0    0    0  0.00000000000E+00  0.00000000000E+00  0.45593999997E+02  0.45594000000E+02  0.51100000000E-03 0. -1.
         11   -1    0    0    0    0 -0.00000000000E+00 -0.00000000000E+00 -0.45593999997E+02  0.45594000000E+02  0.51100000000E-03 0.  1.
    9900012    2    1    2    0    0 -0.29135320804E+02 -0.10915507528E+02  0.69788669161E+01  0.59301955931E+02  0.50000021708E+02 0.  0.
        -12    1    1    2    0    0  0.29135320804E+02  0.10915507528E+02 -0.69788669161E+01  0.31886044069E+02  0.00000000000E+00 0.  1.
         11    1    3    3    0    0  0.34817448794E+01 -0.55983705149E+00  0.71868587049E+01  0.80054296096E+01  0.51100000000E-03 0. -1.
        -11    1    3    3    0    0 -0.22945374885E+02  0.12116561068E+02 -0.48431850083E+01  0.26396168700E+02  0.51100000000E-03 0.  1.
         12    1    3    3    0    0 -0.96716907986E+01 -0.22472231545E+02  0.46351932195E+01  0.24900357622E+02  0.00000000000E+00 0. -1.
</event>
<event>
 7    1  0.6285940E-013  0.5930194E+02  0.7816164E-02  0.1266605E+00
        -11   -1    0    0    0    0  0.00000000000E+00  0.00000000000E+00  0.45593999997E+02  0.45594000000E+02  0.51100000000E-03 0. -1.
         11   -1    0    0    0    0 -0.00000000000E+00 -0.00000000000E+00 -0.45593999997E+02  0.45594000000E+02  0.51100000000E-03 0.  1.
    9900012    2    1    2    0    0 -0.37700301778E+01 -0.31494698686E+02 -0.32544706614E+01  0.59301941100E+02  0.49999994661E+02 0.  0.
        -12    1    1    2    0    0  0.37700301778E+01  0.31494698686E+02  0.32544706614E+01  0.31886058900E+02  0.00000000000E+00 0.  1.
         11    1    3    3    0    0 -0.85454339080E-01  0.76394579637E+01  0.29712888048E+01  0.81973884772E+01  0.51100000000E-03 0. -1.
        -11    1    3    3    0    0  0.51825166965E+01  0.24908101795E+01 -0.63216351262E+01  0.85455067486E+01  0.51100000000E-03 0.  1.
         12    1    3    3    0    0 -0.88670925352E+01 -0.41624966830E+02  0.95875659971E-01  0.42559045874E+02  0.00000000000E+00 0. -1.
</event>
<event>
 7    1  0.6285940E-013  0.5930193E+02  0.7816164E-02  0.1266605E+00
        -11   -1    0    0    0    0  0.00000000000E+00  0.00000000000E+00  0.45593999997E+02  0.45594000000E+02  0.51100000000E-03 0.  1.
         11   -1    0    0    0    0 -0.00000000000E+00 -0.00000000000E+00 -0.45593999997E+02  0.45594000000E+02  0.51100000000E-03 0. -1.
    9900012    2    1    2    0    0 -0.55232474243E-01  0.73238528072E+01 -0.31033518569E+02  0.59301934935E+02  0.49999983417E+02 0.  0.
        -12    1    1    2    0    0  0.55232474243E-01 -0.73238528072E+01  0.31033518569E+02  0.31886065065E+02  0.00000000000E+00 0.  1.
         11    1    3    3    0    0  0.55821490688E+01  0.50657025747E+01 -0.20474509369E+02  0.21818049064E+02  0.51100000000E-03 0. -1.
        -11    1    3    3    0    0  0.14137661034E+02  0.50942711528E+01 -0.30955823111E+00  0.15030664811E+02  0.51100000000E-03 0.  1.
         12    1    3    3    0    0 -0.19775042577E+02 -0.28361209203E+01 -0.10249450969E+02  0.22453221060E+02  0.00000000000E+00 0. -1.
</event>
<event>
 7    1  0.6285940E-013  0.5930191E+02  0.7816164E-02  0.1266605E+00
        -11   -1    0    0    0    0  0.00000000000E+00  0.00000000000E+00  0.45593999997E+02  0.45594000000E+02  0.51100000000E-03 0.  1.
         11   -1    0    0    0    0 -0.00000000000E+00 -0.00000000000E+00 -0.45593999997E+02  0.45594000000E+02  0.51100000000E-03 0. -1.
    9900012    2    1    2    0    0 -0.11991772625E+02 -0.18499607401E+02 -0.23036591390E+02  0.59301911692E+02  0.49999941027E+02 0.  0.
        -12    1    1    2    0    0  0.11991772625E+02  0.18499607401E+02  0.23036591390E+02  0.31886088308E+02  0.00000000000E+00 0.  1.
         11    1    3    3    0    0 -0.12359543920E+02 -0.94539691066E+01 -0.61030897572E+01  0.16714770792E+02  0.51100000000E-03 0. -1.
        -11    1    3    3    0    0 -0.56426694849E+01 -0.19335569801E+02  0.19729537594E+01  0.20238491180E+02  0.51100000000E-03 0.  1.
        -12    1    3    3    0    0  0.60104407798E+01  0.10289931507E+02 -0.18906455393E+02  0.22348649720E+02  0.00000000000E+00 0.  1.
</event>
<event>
 7    1  0.6285940E-013  0.5930196E+02  0.7816164E-02  0.1266605E+00
        -11   -1    0    0    0    0  0.00000000000E+00  0.00000000000E+00  0.45593999997E+02  0.45594000000E+02  0.51100000000E-03 0.  1.
         11   -1    0    0    0    0 -0.00000000000E+00 -0.00000000000E+00 -0.45593999997E+02  0.45594000000E+02  0.51100000000E-03 0. -1.
    9900012    2    1    2    0    0  0.83152563039E+00  0.20206757938E+02 -0.24651878797E+02  0.59301958705E+02  0.50000026768E+02 0.  0.
        -12    1    1    2    0    0 -0.83152563039E+00 -0.20206757938E+02  0.24651878797E+02  0.31886041295E+02  0.00000000000E+00 0.  1.
         11    1    3    3    0    0  0.35683346929E+01 -0.39602093356E+01  0.32856868529E+01  0.62619492827E+01  0.51100000000E-03 0. -1.
        -11    1    3    3    0    0 -0.17334953879E+02  0.40955935464E+01 -0.33892875571E+01  0.18131789291E+02  0.51100000000E-03 0.  1.
         12    1    3    3    0    0  0.14598144817E+02  0.20071373727E+02 -0.24548278093E+02  0.34908220131E+02  0.00000000000E+00 0. -1.
</event>
<event>
 7    1  0.6285940E-013  0.5930186E+02  0.7816164E-02  0.1266605E+00
        -11   -1    0    0    0    0  0.00000000000E+00  0.00000000000E+00  0.45593999997E+02  0.45594000000E+02  0.51100000000E-03 0.  1.
         11   -1    0    0    0    0 -0.00000000000E+00 -0.00000000000E+00 -0.45593999997E+02  0.45594000000E+02  0.51100000000E-03 0. -1.
    9900012    2    1    2    0    0 -0.15197536679E+02 -0.13177101662E+02 -0.24741154348E+02  0.59301861197E+02  0.49999848936E+02 0.  0.
        -12    1    1    2    0    0  0.15197536679E+02  0.13177101662E+02  0.24741154348E+02  0.31886138803E+02  0.00000000000E+00 0.  1.
         11    1    3    3    0    0 -0.30335620567E+01  0.95922133026E+01 -0.14703298587E+02  0.17815724639E+02  0.51100000000E-03 0. -1.
        -11    1    3    3    0    0  0.52847214998E+01  0.50268440981E+01 -0.50688379933E+00  0.73112498497E+01  0.51100000000E-03 0.  1.
        -12    1    3    3    0    0 -0.17448696122E+02 -0.27796159063E+02 -0.95309719619E+01  0.34174886708E+02  0.00000000000E+00 0.  1.
</event>
<event>
 7    1  0.6285940E-013  0.5930196E+02  0.7816164E-02  0.1266605E+00
        -11   -1    0    0    0    0  0.00000000000E+00  0.00000000000E+00  0.45593999997E+02  0.45594000000E+02  0.51100000000E-03 0. -1.
         11   -1    0    0    0    0 -0.00000000000E+00 -0.00000000000E+00 -0.45593999997E+02  0.45594000000E+02  0.51100000000E-03 0.  1.
    9900012    2    1    2    0    0 -0.15004989045E+02  0.13209546287E+02  0.24841055655E+02  0.59301955162E+02  0.50000020306E+02 0.  0.
        -12    1    1    2    0    0  0.15004989045E+02 -0.13209546287E+02 -0.24841055655E+02  0.31886044838E+02  0.00000000000E+00 0.  1.
         11    1    3    3    0    0 -0.31846142566E+01 -0.83185167291E+01 -0.12652845387E+01  0.89966901558E+01  0.51100000000E-03 0. -1.
        -11    1    3    3    0    0  0.82103829553E+01 -0.50366495275E+01  0.73149590821E+01  0.12094910226E+02  0.51100000000E-03 0.  1.
         12    1    3    3    0    0 -0.20030757744E+02  0.26564712543E+02  0.18791381112E+02  0.38210354780E+02  0.00000000000E+00 0. -1.
</event>
<event>
 7    1  0.6285940E-013  0.5930194E+02  0.7816164E-02  0.1266605E+00
        -11   -1    0    0    0    0  0.00000000000E+00  0.00000000000E+00  0.45593999997E+02  0.45594000000E+02  0.51100000000E-03 0.  1.
         11   -1    0    0    0    0 -0.00000000000E+00 -0.00000000000E+00 -0.45593999997E+02  0.45594000000E+02  0.51100000000E-03 0. -1.
    9900012    2    1    2    0    0 -0.12350028340E+02  0.18350235142E+02 -0.22966642893E+02  0.59301936970E+02  0.49999987129E+02 0.  0.
        -12    1    1    2    0    0  0.12350028340E+02 -0.18350235142E+02  0.22966642893E+02  0.31886063030E+02  0.00000000000E+00 0.  1.
         11    1    3    3    0    0 -0.66941413705E+01  0.18198454863E+02 -0.16556764196E+01  0.19461154970E+02  0.51100000000E-03 0. -1.
        -11    1    3    3    0    0 -0.16433730344E+02  0.33132326135E+01 -0.12017849639E+01  0.16807417730E+02  0.51100000000E-03 0.  1.
        -12    1    3    3    0    0  0.10777843374E+02 -0.31614523342E+01 -0.20109181509E+02  0.23033364271E+02  0.00000000000E+00 0.  1.
</event>
<event>
 7    1  0.6285940E-013  0.5930195E+02  0.7816164E-02  0.1266605E+00
        -11   -1    0    0    0    0  0.00000000000E+00  0.00000000000E+00  0.45593999997E+02  0.45594000000E+02  0.51100000000E-03 0.  1.
         11   -1    0    0    0    0 -0.00000000000E+00 -0.00000000000E+00 -0.45593999997E+02  0.45594000000E+02  0.51100000000E-03 0. -1.
    9900012    2    1    2    0    0 -0.17340375102E+02  0.93531413348E+01 -0.25070902620E+02  0.59301952586E+02  0.50000015609E+02 0.  0.
        -12    1    1    2    0    0  0.17340375102E+02 -0.93531413348E+01  0.25070902620E+02  0.31886047414E+02  0.00000000000E+00 0.  1.
         11    1    3    3    0    0  0.20944703460E+01  0.14076643976E+02 -0.10500503540E+02  0.17686132605E+02  0.51100000000E-03 0. -1.
        -11    1    3    3    0    0  0.95484500243E+01  0.12313207472E+00 -0.44600558037E+01  0.10539457169E+02  0.51100000000E-03 0.  1.
         12    1    3    3    0    0 -0.28983295472E+02 -0.48466347163E+01 -0.10110343276E+02  0.31076362812E+02  0.00000000000E+00 0. -1.
</event>
<event>
 7    1  0.6285940E-013  0.5930164E+02  0.7816164E-02  0.1266606E+00
        -11   -1    0    0    0    0  0.00000000000E+00  0.00000000000E+00  0.45593999997E+02  0.45594000000E+02  0.51100000000E-03 0. -1.
         11   -1    0    0    0    0 -0.00000000000E+00 -0.00000000000E+00 -0.45593999997E+02  0.45594000000E+02  0.51100000000E-03 0.  1.
    9900012    2    1    2    0    0 -0.27202515086E+02 -0.11297380019E+02 -0.12211970220E+02  0.59301641805E+02  0.49999448815E+02 0.  0.
        -12    1    1    2    0    0  0.27202515086E+02  0.11297380019E+02  0.12211970220E+02  0.31886358195E+02  0.00000000000E+00 0.  1.
         11    1    3    3    0    0 -0.22236913442E+02 -0.81754736041E+01 -0.17572197049E+02  0.29497471035E+02  0.51100000000E-03 0. -1.
        -11    1    3    3    0    0 -0.81907354630E+01 -0.88600871863E+00 -0.10567876053E+02  0.13399744901E+02  0.51100000000E-03 0.  1.
         12    1    3    3    0    0  0.32251338192E+01 -0.22358976959E+01  0.15928102882E+02  0.16404425869E+02  0.00000000000E+00 0. -1.
</event>
<event>
 7    1  0.6285940E-013  0.5930194E+02  0.7816164E-02  0.1266605E+00
        -11   -1    0    0    0    0  0.00000000000E+00  0.00000000000E+00  0.45593999997E+02  0.45594000000E+02  0.51100000000E-03 0.  1.
         11   -1    0    0    0    0 -0.00000000000E+00 -0.00000000000E+00 -0.45593999997E+02  0.45594000000E+02  0.51100000000E-03 0. -1.
    9900012    2    1    2    0    0  0.27866141863E+02  0.48727165335E+01 -0.14712435938E+02  0.59301937215E+02  0.49999987575E+02 0.  0.
        -12    1    1    2    0    0 -0.27866141863E+02 -0.48727165335E+01  0.14712435938E+02  0.31886062785E+02  0.00000000000E+00 0.  1.
         11    1    3    3    0    0  0.13786539119E+02 -0.83426071663E+00 -0.21062238509E+02  0.25186951841E+02  0.51100000000E-03 0. -1.
        -11    1    3    3    0    0 -0.29505262931E+01 -0.80220551889E+01 -0.45411055550E+01  0.96788746651E+01  0.51100000000E-03 0.  1.
         12    1    3    3    0    0  0.17030129037E+02  0.13729032439E+02  0.10890908126E+02  0.24436110708E+02  0.00000000000E+00 0. -1.
</event>
<event>
 7    1  0.6285940E-013  0.5930194E+02  0.7816164E-02  0.1266605E+00
        -11   -1    0    0    0    0  0.00000000000E+00  0.00000000000E+00  0.45593999997E+02  0.45594000000E+02  0.51100000000E-03 0. -1.
         11   -1    0    0    0    0 -0.00000000000E+00 -0.00000000000E+00 -0.45593999997E+02  0.45594000000E+02  0.51100000000E-03 0.  1.
    9900012    2    1    2    0    0 -0.13191196336E+02 -0.29029435023E+02  0.69681347534E-01  0.59301943267E+02  0.49999998612E+02 0.  0.
        -12    1    1    2    0    0  0.13191196336E+02  0.29029435023E+02 -0.69681347534E-01  0.31886056733E+02  0.00000000000E+00 0.  1.
         11    1    3    3    0    0 -0.10866259793E+01  0.33148809831E+01 -0.72976865268E+01  0.80885982009E+01  0.51100000000E-03 0. -1.
        -11    1    3    3    0    0 -0.12301512186E+02  0.47006681075E+01  0.50204900352E+01  0.14093573116E+02  0.51100000000E-03 0.  1.
         12    1    3    3    0    0  0.19694182885E+00 -0.37044984113E+02  0.23468778392E+01  0.37119771950E+02  0.00000000000E+00 0. -1.
</event>
<event>
 7    1  0.6285940E-013  0.5930190E+02  0.7816164E-02  0.1266605E+00
        -11   -1    0    0    0    0  0.00000000000E+00  0.00000000000E+00  0.45593999997E+02  0.45594000000E+02  0.51100000000E-03 0.  1.
         11   -1    0    0    0    0 -0.00000000000E+00 -0.00000000000E+00 -0.45593999997E+02  0.45594000000E+02  0.51100000000E-03 0. -1.
    9900012    2    1    2    0    0  0.19403829536E+02  0.15393969802E+02 -0.20080841851E+02  0.59301904028E+02  0.49999927050E+02 0.  0.
        -12    1    1    2    0    0 -0.19403829536E+02 -0.15393969802E+02  0.20080841851E+02  0.31886095972E+02  0.00000000000E+00 0.  1.
         11    1    3    3    0    0  0.61048345534E+01  0.47646389513E+01 -0.27210054635E+02  0.28290596719E+02  0.51100000000E-03 0. -1.
        -11    1    3    3    0    0  0.26807289466E+00  0.11627935791E+02  0.12325595415E+02  0.16947007300E+02  0.51100000000E-03 0.  1.
         12    1    3    3    0    0  0.13030922088E+02 -0.99860494000E+00 -0.51963826308E+01  0.14064300009E+02  0.00000000000E+00 0. -1.
</event>
<event>
 7    1  0.6285940E-013  0.5930195E+02  0.7816164E-02  0.1266605E+00
        -11   -1    0    0    0    0  0.00000000000E+00  0.00000000000E+00  0.45593999997E+02  0.45594000000E+02  0.51100000000E-03 0.  1.
         11   -1    0    0    0    0 -0.00000000000E+00 -0.00000000000E+00 -0.45593999997E+02  0.45594000000E+02  0.51100000000E-03 0. -1.
    9900012    2    1    2    0    0  0.17566537166E+02  0.25956743021E+02 -0.58637997545E+01  0.59301954717E+02  0.50000019495E+02 0.  0.
        -12    1    1    2    0    0 -0.17566537166E+02 -0.25956743021E+02  0.58637997545E+01  0.31886045283E+02  0.00000000000E+00 0.  1.
         11    1    3    3    0    0  0.57442663058E+01  0.24866021485E+02 -0.14247549420E+02  0.29228552558E+02  0.51100000000E-03 0. -1.
        -11    1    3    3    0    0 -0.25269032808E+01  0.10551733534E+02  0.68187372374E+01  0.12814815587E+02  0.51100000000E-03 0.  1.
        -12    1    3    3    0    0  0.14349174140E+02 -0.94610119990E+01  0.15650124277E+01  0.17258586572E+02  0.00000000000E+00 0.  1.
</event>
<event>
 7    1  0.6285940E-013  0.5930196E+02  0.7816164E-02  0.1266605E+00
        -11   -1    0    0    0    0  0.00000000000E+00  0.00000000000E+00  0.45593999997E+02  0.45594000000E+02  0.51100000000E-03 0.  1.
         11   -1    0    0    0    0 -0.00000000000E+00 -0.00000000000E+00 -0.45593999997E+02  0.45594000000E+02  0.51100000000E-03 0. -1.
    9900012    2    1    2    0    0 -0.11299678869E+02 -0.29699755848E+02  0.26384685893E+01  0.59301956713E+02  0.50000023135E+02 0.  0.
        -12    1    1    2    0    0  0.11299678869E+02  0.29699755848E+02 -0.26384685893E+01  0.31886043287E+02  0.00000000000E+00 0.  1.
         11    1    3    3    0    0 -0.44111951057E+01 -0.20787237190E+01  0.55882632582E+00  0.49083624239E+01  0.51100000000E-03 0. -1.
        -11    1    3    3    0    0 -0.26798619323E+01 -0.37960102177E+02  0.11535027953E+02  0.39764404779E+02  0.51100000000E-03 0.  1.
         12    1    3    3    0    0 -0.42086218309E+01  0.10339070048E+02 -0.94553856899E+01  0.14629189510E+02  0.00000000000E+00 0. -1.
</event>
<event>
 7    1  0.6285940E-013  0.5930192E+02  0.7816164E-02  0.1266605E+00
        -11   -1    0    0    0    0  0.00000000000E+00  0.00000000000E+00  0.45593999997E+02  0.45594000000E+02  0.51100000000E-03 0. -1.
         11   -1    0    0    0    0 -0.00000000000E+00 -0.00000000000E+00 -0.45593999997E+02  0.45594000000E+02  0.51100000000E-03 0.  1.
    9900012    2    1    2    0    0 -0.20159084077E+02  0.22002367389E+02 -0.11235171924E+02  0.59301922635E+02  0.49999960986E+02 0.  0.
        -12    1    1    2    0    0  0.20159084077E+02 -0.22002367389E+02  0.11235171924E+02  0.31886077365E+02  0.00000000000E+00 0.  1.
         11    1    3    3    0    0 -0.17906476046E+02  0.87485680039E+00  0.14230834015E+02  0.22889383911E+02  0.51100000000E-03 0. -1.
        -11    1    3    3    0    0  0.60387860880E+01  0.80781009563E+01 -0.67479071867E+01  0.12134945576E+02  0.51100000000E-03 0.  1.
        -12    1    3    3    0    0 -0.82913941187E+01  0.13049409632E+02 -0.18718098752E+02  0.24277593148E+02  0.00000000000E+00 0.  1.
</event>
<event>
 7    1  0.6285940E-013  0.5930194E+02  0.7816164E-02  0.1266605E+00
        -11   -1    0    0    0    0  0.00000000000E+00  0.00000000000E+00  0.45593999997E+02  0.45594000000E+02  0.51100000000E-03 0.  1.
         11   -1    0    0    0    0 -0.00000000000E+00 -0.00000000000E+00 -0.45593999997E+02  0.45594000000E+02  0.51100000000E-03 0. -1.
    9900012    2    1    2    0    0 -0.18382197146E+02 -0.26052074860E+02 -0.32459470360E+00  0.59301935047E+02  0.49999983622E+02 0.  0.
        -12    1    1    2    0    0  0.18382197146E+02  0.26052074860E+02  0.32459470360E+00  0.31886064953E+02  0.00000000000E+00 0.  1.
         11    1    3    3    0    0 -0.14363167704E+01 -0.23382102840E+00 -0.79935033190E+01  0.81248860736E+01  0.51100000000E-03 0. -1.
        -11    1    3    3    0    0 -0.12529039167E+02  0.89360336903E+01  0.38527802434E+00  0.15394088475E+02  0.51100000000E-03 0.  1.
         12    1    3    3    0    0 -0.44168412086E+01 -0.34754287522E+02  0.72836305910E+01  0.35782960498E+02  0.00000000000E+00 0. -1.
</event>
<event>
 7    1  0.6285940E-013  0.5930194E+02  0.7816164E-02  0.1266605E+00
        -11   -1    0    0    0    0  0.00000000000E+00  0.00000000000E+00  0.45593999997E+02  0.45594000000E+02  0.51100000000E-03 0.  1.
         11   -1    0    0    0    0 -0.00000000000E+00 -0.00000000000E+00 -0.45593999997E+02  0.45594000000E+02  0.51100000000E-03 0. -1.
    9900012    2    1    2    0    0  0.23244975284E+02  0.18858963188E+02 -0.10987780557E+02  0.59301942075E+02  0.49999996438E+02 0.  0.
        -12    1    1    2    0    0 -0.23244975284E+02 -0.18858963188E+02  0.10987780557E+02  0.31886057925E+02  0.00000000000E+00 0.  1.
         11    1    3    3    0    0  0.11331661990E+02  0.18136831346E+02  0.32741307018E+01  0.21634951972E+02  0.51100000000E-03 0.  1.
        -11    1    3    3    0    0  0.11901972903E+02  0.58361636270E+01  0.75557230151E+01  0.15258004962E+02  0.51100000000E-03 0. -1.
        -12    1    3    3    0    0  0.11340389984E-01 -0.51140317850E+01 -0.21817634274E+02  0.22408985140E+02  0.00000000000E+00 0.  1.
</event>
<event>
 7    1  0.6285940E-013  0.5930197E+02  0.7816164E-02  0.1266605E+00
        -11   -1    0    0    0    0  0.00000000000E+00  0.00000000000E+00  0.45593999997E+02  0.45594000000E+02  0.51100000000E-03 0.  1.
         11   -1    0    0    0    0 -0.00000000000E+00 -0.00000000000E+00 -0.45593999997E+02  0.45594000000E+02  0.51100000000E-03 0. -1.
    9900012    2    1    2    0    0  0.13924835398E+02  0.28068373193E+02  0.59147334336E+01  0.59301973497E+02  0.50000053745E+02 0.  0.
        -12    1    1    2    0    0 -0.13924835398E+02 -0.28068373193E+02 -0.59147334336E+01  0.31886026503E+02  0.00000000000E+00 0.  1.
         11    1    3    3    0    0 -0.55941856696E+01 -0.57965300467E+01  0.63915286913E+01  0.10283302639E+02  0.51100000000E-03 0. -1.
        -11    1    3    3    0    0 -0.43645934706E+01  0.12502147505E+02 -0.88152021704E+01  0.15907896088E+02  0.51100000000E-03 0.  1.
        -12    1    3    3    0    0  0.23883614538E+02  0.21362755735E+02  0.83384069127E+01  0.33110774770E+02  0.00000000000E+00 0.  1.
</event>
<event>
 7    1  0.6285940E-013  0.5930196E+02  0.7816164E-02  0.1266605E+00
        -11   -1    0    0    0    0  0.00000000000E+00  0.00000000000E+00  0.45593999997E+02  0.45594000000E+02  0.51100000000E-03 0. -1.
         11   -1    0    0    0    0 -0.00000000000E+00 -0.00000000000E+00 -0.45593999997E+02  0.45594000000E+02  0.51100000000E-03 0.  1.
    9900012    2    1    2    0    0 -0.83583686354E+01  0.30737907727E+02 -0.14276560521E+01  0.59301960743E+02  0.50000030485E+02 0.  0.
        -12    1    1    2    0    0  0.83583686354E+01 -0.30737907727E+02  0.14276560521E+01  0.31886039257E+02  0.00000000000E+00 0.  1.
         11    1    3    3    0    0 -0.42908178629E+01  0.18138935594E+02 -0.98302350575E+01  0.21072864636E+02  0.51100000000E-03 0. -1.
        -11    1    3    3    0    0  0.15277575339E+02  0.32786768639E+01  0.54765605582E+01  0.16557377390E+02  0.51100000000E-03 0.  1.
         12    1    3    3    0    0 -0.19345126112E+02  0.93202952692E+01  0.29260184472E+01  0.21671718717E+02  0.00000000000E+00 0. -1.
</event>
<event>
 7    1  0.6285940E-013  0.5930193E+02  0.7816164E-02  0.1266605E+00
        -11   -1    0    0    0    0  0.00000000000E+00  0.00000000000E+00  0.45593999997E+02  0.45594000000E+02  0.51100000000E-03 0.  1.
         11   -1    0    0    0    0 -0.00000000000E+00 -0.00000000000E+00 -0.45593999997E+02  0.45594000000E+02  0.51100000000E-03 0. -1.
    9900012    2    1    2    0    0  0.42941713215E+01  0.13767345230E+02 -0.28438382442E+02  0.59301932542E+02  0.49999979052E+02 0.  0.
        -12    1    1    2    0    0 -0.42941713215E+01 -0.13767345230E+02  0.28438382442E+02  0.31886067458E+02  0.00000000000E+00 0.  1.
         11    1    3    3    0    0  0.11803083589E+02  0.13444107071E+02 -0.21225869546E+02  0.27759580966E+02  0.51100000000E-03 0. -1.
        -11    1    3    3    0    0 -0.64961282552E+00 -0.12486322450E+02 -0.10859965656E+02  0.16561071809E+02  0.51100000000E-03 0.  1.
        -12    1    3    3    0    0 -0.68592994417E+01  0.12809560609E+02  0.36474527602E+01  0.14981279767E+02  0.00000000000E+00 0.  1.
</event>
<event>
 7    1  0.6285940E-013  0.5930196E+02  0.7816164E-02  0.1266605E+00
        -11   -1    0    0    0    0  0.00000000000E+00  0.00000000000E+00  0.45593999997E+02  0.45594000000E+02  0.51100000000E-03 0.  1.
         11   -1    0    0    0    0 -0.00000000000E+00 -0.00000000000E+00 -0.45593999997E+02  0.45594000000E+02  0.51100000000E-03 0. -1.
    9900012    2    1    2    0    0 -0.30606097795E+02  0.74522628141E+01  0.49447335512E+01  0.59301955511E+02  0.50000020942E+02 0.  0.
        -12    1    1    2    0    0  0.30606097795E+02 -0.74522628141E+01 -0.49447335512E+01  0.31886044489E+02  0.00000000000E+00 0.  1.
         11    1    3    3    0    0 -0.10199969227E+01 -0.81486243344E+01 -0.61251734158E+01  0.10244912001E+02  0.51100000000E-03 0. -1.
        -11    1    3    3    0    0 -0.14753998246E+02  0.19475133108E+01  0.21664188949E+02  0.26283271399E+02  0.51100000000E-03 0.  1.
         12    1    3    3    0    0 -0.14832102626E+02  0.13653373838E+02 -0.10594281982E+02  0.22773772111E+02  0.00000000000E+00 0. -1.
</event>
<event>
 7    1  0.6285940E-013  0.5930196E+02  0.7816164E-02  0.1266605E+00
        -11   -1    0    0    0    0  0.00000000000E+00  0.00000000000E+00  0.45593999997E+02  0.45594000000E+02  0.51100000000E-03 0. -1.
         11   -1    0    0    0    0 -0.00000000000E+00 -0.00000000000E+00 -0.45593999997E+02  0.45594000000E+02  0.51100000000E-03 0.  1.
    9900012    2    1    2    0    0 -0.11704429396E+02  0.11865152747E+02  0.27183530221E+02  0.59301955522E+02  0.50000020962E+02 0.  0.
        -12    1    1    2    0    0  0.11704429396E+02 -0.11865152747E+02 -0.27183530221E+02  0.31886044478E+02  0.00000000000E+00 0.  1.
         11    1    3    3    0    0  0.16805962158E+01  0.53415777519E+01 -0.80428805468E+00  0.56571844637E+01  0.51100000000E-03 0. -1.
        -11    1    3    3    0    0  0.54517523456E+01  0.20779257881E+01 -0.96761659230E+01  0.11299007321E+02  0.51100000000E-03 0.  1.
         12    1    3    3    0    0 -0.18836777958E+02  0.44456492068E+01  0.37663984199E+02  0.42345763736E+02  0.00000000000E+00 0. -1.
</event>
<event>
 7    1  0.6285940E-013  0.5930195E+02  0.7816164E-02  0.1266605E+00
        -11   -1    0    0    0    0  0.00000000000E+00  0.00000000000E+00  0.45593999997E+02  0.45594000000E+02  0.51100000000E-03 0.  1.
         11   -1    0    0    0    0 -0.00000000000E+00 -0.00000000000E+00 -0.45593999997E+02  0.45594000000E+02  0.51100000000E-03 0. -1.
    9900012    2    1    2    0    0 -0.25220229815E+02 -0.15001981096E+02  0.12474008053E+02  0.59301948102E+02  0.50000007431E+02 0.  0.
        -12    1    1    2    0    0  0.25220229815E+02  0.15001981096E+02 -0.12474008053E+02  0.31886051898E+02  0.00000000000E+00 0.  1.
         11    1    3    3    0    0 -0.17807046786E+01 -0.12460842001E+02  0.15223078937E+02  0.19753116845E+02  0.51100000000E-03 0. -1.
        -11    1    3    3    0    0 -0.14761454828E+02 -0.15411448235E+02  0.54057552505E+01  0.22014437886E+02  0.51100000000E-03 0.  1.
         12    1    3    3    0    0 -0.86780703083E+01  0.12870309139E+02 -0.81548261347E+01  0.17534393371E+02  0.00000000000E+00 0. -1.
</event>
<event>
 7    1  0.6285940E-013  0.5930198E+02  0.7816164E-02  0.1266605E+00
        -11   -1    0    0    0    0  0.00000000000E+00  0.00000000000E+00  0.45593999997E+02  0.45594000000E+02  0.51100000000E-03 0. -1.
         11   -1    0    0    0    0 -0.00000000000E+00 -0.00000000000E+00 -0.45593999997E+02  0.45594000000E+02  0.51100000000E-03 0.  1.
    9900012    2    1    2    0    0 -0.18412030543E+02  0.14409157284E+02  0.21681594801E+02  0.59301980564E+02  0.50000066633E+02 0.  0.
        -12    1    1    2    0    0  0.18412030543E+02 -0.14409157284E+02 -0.21681594801E+02  0.31886019436E+02  0.00000000000E+00 0.  1.
         11    1    3    3    0    0 -0.11925971789E+02 -0.51522144878E+01  0.29547753782E+01  0.13323093298E+02  0.51100000000E-03 0. -1.
        -11    1    3    3    0    0 -0.20402164031E+02  0.10484539598E+02  0.18324805884E+02  0.29359366114E+02  0.51100000000E-03 0.  1.
        -12    1    3    3    0    0  0.13916105277E+02  0.90768321747E+01  0.40201353923E+00  0.16619521151E+02  0.00000000000E+00 0.  1.
</event>
<event>
 7    1  0.6285940E-013  0.5930206E+02  0.7816164E-02  0.1266604E+00
        -11   -1    0    0    0    0  0.00000000000E+00  0.00000000000E+00  0.45593999997E+02  0.45594000000E+02  0.51100000000E-03 0.  1.
         11   -1    0    0    0    0 -0.00000000000E+00 -0.00000000000E+00 -0.45593999997E+02  0.45594000000E+02  0.51100000000E-03 0. -1.
    9900012    2    1    2    0    0  0.24998599806E+02  0.18391673862E+02 -0.73163652934E+01  0.59302064843E+02  0.50000220338E+02 0.  0.
        -12    1    1    2    0    0 -0.24998599806E+02 -0.18391673862E+02  0.73163652934E+01  0.31885935157E+02  0.00000000000E+00 0.  1.
         11    1    3    3    0    0  0.28585076189E+02  0.96978263277E+01 -0.21164717166E+02  0.36865968985E+02  0.51100000000E-03 0. -1.
        -11    1    3    3    0    0 -0.53089001238E+01  0.23510820221E+01 -0.12765541803E+01  0.59448799849E+01  0.51100000000E-03 0.  1.
        -12    1    3    3    0    0  0.17224237411E+01  0.63427655119E+01  0.15124906053E+02  0.16491215874E+02  0.00000000000E+00 0.  1.
</event>
<event>
 7    1  0.6285940E-013  0.5930192E+02  0.7816164E-02  0.1266605E+00
        -11   -1    0    0    0    0  0.00000000000E+00  0.00000000000E+00  0.45593999997E+02  0.45594000000E+02  0.51100000000E-03 0. -1.
         11   -1    0    0    0    0 -0.00000000000E+00 -0.00000000000E+00 -0.45593999997E+02  0.45594000000E+02  0.51100000000E-03 0.  1.
    9900012    2    1    2    0    0 -0.12987598373E+02  0.75190757699E+01  0.28133751616E+02  0.59301918524E+02  0.49999953487E+02 0.  0.
        -12    1    1    2    0    0  0.12987598373E+02 -0.75190757699E+01 -0.28133751616E+02  0.31886081476E+02  0.00000000000E+00 0.  1.
         11    1    3    3    0    0  0.73119271432E+01  0.12031668555E+02  0.92396418342E+01  0.16840317938E+02  0.51100000000E-03 0. -1.
        -11    1    3    3    0    0  0.59771170781E+01  0.35871592109E+01  0.12373999202E+02  0.14202446841E+02  0.51100000000E-03 0.  1.
         12    1    3    3    0    0 -0.26276642594E+02 -0.80997519958E+01  0.65201105800E+01  0.28259153745E+02  0.00000000000E+00 0. -1.
</event>
<event>
 7    1  0.6285940E-013  0.5930195E+02  0.7816164E-02  0.1266605E+00
        -11   -1    0    0    0    0  0.00000000000E+00  0.00000000000E+00  0.45593999997E+02  0.45594000000E+02  0.51100000000E-03 0.  1.
         11   -1    0    0    0    0 -0.00000000000E+00 -0.00000000000E+00 -0.45593999997E+02  0.45594000000E+02  0.51100000000E-03 0. -1.
    9900012    2    1    2    0    0  0.59409944497E+01  0.29658554378E+02 -0.10089356269E+02  0.59301947049E+02  0.50000005511E+02 0.  0.
        -12    1    1    2    0    0 -0.59409944497E+01 -0.29658554378E+02  0.10089356269E+02  0.31886052951E+02  0.00000000000E+00 0.  1.
         11    1    3    3    0    0 -0.80907938574E+00  0.36803733239E+02  0.62252256673E+01  0.37335275875E+02  0.51100000000E-03 0. -1.
        -11    1    3    3    0    0 -0.20794713463E+00  0.22372132638E+01 -0.49299704595E+00  0.23003068376E+01  0.51100000000E-03 0.  1.
        -12    1    3    3    0    0  0.69580209700E+01 -0.93823921247E+01 -0.15821584890E+02  0.19666364337E+02  0.00000000000E+00 0.  1.
</event>
<event>
 7    1  0.6285940E-013  0.5930169E+02  0.7816164E-02  0.1266606E+00
        -11   -1    0    0    0    0  0.00000000000E+00  0.00000000000E+00  0.45593999997E+02  0.45594000000E+02  0.51100000000E-03 0.  1.
         11   -1    0    0    0    0 -0.00000000000E+00 -0.00000000000E+00 -0.45593999997E+02  0.45594000000E+02  0.51100000000E-03 0. -1.
    9900012    2    1    2    0    0 -0.13313910831E+00  0.34152086091E+01 -0.31702611354E+02  0.59301687223E+02  0.49999531648E+02 0.  0.
        -12    1    1    2    0    0  0.13313910831E+00 -0.34152086091E+01  0.31702611354E+02  0.31886312777E+02  0.00000000000E+00 0.  1.
         11    1    3    3    0    0 -0.14779826220E+02 -0.27584656920E+01 -0.16139262385E+02  0.22057383949E+02  0.51100000000E-03 0. -1.
        -11    1    3    3    0    0 -0.19160693452E+01  0.12999938008E+02 -0.14094627908E+02  0.19269879244E+02  0.51100000000E-03 0.  1.
        -12    1    3    3    0    0  0.16562756457E+02 -0.68262637071E+01 -0.14687210611E+01  0.17974424030E+02  0.00000000000E+00 0.  1.
</event>
<event>
 7    1  0.6285940E-013  0.5930197E+02  0.7816164E-02  0.1266605E+00
        -11   -1    0    0    0    0  0.00000000000E+00  0.00000000000E+00  0.45593999997E+02  0.45594000000E+02  0.51100000000E-03 0.  1.
         11   -1    0    0    0    0 -0.00000000000E+00 -0.00000000000E+00 -0.45593999997E+02  0.45594000000E+02  0.51100000000E-03 0. -1.
    9900012    2    1    2    0    0  0.22255841457E+02 -0.21114609810E+02 -0.86930641267E+01  0.59301975000E+02  0.50000056485E+02 0.  0.
        -12    1    1    2    0    0 -0.22255841457E+02  0.21114609810E+02  0.86930641267E+01  0.31886025000E+02  0.00000000000E+00 0.  1.
         11    1    3    3    0    0 -0.83248073223E+01  0.55580342311E+01 -0.71092726085E+01  0.12277455712E+02  0.51100000000E-03 0. -1.
        -11    1    3    3    0    0 -0.34952948175E+01 -0.55862402588E+00 -0.20501453613E+01  0.40905064390E+01  0.51100000000E-03 0.  1.
         12    1    3    3    0    0  0.34075943597E+02 -0.26114020016E+02  0.46635384307E+00  0.42934012849E+02  0.00000000000E+00 0. -1.
</event>
<event>
 7    1  0.6285940E-013  0.5930196E+02  0.7816164E-02  0.1266605E+00
        -11   -1    0    0    0    0  0.00000000000E+00  0.00000000000E+00  0.45593999997E+02  0.45594000000E+02  0.51100000000E-03 0.  1.
         11   -1    0    0    0    0 -0.00000000000E+00 -0.00000000000E+00 -0.45593999997E+02  0.45594000000E+02  0.51100000000E-03 0. -1.
    9900012    2    1    2    0    0 -0.86735643971E+01  0.29650374488E+02  0.78958460460E+01  0.59301955852E+02  0.50000021565E+02 0.  0.
        -12    1    1    2    0    0  0.86735643971E+01 -0.29650374488E+02 -0.78958460460E+01  0.31886044148E+02  0.00000000000E+00 0.  1.
         11    1    3    3    0    0  0.11349011899E+00 -0.68584608332E+01  0.80324118760E+01  0.10562717729E+02  0.51100000000E-03 0. -1.
        -11    1    3    3    0    0 -0.14539230962E+02  0.13797225132E+02  0.10927979099E+02  0.22829222189E+02  0.51100000000E-03 0.  1.
         12    1    3    3    0    0  0.57521764463E+01  0.22711610189E+02 -0.11064544929E+02  0.25910015935E+02  0.00000000000E+00 0. -1.
</event>
<event>
 7    1  0.6285940E-013  0.5930191E+02  0.7816164E-02  0.1266605E+00
        -11   -1    0    0    0    0  0.00000000000E+00  0.00000000000E+00  0.45593999997E+02  0.45594000000E+02  0.51100000000E-03 0. -1.
         11   -1    0    0    0    0 -0.00000000000E+00 -0.00000000000E+00 -0.45593999997E+02  0.45594000000E+02  0.51100000000E-03 0.  1.
    9900012    2    1    2    0    0 -0.20654604602E+02 -0.19631042204E+02  0.14308470674E+02  0.59301908325E+02  0.49999934887E+02 0.  0.
        -12    1    1    2    0    0  0.20654604602E+02  0.19631042204E+02 -0.14308470674E+02  0.31886091675E+02  0.00000000000E+00 0.  1.
         11    1    3    3    0    0 -0.29769710120E+01 -0.22379674167E+01 -0.66089692197E+01  0.75861274029E+01  0.51100000000E-03 0. -1.
        -11    1    3    3    0    0 -0.77211284131E-01  0.12541179676E+02  0.47403056852E+01  0.13407372879E+02  0.51100000000E-03 0.  1.
         12    1    3    3    0    0 -0.17600422306E+02 -0.29934254464E+02  0.16177134208E+02  0.38308408044E+02  0.00000000000E+00 0. -1.
</event>
<event>
 7    1  0.6285940E-013  0.5930194E+02  0.7816164E-02  0.1266605E+00
        -11   -1    0    0    0    0  0.00000000000E+00  0.00000000000E+00  0.45593999997E+02  0.45594000000E+02  0.51100000000E-03 0.  1.
         11   -1    0    0    0    0 -0.00000000000E+00 -0.00000000000E+00 -0.45593999997E+02  0.45594000000E+02  0.51100000000E-03 0. -1.
    9900012    2    1    2    0    0  0.27224373907E+02  0.82035391272E+01 -0.14431076078E+02  0.59301944339E+02  0.50000000568E+02 0.  0.
        -12    1    1    2    0    0 -0.27224373907E+02 -0.82035391272E+01  0.14431076078E+02  0.31886055661E+02  0.00000000000E+00 0.  1.
         11    1    3    3    0    0  0.11327758991E+02 -0.60336029052E+01  0.79499295814E+01  0.15097147690E+02  0.51100000000E-03 0. -1.
        -11    1    3    3    0    0  0.12744869161E+01  0.57639376921E+01  0.76995132555E+01  0.97020512909E+01  0.51100000000E-03 0.  1.
         12    1    3    3    0    0  0.14622128000E+02  0.84732043402E+01 -0.30080518915E+02  0.34502745358E+02  0.00000000000E+00 0. -1.
</event>
<event>
 7    1  0.6285940E-013  0.5930194E+02  0.7816164E-02  0.1266605E+00
        -11   -1    0    0    0    0  0.00000000000E+00  0.00000000000E+00  0.45593999997E+02  0.45594000000E+02  0.51100000000E-03 0. -1.
         11   -1    0    0    0    0 -0.00000000000E+00 -0.00000000000E+00 -0.45593999997E+02  0.45594000000E+02  0.51100000000E-03 0.  1.
    9900012    2    1    2    0    0 -0.12814777611E+02 -0.20214257828E+02  0.21068608787E+02  0.59301936885E+02  0.49999986973E+02 0.  0.
        -12    1    1    2    0    0  0.12814777611E+02  0.20214257828E+02 -0.21068608787E+02  0.31886063115E+02  0.00000000000E+00 0.  1.
         11    1    3    3    0    0 -0.78161207022E+01 -0.14170856313E+02  0.16709905165E+02  0.23262111735E+02  0.51100000000E-03 0. -1.
        -11    1    3    3    0    0 -0.18051999449E+02  0.12596353244E+01 -0.45118212935E+01  0.18649876592E+02  0.51100000000E-03 0.  1.
        -12    1    3    3    0    0  0.13053342540E+02 -0.73030368394E+01  0.88705249155E+01  0.17389948557E+02  0.00000000000E+00 0.  1.
</event>
<event>
 7    1  0.6285940E-013  0.5930193E+02  0.7816164E-02  0.1266605E+00
        -11   -1    0    0    0    0  0.00000000000E+00  0.00000000000E+00  0.45593999997E+02  0.45594000000E+02  0.51100000000E-03 0. -1.
         11   -1    0    0    0    0 -0.00000000000E+00 -0.00000000000E+00 -0.45593999997E+02  0.45594000000E+02  0.51100000000E-03 0.  1.
    9900012    2    1    2    0    0 -0.21053788605E+02  0.16040911315E+02  0.17780572390E+02  0.59301927728E+02  0.49999970272E+02 0.  0.
        -12    1    1    2    0    0  0.21053788605E+02 -0.16040911315E+02 -0.17780572390E+02  0.31886072272E+02  0.00000000000E+00 0.  1.
         11    1    3    3    0    0 -0.11098940634E+02 -0.31762286161E+01  0.57224350694E+01  0.12884920442E+02  0.51100000000E-03 0.  1.
        -11    1    3    3    0    0  0.51788584191E+01 -0.71125778641E+01  0.13386357953E+02  0.16018861317E+02  0.51100000000E-03 0. -1.
        -12    1    3    3    0    0 -0.15133706390E+02  0.26329717795E+02 -0.13282206316E+01  0.30398145968E+02  0.00000000000E+00 0.  1.
</event>
<event>
 7    1  0.6285940E-013  0.5930196E+02  0.7816164E-02  0.1266605E+00
        -11   -1    0    0    0    0  0.00000000000E+00  0.00000000000E+00  0.45593999997E+02  0.45594000000E+02  0.51100000000E-03 0. -1.
         11   -1    0    0    0    0 -0.00000000000E+00 -0.00000000000E+00 -0.45593999997E+02  0.45594000000E+02  0.51100000000E-03 0.  1.
    9900012    2    1    2    0    0  0.18345494743E+02 -0.41030078502E+01  0.25755153168E+02  0.59301956572E+02  0.50000022878E+02 0.  0.
        -12    1    1    2    0    0 -0.18345494743E+02  0.41030078502E+01 -0.25755153168E+02  0.31886043428E+02  0.00000000000E+00 0.  1.
         11    1    3    3    0    0  0.21477240855E+02  0.86573025852E+01  0.16827775079E+02  0.28625072527E+02  0.51100000000E-03 0. -1.
        -11    1    3    3    0    0 -0.42861900620E+01  0.51879343762E+01 -0.46177658940E+01  0.81614857993E+01  0.51100000000E-03 0.  1.
        -12    1    3    3    0    0  0.11544439498E+01 -0.17948244812E+02  0.13545143983E+02  0.22515398246E+02  0.00000000000E+00 0.  1.
</event>
<event>
 7    1  0.6285940E-013  0.5930189E+02  0.7816164E-02  0.1266605E+00
        -11   -1    0    0    0    0  0.00000000000E+00  0.00000000000E+00  0.45593999997E+02  0.45594000000E+02  0.51100000000E-03 0.  1.
         11   -1    0    0    0    0 -0.00000000000E+00 -0.00000000000E+00 -0.45593999997E+02  0.45594000000E+02  0.51100000000E-03 0. -1.
    9900012    2    1    2    0    0  0.17631606145E+02 -0.24215883380E+02 -0.10928930719E+02  0.59301889078E+02  0.49999899784E+02 0.  0.
        -12    1    1    2    0    0 -0.17631606145E+02  0.24215883380E+02  0.10928930719E+02  0.31886110922E+02  0.00000000000E+00 0.  1.
         11    1    3    3    0    0  0.12188889076E+02 -0.78675549257E+01  0.14433560918E+02  0.20464484320E+02  0.51100000000E-03 0. -1.
        -11    1    3    3    0    0 -0.37270232585E+01  0.32805451114E+01 -0.12948332132E+02  0.13867659639E+02  0.51100000000E-03 0.  1.
        -12    1    3    3    0    0  0.91697403268E+01 -0.19628873565E+02 -0.12414159505E+02  0.24969745119E+02  0.00000000000E+00 0.  1.
</event>
<event>
 7    1  0.6285940E-013  0.5930196E+02  0.7816164E-02  0.1266605E+00
        -11   -1    0    0    0    0  0.00000000000E+00  0.00000000000E+00  0.45593999997E+02  0.45594000000E+02  0.51100000000E-03 0.  1.
         11   -1    0    0    0    0 -0.00000000000E+00 -0.00000000000E+00 -0.45593999997E+02  0.45594000000E+02  0.51100000000E-03 0. -1.
    9900012    2    1    2    0    0 -0.64679945876E+01 -0.26213697884E+02  0.16962505817E+02  0.59301960511E+02  0.50000030061E+02 0.  0.
        -12    1    1    2    0    0  0.64679945876E+01  0.26213697884E+02 -0.16962505817E+02  0.31886039489E+02  0.00000000000E+00 0.  1.
         11    1    3    3    0    0  0.15088790550E+01  0.10936470014E+02  0.23375588649E+00  0.11042542028E+02  0.51100000000E-03 0. -1.
        -11    1    3    3    0    0  0.33645319127E+01 -0.23487019426E+02  0.18948125489E+02  0.30364314850E+02  0.51100000000E-03 0.  1.
         12    1    3    3    0    0 -0.11341405555E+02 -0.13663148472E+02 -0.22193755587E+01  0.17895103632E+02  0.00000000000E+00 0. -1.
</event>
<event>
 7    1  0.6285940E-013  0.5930193E+02  0.7816164E-02  0.1266605E+00
        -11   -1    0    0    0    0  0.00000000000E+00  0.00000000000E+00  0.45593999997E+02  0.45594000000E+02  0.51100000000E-03 0. -1.
         11   -1    0    0    0    0 -0.00000000000E+00 -0.00000000000E+00 -0.45593999997E+02  0.45594000000E+02  0.51100000000E-03 0.  1.
    9900012    2    1    2    0    0 -0.30813467878E+02 -0.73237138083E+01 -0.36898547844E+01  0.59301927571E+02  0.49999969987E+02 0.  0.
        -12    1    1    2    0    0  0.30813467878E+02  0.73237138083E+01  0.36898547844E+01  0.31886072429E+02  0.00000000000E+00 0.  1.
         11    1    3    3    0    0  0.12877785542E+01 -0.25194014420E+01 -0.14098545475E+02  0.14379664182E+02  0.51100000000E-03 0. -1.
        -11    1    3    3    0    0 -0.33168217258E+01  0.10063657657E+02 -0.83526493013E+00  0.10629025334E+02  0.51100000000E-03 0.  1.
         12    1    3    3    0    0 -0.28784424706E+02 -0.14867970023E+02  0.11243955621E+02  0.34293238055E+02  0.00000000000E+00 0. -1.
</event>
<event>
 7    1  0.6285940E-013  0.5930194E+02  0.7816164E-02  0.1266605E+00
        -11   -1    0    0    0    0  0.00000000000E+00  0.00000000000E+00  0.45593999997E+02  0.45594000000E+02  0.51100000000E-03 0.  1.
         11   -1    0    0    0    0 -0.00000000000E+00 -0.00000000000E+00 -0.45593999997E+02  0.45594000000E+02  0.51100000000E-03 0. -1.
    9900012    2    1    2    0    0  0.98851839589E+01 -0.25211532068E+02 -0.16833972680E+02  0.59301939608E+02  0.49999991940E+02 0.  0.
        -12    1    1    2    0    0 -0.98851839589E+01  0.25211532068E+02  0.16833972680E+02  0.31886060392E+02  0.00000000000E+00 0.  1.
         11    1    3    3    0    0  0.61128205333E+01  0.10393366325E+02  0.32279443001E+01  0.12482318018E+02  0.51100000000E-03 0.  1.
        -11    1    3    3    0    0  0.11320732235E+02 -0.96433379380E+01 -0.41136073848E+01  0.15429669825E+02  0.51100000000E-03 0. -1.
        -12    1    3    3    0    0 -0.75483688096E+01 -0.25961560454E+02 -0.15948309596E+02  0.31389951766E+02  0.00000000000E+00 0.  1.
</event>
<event>
 7    1  0.9766528E-013  0.5930189E+02  0.7816164E-02  0.1266605E+00
        -11   -1    0    0    0    0  0.00000000000E+00  0.00000000000E+00  0.45593999997E+02  0.45594000000E+02  0.51100000000E-03 0. -1.
         11   -1    0    0    0    0 -0.00000000000E+00 -0.00000000000E+00 -0.45593999997E+02  0.45594000000E+02  0.51100000000E-03 0.  1.
    9900012    2    1    2    0    0 -0.12987687050E+02  0.70715488707E+01  0.28249556122E+02  0.59301886417E+02  0.49999894931E+02 0.  0.
        -12    1    1    2    0    0  0.12987687050E+02 -0.70715488707E+01 -0.28249556122E+02  0.31886113583E+02  0.00000000000E+00 0.  1.
         11    1    3    3    0    0 -0.20430172235E+02  0.10888205481E+01  0.60259280675E+01  0.21328133464E+02  0.51100000000E-03 0. -1.
        -11    1    3    3    0    0 -0.18500463375E+01  0.14788156680E+02  0.35283207819E+01  0.15315394127E+02  0.51100000000E-03 0.  1.
        -12    1    3    3    0    0  0.92925315225E+01 -0.88054283578E+01  0.18695307273E+02  0.22658358826E+02  0.00000000000E+00 0.  1.
</event>
<event>
 7    1  0.6285940E-013  0.5930194E+02  0.7816164E-02  0.1266605E+00
        -11   -1    0    0    0    0  0.00000000000E+00  0.00000000000E+00  0.45593999997E+02  0.45594000000E+02  0.51100000000E-03 0. -1.
         11   -1    0    0    0    0 -0.00000000000E+00 -0.00000000000E+00 -0.45593999997E+02  0.45594000000E+02  0.51100000000E-03 0.  1.
    9900012    2    1    2    0    0 -0.24153475674E+02  0.13048137288E+02  0.16219632827E+02  0.59301940932E+02  0.49999994355E+02 0.  0.
        -12    1    1    2    0    0  0.24153475674E+02 -0.13048137288E+02 -0.16219632827E+02  0.31886059068E+02  0.00000000000E+00 0.  1.
         11    1    3    3    0    0 -0.32163819228E+02  0.39485330115E+01  0.21463108899E+02  0.38868589171E+02  0.51100000000E-03 0. -1.
        -11    1    3    3    0    0  0.24036035621E+01 -0.29124743061E+01  0.30002092369E+01  0.48229733975E+01  0.51100000000E-03 0.  1.
        -12    1    3    3    0    0  0.56067399917E+01  0.12012078582E+02 -0.82436853087E+01  0.15610378364E+02  0.00000000000E+00 0.  1.
</event>
<event>
 7    1  0.6285940E-013  0.5930196E+02  0.7816164E-02  0.1266605E+00
        -11   -1    0    0    0    0  0.00000000000E+00  0.00000000000E+00  0.45593999997E+02  0.45594000000E+02  0.51100000000E-03 0. -1.
         11   -1    0    0    0    0 -0.00000000000E+00 -0.00000000000E+00 -0.45593999997E+02  0.45594000000E+02  0.51100000000E-03 0.  1.
    9900012    2    1    2    0    0 -0.13377644346E+02 -0.57432803649E+01  0.28368517559E+02  0.59301961894E+02  0.50000032583E+02 0.  0.
        -12    1    1    2    0    0  0.13377644346E+02  0.57432803649E+01 -0.28368517559E+02  0.31886038106E+02  0.00000000000E+00 0.  1.
         11    1    3    3    0    0  0.57988890114E+01  0.13762435610E+01  0.11095986864E+02  0.12595319958E+02  0.51100000000E-03 0. -1.
        -11    1    3    3    0    0 -0.22344472943E+01 -0.19327234090E+02 -0.23347847277E+00  0.19457369934E+02  0.51100000000E-03 0.  1.
        -12    1    3    3    0    0 -0.16942086063E+02  0.12207710164E+02  0.17506009168E+02  0.27249272002E+02  0.00000000000E+00 0.  1.
</event>
<event>
 7    1  0.6285940E-013  0.5930196E+02  0.7816164E-02  0.1266605E+00
        -11   -1    0    0    0    0  0.00000000000E+00  0.00000000000E+00  0.45593999997E+02  0.45594000000E+02  0.51100000000E-03 0.  1.
         11   -1    0    0    0    0 -0.00000000000E+00 -0.00000000000E+00 -0.45593999997E+02  0.45594000000E+02  0.51100000000E-03 0. -1.
    9900012    2    1    2    0    0  0.10843572101E+02 -0.29629438905E+02  0.46079043673E+01  0.59301960917E+02  0.50000030802E+02 0.  0.
        -12    1    1    2    0    0 -0.10843572101E+02  0.29629438905E+02 -0.46079043673E+01  0.31886039083E+02  0.00000000000E+00 0.  1.
         11    1    3    3    0    0 -0.77029498549E+01  0.11257201265E+01 -0.33565381956E+00  0.77920052630E+01  0.51100000000E-03 0. -1.
        -11    1    3    3    0    0 -0.71383810288E+00 -0.13239386013E+02  0.18023515201E+02  0.22374941504E+02  0.51100000000E-03 0.  1.
         12    1    3    3    0    0  0.19260360059E+02 -0.17515773018E+02 -0.13079957015E+02  0.29135014150E+02  0.00000000000E+00 0. -1.
</event>
<event>
 7    1  0.6285940E-013  0.5930197E+02  0.7816164E-02  0.1266605E+00
        -11   -1    0    0    0    0  0.00000000000E+00  0.00000000000E+00  0.45593999997E+02  0.45594000000E+02  0.51100000000E-03 0.  1.
         11   -1    0    0    0    0 -0.00000000000E+00 -0.00000000000E+00 -0.45593999997E+02  0.45594000000E+02  0.51100000000E-03 0. -1.
    9900012    2    1    2    0    0  0.28730420344E+02  0.72369229650E+01  0.11785963779E+02  0.59301967801E+02  0.50000043358E+02 0.  0.
        -12    1    1    2    0    0 -0.28730420344E+02 -0.72369229650E+01 -0.11785963779E+02  0.31886032199E+02  0.00000000000E+00 0.  1.
         11    1    3    3    0    0  0.22431188567E+01 -0.38215812877E+01 -0.12265905090E+02  0.13041797947E+02  0.51100000000E-03 0. -1.
        -11    1    3    3    0    0  0.23137143815E+02 -0.40840144749E+01  0.10788516702E+02  0.25853407726E+02  0.51100000000E-03 0.  1.
        -12    1    3    3    0    0  0.33501576725E+01  0.15142518728E+02  0.13263352168E+02  0.20406762129E+02  0.00000000000E+00 0.  1.
</event>
<event>
 7    1  0.6285940E-013  0.5930187E+02  0.7816164E-02  0.1266605E+00
        -11   -1    0    0    0    0  0.00000000000E+00  0.00000000000E+00  0.45593999997E+02  0.45594000000E+02  0.51100000000E-03 0.  1.
         11   -1    0    0    0    0 -0.00000000000E+00 -0.00000000000E+00 -0.45593999997E+02  0.45594000000E+02  0.51100000000E-03 0. -1.
    9900012    2    1    2    0    0 -0.20760692081E+01 -0.28288528985E+02 -0.14566209313E+02  0.59301868387E+02  0.49999862049E+02 0.  0.
        -12    1    1    2    0    0  0.20760692081E+01  0.28288528985E+02  0.14566209313E+02  0.31886131613E+02  0.00000000000E+00 0.  1.
         11    1    3    3    0    0 -0.22673067960E+01 -0.13399339577E+02 -0.15205886416E+02  0.20393674587E+02  0.51100000000E-03 0. -1.
        -11    1    3    3    0    0 -0.23602159305E+01  0.69898151007E+01 -0.11571014272E+02  0.13722846131E+02  0.51100000000E-03 0.  1.
         12    1    3    3    0    0  0.25514535184E+01 -0.21879004509E+02  0.12210691375E+02  0.25185347669E+02  0.00000000000E+00 0. -1.
</event>
<event>
 7    1  0.6632434E-013  0.5930189E+02  0.7816164E-02  0.1266605E+00
        -11   -1    0    0    0    0  0.00000000000E+00  0.00000000000E+00  0.45593999997E+02  0.45594000000E+02  0.51100000000E-03 0. -1.
         11   -1    0    0    0    0 -0.00000000000E+00 -0.00000000000E+00 -0.45593999997E+02  0.45594000000E+02  0.51100000000E-03 0.  1.
    9900012    2    1    2    0    0 -0.54839650331E+01 -0.22545513424E+02  0.21871216941E+02  0.59301887372E+02  0.49999896673E+02 0.  0.
        -12    1    1    2    0    0  0.54839650331E+01  0.22545513424E+02 -0.21871216941E+02  0.31886112628E+02  0.00000000000E+00 0.  1.
         11    1    3    3    0    0 -0.16616465931E+02 -0.55473210519E+01 -0.23799022563E+01  0.17678903979E+02  0.51100000000E-03 0. -1.
        -11    1    3    3    0    0 -0.73817726404E+00 -0.11526740322E+01 -0.56210435928E+01  0.57852998566E+01  0.51100000000E-03 0.  1.
         12    1    3    3    0    0  0.11870678162E+02 -0.15845518340E+02  0.29872162790E+02  0.35837683536E+02  0.00000000000E+00 0. -1.
</event>
<event>
 7    1  0.6285940E-013  0.5930194E+02  0.7816164E-02  0.1266605E+00
        -11   -1    0    0    0    0  0.00000000000E+00  0.00000000000E+00  0.45593999997E+02  0.45594000000E+02  0.51100000000E-03 0.  1.
         11   -1    0    0    0    0 -0.00000000000E+00 -0.00000000000E+00 -0.45593999997E+02  0.45594000000E+02  0.51100000000E-03 0. -1.
    9900012    2    1    2    0    0 -0.39357379455E+01 -0.22218678026E+02 -0.22529116080E+02  0.59301941013E+02  0.49999994502E+02 0.  0.
        -12    1    1    2    0    0  0.39357379455E+01  0.22218678026E+02  0.22529116080E+02  0.31886058987E+02  0.00000000000E+00 0.  1.
         11    1    3    3    0    0  0.11656128269E+02  0.48274506392E+01  0.19872157196E+01  0.12771790496E+02  0.51100000000E-03 0. -1.
        -11    1    3    3    0    0  0.82494827050E-01 -0.13064648538E+02  0.14355194939E+01  0.13143536940E+02  0.51100000000E-03 0.  1.
         12    1    3    3    0    0 -0.15674361041E+02 -0.13981480127E+02 -0.25951851293E+02  0.33386613577E+02  0.00000000000E+00 0. -1.
</event>
<event>
 7    1  0.6285940E-013  0.5930192E+02  0.7816164E-02  0.1266605E+00
        -11   -1    0    0    0    0  0.00000000000E+00  0.00000000000E+00  0.45593999997E+02  0.45594000000E+02  0.51100000000E-03 0.  1.
         11   -1    0    0    0    0 -0.00000000000E+00 -0.00000000000E+00 -0.45593999997E+02  0.45594000000E+02  0.51100000000E-03 0. -1.
    9900012    2    1    2    0    0  0.10278657252E+02 -0.13323664455E+02  0.27084146458E+02  0.59301924375E+02  0.49999964158E+02 0.  0.
        -12    1    1    2    0    0 -0.10278657252E+02  0.13323664455E+02 -0.27084146458E+02  0.31886075625E+02  0.00000000000E+00 0.  1.
         11    1    3    3    0    0  0.38595805838E+01  0.19463179516E+01  0.89531430526E+01  0.99419961091E+01  0.51100000000E-03 0. -1.
        -11    1    3    3    0    0  0.22405364854E+02  0.18310566724E+01  0.81583484207E+01  0.23914677334E+02  0.51100000000E-03 0.  1.
         12    1    3    3    0    0 -0.15986288186E+02 -0.17101039079E+02  0.99726549846E+01  0.25445250932E+02  0.00000000000E+00 0. -1.
</event>
<event>
 7    1  0.6285940E-013  0.5930194E+02  0.7816164E-02  0.1266605E+00
        -11   -1    0    0    0    0  0.00000000000E+00  0.00000000000E+00  0.45593999997E+02  0.45594000000E+02  0.51100000000E-03 0.  1.
         11   -1    0    0    0    0 -0.00000000000E+00 -0.00000000000E+00 -0.45593999997E+02  0.45594000000E+02  0.51100000000E-03 0. -1.
    9900012    2    1    2    0    0 -0.28984370998E+02  0.56014191699E+00 -0.13278302247E+02  0.59301939853E+02  0.49999992387E+02 0.  0.
        -12    1    1    2    0    0  0.28984370998E+02 -0.56014191699E+00  0.13278302247E+02  0.31886060147E+02  0.00000000000E+00 0.  1.
         11    1    3    3    0    0 -0.35367520380E+02  0.49694666701E+01 -0.11555640702E+02  0.37537846624E+02  0.51100000000E-03 0. -1.
        -11    1    3    3    0    0 -0.73393311804E+01 -0.37542215179E+00 -0.12402958747E+01  0.74528557000E+01  0.51100000000E-03 0.  1.
        -12    1    3    3    0    0  0.13722480563E+02 -0.40339026013E+01 -0.48236566986E+00  0.14311237530E+02  0.00000000000E+00 0.  1.
</event>
<event>
 7    1  0.6285940E-013  0.5930188E+02  0.7816164E-02  0.1266605E+00
        -11   -1    0    0    0    0  0.00000000000E+00  0.00000000000E+00  0.45593999997E+02  0.45594000000E+02  0.51100000000E-03 0. -1.
         11   -1    0    0    0    0 -0.00000000000E+00 -0.00000000000E+00 -0.45593999997E+02  0.45594000000E+02  0.51100000000E-03 0.  1.
    9900012    2    1    2    0    0  0.17486356042E+02  0.22933224570E+02  0.13602182128E+02  0.59301877698E+02  0.49999879030E+02 0.  0.
        -12    1    1    2    0    0 -0.17486356042E+02 -0.22933224570E+02 -0.13602182128E+02  0.31886122302E+02  0.00000000000E+00 0.  1.
         11    1    3    3    0    0  0.17186761499E+02  0.23076473834E+02 -0.68890582736E+00  0.28781643576E+02  0.51100000000E-03 0. -1.
        -11    1    3    3    0    0 -0.10395068557E+02  0.24543270222E+01 -0.19936146028E+01  0.10865342649E+02  0.51100000000E-03 0.  1.
        -12    1    3    3    0    0  0.10694663100E+02 -0.25975762861E+01  0.16284702558E+02  0.19654891473E+02  0.00000000000E+00 0.  1.
</event>
<event>
 7    1  0.6285940E-013  0.5930195E+02  0.7816164E-02  0.1266605E+00
        -11   -1    0    0    0    0  0.00000000000E+00  0.00000000000E+00  0.45593999997E+02  0.45594000000E+02  0.51100000000E-03 0.  1.
         11   -1    0    0    0    0 -0.00000000000E+00 -0.00000000000E+00 -0.45593999997E+02  0.45594000000E+02  0.51100000000E-03 0. -1.
    9900012    2    1    2    0    0  0.13316657562E+02  0.15459512094E+02 -0.24502867781E+02  0.59301946430E+02  0.50000004381E+02 0.  0.
        -12    1    1    2    0    0 -0.13316657562E+02 -0.15459512094E+02  0.24502867781E+02  0.31886053570E+02  0.00000000000E+00 0.  1.
         11    1    3    3    0    0  0.34334216606E+01  0.88706309028E+01 -0.20796406338E+02  0.22868471610E+02  0.51100000000E-03 0. -1.
        -11    1    3    3    0    0 -0.44727173262E+01  0.17377809897E+02  0.64461733961E+00  0.17955751415E+02  0.51100000000E-03 0.  1.
        -12    1    3    3    0    0  0.14355953227E+02 -0.10788928706E+02 -0.43510787819E+01  0.18477723406E+02  0.00000000000E+00 0.  1.
</event>
<event>
 7    1  0.6285940E-013  0.5930192E+02  0.7816164E-02  0.1266605E+00
        -11   -1    0    0    0    0  0.00000000000E+00  0.00000000000E+00  0.45593999997E+02  0.45594000000E+02  0.51100000000E-03 0.  1.
         11   -1    0    0    0    0 -0.00000000000E+00 -0.00000000000E+00 -0.45593999997E+02  0.45594000000E+02  0.51100000000E-03 0. -1.
    9900012    2    1    2    0    0 -0.21905085605E+02  0.10629342758E+02 -0.20588989860E+02  0.59301918299E+02  0.49999953076E+02 0.  0.
        -12    1    1    2    0    0  0.21905085605E+02 -0.10629342758E+02  0.20588989860E+02  0.31886081701E+02  0.00000000000E+00 0.  1.
         11    1    3    3    0    0 -0.77050533496E+01 -0.80546615734E+01 -0.29451109158E+02  0.31489891252E+02  0.51100000000E-03 0. -1.
        -11    1    3    3    0    0 -0.44530029275E+00 -0.12043310187E+01 -0.10689951672E+01  0.16707652385E+01  0.51100000000E-03 0.  1.
        -12    1    3    3    0    0 -0.13754731963E+02  0.19888335350E+02  0.99311144658E+01  0.26141261808E+02  0.00000000000E+00 0.  1.
</event>
<event>
 7    1  0.6285940E-013  0.5930195E+02  0.7816164E-02  0.1266605E+00
        -11   -1    0    0    0    0  0.00000000000E+00  0.00000000000E+00  0.45593999997E+02  0.45594000000E+02  0.51100000000E-03 0.  1.
         11   -1    0    0    0    0 -0.00000000000E+00 -0.00000000000E+00 -0.45593999997E+02  0.45594000000E+02  0.51100000000E-03 0. -1.
    9900012    2    1    2    0    0  0.10189545932E+02  0.29666061032E+02  0.57286865568E+01  0.59301954884E+02  0.50000019799E+02 0.  0.
        -12    1    1    2    0    0 -0.10189545932E+02 -0.29666061032E+02 -0.57286865568E+01  0.31886045116E+02  0.00000000000E+00 0.  1.
         11    1    3    3    0    0 -0.20590951684E+01  0.25005610675E+02 -0.28748835223E+01  0.25254413350E+02  0.51100000000E-03 0. -1.
        -11    1    3    3    0    0  0.19874015497E+01  0.15939485321E+02  0.96921664121E+01  0.18760465006E+02  0.51100000000E-03 0.  1.
         12    1    3    3    0    0  0.10261239550E+02 -0.11279034963E+02 -0.10885963331E+01  0.15287076528E+02  0.00000000000E+00 0. -1.
</event>
<event>
 7    1  0.6285940E-013  0.5930200E+02  0.7816164E-02  0.1266605E+00
        -11   -1    0    0    0    0  0.00000000000E+00  0.00000000000E+00  0.45593999997E+02  0.45594000000E+02  0.51100000000E-03 0.  1.
         11   -1    0    0    0    0 -0.00000000000E+00 -0.00000000000E+00 -0.45593999997E+02  0.45594000000E+02  0.51100000000E-03 0. -1.
    9900012    2    1    2    0    0 -0.29638336831E+02  0.81159617614E+01 -0.85098398852E+01  0.59301996483E+02  0.50000095666E+02 0.  0.
        -12    1    1    2    0    0  0.29638336831E+02 -0.81159617614E+01  0.85098398852E+01  0.31886003517E+02  0.00000000000E+00 0.  1.
         11    1    3    3    0    0 -0.14950194226E+02  0.13284397071E+02 -0.68475019501E+01  0.21139342377E+02  0.51100000000E-03 0. -1.
        -11    1    3    3    0    0  0.32332917436E+01  0.76292528214E+01  0.10206124372E+02  0.13146278906E+02  0.51100000000E-03 0.  1.
         12    1    3    3    0    0 -0.17921434349E+02 -0.12797688131E+02 -0.11868462307E+02  0.25016375200E+02  0.00000000000E+00 0. -1.
</event>
<event>
 7    1  0.6285940E-013  0.5930193E+02  0.7816164E-02  0.1266605E+00
        -11   -1    0    0    0    0  0.00000000000E+00  0.00000000000E+00  0.45593999997E+02  0.45594000000E+02  0.51100000000E-03 0.  1.
         11   -1    0    0    0    0 -0.00000000000E+00 -0.00000000000E+00 -0.45593999997E+02  0.45594000000E+02  0.51100000000E-03 0. -1.
    9900012    2    1    2    0    0  0.22477818154E+02 -0.75262030002E+01 -0.21326633239E+02  0.59301932104E+02  0.49999978254E+02 0.  0.
        -12    1    1    2    0    0 -0.22477818154E+02  0.75262030002E+01  0.21326633239E+02  0.31886067896E+02  0.00000000000E+00 0.  1.
         11    1    3    3    0    0 -0.85345115880E+01  0.12550153116E+02  0.47943449166E+00  0.15184666245E+02  0.51100000000E-03 0. -1.
        -11    1    3    3    0    0  0.78418300423E+01 -0.10785888083E+02 -0.87004694015E+01  0.15922557841E+02  0.51100000000E-03 0.  1.
        -12    1    3    3    0    0  0.23170499700E+02 -0.92904680339E+01 -0.13105598329E+02  0.28194708017E+02  0.00000000000E+00 0.  1.
</event>
<event>
 7    1  0.6285940E-013  0.5930200E+02  0.7816164E-02  0.1266605E+00
        -11   -1    0    0    0    0  0.00000000000E+00  0.00000000000E+00  0.45593999997E+02  0.45594000000E+02  0.51100000000E-03 0.  1.
         11   -1    0    0    0    0 -0.00000000000E+00 -0.00000000000E+00 -0.45593999997E+02  0.45594000000E+02  0.51100000000E-03 0. -1.
    9900012    2    1    2    0    0  0.44594885849E+01  0.26187622576E+02 -0.17636281352E+02  0.59301999396E+02  0.50000100978E+02 0.  0.
        -12    1    1    2    0    0 -0.44594885849E+01 -0.26187622576E+02  0.17636281352E+02  0.31886000604E+02  0.00000000000E+00 0.  1.
         11    1    3    3    0    0  0.32691140447E+01  0.25391629091E+02 -0.50461666752E+01  0.26093787247E+02  0.51100000000E-03 0. -1.
        -11    1    3    3    0    0  0.10201422646E+02  0.52966125622E+01  0.53154585648E+01  0.12664013134E+02  0.51100000000E-03 0.  1.
         12    1    3    3    0    0 -0.90110481062E+01 -0.45006190768E+01 -0.17905573241E+02  0.20544199014E+02  0.00000000000E+00 0. -1.
</event>
<event>
 7    1  0.6285940E-013  0.5930193E+02  0.7816164E-02  0.1266605E+00
        -11   -1    0    0    0    0  0.00000000000E+00  0.00000000000E+00  0.45593999997E+02  0.45594000000E+02  0.51100000000E-03 0.  1.
         11   -1    0    0    0    0 -0.00000000000E+00 -0.00000000000E+00 -0.45593999997E+02  0.45594000000E+02  0.51100000000E-03 0. -1.
    9900012    2    1    2    0    0  0.17928810670E+02  0.15216689979E+02 -0.21534421381E+02  0.59301933918E+02  0.49999981563E+02 0.  0.
        -12    1    1    2    0    0 -0.17928810670E+02 -0.15216689979E+02  0.21534421381E+02  0.31886066082E+02  0.00000000000E+00 0.  1.
         11    1    3    3    0    0  0.15600075846E+01  0.12292284025E+02  0.38262410294E+01  0.12968191504E+02  0.51100000000E-03 0. -1.
        -11    1    3    3    0    0  0.16703562241E+01 -0.84973730753E+01  0.55249889696E+01  0.10272338705E+02  0.51100000000E-03 0.  1.
         12    1    3    3    0    0  0.14698446861E+02  0.11421779029E+02 -0.30885651380E+02  0.36061403709E+02  0.00000000000E+00 0. -1.
</event>
<event>
 7    1  0.6285940E-013  0.5930197E+02  0.7816164E-02  0.1266605E+00
        -11   -1    0    0    0    0  0.00000000000E+00  0.00000000000E+00  0.45593999997E+02  0.45594000000E+02  0.51100000000E-03 0. -1.
         11   -1    0    0    0    0 -0.00000000000E+00 -0.00000000000E+00 -0.45593999997E+02  0.45594000000E+02  0.51100000000E-03 0.  1.
    9900012    2    1    2    0    0 -0.19703310914E+02  0.15635082600E+02  0.19597010361E+02  0.59301967258E+02  0.50000042367E+02 0.  0.
        -12    1    1    2    0    0  0.19703310914E+02 -0.15635082600E+02 -0.19597010361E+02  0.31886032742E+02  0.00000000000E+00 0.  1.
         11    1    3    3    0    0 -0.13711451314E+02 -0.85723180413E+01  0.52521976550E+01  0.17002179690E+02  0.51100000000E-03 0. -1.
        -11    1    3    3    0    0 -0.31228004852E+01  0.12905493278E+02  0.23822808357E+02  0.27273243993E+02  0.51100000000E-03 0.  1.
        -12    1    3    3    0    0 -0.28690591148E+01  0.11301907364E+02 -0.94779956509E+01  0.15026543575E+02  0.00000000000E+00 0.  1.
</event>
<event>
 7    1  0.6285940E-013  0.5930196E+02  0.7816164E-02  0.1266605E+00
        -11   -1    0    0    0    0  0.00000000000E+00  0.00000000000E+00  0.45593999997E+02  0.45594000000E+02  0.51100000000E-03 0.  1.
         11   -1    0    0    0    0 -0.00000000000E+00 -0.00000000000E+00 -0.45593999997E+02  0.45594000000E+02  0.51100000000E-03 0. -1.
    9900012    2    1    2    0    0  0.30619468315E+02  0.88403383996E+01  0.10079049703E+01  0.59301963944E+02  0.50000036323E+02 0.  0.
        -12    1    1    2    0    0 -0.30619468315E+02 -0.88403383996E+01 -0.10079049703E+01  0.31886036056E+02  0.00000000000E+00 0.  1.
         11    1    3    3    0    0  0.13305731305E+02  0.17242900217E+02  0.27076428379E+01  0.21947469636E+02  0.51100000000E-03 0. -1.
        -11    1    3    3    0    0 -0.18331452017E+01  0.86807690619E+01 -0.68174177926E+01  0.11188983799E+02  0.51100000000E-03 0.  1.
        -12    1    3    3    0    0  0.19146882212E+02 -0.17083330879E+02  0.51176799250E+01  0.26165510509E+02  0.00000000000E+00 0.  1.
</event>
<event>
 7    1  0.6285940E-013  0.5930195E+02  0.7816164E-02  0.1266605E+00
        -11   -1    0    0    0    0  0.00000000000E+00  0.00000000000E+00  0.45593999997E+02  0.45594000000E+02  0.51100000000E-03 0.  1.
         11   -1    0    0    0    0 -0.00000000000E+00 -0.00000000000E+00 -0.45593999997E+02  0.45594000000E+02  0.51100000000E-03 0. -1.
    9900012    2    1    2    0    0 -0.75628242308E+01 -0.20371735910E+02 -0.23334867803E+02  0.59301953056E+02  0.50000016466E+02 0.  0.
        -12    1    1    2    0    0  0.75628242308E+01  0.20371735910E+02  0.23334867803E+02  0.31886046944E+02  0.00000000000E+00 0.  1.
         11    1    3    3    0    0  0.52705012594E+01 -0.15979687361E+02 -0.22992141856E+02  0.28491528198E+02  0.51100000000E-03 0. -1.
        -11    1    3    3    0    0 -0.15912885524E+01 -0.15031176771E+02  0.16479591603E+01  0.15204744129E+02  0.51100000000E-03 0.  1.
        -12    1    3    3    0    0 -0.11242036938E+02  0.10639128222E+02 -0.19906851073E+01  0.15605680729E+02  0.00000000000E+00 0.  1.
</event>
<event>
 7    1  0.6285940E-013  0.5930185E+02  0.7816164E-02  0.1266605E+00
        -11   -1    0    0    0    0  0.00000000000E+00  0.00000000000E+00  0.45593999997E+02  0.45594000000E+02  0.51100000000E-03 0.  1.
         11   -1    0    0    0    0 -0.00000000000E+00 -0.00000000000E+00 -0.45593999997E+02  0.45594000000E+02  0.51100000000E-03 0. -1.
    9900012    2    1    2    0    0 -0.20322834167E+02 -0.50047320342E+01 -0.24055391686E+02  0.59301846257E+02  0.49999821690E+02 0.  0.
        -12    1    1    2    0    0  0.20322834167E+02  0.50047320342E+01  0.24055391686E+02  0.31886153743E+02  0.00000000000E+00 0.  1.
         11    1    3    3    0    0  0.11317202508E+02  0.92955636198E+01 -0.37968944954E+01  0.15129540102E+02  0.51100000000E-03 0. -1.
        -11    1    3    3    0    0 -0.74664392188E+01 -0.61630253088E+00 -0.13724611752E+02  0.15636256311E+02  0.51100000000E-03 0.  1.
        -12    1    3    3    0    0 -0.24173597457E+02 -0.13683993123E+02 -0.65338854388E+01  0.28536049844E+02  0.00000000000E+00 0.  1.
</event>
<event>
 7    1  0.6285940E-013  0.5930196E+02  0.7816164E-02  0.1266605E+00
        -11   -1    0    0    0    0  0.00000000000E+00  0.00000000000E+00  0.45593999997E+02  0.45594000000E+02  0.51100000000E-03 0.  1.
         11   -1    0    0    0    0 -0.00000000000E+00 -0.00000000000E+00 -0.45593999997E+02  0.45594000000E+02  0.51100000000E-03 0. -1.
    9900012    2    1    2    0    0 -0.30667590899E+02  0.53320891847E+01 -0.69128278697E+01  0.59301960801E+02  0.50000030591E+02 0.  0.
        -12    1    1    2    0    0  0.30667590899E+02 -0.53320891847E+01  0.69128278697E+01  0.31886039199E+02  0.00000000000E+00 0.  1.
         11    1    3    3    0    0  0.56955357136E+01 -0.71617648592E+01 -0.86267253850E+01  0.12575786023E+02  0.51100000000E-03 0. -1.
        -11    1    3    3    0    0 -0.39720687205E+01  0.10428346836E+02 -0.69326670706E+01  0.13137336892E+02  0.51100000000E-03 0.  1.
        -12    1    3    3    0    0 -0.32391057892E+02  0.20655072079E+01  0.86465645860E+01  0.33588837886E+02  0.00000000000E+00 0.  1.
</event>
<event>
 7    1  0.6285940E-013  0.5930195E+02  0.7816164E-02  0.1266605E+00
        -11   -1    0    0    0    0  0.00000000000E+00  0.00000000000E+00  0.45593999997E+02  0.45594000000E+02  0.51100000000E-03 0. -1.
         11   -1    0    0    0    0 -0.00000000000E+00 -0.00000000000E+00 -0.45593999997E+02  0.45594000000E+02  0.51100000000E-03 0.  1.
    9900012    2    1    2    0    0 -0.30728333431E+02 -0.88946069245E+00  0.84674884081E+01  0.59301953276E+02  0.50000016866E+02 0.  0.
        -12    1    1    2    0    0  0.30728333431E+02  0.88946069245E+00 -0.84674884081E+01  0.31886046724E+02  0.00000000000E+00 0.  1.
         11    1    3    3    0    0  0.99394095473E+00  0.23034070556E+01  0.18643339287E+02  0.18811371633E+02  0.51100000000E-03 0. -1.
        -11    1    3    3    0    0  0.18601558968E+01 -0.41997222390E+01 -0.44751368105E+01  0.64128540120E+01  0.51100000000E-03 0.  1.
         12    1    3    3    0    0 -0.33582430282E+02  0.10068544909E+01 -0.57007140679E+01  0.34077727631E+02  0.00000000000E+00 0. -1.
</event>
<event>
 7    1  0.6285940E-013  0.5930193E+02  0.7816164E-02  0.1266605E+00
        -11   -1    0    0    0    0  0.00000000000E+00  0.00000000000E+00  0.45593999997E+02  0.45594000000E+02  0.51100000000E-03 0.  1.
         11   -1    0    0    0    0 -0.00000000000E+00 -0.00000000000E+00 -0.45593999997E+02  0.45594000000E+02  0.51100000000E-03 0. -1.
    9900012    2    1    2    0    0  0.21841082544E+02  0.19015043873E+02  0.13346026490E+02  0.59301934027E+02  0.49999981761E+02 0.  0.
        -12    1    1    2    0    0 -0.21841082544E+02 -0.19015043873E+02 -0.13346026490E+02  0.31886065973E+02  0.00000000000E+00 0.  1.
         11    1    3    3    0    0  0.13880378032E+02  0.15730877056E+02  0.10792781464E+02  0.23592573392E+02  0.51100000000E-03 0. -1.
        -11    1    3    3    0    0  0.99835646224E+01 -0.12598384569E+02  0.90310193889E+01  0.18437737600E+02  0.51100000000E-03 0.  1.
        -12    1    3    3    0    0 -0.20228601111E+01  0.15882551386E+02 -0.64777743630E+01  0.17271623035E+02  0.00000000000E+00 0.  1.
</event>
<event>
 7    1  0.6285940E-013  0.5930202E+02  0.7816164E-02  0.1266605E+00
        -11   -1    0    0    0    0  0.00000000000E+00  0.00000000000E+00  0.45593999997E+02  0.45594000000E+02  0.51100000000E-03 0. -1.
         11   -1    0    0    0    0 -0.00000000000E+00 -0.00000000000E+00 -0.45593999997E+02  0.45594000000E+02  0.51100000000E-03 0.  1.
    9900012    2    1    2    0    0 -0.26104474659E+01  0.26719391420E+02  0.17203943054E+02  0.59302016082E+02  0.50000131409E+02 0.  0.
        -12    1    1    2    0    0  0.26104474659E+01 -0.26719391420E+02 -0.17203943054E+02  0.31885983918E+02  0.00000000000E+00 0.  1.
         11    1    3    3    0    0  0.28461179768E+01  0.14131181755E+02  0.36025645953E+01  0.14858302637E+02  0.51100000000E-03 0. -1.
        -11    1    3    3    0    0  0.16013259196E+02  0.10448231570E+02  0.35095176367E+00  0.19123628851E+02  0.51100000000E-03 0.  1.
         12    1    3    3    0    0 -0.21469824638E+02  0.21399780951E+01  0.13250426695E+02  0.25320084594E+02  0.00000000000E+00 0. -1.
</event>
<event>
 7    1  0.6285940E-013  0.5930195E+02  0.7816164E-02  0.1266605E+00
        -11   -1    0    0    0    0  0.00000000000E+00  0.00000000000E+00  0.45593999997E+02  0.45594000000E+02  0.51100000000E-03 0.  1.
         11   -1    0    0    0    0 -0.00000000000E+00 -0.00000000000E+00 -0.45593999997E+02  0.45594000000E+02  0.51100000000E-03 0. -1.
    9900012    2    1    2    0    0 -0.15192938419E+02 -0.27232039852E+02 -0.66566320811E+01  0.59301950966E+02  0.50000012655E+02 0.  0.
        -12    1    1    2    0    0  0.15192938419E+02  0.27232039852E+02  0.66566320811E+01  0.31886049034E+02  0.00000000000E+00 0.  1.
         11    1    3    3    0    0 -0.30544173385E+00 -0.20379938588E+02  0.59274365476E+01  0.21226627047E+02  0.51100000000E-03 0. -1.
        -11    1    3    3    0    0 -0.16263517110E+02 -0.14157246576E+02  0.20520417453E+01  0.21659651313E+02  0.51100000000E-03 0.  1.
        -12    1    3    3    0    0  0.13760204253E+01  0.73051453120E+01 -0.14636110374E+02  0.16415672606E+02  0.00000000000E+00 0.  1.
</event>
<event>
 7    1  0.6285940E-013  0.5930195E+02  0.7816164E-02  0.1266605E+00
        -11   -1    0    0    0    0  0.00000000000E+00  0.00000000000E+00  0.45593999997E+02  0.45594000000E+02  0.51100000000E-03 0.  1.
         11   -1    0    0    0    0 -0.00000000000E+00 -0.00000000000E+00 -0.45593999997E+02  0.45594000000E+02  0.51100000000E-03 0. -1.
    9900012    2    1    2    0    0 -0.45668734959E+01  0.27954770945E+02  0.14642227616E+02  0.59301946909E+02  0.50000005255E+02 0.  0.
        -12    1    1    2    0    0  0.45668734959E+01 -0.27954770945E+02 -0.14642227616E+02  0.31886053091E+02  0.00000000000E+00 0.  1.
         11    1    3    3    0    0 -0.16624886131E+02  0.67629290535E+01 -0.65489591305E+00  0.17959758829E+02  0.51100000000E-03 0. -1.
        -11    1    3    3    0    0  0.67591694281E+01 -0.49753062715E+01 -0.30694207395E+01  0.89365198925E+01  0.51100000000E-03 0.  1.
        -12    1    3    3    0    0  0.52988432075E+01  0.26167148163E+02  0.18366544269E+02  0.32405668188E+02  0.00000000000E+00 0.  1.
</event>
<event>
 7    1  0.6285940E-013  0.5930197E+02  0.7816164E-02  0.1266605E+00
        -11   -1    0    0    0    0  0.00000000000E+00  0.00000000000E+00  0.45593999997E+02  0.45594000000E+02  0.51100000000E-03 0.  1.
         11   -1    0    0    0    0 -0.00000000000E+00 -0.00000000000E+00 -0.45593999997E+02  0.45594000000E+02  0.51100000000E-03 0. -1.
    9900012    2    1    2    0    0  0.14402359437E+02  0.71360474367E+01 -0.27538479840E+02  0.59301968540E+02  0.50000044704E+02 0.  0.
        -12    1    1    2    0    0 -0.14402359437E+02 -0.71360474367E+01  0.27538479840E+02  0.31886031460E+02  0.00000000000E+00 0.  1.
         11    1    3    3    0    0  0.19835239282E+01  0.24093085439E+01 -0.30829994358E+02  0.30987540838E+02  0.51100000000E-03 0. -1.
        -11    1    3    3    0    0 -0.63848419059E+01  0.26839421525E+01  0.60546154582E+01  0.91993543387E+01  0.51100000000E-03 0.  1.
        -12    1    3    3    0    0  0.18803677415E+02  0.20427967403E+01 -0.27631009406E+01  0.19115073363E+02  0.00000000000E+00 0.  1.
</event>
<event>
 7    1  0.9367333E-013  0.5930197E+02  0.7816164E-02  0.1266605E+00
        -11   -1    0    0    0    0  0.00000000000E+00  0.00000000000E+00  0.45593999997E+02  0.45594000000E+02  0.51100000000E-03 0. -1.
         11   -1    0    0    0    0 -0.00000000000E+00 -0.00000000000E+00 -0.45593999997E+02  0.45594000000E+02  0.51100000000E-03 0.  1.
    9900012    2    1    2    0    0  0.17580191528E+02  0.23151600701E+02  0.13101887465E+02  0.59301965372E+02  0.50000038927E+02 0.  0.
        -12    1    1    2    0    0 -0.17580191528E+02 -0.23151600701E+02 -0.13101887465E+02  0.31886034628E+02  0.00000000000E+00 0.  1.
         11    1    3    3    0    0  0.17253887186E+02  0.33085403466E+01  0.10185756008E+02  0.20307454000E+02  0.51100000000E-03 0. -1.
        -11    1    3    3    0    0  0.10284465629E+02  0.57470473452E+00 -0.94915735145E+01  0.14006801450E+02  0.51100000000E-03 0.  1.
        -12    1    3    3    0    0 -0.99581612870E+01  0.19268355620E+02  0.12407704971E+02  0.24987709922E+02  0.00000000000E+00 0.  1.
</event>
<event>
 7    1  0.6285940E-013  0.5930196E+02  0.7816164E-02  0.1266605E+00
        -11   -1    0    0    0    0  0.00000000000E+00  0.00000000000E+00  0.45593999997E+02  0.45594000000E+02  0.51100000000E-03 0.  1.
         11   -1    0    0    0    0 -0.00000000000E+00 -0.00000000000E+00 -0.45593999997E+02  0.45594000000E+02  0.51100000000E-03 0. -1.
    9900012    2    1    2    0    0 -0.21768212371E+02  0.85165010113E+01 -0.21687174719E+02  0.59301962200E+02  0.50000033141E+02 0.  0.
        -12    1    1    2    0    0  0.21768212371E+02 -0.85165010113E+01  0.21687174719E+02  0.31886037800E+02  0.00000000000E+00 0.  1.
         11    1    3    3    0    0 -0.12220622253E+02  0.22199526143E+02 -0.12889617102E+02  0.28430701688E+02  0.51100000000E-03 0. -1.
        -11    1    3    3    0    0 -0.11053707059E+02  0.34836393593E+01 -0.70134672250E+01  0.13546545896E+02  0.51100000000E-03 0.  1.
        -12    1    3    3    0    0  0.15061169407E+01 -0.17166664491E+02 -0.17840903924E+01  0.17324714615E+02  0.00000000000E+00 0.  1.
</event>
<event>
 7    1  0.6285940E-013  0.5930197E+02  0.7816164E-02  0.1266605E+00
        -11   -1    0    0    0    0  0.00000000000E+00  0.00000000000E+00  0.45593999997E+02  0.45594000000E+02  0.51100000000E-03 0. -1.
         11   -1    0    0    0    0 -0.00000000000E+00 -0.00000000000E+00 -0.45593999997E+02  0.45594000000E+02  0.51100000000E-03 0.  1.
    9900012    2    1    2    0    0  0.27377086715E+02  0.12985401356E+02  0.99294210215E+01  0.59301969717E+02  0.50000046851E+02 0.  0.
        -12    1    1    2    0    0 -0.27377086715E+02 -0.12985401356E+02 -0.99294210215E+01  0.31886030283E+02  0.00000000000E+00 0.  1.
         11    1    3    3    0    0  0.18263295861E+02  0.70136591807E+01  0.12821812858E+02  0.23390987068E+02  0.51100000000E-03 0. -1.
        -11    1    3    3    0    0 -0.13420351537E+01 -0.28880086122E+01  0.13886212002E+02  0.14246702640E+02  0.51100000000E-03 0.  1.
        -12    1    3    3    0    0  0.10455826008E+02  0.88597507875E+01 -0.16778603838E+02  0.21664280009E+02  0.00000000000E+00 0.  1.
</event>
<event>
 7    1  0.6285940E-013  0.5930195E+02  0.7816164E-02  0.1266605E+00
        -11   -1    0    0    0    0  0.00000000000E+00  0.00000000000E+00  0.45593999997E+02  0.45594000000E+02  0.51100000000E-03 0.  1.
         11   -1    0    0    0    0 -0.00000000000E+00 -0.00000000000E+00 -0.45593999997E+02  0.45594000000E+02  0.51100000000E-03 0. -1.
    9900012    2    1    2    0    0 -0.41148855590E+01 -0.10096360249E+02 -0.29964169661E+02  0.59301949180E+02  0.50000009396E+02 0.  0.
        -12    1    1    2    0    0  0.41148855590E+01  0.10096360249E+02  0.29964169661E+02  0.31886050820E+02  0.00000000000E+00 0.  1.
         11    1    3    3    0    0  0.11369022712E+02 -0.82948626156E+01  0.80122819498E+01  0.16194322633E+02  0.51100000000E-03 0. -1.
        -11    1    3    3    0    0  0.18725376077E+01  0.12571548837E+01 -0.18709455125E+01  0.29304048979E+01  0.51100000000E-03 0.  1.
         12    1    3    3    0    0 -0.17356445879E+02 -0.30586525173E+01 -0.36105506098E+02  0.40177221649E+02  0.00000000000E+00 0. -1.
</event>
<event>
 7    1  0.6285940E-013  0.5930197E+02  0.7816164E-02  0.1266605E+00
        -11   -1    0    0    0    0  0.00000000000E+00  0.00000000000E+00  0.45593999997E+02  0.45594000000E+02  0.51100000000E-03 0. -1.
         11   -1    0    0    0    0 -0.00000000000E+00 -0.00000000000E+00 -0.45593999997E+02  0.45594000000E+02  0.51100000000E-03 0.  1.
    9900012    2    1    2    0    0 -0.13802284482E+02 -0.28508101947E+02  0.36747970703E+01  0.59301967524E+02  0.50000042852E+02 0.  0.
        -12    1    1    2    0    0  0.13802284482E+02  0.28508101947E+02 -0.36747970703E+01  0.31886032476E+02  0.00000000000E+00 0.  1.
         11    1    3    3    0    0  0.25225106516E+01 -0.75646584100E+01 -0.70029626815E+01  0.10612662410E+02  0.51100000000E-03 0. -1.
        -11    1    3    3    0    0  0.12987018057E+02 -0.83080075470E+01  0.15739138129E+01  0.15497187886E+02  0.51100000000E-03 0.  1.
         12    1    3    3    0    0 -0.29311813191E+02 -0.12635435990E+02  0.91038459388E+01  0.33192117228E+02  0.00000000000E+00 0. -1.
</event>
<event>
 7    1  0.6285940E-013  0.5930194E+02  0.7816164E-02  0.1266605E+00
        -11   -1    0    0    0    0  0.00000000000E+00  0.00000000000E+00  0.45593999997E+02  0.45594000000E+02  0.51100000000E-03 0.  1.
         11   -1    0    0    0    0 -0.00000000000E+00 -0.00000000000E+00 -0.45593999997E+02  0.45594000000E+02  0.51100000000E-03 0. -1.
    9900012    2    1    2    0    0  0.55207034025E+01  0.14943084244E+02 -0.27621495319E+02  0.59301938210E+02  0.49999989390E+02 0.  0.
        -12    1    1    2    0    0 -0.55207034025E+01 -0.14943084244E+02  0.27621495319E+02  0.31886061790E+02  0.00000000000E+00 0.  1.
         11    1    3    3    0    0  0.10924152189E+02  0.17208806051E+00 -0.20263199295E+02  0.23020946142E+02  0.51100000000E-03 0. -1.
        -11    1    3    3    0    0 -0.23857898699E+01  0.56350401268E+00 -0.18068935466E+02  0.18234471728E+02  0.51100000000E-03 0.  1.
         12    1    3    3    0    0 -0.30176589163E+01  0.14207492171E+02  0.10710639441E+02  0.18046520340E+02  0.00000000000E+00 0. -1.
</event>
<event>
 7    1  0.6285940E-013  0.5930196E+02  0.7816164E-02  0.1266605E+00
        -11   -1    0    0    0    0  0.00000000000E+00  0.00000000000E+00  0.45593999997E+02  0.45594000000E+02  0.51100000000E-03 0. -1.
         11   -1    0    0    0    0 -0.00000000000E+00 -0.00000000000E+00 -0.45593999997E+02  0.45594000000E+02  0.51100000000E-03 0.  1.
    9900012    2    1    2    0    0  0.34724742261E+01 -0.31674409897E+02  0.11804693155E+01  0.59301955602E+02  0.50000021108E+02 0.  0.
        -12    1    1    2    0    0 -0.34724742261E+01  0.31674409897E+02 -0.11804693155E+01  0.31886044398E+02  0.00000000000E+00 0.  1.
         11    1    3    3    0    0 -0.84968372182E+01 -0.35005649429E+02  0.70903682061E+01  0.36713281741E+02  0.51100000000E-03 0. -1.
        -11    1    3    3    0    0 -0.52080373894E+00 -0.27920939964E+01  0.44258095650E+01  0.52587846492E+01  0.51100000000E-03 0.  1.
        -12    1    3    3    0    0  0.12490115183E+02  0.61233335285E+01 -0.10335708456E+02  0.17329889211E+02  0.00000000000E+00 0.  1.
</event>
<event>
 7    1  0.6285940E-013  0.5930196E+02  0.7816164E-02  0.1266605E+00
        -11   -1    0    0    0    0  0.00000000000E+00  0.00000000000E+00  0.45593999997E+02  0.45594000000E+02  0.51100000000E-03 0.  1.
         11   -1    0    0    0    0 -0.00000000000E+00 -0.00000000000E+00 -0.45593999997E+02  0.45594000000E+02  0.51100000000E-03 0. -1.
    9900012    2    1    2    0    0 -0.72710241632E+01  0.27455551260E+02 -0.14492906617E+02  0.59301961839E+02  0.50000032483E+02 0.  0.
        -12    1    1    2    0    0  0.72710241632E+01 -0.27455551260E+02  0.14492906617E+02  0.31886038161E+02  0.00000000000E+00 0.  1.
         11    1    3    3    0    0 -0.51106111451E+01  0.18697585849E+02 -0.15241072998E+02  0.24657825721E+02  0.51100000000E-03 0. -1.
        -11    1    3    3    0    0 -0.13825773490E+02  0.14546994074E+02 -0.45607854998E+01  0.20580763198E+02  0.51100000000E-03 0.  1.
         12    1    3    3    0    0  0.11665360472E+02 -0.57890286628E+01  0.53089518808E+01  0.14063372920E+02  0.00000000000E+00 0. -1.
</event>
<event>
 7    1  0.6285940E-013  0.5930198E+02  0.7816164E-02  0.1266605E+00
        -11   -1    0    0    0    0  0.00000000000E+00  0.00000000000E+00  0.45593999997E+02  0.45594000000E+02  0.51100000000E-03 0. -1.
         11   -1    0    0    0    0 -0.00000000000E+00 -0.00000000000E+00 -0.45593999997E+02  0.45594000000E+02  0.51100000000E-03 0.  1.
    9900012    2    1    2    0    0 -0.31198680924E+02  0.55849546707E+01 -0.34883811423E+01  0.59301980915E+02  0.50000067274E+02 0.  0.
        -12    1    1    2    0    0  0.31198680924E+02 -0.55849546707E+01  0.34883811423E+01  0.31886019085E+02  0.00000000000E+00 0.  1.
         11    1    3    3    0    0 -0.19702259863E+02  0.11293651855E+02  0.67739873602E+01  0.23698365365E+02  0.51100000000E-03 0. -1.
        -11    1    3    3    0    0  0.95074377968E+01  0.47497553688E+01 -0.30695808570E+01  0.11062272661E+02  0.51100000000E-03 0.  1.
         12    1    3    3    0    0 -0.21003858857E+02 -0.10458452554E+02 -0.71927876455E+01  0.24541342890E+02  0.00000000000E+00 0. -1.
</event>
<event>
 7    1  0.6285940E-013  0.5930193E+02  0.7816164E-02  0.1266605E+00
        -11   -1    0    0    0    0  0.00000000000E+00  0.00000000000E+00  0.45593999997E+02  0.45594000000E+02  0.51100000000E-03 0. -1.
         11   -1    0    0    0    0 -0.00000000000E+00 -0.00000000000E+00 -0.45593999997E+02  0.45594000000E+02  0.51100000000E-03 0.  1.
    9900012    2    1    2    0    0 -0.13110551131E+02 -0.11854524330E+02  0.26538746752E+02  0.59301931299E+02  0.49999976785E+02 0.  0.
        -12    1    1    2    0    0  0.13110551131E+02  0.11854524330E+02 -0.26538746752E+02  0.31886068701E+02  0.00000000000E+00 0.  1.
         11    1    3    3    0    0 -0.44821167286E+01 -0.11493048964E+01  0.10361760302E+02  0.11347966731E+02  0.51100000000E-03 0. -1.
        -11    1    3    3    0    0  0.96647382320E+00  0.10055513320E+02 -0.92904569125E+01  0.13724431124E+02  0.51100000000E-03 0.  1.
         12    1    3    3    0    0 -0.95949082257E+01 -0.20760732754E+02  0.25467443363E+02  0.34229533444E+02  0.00000000000E+00 0. -1.
</event>
<event>
 7    1  0.6285940E-013  0.5930191E+02  0.7816164E-02  0.1266605E+00
        -11   -1    0    0    0    0  0.00000000000E+00  0.00000000000E+00  0.45593999997E+02  0.45594000000E+02  0.51100000000E-03 0. -1.
         11   -1    0    0    0    0 -0.00000000000E+00 -0.00000000000E+00 -0.45593999997E+02  0.45594000000E+02  0.51100000000E-03 0.  1.
    9900012    2    1    2    0    0  0.57377602691E+01 -0.11426050795E+02  0.29210373360E+02  0.59301914610E+02  0.49999946350E+02 0.  0.
        -12    1    1    2    0    0 -0.57377602691E+01  0.11426050795E+02 -0.29210373360E+02  0.31886085390E+02  0.00000000000E+00 0.  1.
         11    1    3    3    0    0  0.77561251839E+01  0.17890665792E+00  0.89825419451E+01  0.11869100451E+02  0.51100000000E-03 0. -1.
        -11    1    3    3    0    0  0.30361890372E+01  0.14552374293E+02  0.13199598597E+02  0.19880126881E+02  0.51100000000E-03 0.  1.
        -12    1    3    3    0    0 -0.50545539520E+01 -0.26157331746E+02  0.70282328176E+01  0.27552687278E+02  0.00000000000E+00 0.  1.
</event>
<event>
 7    1  0.6546341E-013  0.5930191E+02  0.7816164E-02  0.1266605E+00
        -11   -1    0    0    0    0  0.00000000000E+00  0.00000000000E+00  0.45593999997E+02  0.45594000000E+02  0.51100000000E-03 0.  1.
         11   -1    0    0    0    0 -0.00000000000E+00 -0.00000000000E+00 -0.45593999997E+02  0.45594000000E+02  0.51100000000E-03 0. -1.
    9900012    2    1    2    0    0  0.18706700717E+02 -0.24706511179E+02 -0.75080220961E+01  0.59301909896E+02  0.49999937751E+02 0.  0.
        -12    1    1    2    0    0 -0.18706700717E+02  0.24706511179E+02  0.75080220961E+01  0.31886090104E+02  0.00000000000E+00 0.  1.
         11    1    3    3    0    0  0.22898994951E+02 -0.14238630490E+02 -0.12178482986E+02  0.29587463834E+02  0.51100000000E-03 0. -1.
        -11    1    3    3    0    0  0.10549471199E+02 -0.33020152695E+01  0.71091991293E+01  0.13142882482E+02  0.51100000000E-03 0.  1.
        -12    1    3    3    0    0 -0.14741765433E+02 -0.71658654188E+01 -0.24387382398E+01  0.16571563580E+02  0.00000000000E+00 0.  1.
</event>
<event>
 7    1  0.6285940E-013  0.5930195E+02  0.7816164E-02  0.1266605E+00
        -11   -1    0    0    0    0  0.00000000000E+00  0.00000000000E+00  0.45593999997E+02  0.45594000000E+02  0.51100000000E-03 0.  1.
         11   -1    0    0    0    0 -0.00000000000E+00 -0.00000000000E+00 -0.45593999997E+02  0.45594000000E+02  0.51100000000E-03 0. -1.
    9900012    2    1    2    0    0 -0.38676835247E+01  0.47936922335E+01 -0.31285486778E+02  0.59301950636E+02  0.50000012052E+02 0.  0.
        -12    1    1    2    0    0  0.38676835247E+01 -0.47936922335E+01  0.31285486778E+02  0.31886049364E+02  0.00000000000E+00 0.  1.
         11    1    3    3    0    0  0.90128221605E+01  0.13513206631E+02 -0.10341941105E+02  0.19255998100E+02  0.51100000000E-03 0.  1.
        -11    1    3    3    0    0  0.90563722182E+01 -0.25033170672E+01 -0.12706354722E+02  0.15803035299E+02  0.51100000000E-03 0. -1.
        -12    1    3    3    0    0 -0.21936877903E+02 -0.62161973300E+01 -0.82371909517E+01  0.24242917237E+02  0.00000000000E+00 0.  1.
</event>
<event>
 7    1  0.6285940E-013  0.5930196E+02  0.7816164E-02  0.1266605E+00
        -11   -1    0    0    0    0  0.00000000000E+00  0.00000000000E+00  0.45593999997E+02  0.45594000000E+02  0.51100000000E-03 0. -1.
         11   -1    0    0    0    0 -0.00000000000E+00 -0.00000000000E+00 -0.45593999997E+02  0.45594000000E+02  0.51100000000E-03 0.  1.
    9900012    2    1    2    0    0 -0.44247985050E+01  0.20331945162E+02  0.24160978932E+02  0.59301956990E+02  0.50000023641E+02 0.  0.
        -12    1    1    2    0    0  0.44247985050E+01 -0.20331945162E+02 -0.24160978932E+02  0.31886043010E+02  0.00000000000E+00 0.  1.
         11    1    3    3    0    0  0.91022759823E+01  0.72091042338E+01  0.11341155283E+02  0.16230970868E+02  0.51100000000E-03 0. -1.
        -11    1    3    3    0    0  0.12188583239E+02  0.56664513777E+01  0.13189889899E+00  0.13442009901E+02  0.51100000000E-03 0.  1.
        -12    1    3    3    0    0 -0.25715657727E+02  0.74563895503E+01  0.12687924750E+02  0.29628976221E+02  0.00000000000E+00 0.  1.
</event>
<event>
 7    1  0.6285940E-013  0.5930195E+02  0.7816164E-02  0.1266605E+00
        -11   -1    0    0    0    0  0.00000000000E+00  0.00000000000E+00  0.45593999997E+02  0.45594000000E+02  0.51100000000E-03 0.  1.
         11   -1    0    0    0    0 -0.00000000000E+00 -0.00000000000E+00 -0.45593999997E+02  0.45594000000E+02  0.51100000000E-03 0. -1.
    9900012    2    1    2    0    0  0.24274164268E+02  0.20282587032E+02  0.40127419708E+01  0.59301945278E+02  0.50000002280E+02 0.  0.
        -12    1    1    2    0    0 -0.24274164268E+02 -0.20282587032E+02 -0.40127419708E+01  0.31886054722E+02  0.00000000000E+00 0.  1.
         11    1    3    3    0    0  0.30046159679E+01 -0.80140557188E+00  0.15181547144E+02  0.15496752626E+02  0.51100000000E-03 0. -1.
        -11    1    3    3    0    0 -0.60397852441E+01  0.66170536245E+01  0.34716874452E+01  0.96081745635E+01  0.51100000000E-03 0.  1.
         12    1    3    3    0    0  0.27309333544E+02  0.14466938980E+02 -0.14640492618E+02  0.34197018089E+02  0.00000000000E+00 0. -1.
</event>
<event>
 7    1  0.6285940E-013  0.5930193E+02  0.7816164E-02  0.1266605E+00
        -11   -1    0    0    0    0  0.00000000000E+00  0.00000000000E+00  0.45593999997E+02  0.45594000000E+02  0.51100000000E-03 0.  1.
         11   -1    0    0    0    0 -0.00000000000E+00 -0.00000000000E+00 -0.45593999997E+02  0.45594000000E+02  0.51100000000E-03 0. -1.
    9900012    2    1    2    0    0  0.24827723588E+02  0.68004260131E+01 -0.18816471754E+02  0.59301933109E+02  0.49999980086E+02 0.  0.
        -12    1    1    2    0    0 -0.24827723588E+02 -0.68004260131E+01  0.18816471754E+02  0.31886066891E+02  0.00000000000E+00 0.  1.
         11    1    3    3    0    0  0.69879296166E+00 -0.27125876532E+01 -0.16506102476E+02  0.16742098512E+02  0.51100000000E-03 0. -1.
        -11    1    3    3    0    0 -0.37272871401E+01 -0.32480155255E+00  0.99076957220E+01  0.10590590175E+02  0.51100000000E-03 0.  1.
        -12    1    3    3    0    0  0.27856217766E+02  0.98378152188E+01 -0.12218065000E+02  0.31969244421E+02  0.00000000000E+00 0.  1.
</event>
<event>
 7    1  0.6285940E-013  0.5930195E+02  0.7816164E-02  0.1266605E+00
        -11   -1    0    0    0    0  0.00000000000E+00  0.00000000000E+00  0.45593999997E+02  0.45594000000E+02  0.51100000000E-03 0.  1.
         11   -1    0    0    0    0 -0.00000000000E+00 -0.00000000000E+00 -0.45593999997E+02  0.45594000000E+02  0.51100000000E-03 0. -1.
    9900012    2    1    2    0    0 -0.14037456464E+01  0.45901450652E+01 -0.31522690279E+02  0.59301953898E+02  0.50000018002E+02 0.  0.
        -12    1    1    2    0    0  0.14037456464E+01 -0.45901450652E+01  0.31522690279E+02  0.31886046102E+02  0.00000000000E+00 0.  1.
         11    1    3    3    0    0 -0.42931507738E+01 -0.47991005965E+01  0.25546053212E+01  0.69273745900E+01  0.51100000000E-03 0. -1.
        -11    1    3    3    0    0  0.10170943675E+02  0.18361446624E+02 -0.57234442307E+01  0.21756576741E+02  0.51100000000E-03 0.  1.
         12    1    3    3    0    0 -0.72815385480E+01 -0.89722009619E+01 -0.28353851370E+02  0.30618002567E+02  0.00000000000E+00 0. -1.
</event>
<event>
 7    1  0.6285940E-013  0.5930195E+02  0.7816164E-02  0.1266605E+00
        -11   -1    0    0    0    0  0.00000000000E+00  0.00000000000E+00  0.45593999997E+02  0.45594000000E+02  0.51100000000E-03 0.  1.
         11   -1    0    0    0    0 -0.00000000000E+00 -0.00000000000E+00 -0.45593999997E+02  0.45594000000E+02  0.51100000000E-03 0. -1.
    9900012    2    1    2    0    0 -0.14208479092E+02 -0.27908236526E+02 -0.59974658103E+01  0.59301950696E+02  0.50000012160E+02 0.  0.
        -12    1    1    2    0    0  0.14208479092E+02  0.27908236526E+02  0.59974658103E+01  0.31886049304E+02  0.00000000000E+00 0.  1.
         11    1    3    3    0    0 -0.17867364576E+02 -0.43883368487E+01 -0.11919533074E+02  0.21922031981E+02  0.51100000000E-03 0. -1.
        -11    1    3    3    0    0 -0.50473938778E+01  0.12566536190E+01  0.95442540949E+01  0.10869597498E+02  0.51100000000E-03 0.  1.
        -12    1    3    3    0    0  0.87062793621E+01 -0.24776553296E+02 -0.36221868308E+01  0.26510321217E+02  0.00000000000E+00 0.  1.
</event>
<event>
 7    1  0.6285940E-013  0.5930194E+02  0.7816164E-02  0.1266605E+00
        -11   -1    0    0    0    0  0.00000000000E+00  0.00000000000E+00  0.45593999997E+02  0.45594000000E+02  0.51100000000E-03 0.  1.
         11   -1    0    0    0    0 -0.00000000000E+00 -0.00000000000E+00 -0.45593999997E+02  0.45594000000E+02  0.51100000000E-03 0. -1.
    9900012    2    1    2    0    0 -0.31451352928E+02 -0.44530178960E+01 -0.27756074563E+01  0.59301937745E+02  0.49999988543E+02 0.  0.
        -12    1    1    2    0    0  0.31451352928E+02  0.44530178960E+01  0.27756074563E+01  0.31886062255E+02  0.00000000000E+00 0.  1.
         11    1    3    3    0    0 -0.27459586780E+02  0.16938719097E+02  0.41347306781E+01  0.32527605335E+02  0.51100000000E-03 0. -1.
        -11    1    3    3    0    0 -0.18138070798E+01 -0.71881227566E+00  0.31307359293E+01  0.36889151428E+01  0.51100000000E-03 0.  1.
        -12    1    3    3    0    0 -0.21779590677E+01 -0.20672924717E+02 -0.10041074064E+02  0.23085417268E+02  0.00000000000E+00 0.  1.
</event>
<event>
 7    1  0.6285940E-013  0.5930194E+02  0.7816164E-02  0.1266605E+00
        -11   -1    0    0    0    0  0.00000000000E+00  0.00000000000E+00  0.45593999997E+02  0.45594000000E+02  0.51100000000E-03 0.  1.
         11   -1    0    0    0    0 -0.00000000000E+00 -0.00000000000E+00 -0.45593999997E+02  0.45594000000E+02  0.51100000000E-03 0. -1.
    9900012    2    1    2    0    0 -0.26768119621E+02 -0.61968737068E+01  0.16179853771E+02  0.59301935021E+02  0.49999983574E+02 0.  0.
        -12    1    1    2    0    0  0.26768119621E+02  0.61968737068E+01 -0.16179853771E+02  0.31886064979E+02  0.00000000000E+00 0.  1.
         11    1    3    3    0    0 -0.12806637301E+02 -0.46227592848E+01  0.20971679614E+02  0.25003823877E+02  0.51100000000E-03 0. -1.
        -11    1    3    3    0    0  0.93229390070E+01  0.33222149954E+01  0.54900679953E+00  0.99124019759E+01  0.51100000000E-03 0.  1.
        -12    1    3    3    0    0 -0.23284421327E+02 -0.48963294174E+01 -0.53408326426E+01  0.24385709168E+02  0.00000000000E+00 0.  1.
</event>
<event>
 7    1  0.6285940E-013  0.5930193E+02  0.7816164E-02  0.1266605E+00
        -11   -1    0    0    0    0  0.00000000000E+00  0.00000000000E+00  0.45593999997E+02  0.45594000000E+02  0.51100000000E-03 0. -1.
         11   -1    0    0    0    0 -0.00000000000E+00 -0.00000000000E+00 -0.45593999997E+02  0.45594000000E+02  0.51100000000E-03 0.  1.
    9900012    2    1    2    0    0  0.62550859806E+00 -0.66709128273E+01  0.31174177932E+02  0.59301926101E+02  0.49999967306E+02 0.  0.
        -12    1    1    2    0    0 -0.62550859806E+00  0.66709128273E+01 -0.31174177932E+02  0.31886073899E+02  0.00000000000E+00 0.  1.
         11    1    3    3    0    0 -0.83358267214E+01  0.71618236196E+01  0.68545938764E+01  0.12952342729E+02  0.51100000000E-03 0.  1.
        -11    1    3    3    0    0  0.12695127646E+02  0.94629889707E+01  0.10653626349E+02  0.19084396266E+02  0.51100000000E-03 0. -1.
         12    1    3    3    0    0 -0.37337923265E+01 -0.23295725418E+02  0.13665957707E+02  0.27265187106E+02  0.00000000000E+00 0. -1.
</event>
<event>
 7    1  0.6285940E-013  0.5930198E+02  0.7816164E-02  0.1266605E+00
        -11   -1    0    0    0    0  0.00000000000E+00  0.00000000000E+00  0.45593999997E+02  0.45594000000E+02  0.51100000000E-03 0. -1.
         11   -1    0    0    0    0 -0.00000000000E+00 -0.00000000000E+00 -0.45593999997E+02  0.45594000000E+02  0.51100000000E-03 0.  1.
    9900012    2    1    2    0    0 -0.15612132812E+02 -0.27571024661E+02 -0.35802313041E+01  0.59301981935E+02  0.50000069135E+02 0.  0.
        -12    1    1    2    0    0  0.15612132812E+02  0.27571024661E+02  0.35802313041E+01  0.31886018065E+02  0.00000000000E+00 0.  1.
         11    1    3    3    0    0  0.49591139881E+01  0.31480993107E+01  0.20725955348E+01  0.62288837948E+01  0.51100000000E-03 0. -1.
        -11    1    3    3    0    0 -0.11112216033E+02  0.50670965299E+01 -0.10024999474E+02  0.15800551482E+02  0.51100000000E-03 0.  1.
        -12    1    3    3    0    0 -0.94590307668E+01 -0.35786220502E+02  0.43721726355E+01  0.37272546659E+02  0.00000000000E+00 0.  1.
</event>
<event>
 7    1  0.6285940E-013  0.5930182E+02  0.7816164E-02  0.1266605E+00
        -11   -1    0    0    0    0  0.00000000000E+00  0.00000000000E+00  0.45593999997E+02  0.45594000000E+02  0.51100000000E-03 0.  1.
         11   -1    0    0    0    0 -0.00000000000E+00 -0.00000000000E+00 -0.45593999997E+02  0.45594000000E+02  0.51100000000E-03 0. -1.
    9900012    2    1    2    0    0  0.24463159084E+02  0.18208881754E+02 -0.93123091579E+01  0.59301817586E+02  0.49999769400E+02 0.  0.
        -12    1    1    2    0    0 -0.24463159084E+02 -0.18208881754E+02  0.93123091579E+01  0.31886182414E+02  0.00000000000E+00 0.  1.
         11    1    3    3    0    0 -0.24349794858E+01  0.97157125529E+00 -0.10706117256E+02  0.11022432706E+02  0.51100000000E-03 0. -1.
        -11    1    3    3    0    0  0.53073484080E+01 -0.87011366534E+01 -0.83243221122E+01  0.13159485745E+02  0.51100000000E-03 0.  1.
         12    1    3    3    0    0  0.21590790162E+02  0.25938447152E+02  0.97181302098E+01  0.35119899135E+02  0.00000000000E+00 0. -1.
</event>
<event>
 7    1  0.6285940E-013  0.5930190E+02  0.7816164E-02  0.1266605E+00
        -11   -1    0    0    0    0  0.00000000000E+00  0.00000000000E+00  0.45593999997E+02  0.45594000000E+02  0.51100000000E-03 0. -1.
         11   -1    0    0    0    0 -0.00000000000E+00 -0.00000000000E+00 -0.45593999997E+02  0.45594000000E+02  0.51100000000E-03 0.  1.
    9900012    2    1    2    0    0  0.63784499060E+01  0.26162741270E+01  0.31131878490E+02  0.59301900021E+02  0.49999919743E+02 0.  0.
        -12    1    1    2    0    0 -0.63784499060E+01 -0.26162741270E+01 -0.31131878490E+02  0.31886099979E+02  0.00000000000E+00 0.  1.
         11    1    3    3    0    0 -0.10949738021E+02  0.86180918048E+01  0.23164813225E+02  0.27032884439E+02  0.51100000000E-03 0. -1.
        -11    1    3    3    0    0  0.85892206275E+01 -0.12831461313E+02  0.12909471004E+02  0.20126488822E+02  0.51100000000E-03 0.  1.
         12    1    3    3    0    0  0.87389672991E+01  0.68296436356E+01 -0.49424057388E+01  0.12142526761E+02  0.00000000000E+00 0. -1.
</event>
<event>
 7    1  0.6648368E-013  0.5930196E+02  0.7816164E-02  0.1266605E+00
        -11   -1    0    0    0    0  0.00000000000E+00  0.00000000000E+00  0.45593999997E+02  0.45594000000E+02  0.51100000000E-03 0. -1.
         11   -1    0    0    0    0 -0.00000000000E+00 -0.00000000000E+00 -0.45593999997E+02  0.45594000000E+02  0.51100000000E-03 0.  1.
    9900012    2    1    2    0    0 -0.20375319760E+02  0.92964751824E+01  0.22696723902E+02  0.59301962585E+02  0.50000033844E+02 0.  0.
        -12    1    1    2    0    0  0.20375319760E+02 -0.92964751824E+01 -0.22696723902E+02  0.31886037415E+02  0.00000000000E+00 0.  1.
         11    1    3    3    0    0 -0.20273736128E+02 -0.28265097025E+01  0.10354792173E+02  0.22939818109E+02  0.51100000000E-03 0. -1.
        -11    1    3    3    0    0 -0.13366191960E+02  0.10286375068E+02  0.15159675200E+02  0.22677750153E+02  0.51100000000E-03 0.  1.
        -12    1    3    3    0    0  0.13264608329E+02  0.18366098166E+01 -0.28177434705E+01  0.13684394323E+02  0.00000000000E+00 0.  1.
</event>
<event>
 7    1  0.6285940E-013  0.5930194E+02  0.7816164E-02  0.1266605E+00
        -11   -1    0    0    0    0  0.00000000000E+00  0.00000000000E+00  0.45593999997E+02  0.45594000000E+02  0.51100000000E-03 0. -1.
         11   -1    0    0    0    0 -0.00000000000E+00 -0.00000000000E+00 -0.45593999997E+02  0.45594000000E+02  0.51100000000E-03 0.  1.
    9900012    2    1    2    0    0  0.23713290224E+02  0.20252484398E+02  0.66511285183E+01  0.59301940850E+02  0.49999994205E+02 0.  0.
        -12    1    1    2    0    0 -0.23713290224E+02 -0.20252484398E+02 -0.66511285183E+01  0.31886059150E+02  0.00000000000E+00 0.  1.
         11    1    3    3    0    0  0.25972280261E+02  0.22838900151E+02  0.18617267546E+02  0.39278204556E+02  0.51100000000E-03 0. -1.
        -11    1    3    3    0    0  0.47811229138E+01  0.39088934987E+01 -0.66230135395E+01  0.90555448929E+01  0.51100000000E-03 0.  1.
        -12    1    3    3    0    0 -0.70401129507E+01 -0.64953092517E+01 -0.53431254878E+01  0.10968191401E+02  0.00000000000E+00 0.  1.
</event>
<event>
 7    1  0.6285940E-013  0.5930201E+02  0.7816164E-02  0.1266605E+00
        -11   -1    0    0    0    0  0.00000000000E+00  0.00000000000E+00  0.45593999997E+02  0.45594000000E+02  0.51100000000E-03 0.  1.
         11   -1    0    0    0    0 -0.00000000000E+00 -0.00000000000E+00 -0.45593999997E+02  0.45594000000E+02  0.51100000000E-03 0. -1.
    9900012    2    1    2    0    0  0.66918083895E+01  0.11586709003E+02 -0.28942779202E+02  0.59302006320E+02  0.50000113606E+02 0.  0.
        -12    1    1    2    0    0 -0.66918083895E+01 -0.11586709003E+02  0.28942779202E+02  0.31885993680E+02  0.00000000000E+00 0.  1.
         11    1    3    3    0    0 -0.15606397434E+02  0.36490689878E+00 -0.10189875148E+02  0.18642058730E+02  0.51100000000E-03 0. -1.
        -11    1    3    3    0    0  0.76470203546E+01  0.45046380251E+01  0.62904096536E+01  0.10878324224E+02  0.51100000000E-03 0.  1.
        -12    1    3    3    0    0  0.14651185469E+02  0.67171640791E+01 -0.25043313707E+02  0.29781623366E+02  0.00000000000E+00 0.  1.
</event>
<event>
 7    1  0.6285940E-013  0.5930193E+02  0.7816164E-02  0.1266605E+00
        -11   -1    0    0    0    0  0.00000000000E+00  0.00000000000E+00  0.45593999997E+02  0.45594000000E+02  0.51100000000E-03 0.  1.
         11   -1    0    0    0    0 -0.00000000000E+00 -0.00000000000E+00 -0.45593999997E+02  0.45594000000E+02  0.51100000000E-03 0. -1.
    9900012    2    1    2    0    0  0.21018128456E+02  0.54509545001E+01 -0.23350516821E+02  0.59301933065E+02  0.49999980007E+02 0.  0.
        -12    1    1    2    0    0 -0.21018128456E+02 -0.54509545001E+01  0.23350516821E+02  0.31886066935E+02  0.00000000000E+00 0.  1.
         11    1    3    3    0    0  0.11331254841E+02 -0.12545691903E+02 -0.25654503353E+02  0.30723692228E+02  0.51100000000E-03 0. -1.
        -11    1    3    3    0    0  0.98109315038E+01  0.38584181600E+00  0.45551443817E+01  0.10823705072E+02  0.51100000000E-03 0.  1.
        -12    1    3    3    0    0 -0.12405788924E+00  0.17610804587E+02 -0.22511578502E+01  0.17754535765E+02  0.00000000000E+00 0.  1.
</event>
<event>
 7    1  0.6285940E-013  0.5930199E+02  0.7816164E-02  0.1266605E+00
        -11   -1    0    0    0    0  0.00000000000E+00  0.00000000000E+00  0.45593999997E+02  0.45594000000E+02  0.51100000000E-03 0.  1.
         11   -1    0    0    0    0 -0.00000000000E+00 -0.00000000000E+00 -0.45593999997E+02  0.45594000000E+02  0.51100000000E-03 0. -1.
    9900012    2    1    2    0    0 -0.28657875329E+02  0.13743903921E+02 -0.25591346407E+01  0.59301986084E+02  0.50000076701E+02 0.  0.
        -12    1    1    2    0    0  0.28657875329E+02 -0.13743903921E+02  0.25591346407E+01  0.31886013916E+02  0.00000000000E+00 0.  1.
         11    1    3    3    0    0 -0.89906388910E+01  0.11687716801E+02  0.80034667223E+01  0.16777657510E+02  0.51100000000E-03 0. -1.
        -11    1    3    3    0    0 -0.14051788134E+02 -0.43719264491E+01  0.11623534815E+02  0.18752947835E+02  0.51100000000E-03 0.  1.
         12    1    3    3    0    0 -0.56154483034E+01  0.64281135681E+01 -0.22186136178E+02  0.23771380738E+02  0.00000000000E+00 0. -1.
</event>
<event>
 7    1  0.6285940E-013  0.5930196E+02  0.7816164E-02  0.1266605E+00
        -11   -1    0    0    0    0  0.00000000000E+00  0.00000000000E+00  0.45593999997E+02  0.45594000000E+02  0.51100000000E-03 0.  1.
         11   -1    0    0    0    0 -0.00000000000E+00 -0.00000000000E+00 -0.45593999997E+02  0.45594000000E+02  0.51100000000E-03 0. -1.
    9900012    2    1    2    0    0 -0.75380826769E+01 -0.28084967897E+02 -0.13081723035E+02  0.59301959328E+02  0.50000027903E+02 0.  0.
        -12    1    1    2    0    0  0.75380826769E+01  0.28084967897E+02  0.13081723035E+02  0.31886040672E+02  0.00000000000E+00 0.  1.
         11    1    3    3    0    0 -0.12826922771E+01  0.24564195859E+01 -0.38985601972E+01  0.47831023962E+01  0.51100000000E-03 0. -1.
        -11    1    3    3    0    0  0.17355884419E+02 -0.15644396038E+02 -0.12337531961E+02  0.26423257682E+02  0.51100000000E-03 0.  1.
         12    1    3    3    0    0 -0.23611274819E+02 -0.14896991444E+02  0.31543691230E+01  0.28095599250E+02  0.00000000000E+00 0. -1.
</event>
<event>
 7    1  0.6285940E-013  0.5930196E+02  0.7816164E-02  0.1266605E+00
        -11   -1    0    0    0    0  0.00000000000E+00  0.00000000000E+00  0.45593999997E+02  0.45594000000E+02  0.51100000000E-03 0.  1.
         11   -1    0    0    0    0 -0.00000000000E+00 -0.00000000000E+00 -0.45593999997E+02  0.45594000000E+02  0.51100000000E-03 0. -1.
    9900012    2    1    2    0    0  0.10827536782E+02 -0.25786841305E+02 -0.15314143683E+02  0.59301957066E+02  0.50000023779E+02 0.  0.
        -12    1    1    2    0    0 -0.10827536782E+02  0.25786841305E+02  0.15314143683E+02  0.31886042934E+02  0.00000000000E+00 0.  1.
         11    1    3    3    0    0 -0.48088212596E+00 -0.18193887340E+02 -0.29958564906E+02  0.35053735830E+02  0.51100000000E-03 0. -1.
        -11    1    3    3    0    0  0.17150835663E+01  0.39534559461E+01  0.35078689509E+01  0.55566600035E+01  0.51100000000E-03 0.  1.
        -12    1    3    3    0    0  0.95933353417E+01 -0.11546409911E+02  0.11136552272E+02  0.18691561233E+02  0.00000000000E+00 0.  1.
</event>
<event>
 7    1  0.6285940E-013  0.5930198E+02  0.7816164E-02  0.1266605E+00
        -11   -1    0    0    0    0  0.00000000000E+00  0.00000000000E+00  0.45593999997E+02  0.45594000000E+02  0.51100000000E-03 0. -1.
         11   -1    0    0    0    0 -0.00000000000E+00 -0.00000000000E+00 -0.45593999997E+02  0.45594000000E+02  0.51100000000E-03 0.  1.
    9900012    2    1    2    0    0 -0.69917012168E+01  0.12653404755E+02  0.28420517742E+02  0.59301978509E+02  0.50000062885E+02 0.  0.
        -12    1    1    2    0    0  0.69917012168E+01 -0.12653404755E+02 -0.28420517742E+02  0.31886021491E+02  0.00000000000E+00 0.  1.
         11    1    3    3    0    0 -0.96820472460E+01  0.13553392078E+02  0.16305414016E+02  0.23308861023E+02  0.51100000000E-03 0. -1.
        -11    1    3    3    0    0 -0.87996800834E+01 -0.56457594591E+01 -0.74322368229E+01  0.12827591898E+02  0.51100000000E-03 0.  1.
         12    1    3    3    0    0  0.11490026113E+02  0.47457721357E+01  0.19547340550E+02  0.23165525589E+02  0.00000000000E+00 0. -1.
</event>
<event>
 7    1  0.6285940E-013  0.5930194E+02  0.7816164E-02  0.1266605E+00
        -11   -1    0    0    0    0  0.00000000000E+00  0.00000000000E+00  0.45593999997E+02  0.45594000000E+02  0.51100000000E-03 0. -1.
         11   -1    0    0    0    0 -0.00000000000E+00 -0.00000000000E+00 -0.45593999997E+02  0.45594000000E+02  0.51100000000E-03 0.  1.
    9900012    2    1    2    0    0 -0.28674526244E+02  0.10452670315E+02  0.92322388237E+01  0.59301937124E+02  0.49999987409E+02 0.  0.
        -12    1    1    2    0    0  0.28674526244E+02 -0.10452670315E+02 -0.92322388237E+01  0.31886062876E+02  0.00000000000E+00 0.  1.
         11    1    3    3    0    0 -0.51753176239E+01  0.19620114318E+02 -0.26472251706E+01  0.20463152243E+02  0.51100000000E-03 0. -1.
        -11    1    3    3    0    0 -0.90288637146E+01  0.96595461914E+01  0.46771719830E+01  0.14025090040E+02  0.51100000000E-03 0.  1.
        -12    1    3    3    0    0 -0.14470344905E+02 -0.18826990194E+02  0.72022920113E+01  0.24813694841E+02  0.00000000000E+00 0.  1.
</event>
<event>
 7    1  0.6285940E-013  0.5930195E+02  0.7816164E-02  0.1266605E+00
        -11   -1    0    0    0    0  0.00000000000E+00  0.00000000000E+00  0.45593999997E+02  0.45594000000E+02  0.51100000000E-03 0.  1.
         11   -1    0    0    0    0 -0.00000000000E+00 -0.00000000000E+00 -0.45593999997E+02  0.45594000000E+02  0.51100000000E-03 0. -1.
    9900012    2    1    2    0    0 -0.25057725154E+02  0.36800319894E+01 -0.19372346432E+02  0.59301952399E+02  0.50000015267E+02 0.  0.
        -12    1    1    2    0    0  0.25057725154E+02 -0.36800319894E+01  0.19372346432E+02  0.31886047601E+02  0.00000000000E+00 0.  1.
         11    1    3    3    0    0 -0.63436284920E+01 -0.84083208989E+01 -0.16423609662E+02  0.19510931227E+02  0.51100000000E-03 0. -1.
        -11    1    3    3    0    0 -0.13597059456E+02 -0.91005211245E+01 -0.66861324599E+01  0.17674950584E+02  0.51100000000E-03 0.  1.
        -12    1    3    3    0    0 -0.51170372060E+01  0.21188874013E+02  0.37373956899E+01  0.22116070588E+02  0.00000000000E+00 0.  1.
</event>
<event>
 7    1  0.6285940E-013  0.5930188E+02  0.7816164E-02  0.1266605E+00
        -11   -1    0    0    0    0  0.00000000000E+00  0.00000000000E+00  0.45593999997E+02  0.45594000000E+02  0.51100000000E-03 0. -1.
         11   -1    0    0    0    0 -0.00000000000E+00 -0.00000000000E+00 -0.45593999997E+02  0.45594000000E+02  0.51100000000E-03 0.  1.
    9900012    2    1    2    0    0  0.15176455017E+02  0.23971285376E+02  0.14552581974E+02  0.59301875250E+02  0.49999874566E+02 0.  0.
        -12    1    1    2    0    0 -0.15176455017E+02 -0.23971285376E+02 -0.14552581974E+02  0.31886124750E+02  0.00000000000E+00 0.  1.
         11    1    3    3    0    0  0.22510462677E+02  0.14131403221E+02  0.10750588849E+02  0.28670414155E+02  0.51100000000E-03 0. -1.
        -11    1    3    3    0    0  0.57382578076E+01 -0.65652149158E+00  0.10970776082E+02  0.12398247910E+02  0.51100000000E-03 0.  1.
        -12    1    3    3    0    0 -0.13072265469E+02  0.10496403647E+02 -0.71687829568E+01  0.18233213186E+02  0.00000000000E+00 0.  1.
</event>
<event>
 7    1  0.6285940E-013  0.5930195E+02  0.7816164E-02  0.1266605E+00
        -11   -1    0    0    0    0  0.00000000000E+00  0.00000000000E+00  0.45593999997E+02  0.45594000000E+02  0.51100000000E-03 0. -1.
         11   -1    0    0    0    0 -0.00000000000E+00 -0.00000000000E+00 -0.45593999997E+02  0.45594000000E+02  0.51100000000E-03 0.  1.
    9900012    2    1    2    0    0  0.64618199176E+01 -0.20599674878E+02  0.23465261736E+02  0.59301949287E+02  0.50000009592E+02 0.  0.
        -12    1    1    2    0    0 -0.64618199176E+01  0.20599674878E+02 -0.23465261736E+02  0.31886050713E+02  0.00000000000E+00 0.  1.
         11    1    3    3    0    0  0.16534385338E+02 -0.57772878081E+01  0.83026200362E+01  0.19382890720E+02  0.51100000000E-03 0. -1.
        -11    1    3    3    0    0  0.74047840610E+01  0.44938864861E+01  0.10233868164E+02  0.13407382317E+02  0.51100000000E-03 0.  1.
        -12    1    3    3    0    0 -0.17477349482E+02 -0.19316273557E+02  0.49287735354E+01  0.26511676250E+02  0.00000000000E+00 0.  1.
</event>
<event>
 7    1  0.6285940E-013  0.5930193E+02  0.7816164E-02  0.1266605E+00
        -11   -1    0    0    0    0  0.00000000000E+00  0.00000000000E+00  0.45593999997E+02  0.45594000000E+02  0.51100000000E-03 0. -1.
         11   -1    0    0    0    0 -0.00000000000E+00 -0.00000000000E+00 -0.45593999997E+02  0.45594000000E+02  0.51100000000E-03 0.  1.
    9900012    2    1    2    0    0  0.31322212568E+02  0.29528076218E+01  0.51885781190E+01  0.59301930692E+02  0.49999975679E+02 0.  0.
        -12    1    1    2    0    0 -0.31322212568E+02 -0.29528076218E+01 -0.51885781190E+01  0.31886069308E+02  0.00000000000E+00 0.  1.
         11    1    3    3    0    0  0.25796817478E+02  0.59901931168E+01  0.93040121720E+01  0.28069963455E+02  0.51100000000E-03 0. -1.
        -11    1    3    3    0    0 -0.28397782619E+01  0.64207439984E+01  0.10047755428E+02  0.12257556179E+02  0.51100000000E-03 0.  1.
         12    1    3    3    0    0  0.83651733520E+01 -0.94581294934E+01 -0.14163189482E+02  0.18974411058E+02  0.00000000000E+00 0. -1.
</event>
<event>
 7    1  0.6285940E-013  0.5930191E+02  0.7816164E-02  0.1266605E+00
        -11   -1    0    0    0    0  0.00000000000E+00  0.00000000000E+00  0.45593999997E+02  0.45594000000E+02  0.51100000000E-03 0.  1.
         11   -1    0    0    0    0 -0.00000000000E+00 -0.00000000000E+00 -0.45593999997E+02  0.45594000000E+02  0.51100000000E-03 0. -1.
    9900012    2    1    2    0    0 -0.50994970528E+01 -0.28826681502E+02 -0.12638832822E+02  0.59301913196E+02  0.49999943770E+02 0.  0.
        -12    1    1    2    0    0  0.50994970528E+01  0.28826681502E+02  0.12638832822E+02  0.31886086804E+02  0.00000000000E+00 0.  1.
         11    1    3    3    0    0  0.10815484300E+02 -0.30443265916E+01  0.34958472380E+01  0.11767054568E+02  0.51100000000E-03 0.  1.
        -11    1    3    3    0    0  0.18656847678E+01 -0.25296289839E+02 -0.15521093113E+02  0.29736970104E+02  0.51100000000E-03 0. -1.
         12    1    3    3    0    0 -0.17780666121E+02 -0.48606507149E+00 -0.61358694660E+00  0.17797888523E+02  0.00000000000E+00 0. -1.
</event>
<event>
 7    1  0.6285940E-013  0.5930193E+02  0.7816164E-02  0.1266605E+00
        -11   -1    0    0    0    0  0.00000000000E+00  0.00000000000E+00  0.45593999997E+02  0.45594000000E+02  0.51100000000E-03 0. -1.
         11   -1    0    0    0    0 -0.00000000000E+00 -0.00000000000E+00 -0.45593999997E+02  0.45594000000E+02  0.51100000000E-03 0.  1.
    9900012    2    1    2    0    0  0.24256008719E+02 -0.20749997520E+01  0.20592758008E+02  0.59301933053E+02  0.49999979985E+02 0.  0.
        -12    1    1    2    0    0 -0.24256008719E+02  0.20749997520E+01 -0.20592758008E+02  0.31886066947E+02  0.00000000000E+00 0.  1.
         11    1    3    3    0    0  0.35625185842E+02  0.62901079008E+01  0.17206190913E+02  0.40059609705E+02  0.51100000000E-03 0. -1.
        -11    1    3    3    0    0 -0.74494221330E+00 -0.99052099679E-01  0.55567861724E+01  0.56073722051E+01  0.51100000000E-03 0.  1.
         12    1    3    3    0    0 -0.10624234910E+02 -0.82660555531E+01 -0.21702190775E+01  0.13634951143E+02  0.00000000000E+00 0. -1.
</event>
<event>
 7    1  0.6285940E-013  0.5930195E+02  0.7816164E-02  0.1266605E+00
        -11   -1    0    0    0    0  0.00000000000E+00  0.00000000000E+00  0.45593999997E+02  0.45594000000E+02  0.51100000000E-03 0.  1.
         11   -1    0    0    0    0 -0.00000000000E+00 -0.00000000000E+00 -0.45593999997E+02  0.45594000000E+02  0.51100000000E-03 0. -1.
    9900012    2    1    2    0    0  0.26325762838E+00 -0.19293527625E+02 -0.25385249658E+02  0.59301946419E+02  0.50000004361E+02 0.  0.
        -12    1    1    2    0    0 -0.26325762838E+00  0.19293527625E+02  0.25385249658E+02  0.31886053581E+02  0.00000000000E+00 0.  1.
         11    1    3    3    0    0  0.13536614883E+02  0.68994004574E+01 -0.21381245291E+02  0.26229741127E+02  0.51100000000E-03 0. -1.
        -11    1    3    3    0    0 -0.51617952061E+01  0.39025236796E-01  0.71806056235E+00  0.52116469519E+01  0.51100000000E-03 0.  1.
        -12    1    3    3    0    0 -0.81115620485E+01 -0.26231953319E+02 -0.47220649299E+01  0.27860558339E+02  0.00000000000E+00 0.  1.
</event>
<event>
 7    1  0.6285940E-013  0.5930194E+02  0.7816164E-02  0.1266605E+00
        -11   -1    0    0    0    0  0.00000000000E+00  0.00000000000E+00  0.45593999997E+02  0.45594000000E+02  0.51100000000E-03 0.  1.
         11   -1    0    0    0    0 -0.00000000000E+00 -0.00000000000E+00 -0.45593999997E+02  0.45594000000E+02  0.51100000000E-03 0. -1.
    9900012    2    1    2    0    0 -0.30977653540E+02 -0.34492871762E+01  0.67236857815E+01  0.59301944249E+02  0.50000000403E+02 0.  0.
        -12    1    1    2    0    0  0.30977653540E+02  0.34492871762E+01 -0.67236857815E+01  0.31886055751E+02  0.00000000000E+00 0.  1.
         11    1    3    3    0    0 -0.13668766547E+02  0.10088634933E+02  0.39205731095E+01  0.17435212287E+02  0.51100000000E-03 0. -1.
        -11    1    3    3    0    0 -0.27039442469E+02 -0.16349145088E+02  0.29672280774E+01  0.31736893939E+02  0.51100000000E-03 0.  1.
        -12    1    3    3    0    0  0.97305554758E+01  0.28112229779E+01 -0.16411540536E+00  0.10129838023E+02  0.00000000000E+00 0.  1.
</event>
<event>
 7    1  0.6285940E-013  0.5930196E+02  0.7816164E-02  0.1266605E+00
        -11   -1    0    0    0    0  0.00000000000E+00  0.00000000000E+00  0.45593999997E+02  0.45594000000E+02  0.51100000000E-03 0.  1.
         11   -1    0    0    0    0 -0.00000000000E+00 -0.00000000000E+00 -0.45593999997E+02  0.45594000000E+02  0.51100000000E-03 0. -1.
    9900012    2    1    2    0    0  0.23854609626E+02 -0.19153571533E+02 -0.89898717248E+01  0.59301960790E+02  0.50000030570E+02 0.  0.
        -12    1    1    2    0    0 -0.23854609626E+02  0.19153571533E+02  0.89898717248E+01  0.31886039210E+02  0.00000000000E+00 0.  1.
         11    1    3    3    0    0  0.11986052226E+01  0.38628579535E+01  0.39622557018E+00  0.40639046510E+01  0.51100000000E-03 0. -1.
        -11    1    3    3    0    0  0.21714958907E+02  0.30943945289E+01 -0.17302552955E+02  0.27937305826E+02  0.51100000000E-03 0.  1.
        -12    1    3    3    0    0  0.94104549677E+00 -0.26110824016E+02  0.79164556597E+01  0.27300750312E+02  0.00000000000E+00 0.  1.
</event>
<event>
 7    1  0.6285940E-013  0.5930201E+02  0.7816164E-02  0.1266605E+00
        -11   -1    0    0    0    0  0.00000000000E+00  0.00000000000E+00  0.45593999997E+02  0.45594000000E+02  0.51100000000E-03 0. -1.
         11   -1    0    0    0    0 -0.00000000000E+00 -0.00000000000E+00 -0.45593999997E+02  0.45594000000E+02  0.51100000000E-03 0.  1.
    9900012    2    1    2    0    0  0.14320346181E+02  0.12713261683E+02  0.25495429322E+02  0.59302011640E+02  0.50000123309E+02 0.  0.
        -12    1    1    2    0    0 -0.14320346181E+02 -0.12713261683E+02 -0.25495429322E+02  0.31885988360E+02  0.00000000000E+00 0.  1.
         11    1    3    3    0    0  0.86268742379E+01  0.11748026658E+02  0.28829204348E+02  0.32304212002E+02  0.51100000000E-03 0. -1.
        -11    1    3    3    0    0 -0.58570697959E+01  0.31065920611E+01  0.81931661653E+01  0.10539646716E+02  0.51100000000E-03 0.  1.
         12    1    3    3    0    0  0.11550541739E+02 -0.21413570360E+01 -0.11526941190E+02  0.16458152923E+02  0.00000000000E+00 0. -1.
</event>
<event>
 7    1  0.6285940E-013  0.5930191E+02  0.7816164E-02  0.1266605E+00
        -11   -1    0    0    0    0  0.00000000000E+00  0.00000000000E+00  0.45593999997E+02  0.45594000000E+02  0.51100000000E-03 0.  1.
         11   -1    0    0    0    0 -0.00000000000E+00 -0.00000000000E+00 -0.45593999997E+02  0.45594000000E+02  0.51100000000E-03 0. -1.
    9900012    2    1    2    0    0  0.26449511674E+02  0.16938034161E+02 -0.54999384453E+01  0.59301905979E+02  0.49999930608E+02 0.  0.
        -12    1    1    2    0    0 -0.26449511674E+02 -0.16938034161E+02  0.54999384453E+01  0.31886094021E+02  0.00000000000E+00 0.  1.
         11    1    3    3    0    0  0.27352061032E+02  0.24630763933E+02 -0.28521451368E+00  0.36808845705E+02  0.51100000000E-03 0. -1.
        -11    1    3    3    0    0  0.66623103915E+01  0.21136219784E+00  0.43511084496E+01  0.79601004222E+01  0.51100000000E-03 0.  1.
        -12    1    3    3    0    0 -0.75648597488E+01 -0.79040919699E+01 -0.95658323812E+01  0.14532959851E+02  0.00000000000E+00 0.  1.
</event>
<event>
 7    1  0.6285940E-013  0.5930224E+02  0.7816164E-02  0.1266604E+00
        -11   -1    0    0    0    0  0.00000000000E+00  0.00000000000E+00  0.45593999997E+02  0.45594000000E+02  0.51100000000E-03 0.  1.
         11   -1    0    0    0    0 -0.00000000000E+00 -0.00000000000E+00 -0.45593999997E+02  0.45594000000E+02  0.51100000000E-03 0. -1.
    9900012    2    1    2    0    0 -0.15259982337E+02 -0.14655308025E+01 -0.27958667165E+02  0.59302236545E+02  0.50000533479E+02 0.  0.
        -12    1    1    2    0    0  0.15259982337E+02  0.14655308025E+01  0.27958667165E+02  0.31885763455E+02  0.00000000000E+00 0.  1.
         11    1    3    3    0    0 -0.19550031232E+02  0.11149697274E+01 -0.89629907332E+01  0.21535600335E+02  0.51100000000E-03 0. -1.
        -11    1    3    3    0    0  0.33020593278E+01 -0.12949333919E+02  0.27603557408E+01  0.13645820197E+02  0.51100000000E-03 0.  1.
         12    1    3    3    0    0  0.98798956713E+00  0.10368833390E+02 -0.21756032172E+02  0.24120816013E+02  0.00000000000E+00 0. -1.
</event>
<event>
 7    1  0.6285940E-013  0.5930193E+02  0.7816164E-02  0.1266605E+00
        -11   -1    0    0    0    0  0.00000000000E+00  0.00000000000E+00  0.45593999997E+02  0.45594000000E+02  0.51100000000E-03 0. -1.
         11   -1    0    0    0    0 -0.00000000000E+00 -0.00000000000E+00 -0.45593999997E+02  0.45594000000E+02  0.51100000000E-03 0.  1.
    9900012    2    1    2    0    0 -0.17208042739E+02 -0.25543056926E+02 -0.82557207642E+01  0.59301930669E+02  0.49999975638E+02 0.  0.
        -12    1    1    2    0    0  0.17208042739E+02  0.25543056926E+02  0.82557207642E+01  0.31886069331E+02  0.00000000000E+00 0.  1.
         11    1    3    3    0    0  0.64170437763E+01 -0.25981379963E+02 -0.12925290876E+01  0.26793304897E+02  0.51100000000E-03 0. -1.
        -11    1    3    3    0    0 -0.10660760762E+01 -0.41807207625E+01  0.49631985427E+01  0.65763427777E+01  0.51100000000E-03 0.  1.
        -12    1    3    3    0    0 -0.22559010439E+02  0.46190438003E+01 -0.11926390219E+02  0.25932282994E+02  0.00000000000E+00 0.  1.
</event>
<event>
 7    1  0.6285940E-013  0.5930195E+02  0.7816164E-02  0.1266605E+00
        -11   -1    0    0    0    0  0.00000000000E+00  0.00000000000E+00  0.45593999997E+02  0.45594000000E+02  0.51100000000E-03 0. -1.
         11   -1    0    0    0    0 -0.00000000000E+00 -0.00000000000E+00 -0.45593999997E+02  0.45594000000E+02  0.51100000000E-03 0.  1.
    9900012    2    1    2    0    0  0.27240403804E+02  0.63869150516E+01  0.15293386521E+02  0.59301953607E+02  0.50000017470E+02 0.  0.
        -12    1    1    2    0    0 -0.27240403804E+02 -0.63869150516E+01 -0.15293386521E+02  0.31886046393E+02  0.00000000000E+00 0.  1.
         11    1    3    3    0    0 -0.21015911398E+01 -0.28530721771E+01  0.67270575774E+01  0.76032894248E+01  0.51100000000E-03 0. -1.
        -11    1    3    3    0    0  0.21968783088E+02  0.19747538661E+02 -0.81302135725E+01  0.30638098612E+02  0.51100000000E-03 0.  1.
         12    1    3    3    0    0  0.73732118557E+01 -0.10507551432E+02  0.16696542516E+02  0.21060565571E+02  0.00000000000E+00 0. -1.
</event>
<event>
 7    1  0.6285940E-013  0.5930197E+02  0.7816164E-02  0.1266605E+00
        -11   -1    0    0    0    0  0.00000000000E+00  0.00000000000E+00  0.45593999997E+02  0.45594000000E+02  0.51100000000E-03 0. -1.
         11   -1    0    0    0    0 -0.00000000000E+00 -0.00000000000E+00 -0.45593999997E+02  0.45594000000E+02  0.51100000000E-03 0.  1.
    9900012    2    1    2    0    0  0.59828273745E-01 -0.11962695071E+02  0.29556882682E+02  0.59301969099E+02  0.50000045724E+02 0.  0.
        -12    1    1    2    0    0 -0.59828273745E-01  0.11962695071E+02 -0.29556882682E+02  0.31886030901E+02  0.00000000000E+00 0.  1.
         11    1    3    3    0    0  0.39766876726E+01 -0.77980749343E+01  0.92497611945E+01  0.12735073614E+02  0.51100000000E-03 0. -1.
        -11    1    3    3    0    0 -0.99899484410E+01 -0.21407159702E+02  0.11649584739E+02  0.26339673142E+02  0.51100000000E-03 0.  1.
        -12    1    3    3    0    0  0.60730890422E+01  0.17242539566E+02  0.86575367478E+01  0.20227222343E+02  0.00000000000E+00 0.  1.
</event>
<event>
 7    1  0.6285940E-013  0.5930195E+02  0.7816164E-02  0.1266605E+00
        -11   -1    0    0    0    0  0.00000000000E+00  0.00000000000E+00  0.45593999997E+02  0.45594000000E+02  0.51100000000E-03 0. -1.
         11   -1    0    0    0    0 -0.00000000000E+00 -0.00000000000E+00 -0.45593999997E+02  0.45594000000E+02  0.51100000000E-03 0.  1.
    9900012    2    1    2    0    0 -0.10365181068E+02  0.92666019706E+01  0.28695177828E+02  0.59301950994E+02  0.50000012704E+02 0.  0.
        -12    1    1    2    0    0  0.10365181068E+02 -0.92666019706E+01 -0.28695177828E+02  0.31886049006E+02  0.00000000000E+00 0.  1.
         11    1    3    3    0    0 -0.15551339460E+02 -0.14099207974E+01  0.19310992593E+02  0.24834380823E+02  0.51100000000E-03 0.  1.
        -11    1    3    3    0    0 -0.39178009307E+01  0.18981627362E+01  0.18418086101E+02  0.18925593301E+02  0.51100000000E-03 0. -1.
        -12    1    3    3    0    0  0.91039593227E+01  0.87783600319E+01 -0.90339008656E+01  0.15541976871E+02  0.00000000000E+00 0.  1.
</event>
<event>
 7    1  0.6285940E-013  0.5930195E+02  0.7816164E-02  0.1266605E+00
        -11   -1    0    0    0    0  0.00000000000E+00  0.00000000000E+00  0.45593999997E+02  0.45594000000E+02  0.51100000000E-03 0. -1.
         11   -1    0    0    0    0 -0.00000000000E+00 -0.00000000000E+00 -0.45593999997E+02  0.45594000000E+02  0.51100000000E-03 0.  1.
    9900012    2    1    2    0    0 -0.28227982158E+02  0.70016689609E+01  0.13072033022E+02  0.59301946744E+02  0.50000004954E+02 0.  0.
        -12    1    1    2    0    0  0.28227982158E+02 -0.70016689609E+01 -0.13072033022E+02  0.31886053256E+02  0.00000000000E+00 0.  1.
         11    1    3    3    0    0 -0.82839006279E+01 -0.62213732749E+01  0.41340784245E+01  0.11154330985E+02  0.51100000000E-03 0. -1.
        -11    1    3    3    0    0  0.23392661140E+01 -0.99089944980E+00 -0.13340411352E+02  0.13580155485E+02  0.51100000000E-03 0.  1.
         12    1    3    3    0    0 -0.22283347644E+02  0.14213941686E+02  0.22278365949E+02  0.34567460275E+02  0.00000000000E+00 0. -1.
</event>
<event>
 7    1  0.6285940E-013  0.5930194E+02  0.7816164E-02  0.1266605E+00
        -11   -1    0    0    0    0  0.00000000000E+00  0.00000000000E+00  0.45593999997E+02  0.45594000000E+02  0.51100000000E-03 0.  1.
         11   -1    0    0    0    0 -0.00000000000E+00 -0.00000000000E+00 -0.45593999997E+02  0.45594000000E+02  0.51100000000E-03 0. -1.
    9900012    2    1    2    0    0 -0.21566687794E+01  0.31260089435E+02  0.59056507615E+01  0.59301935291E+02  0.49999984067E+02 0.  0.
        -12    1    1    2    0    0  0.21566687794E+01 -0.31260089435E+02 -0.59056507615E+01  0.31886064709E+02  0.00000000000E+00 0.  1.
         11    1    3    3    0    0  0.54154479292E+01  0.11452514305E+02  0.73246021618E+01  0.14633419192E+02  0.51100000000E-03 0. -1.
        -11    1    3    3    0    0 -0.12183788930E+02 -0.79435582042E+00  0.13962313114E+02  0.18547827409E+02  0.51100000000E-03 0.  1.
         12    1    3    3    0    0  0.46116722211E+01  0.20601930951E+02 -0.15381264514E+02  0.26120688690E+02  0.00000000000E+00 0. -1.
</event>
<event>
 7    1  0.6285940E-013  0.5930195E+02  0.7816164E-02  0.1266605E+00
        -11   -1    0    0    0    0  0.00000000000E+00  0.00000000000E+00  0.45593999997E+02  0.45594000000E+02  0.51100000000E-03 0.  1.
         11   -1    0    0    0    0 -0.00000000000E+00 -0.00000000000E+00 -0.45593999997E+02  0.45594000000E+02  0.51100000000E-03 0. -1.
    9900012    2    1    2    0    0  0.23199782333E+02 -0.21862644457E+02  0.71777502208E+00  0.59301947815E+02  0.50000006907E+02 0.  0.
        -12    1    1    2    0    0 -0.23199782333E+02  0.21862644457E+02 -0.71777502208E+00  0.31886052185E+02  0.00000000000E+00 0.  1.
         11    1    3    3    0    0  0.11751738436E+02  0.93901619700E+01 -0.14939705425E+01  0.15116561988E+02  0.51100000000E-03 0. -1.
        -11    1    3    3    0    0 -0.78480013242E+01 -0.68145967031E+00 -0.74673214603E+00  0.79128453306E+01  0.51100000000E-03 0.  1.
         12    1    3    3    0    0  0.19296045221E+02 -0.30571346756E+02  0.29584777106E+01  0.36272540496E+02  0.00000000000E+00 0. -1.
</event>
<event>
 7    1  0.6285940E-013  0.5930195E+02  0.7816164E-02  0.1266605E+00
        -11   -1    0    0    0    0  0.00000000000E+00  0.00000000000E+00  0.45593999997E+02  0.45594000000E+02  0.51100000000E-03 0. -1.
         11   -1    0    0    0    0 -0.00000000000E+00 -0.00000000000E+00 -0.45593999997E+02  0.45594000000E+02  0.51100000000E-03 0.  1.
    9900012    2    1    2    0    0  0.27886927372E+02  0.77864717762E+01 -0.13357040701E+02  0.59301946666E+02  0.50000004811E+02 0.  0.
        -12    1    1    2    0    0 -0.27886927372E+02 -0.77864717762E+01  0.13357040701E+02  0.31886053334E+02  0.00000000000E+00 0.  1.
         11    1    3    3    0    0  0.17218402578E+02  0.10160738064E+02  0.73623049155E+01  0.21305340158E+02  0.51100000000E-03 0. -1.
        -11    1    3    3    0    0 -0.33897339141E+01 -0.13317733970E+02 -0.64991194933E+01  0.15201673873E+02  0.51100000000E-03 0.  1.
         12    1    3    3    0    0  0.14058258708E+02  0.10943467682E+02 -0.14220226123E+02  0.22794932634E+02  0.00000000000E+00 0. -1.
</event>
<event>
 7    1  0.6285940E-013  0.5930194E+02  0.7816164E-02  0.1266605E+00
        -11   -1    0    0    0    0  0.00000000000E+00  0.00000000000E+00  0.45593999997E+02  0.45594000000E+02  0.51100000000E-03 0. -1.
         11   -1    0    0    0    0 -0.00000000000E+00 -0.00000000000E+00 -0.45593999997E+02  0.45594000000E+02  0.51100000000E-03 0.  1.
    9900012    2    1    2    0    0  0.62590812521E+01  0.12874896330E+00  0.31265449171E+02  0.59301937429E+02  0.49999987966E+02 0.  0.
        -12    1    1    2    0    0 -0.62590812521E+01 -0.12874896330E+00 -0.31265449171E+02  0.31886062571E+02  0.00000000000E+00 0.  1.
         11    1    3    3    0    0  0.11193230754E+02 -0.65453430518E+01  0.31662276334E+02  0.34214465849E+02  0.51100000000E-03 0. -1.
        -11    1    3    3    0    0  0.63850802294E+01  0.33623700181E+01  0.78755787939E+01  0.10681737840E+02  0.51100000000E-03 0.  1.
         12    1    3    3    0    0 -0.11319229732E+02  0.33117219971E+01 -0.82724059573E+01  0.14405733741E+02  0.00000000000E+00 0. -1.
</event>
<event>
 7    1  0.6285940E-013  0.5930194E+02  0.7816164E-02  0.1266605E+00
        -11   -1    0    0    0    0  0.00000000000E+00  0.00000000000E+00  0.45593999997E+02  0.45594000000E+02  0.51100000000E-03 0.  1.
         11   -1    0    0    0    0 -0.00000000000E+00 -0.00000000000E+00 -0.45593999997E+02  0.45594000000E+02  0.51100000000E-03 0. -1.
    9900012    2    1    2    0    0 -0.18582424481E+02  0.21521708666E+02 -0.14430198847E+02  0.59301935924E+02  0.49999985221E+02 0.  0.
        -12    1    1    2    0    0  0.18582424481E+02 -0.21521708666E+02  0.14430198847E+02  0.31886064076E+02  0.00000000000E+00 0.  1.
         11    1    3    3    0    0  0.75363910966E+01  0.57390913278E+00 -0.93852103245E+01  0.12050258734E+02  0.51100000000E-03 0. -1.
        -11    1    3    3    0    0 -0.58833612279E+00  0.97149015316E+01 -0.14790773944E+02  0.17705717870E+02  0.51100000000E-03 0.  1.
        -12    1    3    3    0    0 -0.25530479455E+02  0.11232898001E+02  0.97457854216E+01  0.29545959321E+02  0.00000000000E+00 0.  1.
</event>
<event>
 7    1  0.6285940E-013  0.5930196E+02  0.7816164E-02  0.1266605E+00
        -11   -1    0    0    0    0  0.00000000000E+00  0.00000000000E+00  0.45593999997E+02  0.45594000000E+02  0.51100000000E-03 0. -1.
         11   -1    0    0    0    0 -0.00000000000E+00 -0.00000000000E+00 -0.45593999997E+02  0.45594000000E+02  0.51100000000E-03 0.  1.
    9900012    2    1    2    0    0  0.11102986695E+02 -0.23373453803E+02  0.18631285211E+02  0.59301961600E+02  0.50000032047E+02 0.  0.
        -12    1    1    2    0    0 -0.11102986695E+02  0.23373453803E+02 -0.18631285211E+02  0.31886038400E+02  0.00000000000E+00 0.  1.
         11    1    3    3    0    0 -0.40765569238E+01 -0.17352210220E+02  0.81304749179E+01  0.19591379189E+02  0.51100000000E-03 0. -1.
        -11    1    3    3    0    0  0.82220197703E+01 -0.20513076609E+02  0.45092502835E+01  0.22554850020E+02  0.51100000000E-03 0.  1.
         12    1    3    3    0    0  0.69575238480E+01  0.14491833025E+02  0.59915600099E+01  0.17155732391E+02  0.00000000000E+00 0. -1.
</event>
<event>
 7    1  0.6285940E-013  0.5930193E+02  0.7816164E-02  0.1266605E+00
        -11   -1    0    0    0    0  0.00000000000E+00  0.00000000000E+00  0.45593999997E+02  0.45594000000E+02  0.51100000000E-03 0.  1.
         11   -1    0    0    0    0 -0.00000000000E+00 -0.00000000000E+00 -0.45593999997E+02  0.45594000000E+02  0.51100000000E-03 0. -1.
    9900012    2    1    2    0    0 -0.17595501410E+02 -0.70733191421E+01 -0.25633728562E+02  0.59301928534E+02  0.49999971743E+02 0.  0.
        -12    1    1    2    0    0  0.17595501410E+02  0.70733191421E+01  0.25633728562E+02  0.31886071466E+02  0.00000000000E+00 0.  1.
         11    1    3    3    0    0 -0.17435620353E+02 -0.41456865962E+01 -0.34714222699E+02  0.39067439541E+02  0.51100000000E-03 0. -1.
        -11    1    3    3    0    0 -0.64462277490E+01  0.48603559080E+01  0.39596496352E+01  0.89919818305E+01  0.51100000000E-03 0.  1.
        -12    1    3    3    0    0  0.62863466917E+01 -0.77879884539E+01  0.51208445018E+01  0.11242507162E+02  0.00000000000E+00 0.  1.
</event>
<event>
 7    1  0.6285940E-013  0.5930194E+02  0.7816164E-02  0.1266605E+00
        -11   -1    0    0    0    0  0.00000000000E+00  0.00000000000E+00  0.45593999997E+02  0.45594000000E+02  0.51100000000E-03 0.  1.
         11   -1    0    0    0    0 -0.00000000000E+00 -0.00000000000E+00 -0.45593999997E+02  0.45594000000E+02  0.51100000000E-03 0. -1.
    9900012    2    1    2    0    0  0.11489458354E+02 -0.15543403972E+02 -0.25359725281E+02  0.59301941500E+02  0.49999995391E+02 0.  0.
        -12    1    1    2    0    0 -0.11489458354E+02  0.15543403972E+02  0.25359725281E+02  0.31886058500E+02  0.00000000000E+00 0.  1.
         11    1    3    3    0    0  0.48814283887E+01  0.50949708013E+01 -0.23297467031E+02  0.24342535630E+02  0.51100000000E-03 0. -1.
        -11    1    3    3    0    0  0.49111796537E+01  0.56057871010E+01 -0.42329375401E+01  0.85710148228E+01  0.51100000000E-03 0.  1.
        -12    1    3    3    0    0  0.16968503112E+01 -0.26244161875E+02  0.21706792901E+01  0.26388391047E+02  0.00000000000E+00 0.  1.
</event>
<event>
 7    1  0.6285940E-013  0.5930193E+02  0.7816164E-02  0.1266605E+00
        -11   -1    0    0    0    0  0.00000000000E+00  0.00000000000E+00  0.45593999997E+02  0.45594000000E+02  0.51100000000E-03 0.  1.
         11   -1    0    0    0    0 -0.00000000000E+00 -0.00000000000E+00 -0.45593999997E+02  0.45594000000E+02  0.51100000000E-03 0. -1.
    9900012    2    1    2    0    0 -0.10544960265E+02 -0.26348219420E+02 -0.14536037850E+02  0.59301933293E+02  0.49999980423E+02 0.  0.
        -12    1    1    2    0    0  0.10544960265E+02  0.26348219420E+02  0.14536037850E+02  0.31886066707E+02  0.00000000000E+00 0.  1.
         11    1    3    3    0    0 -0.12884905578E+02 -0.41205367777E+01 -0.13849462088E+01  0.13598444446E+02  0.51100000000E-03 0. -1.
        -11    1    3    3    0    0 -0.87626782111E+01  0.14819424849E+01  0.80686254649E+01  0.12003474502E+02  0.51100000000E-03 0.  1.
         12    1    3    3    0    0  0.11102623524E+02 -0.23709625128E+02 -0.21219717107E+02  0.33700014346E+02  0.00000000000E+00 0. -1.
</event>
<event>
 7    1  0.6285940E-013  0.5930208E+02  0.7816164E-02  0.1266604E+00
        -11   -1    0    0    0    0  0.00000000000E+00  0.00000000000E+00  0.45593999997E+02  0.45594000000E+02  0.51100000000E-03 0.  1.
         11   -1    0    0    0    0 -0.00000000000E+00 -0.00000000000E+00 -0.45593999997E+02  0.45594000000E+02  0.51100000000E-03 0. -1.
    9900012    2    1    2    0    0  0.20975574838E+02  0.26306854320E+01 -0.23870830632E+02  0.59302081467E+02  0.50000250656E+02 0.  0.
        -12    1    1    2    0    0 -0.20975574838E+02 -0.26306854320E+01  0.23870830632E+02  0.31885918533E+02  0.00000000000E+00 0.  1.
         11    1    3    3    0    0 -0.22794476701E+00  0.16003433415E+02 -0.25247059253E+01  0.16202962080E+02  0.51100000000E-03 0. -1.
        -11    1    3    3    0    0  0.80833568652E+01 -0.10248992885E+02  0.46140749853E+01  0.13844573002E+02  0.51100000000E-03 0.  1.
        -12    1    3    3    0    0  0.13120162739E+02 -0.31237550978E+01 -0.25960199692E+02  0.29254546386E+02  0.00000000000E+00 0.  1.
</event>
<event>
 7    1  0.6285940E-013  0.5930195E+02  0.7816164E-02  0.1266605E+00
        -11   -1    0    0    0    0  0.00000000000E+00  0.00000000000E+00  0.45593999997E+02  0.45594000000E+02  0.51100000000E-03 0.  1.
         11   -1    0    0    0    0 -0.00000000000E+00 -0.00000000000E+00 -0.45593999997E+02  0.45594000000E+02  0.51100000000E-03 0. -1.
    9900012    2    1    2    0    0  0.20122505565E+02  0.19123339480E+02 -0.15687675299E+02  0.59301945064E+02  0.50000001890E+02 0.  0.
        -12    1    1    2    0    0 -0.20122505565E+02 -0.19123339480E+02  0.15687675299E+02  0.31886054936E+02  0.00000000000E+00 0.  1.
         11    1    3    3    0    0  0.13579467206E+02 -0.33570164752E+01 -0.90368582115E-01  0.13988554463E+02  0.51100000000E-03 0. -1.
        -11    1    3    3    0    0  0.91624587012E+01  0.75308953138E+00  0.86692198288E+01  0.12636184788E+02  0.51100000000E-03 0.  1.
        -12    1    3    3    0    0 -0.26194203424E+01  0.21727266424E+02 -0.24266526545E+02  0.32677205813E+02  0.00000000000E+00 0.  1.
</event>
<event>
 7    1  0.6285940E-013  0.5930199E+02  0.7816164E-02  0.1266605E+00
        -11   -1    0    0    0    0  0.00000000000E+00  0.00000000000E+00  0.45593999997E+02  0.45594000000E+02  0.51100000000E-03 0.  1.
         11   -1    0    0    0    0 -0.00000000000E+00 -0.00000000000E+00 -0.45593999997E+02  0.45594000000E+02  0.51100000000E-03 0. -1.
    9900012    2    1    2    0    0  0.16238535894E+02  0.12040794499E+02 -0.24658604276E+02  0.59301991391E+02  0.50000086379E+02 0.  0.
        -12    1    1    2    0    0 -0.16238535894E+02 -0.12040794499E+02  0.24658604276E+02  0.31886008609E+02  0.00000000000E+00 0.  1.
         11    1    3    3    0    0  0.82301916082E+01  0.83655436298E+01  0.17833254192E+01  0.11870072617E+02  0.51100000000E-03 0. -1.
        -11    1    3    3    0    0 -0.15575144960E+01 -0.18920359282E+01  0.95069858335E+01  0.98177610104E+01  0.51100000000E-03 0.  1.
        -12    1    3    3    0    0  0.95658587822E+01  0.55672867973E+01 -0.35948915529E+02  0.37614157763E+02  0.00000000000E+00 0.  1.
</event>
<event>
 7    1  0.6285940E-013  0.5930202E+02  0.7816164E-02  0.1266605E+00
        -11   -1    0    0    0    0  0.00000000000E+00  0.00000000000E+00  0.45593999997E+02  0.45594000000E+02  0.51100000000E-03 0.  1.
         11   -1    0    0    0    0 -0.00000000000E+00 -0.00000000000E+00 -0.45593999997E+02  0.45594000000E+02  0.51100000000E-03 0. -1.
    9900012    2    1    2    0    0 -0.10328018671E+02  0.29293373147E+02  0.72073700053E+01  0.59302017776E+02  0.50000134499E+02 0.  0.
        -12    1    1    2    0    0  0.10328018671E+02 -0.29293373147E+02 -0.72073700053E+01  0.31885982224E+02  0.00000000000E+00 0.  1.
         11    1    3    3    0    0  0.52180873457E+01 -0.48395478323E+00  0.25085548507E+01  0.58099479756E+01  0.51100000000E-03 0. -1.
        -11    1    3    3    0    0 -0.67200096372E+01 -0.69717579978E+01  0.11560530531E+02  0.15080112915E+02  0.51100000000E-03 0.  1.
         12    1    3    3    0    0 -0.88260963793E+01  0.36749085928E+02 -0.68617153766E+01  0.38411956885E+02  0.00000000000E+00 0. -1.
</event>
<event>
 7    1  0.6285940E-013  0.5930192E+02  0.7816164E-02  0.1266605E+00
        -11   -1    0    0    0    0  0.00000000000E+00  0.00000000000E+00  0.45593999997E+02  0.45594000000E+02  0.51100000000E-03 0. -1.
         11   -1    0    0    0    0 -0.00000000000E+00 -0.00000000000E+00 -0.45593999997E+02  0.45594000000E+02  0.51100000000E-03 0.  1.
    9900012    2    1    2    0    0 -0.18795348487E+02  0.24824973853E+02  0.68686095869E+01  0.59301917625E+02  0.49999951848E+02 0.  0.
        -12    1    1    2    0    0  0.18795348487E+02 -0.24824973853E+02 -0.68686095869E+01  0.31886082375E+02  0.00000000000E+00 0.  1.
         11    1    3    3    0    0  0.80596620765E+01  0.10572622519E+02  0.36689443014E+01  0.13791288999E+02  0.51100000000E-03 0. -1.
        -11    1    3    3    0    0 -0.26127210331E+01  0.27990144896E+01 -0.13426841296E+02  0.13962122359E+02  0.51100000000E-03 0.  1.
        -12    1    3    3    0    0 -0.24242289530E+02  0.11453336845E+02  0.16626506582E+02  0.31548506267E+02  0.00000000000E+00 0.  1.
</event>
<event>
 7    1  0.6285940E-013  0.5930194E+02  0.7816164E-02  0.1266605E+00
        -11   -1    0    0    0    0  0.00000000000E+00  0.00000000000E+00  0.45593999997E+02  0.45594000000E+02  0.51100000000E-03 0.  1.
         11   -1    0    0    0    0 -0.00000000000E+00 -0.00000000000E+00 -0.45593999997E+02  0.45594000000E+02  0.51100000000E-03 0. -1.
    9900012    2    1    2    0    0  0.96474587769E+01 -0.13360530455E+02 -0.27297320455E+02  0.59301938172E+02  0.49999989321E+02 0.  0.
        -12    1    1    2    0    0 -0.96474587769E+01  0.13360530455E+02  0.27297320455E+02  0.31886061828E+02  0.00000000000E+00 0.  1.
         11    1    3    3    0    0  0.72693126114E+00  0.14375381748E+01 -0.82156149443E+01  0.83720531673E+01  0.51100000000E-03 0. -1.
        -11    1    3    3    0    0  0.12449893414E+02 -0.40527121487E+01 -0.31512264190E+02  0.34123996197E+02  0.51100000000E-03 0.  1.
        -12    1    3    3    0    0 -0.35293658984E+01 -0.10745356481E+02  0.12430558680E+02  0.16805888808E+02  0.00000000000E+00 0.  1.
</event>
<event>
 7    1  0.6285940E-013  0.5930207E+02  0.7816164E-02  0.1266604E+00
        -11   -1    0    0    0    0  0.00000000000E+00  0.00000000000E+00  0.45593999997E+02  0.45594000000E+02  0.51100000000E-03 0.  1.
         11   -1    0    0    0    0 -0.00000000000E+00 -0.00000000000E+00 -0.45593999997E+02  0.45594000000E+02  0.51100000000E-03 0. -1.
    9900012    2    1    2    0    0  0.13457642557E+02  0.23763125200E+02 -0.16459600545E+02  0.59302067168E+02  0.50000224578E+02 0.  0.
        -12    1    1    2    0    0 -0.13457642557E+02 -0.23763125200E+02  0.16459600545E+02  0.31885932832E+02  0.00000000000E+00 0.  1.
         11    1    3    3    0    0  0.80100785886E+01 -0.64042104167E+01 -0.38773482513E+01  0.10963991052E+02  0.51100000000E-03 0. -1.
        -11    1    3    3    0    0  0.16300707639E+02  0.11122282857E+02  0.48618416920E+01  0.20323773035E+02  0.51100000000E-03 0.  1.
         12    1    3    3    0    0 -0.10853143670E+02  0.19045052760E+02 -0.17444093986E+02  0.28014303082E+02  0.00000000000E+00 0. -1.
</event>
<event>
 7    1  0.6285940E-013  0.5930197E+02  0.7816164E-02  0.1266605E+00
        -11   -1    0    0    0    0  0.00000000000E+00  0.00000000000E+00  0.45593999997E+02  0.45594000000E+02  0.51100000000E-03 0.  1.
         11   -1    0    0    0    0 -0.00000000000E+00 -0.00000000000E+00 -0.45593999997E+02  0.45594000000E+02  0.51100000000E-03 0. -1.
    9900012    2    1    2    0    0 -0.15713872962E+02  0.26729987472E+02  0.74364430648E+01  0.59301972980E+02  0.50000052801E+02 0.  0.
        -12    1    1    2    0    0  0.15713872962E+02 -0.26729987472E+02 -0.74364430648E+01  0.31886027020E+02  0.00000000000E+00 0.  1.
         11    1    3    3    0    0 -0.24709012963E+01  0.10170943365E+02 -0.13506140226E+02  0.17087108187E+02  0.51100000000E-03 0. -1.
        -11    1    3    3    0    0  0.53817977767E+01  0.12650154708E+02  0.18469694099E+02  0.23024329780E+02  0.51100000000E-03 0.  1.
        -12    1    3    3    0    0 -0.18624769442E+02  0.39088893989E+01  0.24728891914E+01  0.19190535012E+02  0.00000000000E+00 0.  1.
</event>
<event>
 7    1  0.6285940E-013  0.5930193E+02  0.7816164E-02  0.1266605E+00
        -11   -1    0    0    0    0  0.00000000000E+00  0.00000000000E+00  0.45593999997E+02  0.45594000000E+02  0.51100000000E-03 0.  1.
         11   -1    0    0    0    0 -0.00000000000E+00 -0.00000000000E+00 -0.45593999997E+02  0.45594000000E+02  0.51100000000E-03 0. -1.
    9900012    2    1    2    0    0  0.24428625911E+02 -0.17826639606E+02 -0.10108146005E+02  0.59301930014E+02  0.49999974442E+02 0.  0.
        -12    1    1    2    0    0 -0.24428625911E+02  0.17826639606E+02  0.10108146005E+02  0.31886069986E+02  0.00000000000E+00 0.  1.
         11    1    3    3    0    0  0.12518146951E+02 -0.14193890712E+02  0.40263870869E+01  0.19348961984E+02  0.51100000000E-03 0. -1.
        -11    1    3    3    0    0  0.92701109469E+01  0.51871061218E+01  0.97105840764E+01  0.14392236458E+02  0.51100000000E-03 0.  1.
         12    1    3    3    0    0  0.26403680123E+01 -0.88198550157E+01 -0.23845117168E+02  0.25560731572E+02  0.00000000000E+00 0. -1.
</event>
<event>
 7    1  0.6285940E-013  0.5930190E+02  0.7816164E-02  0.1266605E+00
        -11   -1    0    0    0    0  0.00000000000E+00  0.00000000000E+00  0.45593999997E+02  0.45594000000E+02  0.51100000000E-03 0.  1.
         11   -1    0    0    0    0 -0.00000000000E+00 -0.00000000000E+00 -0.45593999997E+02  0.45594000000E+02  0.51100000000E-03 0. -1.
    9900012    2    1    2    0    0 -0.24993224381E+02 -0.10476581092E+02 -0.16801884544E+02  0.59301900513E+02  0.49999920639E+02 0.  0.
        -12    1    1    2    0    0  0.24993224381E+02  0.10476581092E+02  0.16801884544E+02  0.31886099487E+02  0.00000000000E+00 0.  1.
         11    1    3    3    0    0 -0.94779702861E+01 -0.13997563909E+02 -0.16167255792E+02  0.23391106776E+02  0.51100000000E-03 0. -1.
        -11    1    3    3    0    0 -0.20816637836E+02 -0.49256274548E+01 -0.86921281585E+01  0.23089982867E+02  0.51100000000E-03 0.  1.
        -12    1    3    3    0    0  0.53013837411E+01  0.84466102718E+01  0.80574994070E+01  0.12820810869E+02  0.00000000000E+00 0.  1.
</event>
<event>
 7    1  0.6285940E-013  0.5930195E+02  0.7816164E-02  0.1266605E+00
        -11   -1    0    0    0    0  0.00000000000E+00  0.00000000000E+00  0.45593999997E+02  0.45594000000E+02  0.51100000000E-03 0. -1.
         11   -1    0    0    0    0 -0.00000000000E+00 -0.00000000000E+00 -0.45593999997E+02  0.45594000000E+02  0.51100000000E-03 0.  1.
    9900012    2    1    2    0    0 -0.17213043580E+01 -0.75312395399E+01  0.30936026610E+02  0.59301949757E+02  0.50000010448E+02 0.  0.
        -12    1    1    2    0    0  0.17213043580E+01  0.75312395399E+01 -0.30936026610E+02  0.31886050243E+02  0.00000000000E+00 0.  1.
         11    1    3    3    0    0 -0.31547454794E+00  0.57134165882E+01 -0.18975292448E+01  0.60285380315E+01  0.51100000000E-03 0. -1.
        -11    1    3    3    0    0  0.81122662639E+01 -0.54198300092E+01 -0.67190109437E+01  0.11846034340E+02  0.51100000000E-03 0.  1.
         12    1    3    3    0    0 -0.95180960740E+01 -0.78248261189E+01  0.39552566798E+02  0.41427377385E+02  0.00000000000E+00 0. -1.
</event>
<event>
 7    1  0.6285940E-013  0.5930194E+02  0.7816164E-02  0.1266605E+00
        -11   -1    0    0    0    0  0.00000000000E+00  0.00000000000E+00  0.45593999997E+02  0.45594000000E+02  0.51100000000E-03 0.  1.
         11   -1    0    0    0    0 -0.00000000000E+00 -0.00000000000E+00 -0.45593999997E+02  0.45594000000E+02  0.51100000000E-03 0. -1.
    9900012    2    1    2    0    0  0.22884538482E+02 -0.17917725192E+02 -0.13113874734E+02  0.59301942104E+02  0.49999996492E+02 0.  0.
        -12    1    1    2    0    0 -0.22884538482E+02  0.17917725192E+02  0.13113874734E+02  0.31886057896E+02  0.00000000000E+00 0.  1.
         11    1    3    3    0    0 -0.14754815496E+01 -0.15551101359E+02 -0.74529305364E+01  0.17307800933E+02  0.51100000000E-03 0. -1.
        -11    1    3    3    0    0  0.83295460398E+01  0.15084642964E+01 -0.18988556637E+02  0.20789951544E+02  0.51100000000E-03 0.  1.
        -12    1    3    3    0    0  0.16030473992E+02 -0.38750881291E+01  0.13327612440E+02  0.21204189628E+02  0.00000000000E+00 0.  1.
</event>
<event>
 7    1  0.6285940E-013  0.5930200E+02  0.7816164E-02  0.1266605E+00
        -11   -1    0    0    0    0  0.00000000000E+00  0.00000000000E+00  0.45593999997E+02  0.45594000000E+02  0.51100000000E-03 0.  1.
         11   -1    0    0    0    0 -0.00000000000E+00 -0.00000000000E+00 -0.45593999997E+02  0.45594000000E+02  0.51100000000E-03 0. -1.
    9900012    2    1    2    0    0  0.12464522019E+02 -0.23074084994E+01 -0.29257962233E+02  0.59302003118E+02  0.50000107766E+02 0.  0.
        -12    1    1    2    0    0 -0.12464522019E+02  0.23074084994E+01  0.29257962233E+02  0.31885996882E+02  0.00000000000E+00 0.  1.
         11    1    3    3    0    0  0.84881544832E+01 -0.84148785963E+01 -0.18726800182E+02  0.22216030105E+02  0.51100000000E-03 0. -1.
        -11    1    3    3    0    0  0.16493989464E+02  0.96727669879E+01 -0.13902545925E+02  0.23640957956E+02  0.51100000000E-03 0.  1.
         12    1    3    3    0    0 -0.12517621928E+02 -0.35652968911E+01  0.33713838730E+01  0.13445015057E+02  0.00000000000E+00 0. -1.
</event>
<event>
 7    1  0.6285940E-013  0.5930195E+02  0.7816164E-02  0.1266605E+00
        -11   -1    0    0    0    0  0.00000000000E+00  0.00000000000E+00  0.45593999997E+02  0.45594000000E+02  0.51100000000E-03 0. -1.
         11   -1    0    0    0    0 -0.00000000000E+00 -0.00000000000E+00 -0.45593999997E+02  0.45594000000E+02  0.51100000000E-03 0.  1.
    9900012    2    1    2    0    0  0.10584581248E+02  0.12714853211E+02 -0.27258378936E+02  0.59301951725E+02  0.50000014038E+02 0.  0.
        -12    1    1    2    0    0 -0.10584581248E+02 -0.12714853211E+02  0.27258378936E+02  0.31886048275E+02  0.00000000000E+00 0.  1.
         11    1    3    3    0    0 -0.19664470590E+01  0.17842849466E+02 -0.19459552243E+01  0.18056049764E+02  0.51100000000E-03 0. -1.
        -11    1    3    3    0    0  0.56445578595E+01  0.12159121620E+02 -0.14371548286E+02  0.19653159349E+02  0.51100000000E-03 0.  1.
        -12    1    3    3    0    0  0.69064704473E+01 -0.17287117875E+02 -0.10940875426E+02  0.21592742613E+02  0.00000000000E+00 0.  1.
</event>
<event>
 7    1  0.6285940E-013  0.5930194E+02  0.7816164E-02  0.1266605E+00
        -11   -1    0    0    0    0  0.00000000000E+00  0.00000000000E+00  0.45593999997E+02  0.45594000000E+02  0.51100000000E-03 0. -1.
         11   -1    0    0    0    0 -0.00000000000E+00 -0.00000000000E+00 -0.45593999997E+02  0.45594000000E+02  0.51100000000E-03 0.  1.
    9900012    2    1    2    0    0  0.10562633460E+02  0.28922212913E+02 -0.82859483837E+01  0.59301944019E+02  0.49999999984E+02 0.  0.
        -12    1    1    2    0    0 -0.10562633460E+02 -0.28922212913E+02  0.82859483837E+01  0.31886055981E+02  0.00000000000E+00 0.  1.
         11    1    3    3    0    0  0.12450757854E+02  0.44131195411E+01  0.48828114945E+01  0.14083282415E+02  0.51100000000E-03 0. -1.
        -11    1    3    3    0    0  0.16594084328E+02  0.13943403407E+02 -0.92788891646E+01  0.23577105794E+02  0.51100000000E-03 0.  1.
        -12    1    3    3    0    0 -0.18482208722E+02  0.10565689966E+02 -0.38898707136E+01  0.21641555810E+02  0.00000000000E+00 0.  1.
</event>
<event>
 7    1  0.6285940E-013  0.5930218E+02  0.7816164E-02  0.1266604E+00
        -11   -1    0    0    0    0  0.00000000000E+00  0.00000000000E+00  0.45593999997E+02  0.45594000000E+02  0.51100000000E-03 0.  1.
         11   -1    0    0    0    0 -0.00000000000E+00 -0.00000000000E+00 -0.45593999997E+02  0.45594000000E+02  0.51100000000E-03 0. -1.
    9900012    2    1    2    0    0  0.47898276387E+01  0.31354824781E+02 -0.32615938409E+01  0.59302180577E+02  0.50000431408E+02 0.  0.
        -12    1    1    2    0    0 -0.47898276387E+01 -0.31354824781E+02  0.32615938409E+01  0.31885819423E+02  0.00000000000E+00 0.  1.
         11    1    3    3    0    0  0.38470589729E+01  0.22424486945E+02  0.17808244715E+02  0.28892750952E+02  0.51100000000E-03 0.  1.
        -11    1    3    3    0    0 -0.28401222109E+01 -0.49611339782E+01 -0.11496213902E+01  0.58310182751E+01  0.51100000000E-03 0. -1.
        -12    1    3    3    0    0  0.37828908766E+01  0.13891471815E+02 -0.19920217166E+02  0.24578411350E+02  0.00000000000E+00 0.  1.
</event>
<event>
 7    1  0.6285940E-013  0.5930198E+02  0.7816164E-02  0.1266605E+00
        -11   -1    0    0    0    0  0.00000000000E+00  0.00000000000E+00  0.45593999997E+02  0.45594000000E+02  0.51100000000E-03 0.  1.
         11   -1    0    0    0    0 -0.00000000000E+00 -0.00000000000E+00 -0.45593999997E+02  0.45594000000E+02  0.51100000000E-03 0. -1.
    9900012    2    1    2    0    0  0.19859418808E+02  0.23236281664E+02 -0.90772666285E+01  0.59301983153E+02  0.50000071355E+02 0.  0.
        -12    1    1    2    0    0 -0.19859418808E+02 -0.23236281664E+02  0.90772666285E+01  0.31886016847E+02  0.00000000000E+00 0.  1.
         11    1    3    3    0    0  0.22495567250E+02  0.66225438107E+01 -0.14565670305E+02  0.27605567991E+02  0.51100000000E-03 0. -1.
        -11    1    3    3    0    0 -0.85214069859E+00  0.19047847436E+02 -0.58651641665E+01  0.19948603627E+02  0.51100000000E-03 0.  1.
         12    1    3    3    0    0 -0.17840077442E+01 -0.24341095827E+01  0.11353567843E+02  0.11747811535E+02  0.00000000000E+00 0. -1.
</event>
<event>
 7    1  0.6285940E-013  0.5930195E+02  0.7816164E-02  0.1266605E+00
        -11   -1    0    0    0    0  0.00000000000E+00  0.00000000000E+00  0.45593999997E+02  0.45594000000E+02  0.51100000000E-03 0.  1.
         11   -1    0    0    0    0 -0.00000000000E+00 -0.00000000000E+00 -0.45593999997E+02  0.45594000000E+02  0.51100000000E-03 0. -1.
    9900012    2    1    2    0    0  0.26988468925E+02 -0.38937085269E+01 -0.16528214740E+02  0.59301948135E+02  0.50000007492E+02 0.  0.
        -12    1    1    2    0    0 -0.26988468925E+02  0.38937085269E+01  0.16528214740E+02  0.31886051865E+02  0.00000000000E+00 0.  1.
         11    1    3    3    0    0 -0.46148502018E+01  0.20126962682E+01  0.57792124586E+01  0.76646647386E+01  0.51100000000E-03 0.  1.
        -11    1    3    3    0    0  0.14168784249E+02 -0.14512241422E+02  0.21473178810E+01  0.20395356642E+02  0.51100000000E-03 0. -1.
        -12    1    3    3    0    0  0.17434534878E+02  0.86058366273E+01 -0.24454745080E+02  0.31241926755E+02  0.00000000000E+00 0.  1.
</event>
<event>
 7    1  0.6285940E-013  0.5930191E+02  0.7816164E-02  0.1266605E+00
        -11   -1    0    0    0    0  0.00000000000E+00  0.00000000000E+00  0.45593999997E+02  0.45594000000E+02  0.51100000000E-03 0.  1.
         11   -1    0    0    0    0 -0.00000000000E+00 -0.00000000000E+00 -0.45593999997E+02  0.45594000000E+02  0.51100000000E-03 0. -1.
    9900012    2    1    2    0    0  0.29398209698E+02 -0.60398875478E+01 -0.10769752178E+02  0.59301913112E+02  0.49999943617E+02 0.  0.
        -12    1    1    2    0    0 -0.29398209698E+02  0.60398875478E+01  0.10769752178E+02  0.31886086888E+02  0.00000000000E+00 0.  1.
         11    1    3    3    0    0  0.16620904974E+02  0.20363356261E+01  0.71079077707E+01  0.18191302814E+02  0.51100000000E-03 0. -1.
        -11    1    3    3    0    0  0.11893084084E+02 -0.92675402309E+01  0.66921931672E+01  0.16496005595E+02  0.51100000000E-03 0.  1.
         12    1    3    3    0    0  0.88422064031E+00  0.11913170569E+01 -0.24569853116E+02  0.24614604702E+02  0.00000000000E+00 0. -1.
</event>
<event>
 7    1  0.6285940E-013  0.5930197E+02  0.7816164E-02  0.1266605E+00
        -11   -1    0    0    0    0  0.00000000000E+00  0.00000000000E+00  0.45593999997E+02  0.45594000000E+02  0.51100000000E-03 0.  1.
         11   -1    0    0    0    0 -0.00000000000E+00 -0.00000000000E+00 -0.45593999997E+02  0.45594000000E+02  0.51100000000E-03 0. -1.
    9900012    2    1    2    0    0 -0.21971127803E+02 -0.21716548527E+02 -0.78980954175E+01  0.59301970958E+02  0.50000049115E+02 0.  0.
        -12    1    1    2    0    0  0.21971127803E+02  0.21716548527E+02  0.78980954175E+01  0.31886029042E+02  0.00000000000E+00 0.  1.
         11    1    3    3    0    0 -0.11492106484E+00  0.49596105435E+01 -0.11090251571E+02  0.12149264330E+02  0.51100000000E-03 0.  1.
        -11    1    3    3    0    0  0.10531739547E+01 -0.22096666804E+02 -0.44638582510E+01  0.22567629250E+02  0.51100000000E-03 0. -1.
         12    1    3    3    0    0 -0.22909380692E+02 -0.45794922662E+01  0.76560144044E+01  0.24585077378E+02  0.00000000000E+00 0. -1.
</event>
<event>
 7    1  0.6285940E-013  0.5930195E+02  0.7816164E-02  0.1266605E+00
        -11   -1    0    0    0    0  0.00000000000E+00  0.00000000000E+00  0.45593999997E+02  0.45594000000E+02  0.51100000000E-03 0. -1.
         11   -1    0    0    0    0 -0.00000000000E+00 -0.00000000000E+00 -0.45593999997E+02  0.45594000000E+02  0.51100000000E-03 0.  1.
    9900012    2    1    2    0    0  0.20258227287E+02  0.11531681382E+02  0.21756483867E+02  0.59301952290E+02  0.50000015068E+02 0.  0.
        -12    1    1    2    0    0 -0.20258227287E+02 -0.11531681382E+02 -0.21756483867E+02  0.31886047710E+02  0.00000000000E+00 0.  1.
         11    1    3    3    0    0  0.21007548378E+02 -0.56721688054E+01  0.20001044186E+02  0.29555580803E+02  0.51100000000E-03 0. -1.
        -11    1    3    3    0    0 -0.74313404294E+01 -0.30755913469E+01  0.23732911954E+01  0.83854990352E+01  0.51100000000E-03 0.  1.
        -12    1    3    3    0    0  0.66820193388E+01  0.20279441535E+02 -0.61785151405E+00  0.21360872452E+02  0.00000000000E+00 0.  1.
</event>
<event>
 7    1  0.6285940E-013  0.5930196E+02  0.7816164E-02  0.1266605E+00
        -11   -1    0    0    0    0  0.00000000000E+00  0.00000000000E+00  0.45593999997E+02  0.45594000000E+02  0.51100000000E-03 0. -1.
         11   -1    0    0    0    0 -0.00000000000E+00 -0.00000000000E+00 -0.45593999997E+02  0.45594000000E+02  0.51100000000E-03 0.  1.
    9900012    2    1    2    0    0  0.13986819194E+02 -0.18829269708E+02  0.21599703431E+02  0.59301957643E+02  0.50000024831E+02 0.  0.
        -12    1    1    2    0    0 -0.13986819194E+02  0.18829269708E+02 -0.21599703431E+02  0.31886042357E+02  0.00000000000E+00 0.  1.
         11    1    3    3    0    0  0.47140189128E+01 -0.13534981067E+02  0.22608504410E+01  0.14509622041E+02  0.51100000000E-03 0. -1.
        -11    1    3    3    0    0 -0.21025093180E+01  0.33173545151E+01 -0.10775628491E+02  0.11469069537E+02  0.51100000000E-03 0.  1.
         12    1    3    3    0    0  0.11375309599E+02 -0.86116431560E+01  0.30114481481E+02  0.33323266064E+02  0.00000000000E+00 0. -1.
</event>
<event>
 7    1  0.6285940E-013  0.5930195E+02  0.7816164E-02  0.1266605E+00
        -11   -1    0    0    0    0  0.00000000000E+00  0.00000000000E+00  0.45593999997E+02  0.45594000000E+02  0.51100000000E-03 0. -1.
         11   -1    0    0    0    0 -0.00000000000E+00 -0.00000000000E+00 -0.45593999997E+02  0.45594000000E+02  0.51100000000E-03 0.  1.
    9900012    2    1    2    0    0 -0.20897645493E+02  0.20710800568E+02  0.12291112100E+02  0.59301948442E+02  0.50000008050E+02 0.  0.
        -12    1    1    2    0    0  0.20897645493E+02 -0.20710800568E+02 -0.12291112100E+02  0.31886051558E+02  0.00000000000E+00 0.  1.
         11    1    3    3    0    0 -0.17671987183E+02  0.54860716082E+01  0.19264352625E+02  0.26711634076E+02  0.51100000000E-03 0. -1.
        -11    1    3    3    0    0  0.29231624590E+00  0.20636571220E+02  0.28517119318E+01  0.20834725381E+02  0.51100000000E-03 0.  1.
         12    1    3    3    0    0 -0.35179745556E+01 -0.54118422593E+01 -0.98249524566E+01  0.11755588985E+02  0.00000000000E+00 0. -1.
</event>
<event>
 7    1  0.6285940E-013  0.5930195E+02  0.7816164E-02  0.1266605E+00
        -11   -1    0    0    0    0  0.00000000000E+00  0.00000000000E+00  0.45593999997E+02  0.45594000000E+02  0.51100000000E-03 0.  1.
         11   -1    0    0    0    0 -0.00000000000E+00 -0.00000000000E+00 -0.45593999997E+02  0.45594000000E+02  0.51100000000E-03 0. -1.
    9900012    2    1    2    0    0  0.10638965568E+02  0.21828906551E+02 -0.20664737996E+02  0.59301950605E+02  0.50000011995E+02 0.  0.
        -12    1    1    2    0    0 -0.10638965568E+02 -0.21828906551E+02  0.20664737996E+02  0.31886049395E+02  0.00000000000E+00 0.  1.
         11    1    3    3    0    0  0.12236409609E+02  0.18385709937E+02 -0.67597027599E+01  0.23096701749E+02  0.51100000000E-03 0. -1.
        -11    1    3    3    0    0  0.75730359825E+01  0.40399384304E+01 -0.22214911252E+02  0.23815420607E+02  0.51100000000E-03 0.  1.
        -12    1    3    3    0    0 -0.91704800234E+01 -0.59674181598E+00  0.83098760154E+01  0.12389828249E+02  0.00000000000E+00 0.  1.
</event>
<event>
 7    1  0.6285940E-013  0.5930194E+02  0.7816164E-02  0.1266605E+00
        -11   -1    0    0    0    0  0.00000000000E+00  0.00000000000E+00  0.45593999997E+02  0.45594000000E+02  0.51100000000E-03 0.  1.
         11   -1    0    0    0    0 -0.00000000000E+00 -0.00000000000E+00 -0.45593999997E+02  0.45594000000E+02  0.51100000000E-03 0. -1.
    9900012    2    1    2    0    0 -0.27668029465E+02  0.46190546873E+01 -0.15161301011E+02  0.59301943972E+02  0.49999999898E+02 0.  0.
        -12    1    1    2    0    0  0.27668029465E+02 -0.46190546873E+01  0.15161301011E+02  0.31886056028E+02  0.00000000000E+00 0.  1.
         11    1    3    3    0    0  0.39860936393E+01 -0.76453469119E+01 -0.18305900589E+01  0.88142686667E+01  0.51100000000E-03 0. -1.
        -11    1    3    3    0    0 -0.26536977246E+02 -0.77136312740E+01 -0.42748412468E+01  0.27964004305E+02  0.51100000000E-03 0.  1.
         12    1    3    3    0    0 -0.51171458586E+01  0.19978032873E+02 -0.90558697051E+01  0.22523671000E+02  0.00000000000E+00 0. -1.
</event>
<event>
 7    1  0.6285940E-013  0.5930216E+02  0.7816164E-02  0.1266604E+00
        -11   -1    0    0    0    0  0.00000000000E+00  0.00000000000E+00  0.45593999997E+02  0.45594000000E+02  0.51100000000E-03 0. -1.
         11   -1    0    0    0    0 -0.00000000000E+00 -0.00000000000E+00 -0.45593999997E+02  0.45594000000E+02  0.51100000000E-03 0.  1.
    9900012    2    1    2    0    0  0.19012156762E+02  0.17778591700E+02 -0.18416472017E+02  0.59302158798E+02  0.50000391689E+02 0.  0.
        -12    1    1    2    0    0 -0.19012156762E+02 -0.17778591700E+02  0.18416472017E+02  0.31885841202E+02  0.00000000000E+00 0.  1.
         11    1    3    3    0    0  0.23946421591E+02  0.10110609042E+02  0.62725156635E+01  0.26739483451E+02  0.51100000000E-03 0. -1.
        -11    1    3    3    0    0  0.52912878704E+01 -0.32678039538E+01 -0.63456272709E+01  0.88850017293E+01  0.51100000000E-03 0.  1.
        -12    1    3    3    0    0 -0.10225552700E+02  0.10935786612E+02 -0.18343360410E+02  0.23677673618E+02  0.00000000000E+00 0.  1.
</event>
<event>
 7    1  0.6285940E-013  0.5930194E+02  0.7816164E-02  0.1266605E+00
        -11   -1    0    0    0    0  0.00000000000E+00  0.00000000000E+00  0.45593999997E+02  0.45594000000E+02  0.51100000000E-03 0. -1.
         11   -1    0    0    0    0 -0.00000000000E+00 -0.00000000000E+00 -0.45593999997E+02  0.45594000000E+02  0.51100000000E-03 0.  1.
    9900012    2    1    2    0    0 -0.99293452225E+01  0.28825878888E+02  0.93379829229E+01  0.59301935407E+02  0.49999984277E+02 0.  0.
        -12    1    1    2    0    0  0.99293452225E+01 -0.28825878888E+02 -0.93379829229E+01  0.31886064593E+02  0.00000000000E+00 0.  1.
         11    1    3    3    0    0  0.13644088625E+02  0.11142578436E+02  0.15978850436E+02  0.23783226655E+02  0.51100000000E-03 0. -1.
        -11    1    3    3    0    0 -0.92520621055E+01  0.21851349712E+01  0.56887557640E+01  0.11078691730E+02  0.51100000000E-03 0.  1.
         12    1    3    3    0    0 -0.14321371742E+02  0.15498165481E+02 -0.12329623277E+02  0.24440017021E+02  0.00000000000E+00 0. -1.
</event>
<event>
 7    1  0.6285940E-013  0.5930195E+02  0.7816164E-02  0.1266605E+00
        -11   -1    0    0    0    0  0.00000000000E+00  0.00000000000E+00  0.45593999997E+02  0.45594000000E+02  0.51100000000E-03 0.  1.
         11   -1    0    0    0    0 -0.00000000000E+00 -0.00000000000E+00 -0.45593999997E+02  0.45594000000E+02  0.51100000000E-03 0. -1.
    9900012    2    1    2    0    0 -0.21442854532E+02 -0.11537119662E+02 -0.20586867038E+02  0.59301949210E+02  0.50000009451E+02 0.  0.
        -12    1    1    2    0    0  0.21442854532E+02  0.11537119662E+02  0.20586867038E+02  0.31886050790E+02  0.00000000000E+00 0.  1.
         11    1    3    3    0    0  0.88946797312E+01 -0.15954572122E+02  0.35172511118E+01  0.18602009428E+02  0.51100000000E-03 0. -1.
        -11    1    3    3    0    0 -0.12232102289E+00  0.25162555460E+01 -0.18082424703E+01  0.31010071748E+01  0.51100000000E-03 0.  1.
         12    1    3    3    0    0 -0.30215213240E+02  0.19011969144E+01 -0.22295875680E+02  0.37598932607E+02  0.00000000000E+00 0. -1.
</event>
<event>
 7    1  0.6285940E-013  0.5930199E+02  0.7816164E-02  0.1266605E+00
        -11   -1    0    0    0    0  0.00000000000E+00  0.00000000000E+00  0.45593999997E+02  0.45594000000E+02  0.51100000000E-03 0. -1.
         11   -1    0    0    0    0 -0.00000000000E+00 -0.00000000000E+00 -0.45593999997E+02  0.45594000000E+02  0.51100000000E-03 0.  1.
    9900012    2    1    2    0    0  0.19102261516E+00  0.94355450218E+01  0.30457372804E+02  0.59301991193E+02  0.50000086018E+02 0.  0.
        -12    1    1    2    0    0 -0.19102261516E+00 -0.94355450218E+01 -0.30457372804E+02  0.31886008807E+02  0.00000000000E+00 0.  1.
         11    1    3    3    0    0  0.71652877541E+01  0.80403322275E+01  0.10081136713E+02  0.14751867970E+02  0.51100000000E-03 0. -1.
        -11    1    3    3    0    0  0.10293000668E+02 -0.12509011267E+02  0.14185427333E+02  0.21532477203E+02  0.51100000000E-03 0.  1.
        -12    1    3    3    0    0 -0.17267265807E+02  0.13904224061E+02  0.61908087583E+01  0.23017646019E+02  0.00000000000E+00 0.  1.
</event>
<event>
 7    1  0.6285940E-013  0.5930194E+02  0.7816164E-02  0.1266605E+00
        -11   -1    0    0    0    0  0.00000000000E+00  0.00000000000E+00  0.45593999997E+02  0.45594000000E+02  0.51100000000E-03 0.  1.
         11   -1    0    0    0    0 -0.00000000000E+00 -0.00000000000E+00 -0.45593999997E+02  0.45594000000E+02  0.51100000000E-03 0. -1.
    9900012    2    1    2    0    0 -0.76828491205E+01  0.11545188696E+02 -0.28712425188E+02  0.59301938581E+02  0.49999990066E+02 0.  0.
        -12    1    1    2    0    0  0.76828491205E+01 -0.11545188696E+02  0.28712425188E+02  0.31886061419E+02  0.00000000000E+00 0.  1.
         11    1    3    3    0    0 -0.37982188725E+01  0.27987743861E+02 -0.10654645749E+02  0.30187112305E+02  0.51100000000E-03 0. -1.
        -11    1    3    3    0    0 -0.79736662712E+01 -0.25750697730E+01 -0.67812308015E+01  0.10779398387E+02  0.51100000000E-03 0.  1.
        -12    1    3    3    0    0  0.40890360232E+01 -0.13867485391E+02 -0.11276548638E+02  0.18335427889E+02  0.00000000000E+00 0.  1.
</event>
<event>
 7    1  0.6285940E-013  0.5930195E+02  0.7816164E-02  0.1266605E+00
        -11   -1    0    0    0    0  0.00000000000E+00  0.00000000000E+00  0.45593999997E+02  0.45594000000E+02  0.51100000000E-03 0. -1.
         11   -1    0    0    0    0 -0.00000000000E+00 -0.00000000000E+00 -0.45593999997E+02  0.45594000000E+02  0.51100000000E-03 0.  1.
    9900012    2    1    2    0    0  0.19838028461E+01 -0.20369010583E+02  0.24451749090E+02  0.59301951336E+02  0.50000013328E+02 0.  0.
        -12    1    1    2    0    0 -0.19838028461E+01  0.20369010583E+02 -0.24451749090E+02  0.31886048664E+02  0.00000000000E+00 0.  1.
         11    1    3    3    0    0 -0.14255399689E+02 -0.14678650735E+02  0.67352942696E+01  0.21541666529E+02  0.51100000000E-03 0. -1.
        -11    1    3    3    0    0 -0.67503055222E+01  0.45557871280E+01  0.50607853363E+01  0.95881890616E+01  0.51100000000E-03 0.  1.
        -12    1    3    3    0    0  0.22989508057E+02 -0.10246146977E+02  0.12655669484E+02  0.28172095745E+02  0.00000000000E+00 0.  1.
</event>
<event>
 7    1  0.6285940E-013  0.5930194E+02  0.7816164E-02  0.1266605E+00
        -11   -1    0    0    0    0  0.00000000000E+00  0.00000000000E+00  0.45593999997E+02  0.45594000000E+02  0.51100000000E-03 0.  1.
         11   -1    0    0    0    0 -0.00000000000E+00 -0.00000000000E+00 -0.45593999997E+02  0.45594000000E+02  0.51100000000E-03 0. -1.
    9900012    2    1    2    0    0  0.10398452938E+02  0.48615507527E+01 -0.29748250456E+02  0.59301938713E+02  0.49999990307E+02 0.  0.
        -12    1    1    2    0    0 -0.10398452938E+02 -0.48615507527E+01  0.29748250456E+02  0.31886061287E+02  0.00000000000E+00 0.  1.
         11    1    3    3    0    0  0.65298793291E+01  0.78171066484E+01 -0.13166231661E+02  0.16646204877E+02  0.51100000000E-03 0. -1.
        -11    1    3    3    0    0  0.17384408115E+02 -0.97819328152E+01  0.33708559840E+00  0.19950375487E+02  0.51100000000E-03 0.  1.
        -12    1    3    3    0    0 -0.13515834506E+02  0.68263769195E+01 -0.16919104393E+02  0.22705358348E+02  0.00000000000E+00 0.  1.
</event>
<event>
 7    1  0.6285940E-013  0.5930194E+02  0.7816164E-02  0.1266605E+00
        -11   -1    0    0    0    0  0.00000000000E+00  0.00000000000E+00  0.45593999997E+02  0.45594000000E+02  0.51100000000E-03 0. -1.
         11   -1    0    0    0    0 -0.00000000000E+00 -0.00000000000E+00 -0.45593999997E+02  0.45594000000E+02  0.51100000000E-03 0.  1.
    9900012    2    1    2    0    0 -0.13856090040E+02 -0.15576633099E+02  0.24126712433E+02  0.59301937485E+02  0.49999988067E+02 0.  0.
        -12    1    1    2    0    0  0.13856090040E+02  0.15576633099E+02 -0.24126712433E+02  0.31886062515E+02  0.00000000000E+00 0.  1.
         11    1    3    3    0    0 -0.25868840035E+02  0.44606742943E+01  0.17458410941E+02  0.31526030717E+02  0.51100000000E-03 0. -1.
        -11    1    3    3    0    0  0.12582863463E+01  0.20435795980E+01  0.47490712759E+00  0.24464339647E+01  0.51100000000E-03 0.  1.
        -12    1    3    3    0    0  0.10754463649E+02 -0.22080886991E+02  0.61933943652E+01  0.25329472803E+02  0.00000000000E+00 0.  1.
</event>
<event>
 7    1  0.6285940E-013  0.5930194E+02  0.7816164E-02  0.1266605E+00
        -11   -1    0    0    0    0  0.00000000000E+00  0.00000000000E+00  0.45593999997E+02  0.45594000000E+02  0.51100000000E-03 0.  1.
         11   -1    0    0    0    0 -0.00000000000E+00 -0.00000000000E+00 -0.45593999997E+02  0.45594000000E+02  0.51100000000E-03 0. -1.
    9900012    2    1    2    0    0 -0.13408048579E+02  0.78525442168E+01 -0.27843891436E+02  0.59301944934E+02  0.50000001653E+02 0.  0.
        -12    1    1    2    0    0  0.13408048579E+02 -0.78525442168E+01  0.27843891436E+02  0.31886055066E+02  0.00000000000E+00 0.  1.
         11    1    3    3    0    0  0.75843212784E+01  0.79246977592E+01 -0.55191554191E+01  0.12279407177E+02  0.51100000000E-03 0. -1.
        -11    1    3    3    0    0  0.33487168076E+01 -0.10193452450E+02  0.22727683815E+01  0.10967490756E+02  0.51100000000E-03 0.  1.
        -12    1    3    3    0    0 -0.24341086665E+02  0.10121298908E+02 -0.24597504398E+02  0.36055047001E+02  0.00000000000E+00 0.  1.
</event>
<event>
 7    1  0.6285940E-013  0.5930193E+02  0.7816164E-02  0.1266605E+00
        -11   -1    0    0    0    0  0.00000000000E+00  0.00000000000E+00  0.45593999997E+02  0.45594000000E+02  0.51100000000E-03 0. -1.
         11   -1    0    0    0    0 -0.00000000000E+00 -0.00000000000E+00 -0.45593999997E+02  0.45594000000E+02  0.51100000000E-03 0.  1.
    9900012    2    1    2    0    0  0.85276341267E+01 -0.14863229444E+02  0.26890249399E+02  0.59301927083E+02  0.49999969097E+02 0.  0.
        -12    1    1    2    0    0 -0.85276341267E+01  0.14863229444E+02 -0.26890249399E+02  0.31886072917E+02  0.00000000000E+00 0.  1.
         11    1    3    3    0    0 -0.51714454643E+01 -0.20696487365E+02  0.17483999883E+02  0.27582216909E+02  0.51100000000E-03 0. -1.
        -11    1    3    3    0    0 -0.65956980549E+01 -0.13227965451E+01  0.75623903068E+01  0.10121401629E+02  0.51100000000E-03 0.  1.
         12    1    3    3    0    0  0.20294777646E+02  0.71560544661E+01  0.18438592093E+01  0.21598308545E+02  0.00000000000E+00 0. -1.
</event>
<event>
 7    1  0.6285940E-013  0.5930194E+02  0.7816164E-02  0.1266605E+00
        -11   -1    0    0    0    0  0.00000000000E+00  0.00000000000E+00  0.45593999997E+02  0.45594000000E+02  0.51100000000E-03 0. -1.
         11   -1    0    0    0    0 -0.00000000000E+00 -0.00000000000E+00 -0.45593999997E+02  0.45594000000E+02  0.51100000000E-03 0.  1.
    9900012    2    1    2    0    0 -0.31315560058E+02 -0.37082699683E+01  0.47228125185E+01  0.59301944647E+02  0.50000001129E+02 0.  0.
        -12    1    1    2    0    0  0.31315560058E+02  0.37082699683E+01 -0.47228125185E+01  0.31886055353E+02  0.00000000000E+00 0.  1.
         11    1    3    3    0    0 -0.40623168944E+02 -0.55924764282E+01  0.19323457502E+01  0.41051816135E+02  0.51100000000E-03 0. -1.
        -11    1    3    3    0    0 -0.23376481479E+01  0.49542040295E+01 -0.11134864340E+01  0.55900437144E+01  0.51100000000E-03 0.  1.
         12    1    3    3    0    0  0.11645257034E+02 -0.30699975696E+01  0.39039532023E+01  0.12660084797E+02  0.00000000000E+00 0. -1.
</event>
<event>
 7    1  0.6285940E-013  0.5930194E+02  0.7816164E-02  0.1266605E+00
        -11   -1    0    0    0    0  0.00000000000E+00  0.00000000000E+00  0.45593999997E+02  0.45594000000E+02  0.51100000000E-03 0.  1.
         11   -1    0    0    0    0 -0.00000000000E+00 -0.00000000000E+00 -0.45593999997E+02  0.45594000000E+02  0.51100000000E-03 0. -1.
    9900012    2    1    2    0    0  0.25579109164E+02 -0.19707268745E+01 -0.18935320137E+02  0.59301938175E+02  0.49999989325E+02 0.  0.
        -12    1    1    2    0    0 -0.25579109164E+02  0.19707268745E+01  0.18935320137E+02  0.31886061825E+02  0.00000000000E+00 0.  1.
         11    1    3    3    0    0  0.89474804596E+01  0.35606103104E+01 -0.92115070285E+01  0.13326185289E+02  0.51100000000E-03 0. -1.
        -11    1    3    3    0    0  0.21747330062E+02 -0.33718373652E+01 -0.22849362327E+02  0.31723950118E+02  0.51100000000E-03 0.  1.
        -12    1    3    3    0    0 -0.51157013576E+01 -0.21594998197E+01  0.13125549219E+02  0.14251802768E+02  0.00000000000E+00 0.  1.
</event>
<event>
 7    1  0.6285940E-013  0.5930198E+02  0.7816164E-02  0.1266605E+00
        -11   -1    0    0    0    0  0.00000000000E+00  0.00000000000E+00  0.45593999997E+02  0.45594000000E+02  0.51100000000E-03 0.  1.
         11   -1    0    0    0    0 -0.00000000000E+00 -0.00000000000E+00 -0.45593999997E+02  0.45594000000E+02  0.51100000000E-03 0. -1.
    9900012    2    1    2    0    0  0.10901894009E+02  0.83659043023E+01 -0.28772875721E+02  0.59301983864E+02  0.50000072652E+02 0.  0.
        -12    1    1    2    0    0 -0.10901894009E+02 -0.83659043023E+01  0.28772875721E+02  0.31886016136E+02  0.00000000000E+00 0.  1.
         11    1    3    3    0    0  0.43193301980E+01 -0.69426532693E+00 -0.13115457882E+02  0.13825840062E+02  0.51100000000E-03 0. -1.
        -11    1    3    3    0    0  0.21700830965E+02  0.29684744820E+01 -0.18813941200E+02  0.28873903253E+02  0.51100000000E-03 0.  1.
        -12    1    3    3    0    0 -0.15118267154E+02  0.60916951473E+01  0.31565233614E+01  0.16602240549E+02  0.00000000000E+00 0.  1.
</event>
<event>
 7    1  0.6285940E-013  0.5930195E+02  0.7816164E-02  0.1266605E+00
        -11   -1    0    0    0    0  0.00000000000E+00  0.00000000000E+00  0.45593999997E+02  0.45594000000E+02  0.51100000000E-03 0.  1.
         11   -1    0    0    0    0 -0.00000000000E+00 -0.00000000000E+00 -0.45593999997E+02  0.45594000000E+02  0.51100000000E-03 0. -1.
    9900012    2    1    2    0    0 -0.96360723243E+01 -0.51341440304E+01 -0.29958418903E+02  0.59301949948E+02  0.50000010797E+02 0.  0.
        -12    1    1    2    0    0  0.96360723243E+01  0.51341440304E+01  0.29958418903E+02  0.31886050052E+02  0.00000000000E+00 0.  1.
         11    1    3    3    0    0 -0.52827907850E+01  0.45844353800E+01 -0.24499221259E+02  0.25478162587E+02  0.51100000000E-03 0. -1.
        -11    1    3    3    0    0 -0.30851215814E+01 -0.18102556155E+02 -0.12981527354E+02  0.22488676422E+02  0.51100000000E-03 0.  1.
         12    1    3    3    0    0 -0.12681599579E+01  0.83839767444E+01  0.75223297104E+01  0.11335110939E+02  0.00000000000E+00 0. -1.
</event>
<event>
 7    1  0.6285940E-013  0.5930195E+02  0.7816164E-02  0.1266605E+00
        -11   -1    0    0    0    0  0.00000000000E+00  0.00000000000E+00  0.45593999997E+02  0.45594000000E+02  0.51100000000E-03 0.  1.
         11   -1    0    0    0    0 -0.00000000000E+00 -0.00000000000E+00 -0.45593999997E+02  0.45594000000E+02  0.51100000000E-03 0. -1.
    9900012    2    1    2    0    0  0.11713700501E+02 -0.35413648719E+01 -0.29444326909E+02  0.59301946126E+02  0.50000003826E+02 0.  0.
        -12    1    1    2    0    0 -0.11713700501E+02  0.35413648719E+01  0.29444326909E+02  0.31886053874E+02  0.00000000000E+00 0.  1.
         11    1    3    3    0    0  0.14385779119E+02 -0.30945299705E+01 -0.38284784844E+02  0.41015259446E+02  0.51100000000E-03 0. -1.
        -11    1    3    3    0    0 -0.10202176722E+01 -0.50475146162E+01 -0.26559751892E+01  0.57941740021E+01  0.51100000000E-03 0.  1.
        -12    1    3    3    0    0 -0.16518609463E+01  0.46006797148E+01  0.11496433124E+02  0.12492512678E+02  0.00000000000E+00 0.  1.
</event>
<event>
 7    1  0.6285940E-013  0.5930194E+02  0.7816164E-02  0.1266605E+00
        -11   -1    0    0    0    0  0.00000000000E+00  0.00000000000E+00  0.45593999997E+02  0.45594000000E+02  0.51100000000E-03 0. -1.
         11   -1    0    0    0    0 -0.00000000000E+00 -0.00000000000E+00 -0.45593999997E+02  0.45594000000E+02  0.51100000000E-03 0.  1.
    9900012    2    1    2    0    0  0.66737619757E+01  0.75716274194E+01  0.30246525219E+02  0.59301938334E+02  0.49999989617E+02 0.  0.
        -12    1    1    2    0    0 -0.66737619757E+01 -0.75716274194E+01 -0.30246525219E+02  0.31886061666E+02  0.00000000000E+00 0.  1.
         11    1    3    3    0    0 -0.94600411566E+01  0.63655063083E+01  0.20667465367E+02  0.23604155867E+02  0.51100000000E-03 0. -1.
        -11    1    3    3    0    0  0.17125453595E+02  0.24704172695E+01  0.19256323169E+02  0.25888030141E+02  0.51100000000E-03 0.  1.
         12    1    3    3    0    0 -0.99165046291E+00 -0.12642961584E+01 -0.96772633162E+01  0.98097523266E+01  0.00000000000E+00 0. -1.
</event>
<event>
 7    1  0.6285940E-013  0.5930196E+02  0.7816164E-02  0.1266605E+00
        -11   -1    0    0    0    0  0.00000000000E+00  0.00000000000E+00  0.45593999997E+02  0.45594000000E+02  0.51100000000E-03 0. -1.
         11   -1    0    0    0    0 -0.00000000000E+00 -0.00000000000E+00 -0.45593999997E+02  0.45594000000E+02  0.51100000000E-03 0.  1.
    9900012    2    1    2    0    0 -0.42134625024E+01 -0.29329459867E+02  0.11779191091E+02  0.59301955637E+02  0.50000021172E+02 0.  0.
        -12    1    1    2    0    0  0.42134625024E+01  0.29329459867E+02 -0.11779191091E+02  0.31886044363E+02  0.00000000000E+00 0.  1.
         11    1    3    3    0    0  0.72897248726E+01 -0.14094164267E+02  0.97002399897E+01  0.18597855017E+02  0.51100000000E-03 0. -1.
        -11    1    3    3    0    0 -0.61161917133E+01 -0.26855165507E+02  0.37147372540E+01  0.27792210934E+02  0.51100000000E-03 0.  1.
        -12    1    3    3    0    0 -0.53869956617E+01  0.11619869907E+02 -0.16357861527E+01  0.12911889686E+02  0.00000000000E+00 0.  1.
</event>
<event>
 7    1  0.6285940E-013  0.5930208E+02  0.7816164E-02  0.1266604E+00
        -11   -1    0    0    0    0  0.00000000000E+00  0.00000000000E+00  0.45593999997E+02  0.45594000000E+02  0.51100000000E-03 0. -1.
         11   -1    0    0    0    0 -0.00000000000E+00 -0.00000000000E+00 -0.45593999997E+02  0.45594000000E+02  0.51100000000E-03 0.  1.
    9900012    2    1    2    0    0 -0.17311725257E+00  0.25337221148E+02  0.19357359074E+02  0.59302076846E+02  0.50000242227E+02 0.  0.
        -12    1    1    2    0    0  0.17311725257E+00 -0.25337221148E+02 -0.19357359074E+02  0.31885923154E+02  0.00000000000E+00 0.  1.
         11    1    3    3    0    0 -0.51932075862E+01  0.16983321872E+02  0.11515046773E+02  0.21165985195E+02  0.51100000000E-03 0. -1.
        -11    1    3    3    0    0 -0.97530257331E+01  0.78065729967E+01  0.16735537130E+02  0.20884020116E+02  0.51100000000E-03 0.  1.
        -12    1    3    3    0    0  0.14773116067E+02  0.54732627907E+00 -0.88932248288E+01  0.17252071535E+02  0.00000000000E+00 0.  1.
</event>
<event>
 7    1  0.6285940E-013  0.5930194E+02  0.7816164E-02  0.1266605E+00
        -11   -1    0    0    0    0  0.00000000000E+00  0.00000000000E+00  0.45593999997E+02  0.45594000000E+02  0.51100000000E-03 0.  1.
         11   -1    0    0    0    0 -0.00000000000E+00 -0.00000000000E+00 -0.45593999997E+02  0.45594000000E+02  0.51100000000E-03 0. -1.
    9900012    2    1    2    0    0 -0.29024565276E+02 -0.12613036767E+02  0.38996128599E+01  0.59301936173E+02  0.49999985675E+02 0.  0.
        -12    1    1    2    0    0  0.29024565276E+02  0.12613036767E+02 -0.38996128599E+01  0.31886063827E+02  0.00000000000E+00 0.  1.
         11    1    3    3    0    0 -0.59882424799E+01 -0.20913073564E+01 -0.37464163049E+01  0.73666987075E+01  0.51100000000E-03 0. -1.
        -11    1    3    3    0    0 -0.28570888790E+02 -0.22799039323E+02  0.10778418067E+02  0.38108610268E+02  0.51100000000E-03 0.  1.
         12    1    3    3    0    0  0.55345659937E+01  0.12277309912E+02 -0.31323889021E+01  0.13826627198E+02  0.00000000000E+00 0. -1.
</event>
<event>
 7    1  0.8758885E-013  0.5930191E+02  0.7816164E-02  0.1266605E+00
        -11   -1    0    0    0    0  0.00000000000E+00  0.00000000000E+00  0.45593999997E+02  0.45594000000E+02  0.51100000000E-03 0. -1.
         11   -1    0    0    0    0 -0.00000000000E+00 -0.00000000000E+00 -0.45593999997E+02  0.45594000000E+02  0.51100000000E-03 0.  1.
    9900012    2    1    2    0    0  0.14970122252E+02 -0.23919189240E+02  0.14848925309E+02  0.59301909663E+02  0.49999937327E+02 0.  0.
        -12    1    1    2    0    0 -0.14970122252E+02  0.23919189240E+02 -0.14848925309E+02  0.31886090337E+02  0.00000000000E+00 0.  1.
         11    1    3    3    0    0 -0.11336131826E+02 -0.14599189844E+02  0.14189208871E+02  0.23301885707E+02  0.51100000000E-03 0. -1.
        -11    1    3    3    0    0  0.60426461846E+01 -0.10964012454E+02 -0.69183676899E+01  0.14303389590E+02  0.51100000000E-03 0.  1.
        -12    1    3    3    0    0  0.20263607893E+02  0.16440130577E+01  0.75780841276E+01  0.21696634366E+02  0.00000000000E+00 0.  1.
</event>
<event>
 7    1  0.6285940E-013  0.5930201E+02  0.7816164E-02  0.1266605E+00
        -11   -1    0    0    0    0  0.00000000000E+00  0.00000000000E+00  0.45593999997E+02  0.45594000000E+02  0.51100000000E-03 0.  1.
         11   -1    0    0    0    0 -0.00000000000E+00 -0.00000000000E+00 -0.45593999997E+02  0.45594000000E+02  0.51100000000E-03 0. -1.
    9900012    2    1    2    0    0  0.85575149921E+01 -0.31489729924E+01 -0.30554366074E+02  0.59302009661E+02  0.50000119698E+02 0.  0.
        -12    1    1    2    0    0 -0.85575149921E+01  0.31489729924E+01  0.30554366074E+02  0.31885990339E+02  0.00000000000E+00 0.  1.
         11    1    3    3    0    0 -0.65975799443E+01  0.57084494479E+00 -0.25207468516E+02  0.26062816316E+02  0.51100000000E-03 0. -1.
        -11    1    3    3    0    0 -0.39795852691E+01 -0.72429177226E+01 -0.10257797567E+02  0.13172675022E+02  0.51100000000E-03 0.  1.
        -12    1    3    3    0    0  0.19134680206E+02  0.35230997854E+01  0.49109000095E+01  0.20066518322E+02  0.00000000000E+00 0.  1.
</event>
<event>
 7    1  0.6285940E-013  0.5930194E+02  0.7816164E-02  0.1266605E+00
        -11   -1    0    0    0    0  0.00000000000E+00  0.00000000000E+00  0.45593999997E+02  0.45594000000E+02  0.51100000000E-03 0. -1.
         11   -1    0    0    0    0 -0.00000000000E+00 -0.00000000000E+00 -0.45593999997E+02  0.45594000000E+02  0.51100000000E-03 0.  1.
    9900012    2    1    2    0    0  0.98641414135E+01  0.21799186785E+02  0.21076414452E+02  0.59301936014E+02  0.49999985385E+02 0.  0.
        -12    1    1    2    0    0 -0.98641414135E+01 -0.21799186785E+02 -0.21076414452E+02  0.31886063986E+02  0.00000000000E+00 0.  1.
         11    1    3    3    0    0  0.13666148764E+02  0.12787077928E+02 -0.32062199918E+01  0.18988228745E+02  0.51100000000E-03 0. -1.
        -11    1    3    3    0    0 -0.65620651269E+01  0.11739190005E+02 -0.21310525533E+01  0.13616558521E+02  0.51100000000E-03 0.  1.
         12    1    3    3    0    0  0.27600577767E+01 -0.27270811474E+01  0.26413686998E+02  0.26697148749E+02  0.00000000000E+00 0. -1.
</event>
<event>
 7    1  0.6285940E-013  0.5930204E+02  0.7816164E-02  0.1266604E+00
        -11   -1    0    0    0    0  0.00000000000E+00  0.00000000000E+00  0.45593999997E+02  0.45594000000E+02  0.51100000000E-03 0.  1.
         11   -1    0    0    0    0 -0.00000000000E+00 -0.00000000000E+00 -0.45593999997E+02  0.45594000000E+02  0.51100000000E-03 0. -1.
    9900012    2    1    2    0    0 -0.39268987537E+01 -0.16615009627E+02 -0.26930199048E+02  0.59302036012E+02  0.50000167756E+02 0.  0.
        -12    1    1    2    0    0  0.39268987537E+01  0.16615009627E+02  0.26930199048E+02  0.31885963988E+02  0.00000000000E+00 0.  1.
         11    1    3    3    0    0  0.15092146327E+02 -0.17191807715E+02 -0.22153700578E+02  0.31845212871E+02  0.51100000000E-03 0. -1.
        -11    1    3    3    0    0  0.22808521109E+01 -0.36723796790E+01  0.19172947076E+01  0.47291307991E+01  0.51100000000E-03 0.  1.
        -12    1    3    3    0    0 -0.21299897191E+02  0.42491777672E+01 -0.66937931773E+01  0.22727692341E+02  0.00000000000E+00 0.  1.
</event>
<event>
 7    1  0.6285940E-013  0.5930194E+02  0.7816164E-02  0.1266605E+00
        -11   -1    0    0    0    0  0.00000000000E+00  0.00000000000E+00  0.45593999997E+02  0.45594000000E+02  0.51100000000E-03 0.  1.
         11   -1    0    0    0    0 -0.00000000000E+00 -0.00000000000E+00 -0.45593999997E+02  0.45594000000E+02  0.51100000000E-03 0. -1.
    9900012    2    1    2    0    0  0.12239809677E+02  0.89152282850E+01 -0.28061127291E+02  0.59301935627E+02  0.49999984680E+02 0.  0.
        -12    1    1    2    0    0 -0.12239809677E+02 -0.89152282850E+01  0.28061127291E+02  0.31886064373E+02  0.00000000000E+00 0.  1.
         11    1    3    3    0    0 -0.41384336927E+01 -0.63423908828E+01 -0.12022509736E+01  0.76679829944E+01  0.51100000000E-03 0. -1.
        -11    1    3    3    0    0 -0.62004557922E+01  0.17197874768E+02 -0.21732978924E+02  0.28399558478E+02  0.51100000000E-03 0.  1.
        -12    1    3    3    0    0  0.22578699162E+02 -0.19402556001E+01 -0.51258973932E+01  0.23234394155E+02  0.00000000000E+00 0.  1.
</event>
<event>
 7    1  0.6285940E-013  0.5930196E+02  0.7816164E-02  0.1266605E+00
        -11   -1    0    0    0    0  0.00000000000E+00  0.00000000000E+00  0.45593999997E+02  0.45594000000E+02  0.51100000000E-03 0. -1.
         11   -1    0    0    0    0 -0.00000000000E+00 -0.00000000000E+00 -0.45593999997E+02  0.45594000000E+02  0.51100000000E-03 0.  1.
    9900012    2    1    2    0    0  0.31653464512E+02  0.50971318458E+00  0.38102395409E+01  0.59301959974E+02  0.50000029083E+02 0.  0.
        -12    1    1    2    0    0 -0.31653464512E+02 -0.50971318458E+00 -0.38102395409E+01  0.31886040026E+02  0.00000000000E+00 0.  1.
         11    1    3    3    0    0  0.14528479943E+02 -0.17212119639E+02  0.95192444184E+01  0.24453012217E+02  0.51100000000E-03 0. -1.
        -11    1    3    3    0    0  0.15187491463E+02  0.43003499761E+01  0.60457655001E+01  0.16902786386E+02  0.51100000000E-03 0.  1.
        -12    1    3    3    0    0  0.19374931064E+01  0.13421482847E+02 -0.11754770378E+02  0.17946161372E+02  0.00000000000E+00 0.  1.
</event>
<event>
 7    1  0.6285940E-013  0.5930171E+02  0.7816164E-02  0.1266606E+00
        -11   -1    0    0    0    0  0.00000000000E+00  0.00000000000E+00  0.45593999997E+02  0.45594000000E+02  0.51100000000E-03 0. -1.
         11   -1    0    0    0    0 -0.00000000000E+00 -0.00000000000E+00 -0.45593999997E+02  0.45594000000E+02  0.51100000000E-03 0.  1.
    9900012    2    1    2    0    0 -0.20569322015E+02 -0.17140058385E+02 -0.17316367233E+02  0.59301714802E+02  0.49999581945E+02 0.  0.
        -12    1    1    2    0    0  0.20569322015E+02  0.17140058385E+02  0.17316367233E+02  0.31886285198E+02  0.00000000000E+00 0.  1.
         11    1    3    3    0    0 -0.89952921897E+00  0.15716398336E+01 -0.14381134958E+02  0.14494697221E+02  0.51100000000E-03 0. -1.
        -11    1    3    3    0    0 -0.80805320000E+01  0.10375342381E+02  0.12835861091E+01  0.13213263052E+02  0.51100000000E-03 0.  1.
         12    1    3    3    0    0 -0.11589260796E+02 -0.29087040600E+02 -0.42188183839E+01  0.31593754528E+02  0.00000000000E+00 0. -1.
</event>
<event>
 7    1  0.6285940E-013  0.5930195E+02  0.7816164E-02  0.1266605E+00
        -11   -1    0    0    0    0  0.00000000000E+00  0.00000000000E+00  0.45593999997E+02  0.45594000000E+02  0.51100000000E-03 0. -1.
         11   -1    0    0    0    0 -0.00000000000E+00 -0.00000000000E+00 -0.45593999997E+02  0.45594000000E+02  0.51100000000E-03 0.  1.
    9900012    2    1    2    0    0  0.18514562203E+02 -0.16018867463E+02  0.20428590709E+02  0.59301945890E+02  0.50000003396E+02 0.  0.
        -12    1    1    2    0    0 -0.18514562203E+02  0.16018867463E+02 -0.20428590709E+02  0.31886054110E+02  0.00000000000E+00 0.  1.
         11    1    3    3    0    0  0.25532149941E+02 -0.11590213418E+02  0.89170767319E+01  0.29423425793E+02  0.51100000000E-03 0. -1.
        -11    1    3    3    0    0  0.34922831750E-01 -0.73631805107E+00 -0.84012292715E+01  0.84335068275E+01  0.51100000000E-03 0.  1.
         12    1    3    3    0    0 -0.70525105699E+01 -0.36923359936E+01  0.19912743249E+02  0.21445013269E+02  0.00000000000E+00 0. -1.
</event>
<event>
 7    1  0.6285940E-013  0.5930193E+02  0.7816164E-02  0.1266605E+00
        -11   -1    0    0    0    0  0.00000000000E+00  0.00000000000E+00  0.45593999997E+02  0.45594000000E+02  0.51100000000E-03 0. -1.
         11   -1    0    0    0    0 -0.00000000000E+00 -0.00000000000E+00 -0.45593999997E+02  0.45594000000E+02  0.51100000000E-03 0.  1.
    9900012    2    1    2    0    0  0.11130214723E+02 -0.16092373526E+02  0.25176878455E+02  0.59301931346E+02  0.49999976872E+02 0.  0.
        -12    1    1    2    0    0 -0.11130214723E+02  0.16092373526E+02 -0.25176878455E+02  0.31886068654E+02  0.00000000000E+00 0.  1.
         11    1    3    3    0    0  0.65972463200E+00  0.17839959440E+01  0.95129885441E+01  0.97012797826E+01  0.51100000000E-03 0. -1.
        -11    1    3    3    0    0 -0.10891401373E+02 -0.21746630389E+02  0.31020155181E+01  0.24518585964E+02  0.51100000000E-03 0.  1.
         12    1    3    3    0    0  0.21361891464E+02  0.38702609192E+01  0.12561874392E+02  0.25082065600E+02  0.00000000000E+00 0. -1.
</event>
<event>
 7    1  0.6285940E-013  0.5930195E+02  0.7816164E-02  0.1266605E+00
        -11   -1    0    0    0    0  0.00000000000E+00  0.00000000000E+00  0.45593999997E+02  0.45594000000E+02  0.51100000000E-03 0.  1.
         11   -1    0    0    0    0 -0.00000000000E+00 -0.00000000000E+00 -0.45593999997E+02  0.45594000000E+02  0.51100000000E-03 0. -1.
    9900012    2    1    2    0    0  0.22195802938E+02 -0.26290228165E+01 -0.22741030158E+02  0.59301954750E+02  0.50000019555E+02 0.  0.
        -12    1    1    2    0    0 -0.22195802938E+02  0.26290228165E+01  0.22741030158E+02  0.31886045250E+02  0.00000000000E+00 0.  1.
         11    1    3    3    0    0  0.29983223051E+02 -0.80609618320E+00 -0.79477967355E+01  0.31029194782E+02  0.51100000000E-03 0. -1.
        -11    1    3    3    0    0 -0.58452622582E-01  0.22417925222E+01 -0.18608443669E+02  0.18743084764E+02  0.51100000000E-03 0.  1.
         12    1    3    3    0    0 -0.77289674905E+01 -0.40647191555E+01  0.38152102465E+01  0.95296752047E+01  0.00000000000E+00 0. -1.
</event>
<event>
 7    1  0.6285940E-013  0.5930196E+02  0.7816164E-02  0.1266605E+00
        -11   -1    0    0    0    0  0.00000000000E+00  0.00000000000E+00  0.45593999997E+02  0.45594000000E+02  0.51100000000E-03 0.  1.
         11   -1    0    0    0    0 -0.00000000000E+00 -0.00000000000E+00 -0.45593999997E+02  0.45594000000E+02  0.51100000000E-03 0. -1.
    9900012    2    1    2    0    0 -0.23979891257E+02  0.36603161823E+01 -0.20695081640E+02  0.59301960683E+02  0.50000030376E+02 0.  0.
        -12    1    1    2    0    0  0.23979891257E+02 -0.36603161823E+01  0.20695081640E+02  0.31886039317E+02  0.00000000000E+00 0.  1.
         11    1    3    3    0    0 -0.21622017534E+02 -0.99011334990E+01 -0.82999512747E+01  0.25187958993E+02  0.51100000000E-03 0. -1.
        -11    1    3    3    0    0 -0.10737526568E+02 -0.90667215630E+00 -0.13599397219E+02  0.17351084582E+02  0.51100000000E-03 0.  1.
        -12    1    3    3    0    0  0.83796528454E+01  0.14468121838E+02  0.12042668539E+01  0.16762917108E+02  0.00000000000E+00 0.  1.
</event>
<event>
 7    1  0.6285940E-013  0.5930195E+02  0.7816164E-02  0.1266605E+00
        -11   -1    0    0    0    0  0.00000000000E+00  0.00000000000E+00  0.45593999997E+02  0.45594000000E+02  0.51100000000E-03 0. -1.
         11   -1    0    0    0    0 -0.00000000000E+00 -0.00000000000E+00 -0.45593999997E+02  0.45594000000E+02  0.51100000000E-03 0.  1.
    9900012    2    1    2    0    0 -0.15212526596E+02 -0.12233211578E+02  0.25212053486E+02  0.59301951767E+02  0.50000014114E+02 0.  0.
        -12    1    1    2    0    0  0.15212526596E+02  0.12233211578E+02 -0.25212053486E+02  0.31886048233E+02  0.00000000000E+00 0.  1.
         11    1    3    3    0    0 -0.93572828596E+01  0.72452407650E+01  0.85690008360E+01  0.14610955884E+02  0.51100000000E-03 0. -1.
        -11    1    3    3    0    0 -0.69979788540E+01  0.70015201155E+01  0.15210022682E+02  0.18147666027E+02  0.51100000000E-03 0.  1.
         12    1    3    3    0    0  0.11427351177E+01 -0.26479972459E+02  0.14330299679E+01  0.26543329856E+02  0.00000000000E+00 0. -1.
</event>
<event>
 7    1  0.6285940E-013  0.5930194E+02  0.7816164E-02  0.1266605E+00
        -11   -1    0    0    0    0  0.00000000000E+00  0.00000000000E+00  0.45593999997E+02  0.45594000000E+02  0.51100000000E-03 0. -1.
         11   -1    0    0    0    0 -0.00000000000E+00 -0.00000000000E+00 -0.45593999997E+02  0.45594000000E+02  0.51100000000E-03 0.  1.
    9900012    2    1    2    0    0  0.76348656856E+01  0.30088986961E+02 -0.72857658258E+01  0.59301942012E+02  0.49999996324E+02 0.  0.
        -12    1    1    2    0    0 -0.76348656856E+01 -0.30088986961E+02  0.72857658258E+01  0.31886057988E+02  0.00000000000E+00 0.  1.
         11    1    3    3    0    0 -0.10235299395E+02  0.24270949048E+02 -0.17548393494E+02  0.31651010029E+02  0.51100000000E-03 0. -1.
        -11    1    3    3    0    0 -0.31906643029E+01 -0.11464985406E+01  0.22338540284E+01  0.40601603021E+01  0.51100000000E-03 0.  1.
         12    1    3    3    0    0  0.21060829383E+02  0.69645364530E+01  0.80287736400E+01  0.23590771680E+02  0.00000000000E+00 0. -1.
</event>
<event>
 7    1  0.6285940E-013  0.5930191E+02  0.7816164E-02  0.1266605E+00
        -11   -1    0    0    0    0  0.00000000000E+00  0.00000000000E+00  0.45593999997E+02  0.45594000000E+02  0.51100000000E-03 0. -1.
         11   -1    0    0    0    0 -0.00000000000E+00 -0.00000000000E+00 -0.45593999997E+02  0.45594000000E+02  0.51100000000E-03 0.  1.
    9900012    2    1    2    0    0 -0.64432063149E+01  0.17352078563E+02 -0.25963692149E+02  0.59301908235E+02  0.49999934722E+02 0.  0.
        -12    1    1    2    0    0  0.64432063149E+01 -0.17352078563E+02  0.25963692149E+02  0.31886091765E+02  0.00000000000E+00 0.  1.
         11    1    3    3    0    0 -0.25736453652E+01  0.24566706986E+02 -0.19445516834E+02  0.31436839341E+02  0.51100000000E-03 0. -1.
        -11    1    3    3    0    0 -0.93460750415E-01  0.95222084366E+01 -0.46764627128E+01  0.10608981675E+02  0.51100000000E-03 0.  1.
        -12    1    3    3    0    0 -0.37761001992E+01 -0.16736836859E+02 -0.18417126021E+01  0.17256087218E+02  0.00000000000E+00 0.  1.
</event>
<event>
 7    1  0.6285940E-013  0.5930199E+02  0.7816164E-02  0.1266605E+00
        -11   -1    0    0    0    0  0.00000000000E+00  0.00000000000E+00  0.45593999997E+02  0.45594000000E+02  0.51100000000E-03 0.  1.
         11   -1    0    0    0    0 -0.00000000000E+00 -0.00000000000E+00 -0.45593999997E+02  0.45594000000E+02  0.51100000000E-03 0. -1.
    9900012    2    1    2    0    0 -0.26860733462E+02  0.11183927682E+02  0.13043702163E+02  0.59301993561E+02  0.50000090336E+02 0.  0.
        -12    1    1    2    0    0  0.26860733462E+02 -0.11183927682E+02 -0.13043702163E+02  0.31886006439E+02  0.00000000000E+00 0.  1.
         11    1    3    3    0    0 -0.74332634508E+01 -0.33199832808E+01 -0.28712857767E+00  0.81460504292E+01  0.51100000000E-03 0. -1.
        -11    1    3    3    0    0 -0.31743136381E+02  0.43833095552E+01  0.14500511818E+02  0.35172502800E+02  0.51100000000E-03 0.  1.
         12    1    3    3    0    0  0.12315666370E+02  0.10120601408E+02 -0.11696810770E+01  0.15983440331E+02  0.00000000000E+00 0. -1.
</event>
<event>
 7    1  0.6285940E-013  0.5930195E+02  0.7816164E-02  0.1266605E+00
        -11   -1    0    0    0    0  0.00000000000E+00  0.00000000000E+00  0.45593999997E+02  0.45594000000E+02  0.51100000000E-03 0.  1.
         11   -1    0    0    0    0 -0.00000000000E+00 -0.00000000000E+00 -0.45593999997E+02  0.45594000000E+02  0.51100000000E-03 0. -1.
    9900012    2    1    2    0    0  0.60293674432E+01 -0.29853330551E+02  0.94417046709E+01  0.59301946562E+02  0.50000004622E+02 0.  0.
        -12    1    1    2    0    0 -0.60293674432E+01  0.29853330551E+02 -0.94417046709E+01  0.31886053438E+02  0.00000000000E+00 0.  1.
         11    1    3    3    0    0 -0.49331690338E+01 -0.11566352529E+02 -0.12415721862E+02  0.17671072892E+02  0.51100000000E-03 0. -1.
        -11    1    3    3    0    0 -0.89447080733E+01 -0.91079512828E+01  0.40642901512E+01  0.13397053175E+02  0.51100000000E-03 0.  1.
         12    1    3    3    0    0  0.19907244550E+02 -0.91790267397E+01  0.17793136381E+02  0.28233820495E+02  0.00000000000E+00 0. -1.
</event>
<event>
 7    1  0.6285940E-013  0.5930196E+02  0.7816164E-02  0.1266605E+00
        -11   -1    0    0    0    0  0.00000000000E+00  0.00000000000E+00  0.45593999997E+02  0.45594000000E+02  0.51100000000E-03 0.  1.
         11   -1    0    0    0    0 -0.00000000000E+00 -0.00000000000E+00 -0.45593999997E+02  0.45594000000E+02  0.51100000000E-03 0. -1.
    9900012    2    1    2    0    0 -0.15159202984E+02 -0.51810883270E+01 -0.27569451409E+02  0.59301956621E+02  0.50000022968E+02 0.  0.
        -12    1    1    2    0    0  0.15159202984E+02  0.51810883270E+01  0.27569451409E+02  0.31886043379E+02  0.00000000000E+00 0.  1.
         11    1    3    3    0    0  0.60220590895E+01  0.38591062949E+01 -0.29202553472E+02  0.30065711809E+02  0.51100000000E-03 0. -1.
        -11    1    3    3    0    0 -0.95717056487E+01  0.44481254846E+01 -0.27515344690E+01  0.10907534623E+02  0.51100000000E-03 0.  1.
        -12    1    3    3    0    0 -0.11609556425E+02 -0.13488320107E+02  0.43846365319E+01  0.18328710189E+02  0.00000000000E+00 0.  1.
</event>
<event>
 7    1  0.6285940E-013  0.5930193E+02  0.7816164E-02  0.1266605E+00
        -11   -1    0    0    0    0  0.00000000000E+00  0.00000000000E+00  0.45593999997E+02  0.45594000000E+02  0.51100000000E-03 0.  1.
         11   -1    0    0    0    0 -0.00000000000E+00 -0.00000000000E+00 -0.45593999997E+02  0.45594000000E+02  0.51100000000E-03 0. -1.
    9900012    2    1    2    0    0  0.26281917638E+02  0.12801938899E+01 -0.18009534028E+02  0.59301930831E+02  0.49999975933E+02 0.  0.
        -12    1    1    2    0    0 -0.26281917638E+02 -0.12801938899E+01  0.18009534028E+02  0.31886069169E+02  0.00000000000E+00 0.  1.
         11    1    3    3    0    0  0.48701392486E+01  0.19204841095E+02 -0.33891229429E+01  0.20100505774E+02  0.51100000000E-03 0. -1.
        -11    1    3    3    0    0 -0.76136580729E+00  0.33685355073E+01 -0.65712730629E+01  0.74234991268E+01  0.51100000000E-03 0.  1.
         12    1    3    3    0    0  0.22173144197E+02 -0.21293182712E+02 -0.80491380224E+01  0.31777925931E+02  0.00000000000E+00 0. -1.
</event>
<event>
 7    1  0.6285940E-013  0.5930195E+02  0.7816164E-02  0.1266605E+00
        -11   -1    0    0    0    0  0.00000000000E+00  0.00000000000E+00  0.45593999997E+02  0.45594000000E+02  0.51100000000E-03 0. -1.
         11   -1    0    0    0    0 -0.00000000000E+00 -0.00000000000E+00 -0.45593999997E+02  0.45594000000E+02  0.51100000000E-03 0.  1.
    9900012    2    1    2    0    0 -0.15783914385E+02 -0.27475371024E+02 -0.35626352951E+01  0.59301947618E+02  0.50000006549E+02 0.  0.
        -12    1    1    2    0    0  0.15783914385E+02  0.27475371024E+02  0.35626352951E+01  0.31886052382E+02  0.00000000000E+00 0.  1.
         11    1    3    3    0    0 -0.11266085198E+02 -0.74924181839E+01  0.31744422875E+01  0.13897413070E+02  0.51100000000E-03 0.  1.
        -11    1    3    3    0    0 -0.12382265348E+02 -0.28856677243E+02 -0.10260529096E+02  0.33034932636E+02  0.51100000000E-03 0. -1.
        -12    1    3    3    0    0  0.78644361612E+01  0.88737244030E+01  0.35234515131E+01  0.12369601913E+02  0.00000000000E+00 0.  1.
</event>
<event>
 7    1  0.6285940E-013  0.5930194E+02  0.7816164E-02  0.1266605E+00
        -11   -1    0    0    0    0  0.00000000000E+00  0.00000000000E+00  0.45593999997E+02  0.45594000000E+02  0.51100000000E-03 0. -1.
         11   -1    0    0    0    0 -0.00000000000E+00 -0.00000000000E+00 -0.45593999997E+02  0.45594000000E+02  0.51100000000E-03 0.  1.
    9900012    2    1    2    0    0 -0.57091927943E+01 -0.11551123119E+02  0.29166719803E+02  0.59301939225E+02  0.49999991241E+02 0.  0.
        -12    1    1    2    0    0  0.57091927943E+01  0.11551123119E+02 -0.29166719803E+02  0.31886060775E+02  0.00000000000E+00 0.  1.
         11    1    3    3    0    0  0.12841177772E+02 -0.43764334432E+01  0.30707254147E+02  0.33570589417E+02  0.51100000000E-03 0. -1.
        -11    1    3    3    0    0  0.20615294306E+01 -0.42001316436E+01 -0.14751474683E+01  0.49058199856E+01  0.51100000000E-03 0.  1.
        -12    1    3    3    0    0 -0.20611899997E+02 -0.29745580319E+01 -0.65386875894E-01  0.20825529823E+02  0.00000000000E+00 0.  1.
</event>
<event>
 7    1  0.6285940E-013  0.5930193E+02  0.7816164E-02  0.1266605E+00
        -11   -1    0    0    0    0  0.00000000000E+00  0.00000000000E+00  0.45593999997E+02  0.45594000000E+02  0.51100000000E-03 0.  1.
         11   -1    0    0    0    0 -0.00000000000E+00 -0.00000000000E+00 -0.45593999997E+02  0.45594000000E+02  0.51100000000E-03 0. -1.
    9900012    2    1    2    0    0  0.20760789602E+02  0.14080373564E+02 -0.19683855302E+02  0.59301929936E+02  0.49999974300E+02 0.  0.
        -12    1    1    2    0    0 -0.20760789602E+02 -0.14080373564E+02  0.19683855302E+02  0.31886070064E+02  0.00000000000E+00 0.  1.
         11    1    3    3    0    0  0.16188804560E+02  0.14110506562E+02 -0.62272249272E+00  0.21484216813E+02  0.51100000000E-03 0. -1.
        -11    1    3    3    0    0 -0.13143777082E+01 -0.17553131125E+01  0.89130896131E+01  0.91788822628E+01  0.51100000000E-03 0.  1.
        -12    1    3    3    0    0  0.58863627500E+01  0.17251801141E+01 -0.27974222423E+02  0.28638830859E+02  0.00000000000E+00 0.  1.
</event>
<event>
 7    1  0.6285940E-013  0.5930195E+02  0.7816164E-02  0.1266605E+00
        -11   -1    0    0    0    0  0.00000000000E+00  0.00000000000E+00  0.45593999997E+02  0.45594000000E+02  0.51100000000E-03 0. -1.
         11   -1    0    0    0    0 -0.00000000000E+00 -0.00000000000E+00 -0.45593999997E+02  0.45594000000E+02  0.51100000000E-03 0.  1.
    9900012    2    1    2    0    0  0.26562661492E+02 -0.96859302398E+01  0.14742045911E+02  0.59301950577E+02  0.50000011945E+02 0.  0.
        -12    1    1    2    0    0 -0.26562661492E+02  0.96859302398E+01 -0.14742045911E+02  0.31886049423E+02  0.00000000000E+00 0.  1.
         11    1    3    3    0    0  0.18941972323E+02  0.49003522108E+00  0.27631762271E+01  0.19148723015E+02  0.51100000000E-03 0. -1.
        -11    1    3    3    0    0  0.10489075932E+02  0.49739583596E+01 -0.85939126962E+01  0.14443556050E+02  0.51100000000E-03 0.  1.
        -12    1    3    3    0    0 -0.28683867635E+01 -0.15149923821E+02  0.20572782380E+02  0.25709671512E+02  0.00000000000E+00 0.  1.
</event>
<event>
 7    1  0.6285940E-013  0.5930192E+02  0.7816164E-02  0.1266605E+00
        -11   -1    0    0    0    0  0.00000000000E+00  0.00000000000E+00  0.45593999997E+02  0.45594000000E+02  0.51100000000E-03 0.  1.
         11   -1    0    0    0    0 -0.00000000000E+00 -0.00000000000E+00 -0.45593999997E+02  0.45594000000E+02  0.51100000000E-03 0. -1.
    9900012    2    1    2    0    0 -0.14705822957E+02  0.25834430039E+02 -0.11534428958E+02  0.59301920660E+02  0.49999957384E+02 0.  0.
        -12    1    1    2    0    0  0.14705822957E+02 -0.25834430039E+02  0.11534428958E+02  0.31886079340E+02  0.00000000000E+00 0.  1.
         11    1    3    3    0    0 -0.14300971408E+01 -0.25250951462E+01 -0.33766593750E+01  0.44523153668E+01  0.51100000000E-03 0. -1.
        -11    1    3    3    0    0 -0.18578717378E+02  0.76158799621E+00  0.10271759355E+02  0.21242829289E+02  0.51100000000E-03 0.  1.
        -12    1    3    3    0    0  0.53029915622E+01  0.27597937189E+02 -0.18429528937E+02  0.33606776005E+02  0.00000000000E+00 0.  1.
</event>
<event>
 7    1  0.6285940E-013  0.5930197E+02  0.7816164E-02  0.1266605E+00
        -11   -1    0    0    0    0  0.00000000000E+00  0.00000000000E+00  0.45593999997E+02  0.45594000000E+02  0.51100000000E-03 0. -1.
         11   -1    0    0    0    0 -0.00000000000E+00 -0.00000000000E+00 -0.45593999997E+02  0.45594000000E+02  0.51100000000E-03 0.  1.
    9900012    2    1    2    0    0 -0.29047273568E+02  0.11382379667E+02  0.65891076875E+01  0.59301968439E+02  0.50000044520E+02 0.  0.
        -12    1    1    2    0    0  0.29047273568E+02 -0.11382379667E+02 -0.65891076875E+01  0.31886031561E+02  0.00000000000E+00 0.  1.
         11    1    3    3    0    0 -0.91012138930E+01  0.18822997652E+02  0.13403396684E+02  0.24835224538E+02  0.51100000000E-03 0.  1.
        -11    1    3    3    0    0 -0.37633430025E+01  0.95400894832E+01 -0.31281936918E+01  0.10722017251E+02  0.51100000000E-03 0. -1.
         12    1    3    3    0    0 -0.16182716672E+02 -0.16980707469E+02 -0.36860953048E+01  0.23744726649E+02  0.00000000000E+00 0. -1.
</event>
<event>
 7    1  0.6285940E-013  0.5930193E+02  0.7816164E-02  0.1266605E+00
        -11   -1    0    0    0    0  0.00000000000E+00  0.00000000000E+00  0.45593999997E+02  0.45594000000E+02  0.51100000000E-03 0.  1.
         11   -1    0    0    0    0 -0.00000000000E+00 -0.00000000000E+00 -0.45593999997E+02  0.45594000000E+02  0.51100000000E-03 0. -1.
    9900012    2    1    2    0    0  0.28355703049E+02  0.62242328655E+01 -0.13188422584E+02  0.59301929994E+02  0.49999974406E+02 0.  0.
        -12    1    1    2    0    0 -0.28355703049E+02 -0.62242328655E+01  0.13188422584E+02  0.31886070006E+02  0.00000000000E+00 0.  1.
         11    1    3    3    0    0 -0.57627632052E+00  0.35481894342E+00 -0.54008766692E+01  0.54431112369E+01  0.51100000000E-03 0. -1.
        -11    1    3    3    0    0  0.81583213051E+01 -0.17563765162E+02 -0.11177750948E+02  0.22360370518E+02  0.51100000000E-03 0.  1.
         12    1    3    3    0    0  0.20773658064E+02  0.23433179084E+02  0.33902050325E+01  0.31498448240E+02  0.00000000000E+00 0. -1.
</event>
<event>
 7    1  0.6285940E-013  0.5930197E+02  0.7816164E-02  0.1266605E+00
        -11   -1    0    0    0    0  0.00000000000E+00  0.00000000000E+00  0.45593999997E+02  0.45594000000E+02  0.51100000000E-03 0.  1.
         11   -1    0    0    0    0 -0.00000000000E+00 -0.00000000000E+00 -0.45593999997E+02  0.45594000000E+02  0.51100000000E-03 0. -1.
    9900012    2    1    2    0    0  0.79020147379E+01 -0.79996706208E+01 -0.29837601164E+02  0.59301968416E+02  0.50000044478E+02 0.  0.
        -12    1    1    2    0    0 -0.79020147379E+01  0.79996706208E+01  0.29837601164E+02  0.31886031584E+02  0.00000000000E+00 0.  1.
         11    1    3    3    0    0  0.46223238380E+01  0.39016684674E+01 -0.30029600133E+01  0.67532705851E+01  0.51100000000E-03 0. -1.
        -11    1    3    3    0    0  0.16079786858E+02 -0.19345634000E+02 -0.42046850154E+01  0.25504754000E+02  0.51100000000E-03 0.  1.
        -12    1    3    3    0    0 -0.12800095958E+02  0.74442949115E+01 -0.22629956135E+02  0.27043943831E+02  0.00000000000E+00 0.  1.
</event>
<event>
 7    1  0.6285940E-013  0.5930161E+02  0.7816164E-02  0.1266606E+00
        -11   -1    0    0    0    0  0.00000000000E+00  0.00000000000E+00  0.45593999997E+02  0.45594000000E+02  0.51100000000E-03 0.  1.
         11   -1    0    0    0    0 -0.00000000000E+00 -0.00000000000E+00 -0.45593999997E+02  0.45594000000E+02  0.51100000000E-03 0. -1.
    9900012    2    1    2    0    0 -0.89929343525E+01  0.82007669201E+01 -0.29472294955E+02  0.59301613935E+02  0.49999397987E+02 0.  0.
        -12    1    1    2    0    0  0.89929343525E+01 -0.82007669201E+01  0.29472294955E+02  0.31886386065E+02  0.00000000000E+00 0.  1.
         11    1    3    3    0    0  0.32015059846E+00 -0.44177402965E+01 -0.20578403891E+02  0.21049694361E+02  0.51100000000E-03 0. -1.
        -11    1    3    3    0    0  0.92687419541E+01  0.78038828233E+01 -0.13874925882E+02  0.18420741923E+02  0.51100000000E-03 0.  1.
        -12    1    3    3    0    0 -0.18581826905E+02  0.48146243932E+01  0.49810348169E+01  0.19831177651E+02  0.00000000000E+00 0.  1.
</event>
<event>
 7    1  0.6285940E-013  0.5930198E+02  0.7816164E-02  0.1266605E+00
        -11   -1    0    0    0    0  0.00000000000E+00  0.00000000000E+00  0.45593999997E+02  0.45594000000E+02  0.51100000000E-03 0. -1.
         11   -1    0    0    0    0 -0.00000000000E+00 -0.00000000000E+00 -0.45593999997E+02  0.45594000000E+02  0.51100000000E-03 0.  1.
    9900012    2    1    2    0    0 -0.15829599303E+02 -0.25459266681E+02  0.10861306753E+02  0.59301977068E+02  0.50000060257E+02 0.  0.
        -12    1    1    2    0    0  0.15829599303E+02  0.25459266681E+02 -0.10861306753E+02  0.31886022932E+02  0.00000000000E+00 0.  1.
         11    1    3    3    0    0 -0.17431249420E+02 -0.62082948689E+00 -0.47004764562E+01  0.18064561018E+02  0.51100000000E-03 0. -1.
        -11    1    3    3    0    0 -0.43311038795E+01  0.56372032211E+01  0.35626007211E+01  0.79516441778E+01  0.51100000000E-03 0.  1.
         12    1    3    3    0    0  0.59327539965E+01 -0.30475640415E+02  0.11999182488E+02  0.33285771872E+02  0.00000000000E+00 0. -1.
</event>
<event>
 7    1  0.6285940E-013  0.5930193E+02  0.7816164E-02  0.1266605E+00
        -11   -1    0    0    0    0  0.00000000000E+00  0.00000000000E+00  0.45593999997E+02  0.45594000000E+02  0.51100000000E-03 0.  1.
         11   -1    0    0    0    0 -0.00000000000E+00 -0.00000000000E+00 -0.45593999997E+02  0.45594000000E+02  0.51100000000E-03 0. -1.
    9900012    2    1    2    0    0  0.21174490964E+02  0.59654485546E+01 -0.23081930672E+02  0.59301934586E+02  0.49999982780E+02 0.  0.
        -12    1    1    2    0    0 -0.21174490964E+02 -0.59654485546E+01  0.23081930672E+02  0.31886065414E+02  0.00000000000E+00 0.  1.
         11    1    3    3    0    0  0.14944540542E+02  0.10105639733E+01 -0.20665000512E+02  0.25522593480E+02  0.51100000000E-03 0. -1.
        -11    1    3    3    0    0 -0.10333268420E+02 -0.36761132915E+01 -0.87788604811E+01  0.14048438944E+02  0.51100000000E-03 0.  1.
         12    1    3    3    0    0  0.16563218842E+02  0.86309978728E+01  0.63619303211E+01  0.19730902161E+02  0.00000000000E+00 0. -1.
</event>
<event>
 7    1  0.6285940E-013  0.5930190E+02  0.7816164E-02  0.1266605E+00
        -11   -1    0    0    0    0  0.00000000000E+00  0.00000000000E+00  0.45593999997E+02  0.45594000000E+02  0.51100000000E-03 0.  1.
         11   -1    0    0    0    0 -0.00000000000E+00 -0.00000000000E+00 -0.45593999997E+02  0.45594000000E+02  0.51100000000E-03 0. -1.
    9900012    2    1    2    0    0 -0.17722566032E+02 -0.21514188321E+02 -0.15484619784E+02  0.59301904351E+02  0.49999927640E+02 0.  0.
        -12    1    1    2    0    0  0.17722566032E+02  0.21514188321E+02  0.15484619784E+02  0.31886095649E+02  0.00000000000E+00 0.  1.
         11    1    3    3    0    0 -0.22590195682E+02 -0.29351554606E+02 -0.84878059069E+01  0.37998336123E+02  0.51100000000E-03 0. -1.
        -11    1    3    3    0    0 -0.41043576032E+01  0.43589973373E+01  0.36027740928E+01  0.69876026323E+01  0.51100000000E-03 0.  1.
         12    1    3    3    0    0  0.89719872537E+01  0.34783689479E+01 -0.10599587970E+02  0.14315965596E+02  0.00000000000E+00 0. -1.
</event>
<event>
 7    1  0.6285940E-013  0.5930191E+02  0.7816164E-02  0.1266605E+00
        -11   -1    0    0    0    0  0.00000000000E+00  0.00000000000E+00  0.45593999997E+02  0.45594000000E+02  0.51100000000E-03 0.  1.
         11   -1    0    0    0    0 -0.00000000000E+00 -0.00000000000E+00 -0.45593999997E+02  0.45594000000E+02  0.51100000000E-03 0. -1.
    9900012    2    1    2    0    0 -0.13859463935E+02 -0.28064011245E+02  0.60868123414E+01  0.59301909738E+02  0.49999937465E+02 0.  0.
        -12    1    1    2    0    0  0.13859463935E+02  0.28064011245E+02 -0.60868123414E+01  0.31886090262E+02  0.00000000000E+00 0.  1.
         11    1    3    3    0    0 -0.11897619594E+02 -0.97534165984E+01 -0.56330563590E+01  0.16383339450E+02  0.51100000000E-03 0. -1.
        -11    1    3    3    0    0 -0.17536720154E+02 -0.45603348719E+01  0.12686997379E+02  0.22119970856E+02  0.51100000000E-03 0.  1.
         12    1    3    3    0    0  0.15574875813E+02 -0.13750259774E+02 -0.96712867880E+00  0.20798599432E+02  0.00000000000E+00 0. -1.
</event>
<event>
 7    1  0.6285940E-013  0.5930195E+02  0.7816164E-02  0.1266605E+00
        -11   -1    0    0    0    0  0.00000000000E+00  0.00000000000E+00  0.45593999997E+02  0.45594000000E+02  0.51100000000E-03 0.  1.
         11   -1    0    0    0    0 -0.00000000000E+00 -0.00000000000E+00 -0.45593999997E+02  0.45594000000E+02  0.51100000000E-03 0. -1.
    9900012    2    1    2    0    0 -0.11364018736E+02 -0.27374185488E+02  0.11757257645E+02  0.59301951950E+02  0.50000014448E+02 0.  0.
        -12    1    1    2    0    0  0.11364018736E+02  0.27374185488E+02 -0.11757257645E+02  0.31886048050E+02  0.00000000000E+00 0.  1.
         11    1    3    3    0    0 -0.16506489812E+02 -0.18357652248E+02 -0.10158152966E+02  0.26695611510E+02  0.51100000000E-03 0. -1.
        -11    1    3    3    0    0  0.85399427178E+01 -0.11551873686E+02  0.50676451665E+01  0.15233431494E+02  0.51100000000E-03 0.  1.
         12    1    3    3    0    0 -0.33974716415E+01  0.25353404469E+01  0.16847765445E+02  0.17372908945E+02  0.00000000000E+00 0. -1.
</event>
<event>
 7    1  0.6285940E-013  0.5930193E+02  0.7816164E-02  0.1266605E+00
        -11   -1    0    0    0    0  0.00000000000E+00  0.00000000000E+00  0.45593999997E+02  0.45594000000E+02  0.51100000000E-03 0.  1.
         11   -1    0    0    0    0 -0.00000000000E+00 -0.00000000000E+00 -0.45593999997E+02  0.45594000000E+02  0.51100000000E-03 0. -1.
    9900012    2    1    2    0    0  0.23173012687E+01  0.15686235340E+02 -0.27663941801E+02  0.59301928742E+02  0.49999972122E+02 0.  0.
        -12    1    1    2    0    0 -0.23173012687E+01 -0.15686235340E+02  0.27663941801E+02  0.31886071258E+02  0.00000000000E+00 0.  1.
         11    1    3    3    0    0 -0.13528919814E+02 -0.51874710087E+00 -0.96383490555E+00  0.13573125943E+02  0.51100000000E-03 0.  1.
        -11    1    3    3    0    0  0.43852652306E+01  0.12796500708E+02 -0.30349196242E+02  0.33227318494E+02  0.51100000000E-03 0. -1.
         12    1    3    3    0    0  0.11460955852E+02  0.34084817323E+01  0.36490893463E+01  0.12501484305E+02  0.00000000000E+00 0. -1.
</event>
<event>
 7    1  0.6285940E-013  0.5930197E+02  0.7816164E-02  0.1266605E+00
        -11   -1    0    0    0    0  0.00000000000E+00  0.00000000000E+00  0.45593999997E+02  0.45594000000E+02  0.51100000000E-03 0. -1.
         11   -1    0    0    0    0 -0.00000000000E+00 -0.00000000000E+00 -0.45593999997E+02  0.45594000000E+02  0.51100000000E-03 0.  1.
    9900012    2    1    2    0    0  0.24277960925E+02 -0.85300278447E+01  0.18829185161E+02  0.59301968959E+02  0.50000045469E+02 0.  0.
        -12    1    1    2    0    0 -0.24277960925E+02  0.85300278447E+01 -0.18829185161E+02  0.31886031041E+02  0.00000000000E+00 0.  1.
         11    1    3    3    0    0  0.88787768453E+01  0.24249503666E+01  0.59970203868E+01  0.10985322769E+02  0.51100000000E-03 0. -1.
        -11    1    3    3    0    0  0.30272167403E+02 -0.80555951071E+01  0.71339892734E+01  0.32127722219E+02  0.51100000000E-03 0.  1.
         12    1    3    3    0    0 -0.14872983323E+02 -0.28993831041E+01  0.56981755007E+01  0.16188923971E+02  0.00000000000E+00 0. -1.
</event>
<event>
 7    1  0.6285940E-013  0.5930195E+02  0.7816164E-02  0.1266605E+00
        -11   -1    0    0    0    0  0.00000000000E+00  0.00000000000E+00  0.45593999997E+02  0.45594000000E+02  0.51100000000E-03 0.  1.
         11   -1    0    0    0    0 -0.00000000000E+00 -0.00000000000E+00 -0.45593999997E+02  0.45594000000E+02  0.51100000000E-03 0. -1.
    9900012    2    1    2    0    0 -0.15690859148E+02 -0.27730719042E+02 -0.12346367397E+01  0.59301950271E+02  0.50000011387E+02 0.  0.
        -12    1    1    2    0    0  0.15690859148E+02  0.27730719042E+02  0.12346367397E+01  0.31886049729E+02  0.00000000000E+00 0.  1.
         11    1    3    3    0    0  0.78826425022E+00 -0.10369754115E+02  0.15259368788E+02  0.18466225847E+02  0.51100000000E-03 0. -1.
        -11    1    3    3    0    0  0.39655552409E+01  0.51958383758E+01 -0.52454809233E+01  0.83807777189E+01  0.51100000000E-03 0.  1.
         12    1    3    3    0    0 -0.20444678639E+02 -0.22556803303E+02 -0.11248524605E+02  0.32454946706E+02  0.00000000000E+00 0. -1.
</event>
<event>
 7    1  0.6285940E-013  0.5930197E+02  0.7816164E-02  0.1266605E+00
        -11   -1    0    0    0    0  0.00000000000E+00  0.00000000000E+00  0.45593999997E+02  0.45594000000E+02  0.51100000000E-03 0. -1.
         11   -1    0    0    0    0 -0.00000000000E+00 -0.00000000000E+00 -0.45593999997E+02  0.45594000000E+02  0.51100000000E-03 0.  1.
    9900012    2    1    2    0    0  0.38655925899E+01  0.24411387722E+02  0.20145981400E+02  0.59301965076E+02  0.50000038388E+02 0.  0.
        -12    1    1    2    0    0 -0.38655925899E+01 -0.24411387722E+02 -0.20145981400E+02  0.31886034924E+02  0.00000000000E+00 0.  1.
         11    1    3    3    0    0  0.22676874251E+00 -0.13939408860E+02  0.11499210846E+02  0.18071812133E+02  0.51100000000E-03 0. -1.
        -11    1    3    3    0    0 -0.35985245862E+01  0.17274139308E+02  0.10120734134E+01  0.17673979770E+02  0.51100000000E-03 0.  1.
        -12    1    3    3    0    0  0.72373484336E+01  0.21076657274E+02  0.76346971406E+01  0.23556173174E+02  0.00000000000E+00 0.  1.
</event>
<event>
 7    1  0.6285940E-013  0.5930184E+02  0.7816164E-02  0.1266605E+00
        -11   -1    0    0    0    0  0.00000000000E+00  0.00000000000E+00  0.45593999997E+02  0.45594000000E+02  0.51100000000E-03 0. -1.
         11   -1    0    0    0    0 -0.00000000000E+00 -0.00000000000E+00 -0.45593999997E+02  0.45594000000E+02  0.51100000000E-03 0.  1.
    9900012    2    1    2    0    0  0.30646804242E+02  0.85365250150E+01 -0.21513054130E+01  0.59301843371E+02  0.49999816426E+02 0.  0.
        -12    1    1    2    0    0 -0.30646804242E+02 -0.85365250150E+01  0.21513054130E+01  0.31886156629E+02  0.00000000000E+00 0.  1.
         11    1    3    3    0    0 -0.59504535836E+01 -0.51320937398E+01 -0.44134996068E+01  0.90125059249E+01  0.51100000000E-03 0. -1.
        -11    1    3    3    0    0 -0.54223999966E+01  0.41676649877E+01  0.22797057092E+01  0.72089466328E+01  0.51100000000E-03 0.  1.
        -12    1    3    3    0    0  0.42019657822E+02  0.95009537671E+01 -0.17511515425E-01  0.43080390813E+02  0.00000000000E+00 0.  1.
</event>
<event>
 7    1  0.6285940E-013  0.5930194E+02  0.7816164E-02  0.1266605E+00
        -11   -1    0    0    0    0  0.00000000000E+00  0.00000000000E+00  0.45593999997E+02  0.45594000000E+02  0.51100000000E-03 0. -1.
         11   -1    0    0    0    0 -0.00000000000E+00 -0.00000000000E+00 -0.45593999997E+02  0.45594000000E+02  0.51100000000E-03 0.  1.
    9900012    2    1    2    0    0  0.15924071492E+02 -0.27607837768E+02 -0.97583204887E+00  0.59301937100E+02  0.49999987365E+02 0.  0.
        -12    1    1    2    0    0 -0.15924071492E+02  0.27607837768E+02  0.97583204887E+00  0.31886062900E+02  0.00000000000E+00 0.  1.
         11    1    3    3    0    0 -0.80943568073E+01 -0.24004062523E+01 -0.19230674548E+01  0.86590271391E+01  0.51100000000E-03 0. -1.
        -11    1    3    3    0    0  0.17440616499E+02 -0.22041355602E+02 -0.15892581486E+02  0.32288861968E+02  0.51100000000E-03 0.  1.
         12    1    3    3    0    0  0.65778117999E+01 -0.31660759129E+01  0.16839816892E+02  0.18354047992E+02  0.00000000000E+00 0. -1.
</event>
<event>
 7    1  0.6285940E-013  0.5930195E+02  0.7816164E-02  0.1266605E+00
        -11   -1    0    0    0    0  0.00000000000E+00  0.00000000000E+00  0.45593999997E+02  0.45594000000E+02  0.51100000000E-03 0.  1.
         11   -1    0    0    0    0 -0.00000000000E+00 -0.00000000000E+00 -0.45593999997E+02  0.45594000000E+02  0.51100000000E-03 0. -1.
    9900012    2    1    2    0    0 -0.94373501002E+01  0.29464041083E+02  0.77153644595E+01  0.59301950658E+02  0.50000012093E+02 0.  0.
        -12    1    1    2    0    0  0.94373501002E+01 -0.29464041083E+02 -0.77153644595E+01  0.31886049342E+02  0.00000000000E+00 0.  1.
         11    1    3    3    0    0  0.32296693539E+01  0.15398046835E+00 -0.10804555017E+02  0.11277982244E+02  0.51100000000E-03 0. -1.
        -11    1    3    3    0    0  0.94168003984E+01  0.13376214143E+02  0.28485040488E+01  0.16604614121E+02  0.51100000000E-03 0.  1.
         12    1    3    3    0    0 -0.22083819852E+02  0.15933846472E+02  0.15671415428E+02  0.31419354293E+02  0.00000000000E+00 0. -1.
</event>
<event>
 7    1  0.6285940E-013  0.5930195E+02  0.7816164E-02  0.1266605E+00
        -11   -1    0    0    0    0  0.00000000000E+00  0.00000000000E+00  0.45593999997E+02  0.45594000000E+02  0.51100000000E-03 0.  1.
         11   -1    0    0    0    0 -0.00000000000E+00 -0.00000000000E+00 -0.45593999997E+02  0.45594000000E+02  0.51100000000E-03 0. -1.
    9900012    2    1    2    0    0 -0.15632753839E+02  0.61815368184E+01 -0.27094757367E+02  0.59301948711E+02  0.50000008541E+02 0.  0.
        -12    1    1    2    0    0  0.15632753839E+02 -0.61815368184E+01  0.27094757367E+02  0.31886051289E+02  0.00000000000E+00 0.  1.
         11    1    3    3    0    0  0.32453599748E+00 -0.40968815217E+01 -0.15432332534E+02  0.15970180009E+02  0.51100000000E-03 0. -1.
        -11    1    3    3    0    0 -0.64058576510E+01 -0.13895223595E+02 -0.73858722886E+01  0.16990095960E+02  0.51100000000E-03 0.  1.
         12    1    3    3    0    0 -0.95514321854E+01  0.24173641935E+02 -0.42765525439E+01  0.26341672742E+02  0.00000000000E+00 0. -1.
</event>
<event>
 7    1  0.6285940E-013  0.5930191E+02  0.7816164E-02  0.1266605E+00
        -11   -1    0    0    0    0  0.00000000000E+00  0.00000000000E+00  0.45593999997E+02  0.45594000000E+02  0.51100000000E-03 0.  1.
         11   -1    0    0    0    0 -0.00000000000E+00 -0.00000000000E+00 -0.45593999997E+02  0.45594000000E+02  0.51100000000E-03 0. -1.
    9900012    2    1    2    0    0 -0.30102159912E+02  0.55598713187E+01 -0.89258422352E+01  0.59301908047E+02  0.49999934379E+02 0.  0.
        -12    1    1    2    0    0  0.30102159912E+02 -0.55598713187E+01  0.89258422352E+01  0.31886091953E+02  0.00000000000E+00 0.  1.
         11    1    3    3    0    0 -0.13222546160E+02 -0.14077405721E+02 -0.56902597280E+00  0.19321823661E+02  0.51100000000E-03 0. -1.
        -11    1    3    3    0    0 -0.22912746262E+02  0.61621660810E+01 -0.17089451870E+01  0.23788373757E+02  0.51100000000E-03 0.  1.
         12    1    3    3    0    0  0.60331325106E+01  0.13475110959E+02 -0.66478710753E+01  0.16191710628E+02  0.00000000000E+00 0. -1.
</event>
<event>
 7    1  0.6285940E-013  0.5930200E+02  0.7816164E-02  0.1266605E+00
        -11   -1    0    0    0    0  0.00000000000E+00  0.00000000000E+00  0.45593999997E+02  0.45594000000E+02  0.51100000000E-03 0.  1.
         11   -1    0    0    0    0 -0.00000000000E+00 -0.00000000000E+00 -0.45593999997E+02  0.45594000000E+02  0.51100000000E-03 0. -1.
    9900012    2    1    2    0    0 -0.61095577099E+01  0.36321839260E+01 -0.31083715621E+02  0.59302002567E+02  0.50000106761E+02 0.  0.
        -12    1    1    2    0    0  0.61095577099E+01 -0.36321839260E+01  0.31083715621E+02  0.31885997433E+02  0.00000000000E+00 0.  1.
         11    1    3    3    0    0  0.40512426269E+01  0.91509491831E+01 -0.79377673197E+00  0.10039049733E+02  0.51100000000E-03 0.  1.
        -11    1    3    3    0    0 -0.80308154481E+00  0.10609367461E+02  0.30454438135E+01  0.11066993547E+02  0.51100000000E-03 0. -1.
         12    1    3    3    0    0 -0.93577187919E+01 -0.16128132718E+02 -0.33335382703E+02  0.38195959288E+02  0.00000000000E+00 0. -1.
</event>
<event>
 7    1  0.6285940E-013  0.5930194E+02  0.7816164E-02  0.1266605E+00
        -11   -1    0    0    0    0  0.00000000000E+00  0.00000000000E+00  0.45593999997E+02  0.45594000000E+02  0.51100000000E-03 0. -1.
         11   -1    0    0    0    0 -0.00000000000E+00 -0.00000000000E+00 -0.45593999997E+02  0.45594000000E+02  0.51100000000E-03 0.  1.
    9900012    2    1    2    0    0  0.79103751858E+01  0.30842826634E+02 -0.16931256875E+01  0.59301942467E+02  0.49999997154E+02 0.  0.
        -12    1    1    2    0    0 -0.79103751858E+01 -0.30842826634E+02  0.16931256875E+01  0.31886057533E+02  0.00000000000E+00 0.  1.
         11    1    3    3    0    0 -0.15003587352E+01  0.16379034312E+02  0.11182748318E+02  0.19889135263E+02  0.51100000000E-03 0. -1.
        -11    1    3    3    0    0 -0.74296694485E+01 -0.48408992634E+01 -0.10412626094E+02  0.13676881086E+02  0.51100000000E-03 0.  1.
         12    1    3    3    0    0  0.16840403370E+02  0.19304691586E+02 -0.24632479112E+01  0.25735926118E+02  0.00000000000E+00 0. -1.
</event>
<event>
 7    1  0.6285940E-013  0.5930194E+02  0.7816164E-02  0.1266605E+00
        -11   -1    0    0    0    0  0.00000000000E+00  0.00000000000E+00  0.45593999997E+02  0.45594000000E+02  0.51100000000E-03 0.  1.
         11   -1    0    0    0    0 -0.00000000000E+00 -0.00000000000E+00 -0.45593999997E+02  0.45594000000E+02  0.51100000000E-03 0. -1.
    9900012    2    1    2    0    0  0.10441062556E+02  0.26308988065E+02 -0.14681345299E+02  0.59301944425E+02  0.50000000725E+02 0.  0.
        -12    1    1    2    0    0 -0.10441062556E+02 -0.26308988065E+02  0.14681345299E+02  0.31886055575E+02  0.00000000000E+00 0.  1.
         11    1    3    3    0    0  0.72667995752E+01  0.34365070265E+01 -0.12733651722E+02  0.15058613583E+02  0.51100000000E-03 0. -1.
        -11    1    3    3    0    0 -0.58996490770E+01  0.42650764760E+01  0.15529051616E+02  0.17150748699E+02  0.51100000000E-03 0.  1.
         12    1    3    3    0    0  0.90739120580E+01  0.18607404563E+02 -0.17476745194E+02  0.27092582143E+02  0.00000000000E+00 0. -1.
</event>
<event>
 7    1  0.8853445E-013  0.5930194E+02  0.7816164E-02  0.1266605E+00
        -11   -1    0    0    0    0  0.00000000000E+00  0.00000000000E+00  0.45593999997E+02  0.45594000000E+02  0.51100000000E-03 0. -1.
         11   -1    0    0    0    0 -0.00000000000E+00 -0.00000000000E+00 -0.45593999997E+02  0.45594000000E+02  0.51100000000E-03 0.  1.
    9900012    2    1    2    0    0  0.24689209016E+02  0.15628411394E+02  0.12763869407E+02  0.59301942753E+02  0.49999997675E+02 0.  0.
        -12    1    1    2    0    0 -0.24689209016E+02 -0.15628411394E+02 -0.12763869407E+02  0.31886057247E+02  0.00000000000E+00 0.  1.
         11    1    3    3    0    0  0.19286381498E+02  0.14857331710E+02  0.12992762809E+02  0.27595592084E+02  0.51100000000E-03 0. -1.
        -11    1    3    3    0    0  0.16340176040E+02 -0.66008000765E+01 -0.38287029230E+01  0.18034158727E+02  0.51100000000E-03 0.  1.
        -12    1    3    3    0    0 -0.10937348522E+02  0.73718797599E+01  0.35998095215E+01  0.13672191941E+02  0.00000000000E+00 0.  1.
</event>
<event>
 7    1  0.6285940E-013  0.5930195E+02  0.7816164E-02  0.1266605E+00
        -11   -1    0    0    0    0  0.00000000000E+00  0.00000000000E+00  0.45593999997E+02  0.45594000000E+02  0.51100000000E-03 0.  1.
         11   -1    0    0    0    0 -0.00000000000E+00 -0.00000000000E+00 -0.45593999997E+02  0.45594000000E+02  0.51100000000E-03 0. -1.
    9900012    2    1    2    0    0 -0.30305497368E+02 -0.63120566301E+01  0.76455766805E+01  0.59301951759E+02  0.50000014101E+02 0.  0.
        -12    1    1    2    0    0  0.30305497368E+02  0.63120566301E+01 -0.76455766805E+01  0.31886048241E+02  0.00000000000E+00 0.  1.
         11    1    3    3    0    0 -0.10400934675E+02  0.24417411486E+01 -0.48837231240E+01  0.11747012121E+02  0.51100000000E-03 0. -1.
        -11    1    3    3    0    0 -0.31586574007E+02 -0.25284964893E+01  0.13139175990E+02  0.34303686361E+02  0.51100000000E-03 0.  1.
        -12    1    3    3    0    0  0.11682011314E+02 -0.62253012894E+01 -0.60987618541E+00  0.13251253278E+02  0.00000000000E+00 0.  1.
</event>
<event>
 7    1  0.6285940E-013  0.5930194E+02  0.7816164E-02  0.1266605E+00
        -11   -1    0    0    0    0  0.00000000000E+00  0.00000000000E+00  0.45593999997E+02  0.45594000000E+02  0.51100000000E-03 0.  1.
         11   -1    0    0    0    0 -0.00000000000E+00 -0.00000000000E+00 -0.45593999997E+02  0.45594000000E+02  0.51100000000E-03 0. -1.
    9900012    2    1    2    0    0 -0.71071166673E+01  0.10863936642E+02 -0.29123604556E+02  0.59301943972E+02  0.49999999898E+02 0.  0.
        -12    1    1    2    0    0  0.71071166673E+01 -0.10863936642E+02  0.29123604556E+02  0.31886056028E+02  0.00000000000E+00 0.  1.
         11    1    3    3    0    0 -0.93879035984E+01  0.12084957317E+02 -0.88707575315E+01  0.17688110887E+02  0.51100000000E-03 0. -1.
        -11    1    3    3    0    0  0.91257981697E+01  0.12614090155E+02  0.70508787277E+00  0.15585012410E+02  0.51100000000E-03 0.  1.
         12    1    3    3    0    0 -0.68450112386E+01 -0.13835110829E+02 -0.20957934898E+02  0.26028820674E+02  0.00000000000E+00 0. -1.
</event>
<event>
 7    1  0.6285940E-013  0.5930202E+02  0.7816164E-02  0.1266604E+00
        -11   -1    0    0    0    0  0.00000000000E+00  0.00000000000E+00  0.45593999997E+02  0.45594000000E+02  0.51100000000E-03 0.  1.
         11   -1    0    0    0    0 -0.00000000000E+00 -0.00000000000E+00 -0.45593999997E+02  0.45594000000E+02  0.51100000000E-03 0. -1.
    9900012    2    1    2    0    0 -0.13789415154E+02 -0.28151497398E+02 -0.58361777803E+01  0.59302019583E+02  0.50000137795E+02 0.  0.
        -12    1    1    2    0    0  0.13789415154E+02  0.28151497398E+02  0.58361777803E+01  0.31885980417E+02  0.00000000000E+00 0.  1.
         11    1    3    3    0    0 -0.21593620065E+01 -0.16867366638E+02  0.23985753985E+01  0.17173353364E+02  0.51100000000E-03 0. -1.
        -11    1    3    3    0    0 -0.45187793833E+01 -0.19970507909E+01  0.15175178478E+02  0.15959123443E+02  0.51100000000E-03 0.  1.
         12    1    3    3    0    0 -0.71112737646E+01 -0.92870799692E+01 -0.23409931657E+02  0.26169542776E+02  0.00000000000E+00 0. -1.
</event>
<event>
 7    1  0.6285940E-013  0.5930195E+02  0.7816164E-02  0.1266605E+00
        -11   -1    0    0    0    0  0.00000000000E+00  0.00000000000E+00  0.45593999997E+02  0.45594000000E+02  0.51100000000E-03 0.  1.
         11   -1    0    0    0    0 -0.00000000000E+00 -0.00000000000E+00 -0.45593999997E+02  0.45594000000E+02  0.51100000000E-03 0. -1.
    9900012    2    1    2    0    0 -0.14010878229E+02  0.28636626925E+02  0.59916663515E+00  0.59301951154E+02  0.50000012996E+02 0.  0.
        -12    1    1    2    0    0  0.14010878229E+02 -0.28636626925E+02 -0.59916663515E+00  0.31886048846E+02  0.00000000000E+00 0.  1.
         11    1    3    3    0    0  0.11078088673E+02  0.12162183485E+02  0.36466143878E+01  0.16850535674E+02  0.51100000000E-03 0. -1.
        -11    1    3    3    0    0  0.11353000057E+01  0.96663928952E+01  0.85737940106E+01  0.12970659262E+02  0.51100000000E-03 0.  1.
         12    1    3    3    0    0 -0.26224266907E+02  0.68080505448E+01 -0.11621241763E+02  0.29480756217E+02  0.00000000000E+00 0. -1.
</event>
<event>
 7    1  0.6285940E-013  0.5930196E+02  0.7816164E-02  0.1266605E+00
        -11   -1    0    0    0    0  0.00000000000E+00  0.00000000000E+00  0.45593999997E+02  0.45594000000E+02  0.51100000000E-03 0.  1.
         11   -1    0    0    0    0 -0.00000000000E+00 -0.00000000000E+00 -0.45593999997E+02  0.45594000000E+02  0.51100000000E-03 0. -1.
    9900012    2    1    2    0    0 -0.62574980819E+01  0.31159899780E+02  0.25737145411E+01  0.59301958492E+02  0.50000026379E+02 0.  0.
        -12    1    1    2    0    0  0.62574980819E+01 -0.31159899780E+02 -0.25737145411E+01  0.31886041508E+02  0.00000000000E+00 0.  1.
         11    1    3    3    0    0  0.10984651763E+02  0.26788285287E+01  0.78202646377E+01  0.13747553815E+02  0.51100000000E-03 0. -1.
        -11    1    3    3    0    0 -0.42214872882E+01  0.15207981024E+02  0.12283916531E+02  0.19999956184E+02  0.51100000000E-03 0.  1.
         12    1    3    3    0    0 -0.13020662556E+02  0.13273090227E+02 -0.17530466628E+02  0.25554448493E+02  0.00000000000E+00 0. -1.
</event>
<event>
 7    1  0.6285940E-013  0.5930195E+02  0.7816164E-02  0.1266605E+00
        -11   -1    0    0    0    0  0.00000000000E+00  0.00000000000E+00  0.45593999997E+02  0.45594000000E+02  0.51100000000E-03 0.  1.
         11   -1    0    0    0    0 -0.00000000000E+00 -0.00000000000E+00 -0.45593999997E+02  0.45594000000E+02  0.51100000000E-03 0. -1.
    9900012    2    1    2    0    0 -0.18615485707E+01  0.18150769833E+02 -0.26149650513E+02  0.59301952416E+02  0.50000015298E+02 0.  0.
        -12    1    1    2    0    0  0.18615485707E+01 -0.18150769833E+02  0.26149650513E+02  0.31886047584E+02  0.00000000000E+00 0.  1.
         11    1    3    3    0    0  0.68362688183E+01  0.21815641638E+01 -0.51791330629E+00  0.71945832410E+01  0.51100000000E-03 0. -1.
        -11    1    3    3    0    0 -0.76010507991E+01  0.15703084037E+02  0.74760424868E+01  0.18980359139E+02  0.51100000000E-03 0.  1.
         12    1    3    3    0    0 -0.10967665899E+01  0.26612163191E+00 -0.33107779693E+02  0.33127010036E+02  0.00000000000E+00 0. -1.
</event>
<event>
 7    1  0.6285940E-013  0.5930198E+02  0.7816164E-02  0.1266605E+00
        -11   -1    0    0    0    0  0.00000000000E+00  0.00000000000E+00  0.45593999997E+02  0.45594000000E+02  0.51100000000E-03 0. -1.
         11   -1    0    0    0    0 -0.00000000000E+00 -0.00000000000E+00 -0.45593999997E+02  0.45594000000E+02  0.51100000000E-03 0.  1.
    9900012    2    1    2    0    0  0.62818915419E+01  0.29940719646E+02  0.89894141797E+01  0.59301977646E+02  0.50000061311E+02 0.  0.
        -12    1    1    2    0    0 -0.62818915419E+01 -0.29940719646E+02 -0.89894141797E+01  0.31886022354E+02  0.00000000000E+00 0.  1.
         11    1    3    3    0    0 -0.23076769173E+01  0.10775332373E+02  0.20959657934E+02  0.23679958224E+02  0.51100000000E-03 0. -1.
        -11    1    3    3    0    0  0.57117900201E+01  0.11014852292E+02  0.73746397321E+01  0.14433877777E+02  0.51100000000E-03 0.  1.
        -12    1    3    3    0    0  0.28777784390E+01  0.81505349813E+01 -0.19344883487E+02  0.21188141644E+02  0.00000000000E+00 0.  1.
</event>
<event>
 7    1  0.6285940E-013  0.5930197E+02  0.7816164E-02  0.1266605E+00
        -11   -1    0    0    0    0  0.00000000000E+00  0.00000000000E+00  0.45593999997E+02  0.45594000000E+02  0.51100000000E-03 0. -1.
         11   -1    0    0    0    0 -0.00000000000E+00 -0.00000000000E+00 -0.45593999997E+02  0.45594000000E+02  0.51100000000E-03 0.  1.
    9900012    2    1    2    0    0 -0.60554545462E+01  0.12589965694E+02  0.28662572603E+02  0.59301971176E+02  0.50000049512E+02 0.  0.
        -12    1    1    2    0    0  0.60554545462E+01 -0.12589965694E+02 -0.28662572603E+02  0.31886028824E+02  0.00000000000E+00 0.  1.
         11    1    3    3    0    0 -0.12168780808E+02  0.82989942180E+00  0.39528956452E+01  0.12821596766E+02  0.51100000000E-03 0. -1.
        -11    1    3    3    0    0 -0.38604142100E+01  0.63961921117E+01 -0.85449699663E+01  0.11350356091E+02  0.51100000000E-03 0.  1.
        -12    1    3    3    0    0  0.99737404715E+01  0.53638741602E+01  0.33254646924E+02  0.35130018319E+02  0.00000000000E+00 0.  1.
</event>
<event>
 7    1  0.6285940E-013  0.5930199E+02  0.7816164E-02  0.1266605E+00
        -11   -1    0    0    0    0  0.00000000000E+00  0.00000000000E+00  0.45593999997E+02  0.45594000000E+02  0.51100000000E-03 0.  1.
         11   -1    0    0    0    0 -0.00000000000E+00 -0.00000000000E+00 -0.45593999997E+02  0.45594000000E+02  0.51100000000E-03 0. -1.
    9900012    2    1    2    0    0 -0.25284144881E+02 -0.16650058448E+02 -0.10010257144E+02  0.59301989325E+02  0.50000082611E+02 0.  0.
        -12    1    1    2    0    0  0.25284144881E+02  0.16650058448E+02  0.10010257144E+02  0.31886010675E+02  0.00000000000E+00 0.  1.
         11    1    3    3    0    0  0.87260734075E+01 -0.66938851632E+01  0.13522310163E+01  0.11080658134E+02  0.51100000000E-03 0. -1.
        -11    1    3    3    0    0 -0.86185787988E+01 -0.17549758517E+02 -0.92642121829E+01  0.21635608430E+02  0.51100000000E-03 0.  1.
         12    1    3    3    0    0 -0.25391639490E+02  0.75935852320E+01 -0.20982759770E+01  0.26585722761E+02  0.00000000000E+00 0. -1.
</event>
<event>
 7    1  0.6285940E-013  0.5930194E+02  0.7816164E-02  0.1266605E+00
        -11   -1    0    0    0    0  0.00000000000E+00  0.00000000000E+00  0.45593999997E+02  0.45594000000E+02  0.51100000000E-03 0. -1.
         11   -1    0    0    0    0 -0.00000000000E+00 -0.00000000000E+00 -0.45593999997E+02  0.45594000000E+02  0.51100000000E-03 0.  1.
    9900012    2    1    2    0    0 -0.46373822782E-01 -0.27832185792E+02  0.15559185636E+02  0.59301937619E+02  0.49999988312E+02 0.  0.
        -12    1    1    2    0    0  0.46373822782E-01  0.27832185792E+02 -0.15559185636E+02  0.31886062381E+02  0.00000000000E+00 0.  1.
         11    1    3    3    0    0 -0.79248961728E+01 -0.26118249759E+02  0.23136853295E+02  0.35781013548E+02  0.51100000000E-03 0. -1.
        -11    1    3    3    0    0 -0.63810931505E+01 -0.31829515494E+01  0.35054314283E+00  0.71394965591E+01  0.51100000000E-03 0.  1.
        -12    1    3    3    0    0  0.14259615500E+02  0.14690155164E+01 -0.79282108024E+01  0.16381427512E+02  0.00000000000E+00 0.  1.
</event>
<event>
 7    1  0.6285940E-013  0.5930186E+02  0.7816164E-02  0.1266605E+00
        -11   -1    0    0    0    0  0.00000000000E+00  0.00000000000E+00  0.45593999997E+02  0.45594000000E+02  0.51100000000E-03 0. -1.
         11   -1    0    0    0    0 -0.00000000000E+00 -0.00000000000E+00 -0.45593999997E+02  0.45594000000E+02  0.51100000000E-03 0.  1.
    9900012    2    1    2    0    0 -0.65494210143E+01  0.30810483298E+02  0.49542753749E+01  0.59301864436E+02  0.49999854844E+02 0.  0.
        -12    1    1    2    0    0  0.65494210143E+01 -0.30810483298E+02 -0.49542753749E+01  0.31886135564E+02  0.00000000000E+00 0.  1.
         11    1    3    3    0    0  0.57676488723E+01  0.31632614601E+02  0.17516658154E+02  0.36615862589E+02  0.51100000000E-03 0. -1.
        -11    1    3    3    0    0  0.65736089023E+00  0.45913405022E+01 -0.45848628166E+01  0.65217710980E+01  0.51100000000E-03 0.  1.
        -12    1    3    3    0    0 -0.12974430777E+02 -0.54134718044E+01 -0.79775199626E+01  0.16164230749E+02  0.00000000000E+00 0.  1.
</event>
<event>
 7    1  0.6285940E-013  0.5930194E+02  0.7816164E-02  0.1266605E+00
        -11   -1    0    0    0    0  0.00000000000E+00  0.00000000000E+00  0.45593999997E+02  0.45594000000E+02  0.51100000000E-03 0. -1.
         11   -1    0    0    0    0 -0.00000000000E+00 -0.00000000000E+00 -0.45593999997E+02  0.45594000000E+02  0.51100000000E-03 0.  1.
    9900012    2    1    2    0    0 -0.69811494315E+01  0.19884856742E+02  0.23928582516E+02  0.59301936645E+02  0.49999986536E+02 0.  0.
        -12    1    1    2    0    0  0.69811494315E+01 -0.19884856742E+02 -0.23928582516E+02  0.31886063355E+02  0.00000000000E+00 0.  1.
         11    1    3    3    0    0 -0.47547069898E+01  0.17874058785E+02  0.36383735645E+02  0.40815014832E+02  0.51100000000E-03 0. -1.
        -11    1    3    3    0    0 -0.56315590479E+00 -0.47021590398E+01 -0.61585501451E+00  0.47756383729E+01  0.51100000000E-03 0.  1.
        -12    1    3    3    0    0 -0.16632865369E+01  0.67129569961E+01 -0.11839298114E+02  0.13711283440E+02  0.00000000000E+00 0.  1.
</event>
<event>
 7    1  0.6285940E-013  0.5930192E+02  0.7816164E-02  0.1266605E+00
        -11   -1    0    0    0    0  0.00000000000E+00  0.00000000000E+00  0.45593999997E+02  0.45594000000E+02  0.51100000000E-03 0.  1.
         11   -1    0    0    0    0 -0.00000000000E+00 -0.00000000000E+00 -0.45593999997E+02  0.45594000000E+02  0.51100000000E-03 0. -1.
    9900012    2    1    2    0    0  0.27802626378E+02 -0.14449527064E+02  0.59115985771E+01  0.59301923672E+02  0.49999962875E+02 0.  0.
        -12    1    1    2    0    0 -0.27802626378E+02  0.14449527064E+02 -0.59115985771E+01  0.31886076328E+02  0.00000000000E+00 0.  1.
         11    1    3    3    0    0  0.16491795972E+02  0.87952016529E+01 -0.40748068014E+01  0.19129531025E+02  0.51100000000E-03 0. -1.
        -11    1    3    3    0    0  0.35478494759E+01  0.58471623172E+01  0.72052442663E+01  0.99343891742E+01  0.51100000000E-03 0.  1.
         12    1    3    3    0    0  0.77629809294E+01 -0.29091891034E+02  0.27811611123E+01  0.30238003473E+02  0.00000000000E+00 0. -1.
</event>
<event>
 7    1  0.6285940E-013  0.5930201E+02  0.7816164E-02  0.1266605E+00
        -11   -1    0    0    0    0  0.00000000000E+00  0.00000000000E+00  0.45593999997E+02  0.45594000000E+02  0.51100000000E-03 0. -1.
         11   -1    0    0    0    0 -0.00000000000E+00 -0.00000000000E+00 -0.45593999997E+02  0.45594000000E+02  0.51100000000E-03 0.  1.
    9900012    2    1    2    0    0  0.16467608128E+02  0.25468373281E+02  0.98435789506E+01  0.59302012457E+02  0.50000124799E+02 0.  0.
        -12    1    1    2    0    0 -0.16467608128E+02 -0.25468373281E+02 -0.98435789506E+01  0.31885987543E+02  0.00000000000E+00 0.  1.
         11    1    3    3    0    0 -0.11396978570E+02  0.13206645051E+02  0.75278195869E+01  0.18999333200E+02  0.51100000000E-03 0. -1.
        -11    1    3    3    0    0 -0.28908147078E+00  0.11793885820E+02 -0.14820688788E+01  0.11890157243E+02  0.51100000000E-03 0.  1.
        -12    1    3    3    0    0  0.28153668169E+02  0.46784240943E+00  0.37978282425E+01  0.28412522015E+02  0.00000000000E+00 0.  1.
</event>
<event>
 7    1  0.6285940E-013  0.5930195E+02  0.7816164E-02  0.1266605E+00
        -11   -1    0    0    0    0  0.00000000000E+00  0.00000000000E+00  0.45593999997E+02  0.45594000000E+02  0.51100000000E-03 0.  1.
         11   -1    0    0    0    0 -0.00000000000E+00 -0.00000000000E+00 -0.45593999997E+02  0.45594000000E+02  0.51100000000E-03 0. -1.
    9900012    2    1    2    0    0 -0.21232503714E+01 -0.30852410702E+02 -0.77679266618E+01  0.59301950968E+02  0.50000012658E+02 0.  0.
        -12    1    1    2    0    0  0.21232503714E+01  0.30852410702E+02  0.77679266618E+01  0.31886049032E+02  0.00000000000E+00 0.  1.
         11    1    3    3    0    0 -0.83697122755E+01 -0.26129197241E+02 -0.19094641308E+02  0.33427419269E+02  0.51100000000E-03 0. -1.
        -11    1    3    3    0    0 -0.19743544761E+01 -0.11581770094E+02  0.92863173910E+01  0.14975685796E+02  0.51100000000E-03 0.  1.
        -12    1    3    3    0    0  0.82208163803E+01  0.68585566340E+01  0.20403972552E+01  0.10898845903E+02  0.00000000000E+00 0.  1.
</event>
<event>
 7    1  0.6285940E-013  0.5930195E+02  0.7816164E-02  0.1266605E+00
        -11   -1    0    0    0    0  0.00000000000E+00  0.00000000000E+00  0.45593999997E+02  0.45594000000E+02  0.51100000000E-03 0.  1.
         11   -1    0    0    0    0 -0.00000000000E+00 -0.00000000000E+00 -0.45593999997E+02  0.45594000000E+02  0.51100000000E-03 0. -1.
    9900012    2    1    2    0    0 -0.14671516347E+02  0.27146556568E+02 -0.80331505327E+01  0.59301946107E+02  0.50000003791E+02 0.  0.
        -12    1    1    2    0    0  0.14671516347E+02 -0.27146556568E+02  0.80331505327E+01  0.31886053893E+02  0.00000000000E+00 0.  1.
         11    1    3    3    0    0 -0.28157506463E+01 -0.22927529449E+01  0.19719129333E+00  0.36364890260E+01  0.51100000000E-03 0. -1.
        -11    1    3    3    0    0 -0.23065525377E+02  0.35481070062E+02 -0.62906874824E+01  0.42784314216E+02  0.51100000000E-03 0.  1.
         12    1    3    3    0    0  0.11209759677E+02 -0.60417605487E+01 -0.19396543436E+01  0.12881142865E+02  0.00000000000E+00 0. -1.
</event>
<event>
 7    1  0.6285940E-013  0.5930195E+02  0.7816164E-02  0.1266605E+00
        -11   -1    0    0    0    0  0.00000000000E+00  0.00000000000E+00  0.45593999997E+02  0.45594000000E+02  0.51100000000E-03 0. -1.
         11   -1    0    0    0    0 -0.00000000000E+00 -0.00000000000E+00 -0.45593999997E+02  0.45594000000E+02  0.51100000000E-03 0.  1.
    9900012    2    1    2    0    0 -0.17751587881E+02 -0.17687855599E+02  0.19716520322E+02  0.59301948479E+02  0.50000008118E+02 0.  0.
        -12    1    1    2    0    0  0.17751587881E+02  0.17687855599E+02 -0.19716520322E+02  0.31886051521E+02  0.00000000000E+00 0.  1.
         11    1    3    3    0    0 -0.26743645449E+01  0.55742470347E+01 -0.20048860299E+01  0.64995402896E+01  0.51100000000E-03 0. -1.
        -11    1    3    3    0    0 -0.20207571222E+02 -0.19412697752E+02 -0.21313709164E+01  0.28102339954E+02  0.51100000000E-03 0.  1.
         12    1    3    3    0    0  0.51303478857E+01 -0.38494048825E+01  0.23852777269E+02  0.24700068235E+02  0.00000000000E+00 0. -1.
</event>
<event>
 7    1  0.6285940E-013  0.5930193E+02  0.7816164E-02  0.1266605E+00
        -11   -1    0    0    0    0  0.00000000000E+00  0.00000000000E+00  0.45593999997E+02  0.45594000000E+02  0.51100000000E-03 0.  1.
         11   -1    0    0    0    0 -0.00000000000E+00 -0.00000000000E+00 -0.45593999997E+02  0.45594000000E+02  0.51100000000E-03 0. -1.
    9900012    2    1    2    0    0 -0.11426415032E+02 -0.22609046467E+02  0.19364643597E+02  0.59301931502E+02  0.49999977156E+02 0.  0.
        -12    1    1    2    0    0  0.11426415032E+02  0.22609046467E+02 -0.19364643597E+02  0.31886068498E+02  0.00000000000E+00 0.  1.
         11    1    3    3    0    0  0.68596784718E+00 -0.18801323388E+01  0.59442231082E+01  0.62720999769E+01  0.51100000000E-03 0. -1.
        -11    1    3    3    0    0  0.15812671881E+02  0.10267754979E+01  0.53226507232E+01  0.16716024376E+02  0.51100000000E-03 0.  1.
         12    1    3    3    0    0 -0.27925054760E+02 -0.21755689626E+02  0.80977697657E+01  0.36313807149E+02  0.00000000000E+00 0. -1.
</event>
<event>
 7    1  0.6285940E-013  0.5930196E+02  0.7816164E-02  0.1266605E+00
        -11   -1    0    0    0    0  0.00000000000E+00  0.00000000000E+00  0.45593999997E+02  0.45594000000E+02  0.51100000000E-03 0. -1.
         11   -1    0    0    0    0 -0.00000000000E+00 -0.00000000000E+00 -0.45593999997E+02  0.45594000000E+02  0.51100000000E-03 0.  1.
    9900012    2    1    2    0    0  0.14233349743E+02 -0.24467234367E+02  0.14679443170E+02  0.59301955180E+02  0.50000020339E+02 0.  0.
        -12    1    1    2    0    0 -0.14233349743E+02  0.24467234367E+02 -0.14679443170E+02  0.31886044820E+02  0.00000000000E+00 0.  1.
         11    1    3    3    0    0  0.10140534870E+02  0.17758027805E+01 -0.84597702333E+01  0.13324850304E+02  0.51100000000E-03 0. -1.
        -11    1    3    3    0    0  0.59339061651E+01  0.53226352371E+01  0.62531613424E+01  0.10131323471E+02  0.51100000000E-03 0.  1.
         12    1    3    3    0    0 -0.18410912929E+01 -0.31565672385E+02  0.16886052061E+02  0.35845781404E+02  0.00000000000E+00 0. -1.
</event>
<event>
 7    1  0.6285940E-013  0.5930208E+02  0.7816164E-02  0.1266604E+00
        -11   -1    0    0    0    0  0.00000000000E+00  0.00000000000E+00  0.45593999997E+02  0.45594000000E+02  0.51100000000E-03 0. -1.
         11   -1    0    0    0    0 -0.00000000000E+00 -0.00000000000E+00 -0.45593999997E+02  0.45594000000E+02  0.51100000000E-03 0.  1.
    9900012    2    1    2    0    0  0.16146611508E+02 -0.22947356302E+02  0.15146535631E+02  0.59302082010E+02  0.50000251646E+02 0.  0.
        -12    1    1    2    0    0 -0.16146611508E+02  0.22947356302E+02 -0.15146535631E+02  0.31885917990E+02  0.00000000000E+00 0.  1.
         11    1    3    3    0    0  0.43049430348E+01 -0.11006651461E+02 -0.46780679533E+01  0.12710752572E+02  0.51100000000E-03 0. -1.
        -11    1    3    3    0    0  0.21512361343E+02 -0.17651308973E+02  0.54605402088E+01  0.28357854268E+02  0.51100000000E-03 0.  1.
        -12    1    3    3    0    0 -0.96706928699E+01  0.57106041322E+01  0.14364063375E+02  0.18233475170E+02  0.00000000000E+00 0.  1.
</event>
<event>
 7    1  0.6285940E-013  0.5930196E+02  0.7816164E-02  0.1266605E+00
        -11   -1    0    0    0    0  0.00000000000E+00  0.00000000000E+00  0.45593999997E+02  0.45594000000E+02  0.51100000000E-03 0.  1.
         11   -1    0    0    0    0 -0.00000000000E+00 -0.00000000000E+00 -0.45593999997E+02  0.45594000000E+02  0.51100000000E-03 0. -1.
    9900012    2    1    2    0    0  0.23680620333E+02  0.98068513855E+01 -0.18967689027E+02  0.59301963237E+02  0.50000035033E+02 0.  0.
        -12    1    1    2    0    0 -0.23680620333E+02 -0.98068513855E+01  0.18967689027E+02  0.31886036763E+02  0.00000000000E+00 0.  1.
         11    1    3    3    0    0 -0.38286893293E+01  0.31853034354E+01 -0.15214708538E+02  0.16009134146E+02  0.51100000000E-03 0. -1.
        -11    1    3    3    0    0  0.29155708827E+02  0.16118615974E+02 -0.45375412805E+01  0.33622231027E+02  0.51100000000E-03 0.  1.
         12    1    3    3    0    0 -0.16463991650E+01 -0.94970680240E+01  0.78456079131E+00  0.96705980631E+01  0.00000000000E+00 0. -1.
</event>
<event>
 7    1  0.6285940E-013  0.5930195E+02  0.7816164E-02  0.1266605E+00
        -11   -1    0    0    0    0  0.00000000000E+00  0.00000000000E+00  0.45593999997E+02  0.45594000000E+02  0.51100000000E-03 0.  1.
         11   -1    0    0    0    0 -0.00000000000E+00 -0.00000000000E+00 -0.45593999997E+02  0.45594000000E+02  0.51100000000E-03 0. -1.
    9900012    2    1    2    0    0 -0.30830143089E+02 -0.70630998581E+00 -0.81070108320E+01  0.59301949424E+02  0.50000009841E+02 0.  0.
        -12    1    1    2    0    0  0.30830143089E+02  0.70630998581E+00  0.81070108320E+01  0.31886050576E+02  0.00000000000E+00 0.  1.
         11    1    3    3    0    0 -0.58134060725E+01 -0.77205567255E+01 -0.14864035192E+02  0.17729699060E+02  0.51100000000E-03 0. -1.
        -11    1    3    3    0    0  0.66059774972E+01  0.32988504197E+00 -0.37282266840E+01  0.75925909480E+01  0.51100000000E-03 0.  1.
         12    1    3    3    0    0 -0.31622714514E+02  0.66843616977E+01  0.10485251044E+02  0.33979659416E+02  0.00000000000E+00 0. -1.
</event>
<event>
 7    1  0.6285940E-013  0.5930203E+02  0.7816164E-02  0.1266604E+00
        -11   -1    0    0    0    0  0.00000000000E+00  0.00000000000E+00  0.45593999997E+02  0.45594000000E+02  0.51100000000E-03 0.  1.
         11   -1    0    0    0    0 -0.00000000000E+00 -0.00000000000E+00 -0.45593999997E+02  0.45594000000E+02  0.51100000000E-03 0. -1.
    9900012    2    1    2    0    0  0.87675120612E+01 -0.20457634197E+02 -0.22832677638E+02  0.59302027648E+02  0.50000152503E+02 0.  0.
        -12    1    1    2    0    0 -0.87675120612E+01  0.20457634197E+02  0.22832677638E+02  0.31885972352E+02  0.00000000000E+00 0.  1.
         11    1    3    3    0    0 -0.65118856374E+01 -0.81116174268E+01 -0.72581525969E+01  0.12683996658E+02  0.51100000000E-03 0. -1.
        -11    1    3    3    0    0 -0.12752037956E+02 -0.41979335011E+01  0.22067113354E+00  0.13427055289E+02  0.51100000000E-03 0.  1.
        -12    1    3    3    0    0  0.28031435655E+02 -0.81480832691E+01 -0.15795196175E+02  0.33190975702E+02  0.00000000000E+00 0.  1.
</event>
<event>
 7    1  0.6285940E-013  0.5930195E+02  0.7816164E-02  0.1266605E+00
        -11   -1    0    0    0    0  0.00000000000E+00  0.00000000000E+00  0.45593999997E+02  0.45594000000E+02  0.51100000000E-03 0.  1.
         11   -1    0    0    0    0 -0.00000000000E+00 -0.00000000000E+00 -0.45593999997E+02  0.45594000000E+02  0.51100000000E-03 0. -1.
    9900012    2    1    2    0    0 -0.21328937757E+02  0.22413522237E+02  0.77091196530E+01  0.59301951472E+02  0.50000013576E+02 0.  0.
        -12    1    1    2    0    0  0.21328937757E+02 -0.22413522237E+02 -0.77091196530E+01  0.31886048528E+02  0.00000000000E+00 0.  1.
         11    1    3    3    0    0  0.37892322652E+01 -0.64864327708E+01 -0.57447659701E+01  0.94569777181E+01  0.51100000000E-03 0. -1.
        -11    1    3    3    0    0 -0.21290011462E+02  0.26664074614E+01  0.51843157165E+01  0.22073772820E+02  0.51100000000E-03 0.  1.
        -12    1    3    3    0    0 -0.38281585601E+01  0.26233547546E+02  0.82695699065E+01  0.27771200933E+02  0.00000000000E+00 0.  1.
</event>
<event>
 7    1  0.6285940E-013  0.5930194E+02  0.7816164E-02  0.1266605E+00
        -11   -1    0    0    0    0  0.00000000000E+00  0.00000000000E+00  0.45593999997E+02  0.45594000000E+02  0.51100000000E-03 0.  1.
         11   -1    0    0    0    0 -0.00000000000E+00 -0.00000000000E+00 -0.45593999997E+02  0.45594000000E+02  0.51100000000E-03 0. -1.
    9900012    2    1    2    0    0  0.85319099076E+01  0.24621202622E+02 -0.18377257671E+02  0.59301941844E+02  0.49999996017E+02 0.  0.
        -12    1    1    2    0    0 -0.85319099076E+01 -0.24621202622E+02  0.18377257671E+02  0.31886058156E+02  0.00000000000E+00 0.  1.
         11    1    3    3    0    0 -0.61804136631E+01 -0.30748941970E+01 -0.20523667876E+02  0.21653485418E+02  0.51100000000E-03 0. -1.
        -11    1    3    3    0    0 -0.45973398393E+01  0.83807319491E+01 -0.26478699282E+01  0.99188415160E+01  0.51100000000E-03 0.  1.
        -12    1    3    3    0    0  0.19309663410E+02  0.19315364870E+02  0.47942801333E+01  0.27729614910E+02  0.00000000000E+00 0.  1.
</event>
<event>
 7    1  0.6285940E-013  0.5930195E+02  0.7816164E-02  0.1266605E+00
        -11   -1    0    0    0    0  0.00000000000E+00  0.00000000000E+00  0.45593999997E+02  0.45594000000E+02  0.51100000000E-03 0. -1.
         11   -1    0    0    0    0 -0.00000000000E+00 -0.00000000000E+00 -0.45593999997E+02  0.45594000000E+02  0.51100000000E-03 0.  1.
    9900012    2    1    2    0    0  0.12345929119E+02  0.27726654885E+02  0.97739934601E+01  0.59301948111E+02  0.50000007446E+02 0.  0.
        -12    1    1    2    0    0 -0.12345929119E+02 -0.27726654885E+02 -0.97739934601E+01  0.31886051889E+02  0.00000000000E+00 0.  1.
         11    1    3    3    0    0 -0.19064240521E+01 -0.14664559259E+01  0.13893676944E+02  0.14100326412E+02  0.51100000000E-03 0. -1.
        -11    1    3    3    0    0 -0.46427852556E+01 -0.38563296260E+01 -0.37973729759E+01  0.71306924554E+01  0.51100000000E-03 0.  1.
        -12    1    3    3    0    0  0.18895138426E+02  0.33049440437E+02 -0.32231050790E+00  0.38070929243E+02  0.00000000000E+00 0.  1.
</event>
<event>
 7    1  0.6285940E-013  0.5930195E+02  0.7816164E-02  0.1266605E+00
        -11   -1    0    0    0    0  0.00000000000E+00  0.00000000000E+00  0.45593999997E+02  0.45594000000E+02  0.51100000000E-03 0. -1.
         11   -1    0    0    0    0 -0.00000000000E+00 -0.00000000000E+00 -0.45593999997E+02  0.45594000000E+02  0.51100000000E-03 0.  1.
    9900012    2    1    2    0    0 -0.13600309228E+02  0.28830244360E+02  0.75421716384E+00  0.59301949061E+02  0.50000009180E+02 0.  0.
        -12    1    1    2    0    0  0.13600309228E+02 -0.28830244360E+02 -0.75421716384E+00  0.31886050939E+02  0.00000000000E+00 0.  1.
         11    1    3    3    0    0  0.28361300053E+01 -0.37224344448E+01  0.41993610307E+01  0.62876692765E+01  0.51100000000E-03 0. -1.
        -11    1    3    3    0    0 -0.24661898682E+02  0.20943220057E+02  0.95605788711E+01  0.33737699708E+02  0.51100000000E-03 0.  1.
        -12    1    3    3    0    0  0.82254594481E+01  0.11609458747E+02 -0.13005722738E+02  0.19276580077E+02  0.00000000000E+00 0.  1.
</event>
<event>
 7    1  0.6285940E-013  0.5930193E+02  0.7816164E-02  0.1266605E+00
        -11   -1    0    0    0    0  0.00000000000E+00  0.00000000000E+00  0.45593999997E+02  0.45594000000E+02  0.51100000000E-03 0.  1.
         11   -1    0    0    0    0 -0.00000000000E+00 -0.00000000000E+00 -0.45593999997E+02  0.45594000000E+02  0.51100000000E-03 0. -1.
    9900012    2    1    2    0    0 -0.12304269991E+01  0.31065701478E+02 -0.70802323271E+01  0.59301930177E+02  0.49999974740E+02 0.  0.
        -12    1    1    2    0    0  0.12304269991E+01 -0.31065701478E+02  0.70802323271E+01  0.31886069823E+02  0.00000000000E+00 0.  1.
         11    1    3    3    0    0  0.35765063290E+00  0.25155546334E+02 -0.14673525384E+02  0.29124590517E+02  0.51100000000E-03 0. -1.
        -11    1    3    3    0    0 -0.12616091560E+02  0.12378804856E+01 -0.42141727779E+01  0.13358793613E+02  0.51100000000E-03 0.  1.
        -12    1    3    3    0    0  0.11028013928E+02  0.46722746585E+01  0.11807465835E+02  0.16818546047E+02  0.00000000000E+00 0.  1.
</event>
<event>
 7    1  0.6285940E-013  0.5930194E+02  0.7816164E-02  0.1266605E+00
        -11   -1    0    0    0    0  0.00000000000E+00  0.00000000000E+00  0.45593999997E+02  0.45594000000E+02  0.51100000000E-03 0.  1.
         11   -1    0    0    0    0 -0.00000000000E+00 -0.00000000000E+00 -0.45593999997E+02  0.45594000000E+02  0.51100000000E-03 0. -1.
    9900012    2    1    2    0    0 -0.24622364086E+02 -0.20137146928E+02  0.22260531980E+01  0.59301940155E+02  0.49999992937E+02 0.  0.
        -12    1    1    2    0    0  0.24622364086E+02  0.20137146928E+02 -0.22260531980E+01  0.31886059845E+02  0.00000000000E+00 0.  1.
         11    1    3    3    0    0 -0.57382203972E+01 -0.49871051273E+01 -0.20219442526E+02  0.21601487153E+02  0.51100000000E-03 0. -1.
        -11    1    3    3    0    0 -0.60480495911E+00 -0.71560151322E+01 -0.61453139615E+00  0.72077729368E+01  0.51100000000E-03 0.  1.
        -12    1    3    3    0    0 -0.18279338730E+02 -0.79940266688E+01  0.23060027121E+02  0.30492680065E+02  0.00000000000E+00 0.  1.
</event>
<event>
 7    1  0.6285940E-013  0.5930196E+02  0.7816164E-02  0.1266605E+00
        -11   -1    0    0    0    0  0.00000000000E+00  0.00000000000E+00  0.45593999997E+02  0.45594000000E+02  0.51100000000E-03 0.  1.
         11   -1    0    0    0    0 -0.00000000000E+00 -0.00000000000E+00 -0.45593999997E+02  0.45594000000E+02  0.51100000000E-03 0. -1.
    9900012    2    1    2    0    0  0.48411358946E+01  0.18835080441E+02 -0.25269001127E+02  0.59301964343E+02  0.50000037051E+02 0.  0.
        -12    1    1    2    0    0 -0.48411358946E+01 -0.18835080441E+02  0.25269001127E+02  0.31886035657E+02  0.00000000000E+00 0.  1.
         11    1    3    3    0    0  0.76494398135E+01  0.13962976922E+02 -0.57213613134E+01  0.16917819881E+02  0.51100000000E-03 0. -1.
        -11    1    3    3    0    0  0.31582554514E+00 -0.72890961993E+01  0.87697586451E+01  0.11407862908E+02  0.51100000000E-03 0.  1.
        -12    1    3    3    0    0 -0.31241294640E+01  0.12161199718E+02 -0.28317398458E+02  0.30976281554E+02  0.00000000000E+00 0.  1.
</event>
<event>
 7    1  0.6285940E-013  0.5930193E+02  0.7816164E-02  0.1266605E+00
        -11   -1    0    0    0    0  0.00000000000E+00  0.00000000000E+00  0.45593999997E+02  0.45594000000E+02  0.51100000000E-03 0. -1.
         11   -1    0    0    0    0 -0.00000000000E+00 -0.00000000000E+00 -0.45593999997E+02  0.45594000000E+02  0.51100000000E-03 0.  1.
    9900012    2    1    2    0    0  0.25126302058E+02 -0.41491262332E+01  0.19187890224E+02  0.59301930395E+02  0.49999975137E+02 0.  0.
        -12    1    1    2    0    0 -0.25126302058E+02  0.41491262332E+01 -0.19187890224E+02  0.31886069605E+02  0.00000000000E+00 0.  1.
         11    1    3    3    0    0  0.50630851055E+01  0.15141925871E+02  0.11067543619E+02  0.19426869843E+02  0.51100000000E-03 0. -1.
        -11    1    3    3    0    0 -0.64671331554E+00 -0.63204875969E+00 -0.77470311718E+01  0.77996292210E+01  0.51100000000E-03 0.  1.
         12    1    3    3    0    0  0.20709930268E+02 -0.18659003345E+02  0.15867377776E+02  0.32075431330E+02  0.00000000000E+00 0. -1.
</event>
<event>
 7    1  0.6285940E-013  0.5930199E+02  0.7816164E-02  0.1266605E+00
        -11   -1    0    0    0    0  0.00000000000E+00  0.00000000000E+00  0.45593999997E+02  0.45594000000E+02  0.51100000000E-03 0. -1.
         11   -1    0    0    0    0 -0.00000000000E+00 -0.00000000000E+00 -0.45593999997E+02  0.45594000000E+02  0.51100000000E-03 0.  1.
    9900012    2    1    2    0    0  0.11123035230E+02  0.29874081451E+02 -0.73134291060E+00  0.59301991819E+02  0.50000087159E+02 0.  0.
        -12    1    1    2    0    0 -0.11123035230E+02 -0.29874081451E+02  0.73134291060E+00  0.31886008181E+02  0.00000000000E+00 0.  1.
         11    1    3    3    0    0  0.17448480645E+02  0.16249375866E+02  0.16684857895E+02  0.29101137024E+02  0.51100000000E-03 0. -1.
        -11    1    3    3    0    0  0.19347425224E+00  0.16043605534E+02 -0.66145815214E+01  0.17354751504E+02  0.51100000000E-03 0.  1.
        -12    1    3    3    0    0 -0.65189196678E+01 -0.24188999480E+01 -0.10801619284E+02  0.12846103291E+02  0.00000000000E+00 0.  1.
</event>
<event>
 7    1  0.6285940E-013  0.5930194E+02  0.7816164E-02  0.1266605E+00
        -11   -1    0    0    0    0  0.00000000000E+00  0.00000000000E+00  0.45593999997E+02  0.45594000000E+02  0.51100000000E-03 0. -1.
         11   -1    0    0    0    0 -0.00000000000E+00 -0.00000000000E+00 -0.45593999997E+02  0.45594000000E+02  0.51100000000E-03 0.  1.
    9900012    2    1    2    0    0 -0.29672280863E+02  0.95647864547E+01  0.66926349872E+01  0.59301941062E+02  0.49999994591E+02 0.  0.
        -12    1    1    2    0    0  0.29672280863E+02 -0.95647864547E+01 -0.66926349872E+01  0.31886058938E+02  0.00000000000E+00 0.  1.
         11    1    3    3    0    0 -0.19012938709E+02  0.64866438495E+01  0.97793343803E+01  0.22342868392E+02  0.51100000000E-03 0. -1.
        -11    1    3    3    0    0  0.49535282551E+01  0.15811396383E+02  0.51300697696E-01  0.16569258577E+02  0.51100000000E-03 0.  1.
         12    1    3    3    0    0 -0.15612870409E+02 -0.12733253778E+02 -0.31380000908E+01  0.20389814093E+02  0.00000000000E+00 0. -1.
</event>
<event>
 7    1  0.6285940E-013  0.5930195E+02  0.7816164E-02  0.1266605E+00
        -11   -1    0    0    0    0  0.00000000000E+00  0.00000000000E+00  0.45593999997E+02  0.45594000000E+02  0.51100000000E-03 0.  1.
         11   -1    0    0    0    0 -0.00000000000E+00 -0.00000000000E+00 -0.45593999997E+02  0.45594000000E+02  0.51100000000E-03 0. -1.
    9900012    2    1    2    0    0  0.24969404351E+02 -0.18596601397E+02  0.68858899711E+01  0.59301949479E+02  0.50000009941E+02 0.  0.
        -12    1    1    2    0    0 -0.24969404351E+02  0.18596601397E+02 -0.68858899711E+01  0.31886050521E+02  0.00000000000E+00 0.  1.
         11    1    3    3    0    0  0.70701430388E+00 -0.17754032647E+02  0.31223447854E+00  0.17770847900E+02  0.51100000000E-03 0. -1.
        -11    1    3    3    0    0  0.23185099044E+02 -0.93787911332E+01  0.15265521502E+02  0.29300967352E+02  0.51100000000E-03 0.  1.
        -12    1    3    3    0    0  0.10772910033E+01  0.85362223830E+01 -0.86918660093E+01  0.12230134227E+02  0.00000000000E+00 0.  1.
</event>
<event>
 7    1  0.6285940E-013  0.5930196E+02  0.7816164E-02  0.1266605E+00
        -11   -1    0    0    0    0  0.00000000000E+00  0.00000000000E+00  0.45593999997E+02  0.45594000000E+02  0.51100000000E-03 0.  1.
         11   -1    0    0    0    0 -0.00000000000E+00 -0.00000000000E+00 -0.45593999997E+02  0.45594000000E+02  0.51100000000E-03 0. -1.
    9900012    2    1    2    0    0  0.23905601797E+02  0.16663642391E+02 -0.12944687911E+02  0.59301957283E+02  0.50000024175E+02 0.  0.
        -12    1    1    2    0    0 -0.23905601797E+02 -0.16663642391E+02  0.12944687911E+02  0.31886042717E+02  0.00000000000E+00 0.  1.
         11    1    3    3    0    0  0.15542368150E+02  0.15459232421E+02  0.20614884467E+01  0.22018238114E+02  0.51100000000E-03 0. -1.
        -11    1    3    3    0    0 -0.48453273812E+01 -0.87131979861E-01  0.87896969543E+01  0.10037109256E+02  0.51100000000E-03 0.  1.
        -12    1    3    3    0    0  0.13208561028E+02  0.12915419501E+01 -0.23795873312E+02  0.27246609913E+02  0.00000000000E+00 0.  1.
</event>
<event>
 7    1  0.6285940E-013  0.5930196E+02  0.7816164E-02  0.1266605E+00
        -11   -1    0    0    0    0  0.00000000000E+00  0.00000000000E+00  0.45593999997E+02  0.45594000000E+02  0.51100000000E-03 0.  1.
         11   -1    0    0    0    0 -0.00000000000E+00 -0.00000000000E+00 -0.45593999997E+02  0.45594000000E+02  0.51100000000E-03 0. -1.
    9900012    2    1    2    0    0  0.17848753691E+02 -0.14372874906E+02 -0.22171200544E+02  0.59301957992E+02  0.50000025467E+02 0.  0.
        -12    1    1    2    0    0 -0.17848753691E+02  0.14372874906E+02  0.22171200544E+02  0.31886042008E+02  0.00000000000E+00 0.  1.
         11    1    3    3    0    0  0.13964018578E+02 -0.27910421500E+02 -0.19997252357E+02  0.37065827190E+02  0.51100000000E-03 0. -1.
        -11    1    3    3    0    0 -0.67697985066E+01  0.49344302812E+01 -0.45157186849E-01  0.83773989670E+01  0.51100000000E-03 0.  1.
        -12    1    3    3    0    0  0.10654533620E+02  0.86031163132E+01 -0.21287909999E+01  0.13858731835E+02  0.00000000000E+00 0.  1.
</event>
<event>
 7    1  0.6285940E-013  0.5930193E+02  0.7816164E-02  0.1266605E+00
        -11   -1    0    0    0    0  0.00000000000E+00  0.00000000000E+00  0.45593999997E+02  0.45594000000E+02  0.51100000000E-03 0.  1.
         11   -1    0    0    0    0 -0.00000000000E+00 -0.00000000000E+00 -0.45593999997E+02  0.45594000000E+02  0.51100000000E-03 0. -1.
    9900012    2    1    2    0    0  0.19233517218E+02 -0.96061417962E+01 -0.23548146483E+02  0.59301931764E+02  0.49999977633E+02 0.  0.
        -12    1    1    2    0    0 -0.19233517218E+02  0.96061417962E+01  0.23548146483E+02  0.31886068236E+02  0.00000000000E+00 0.  1.
         11    1    3    3    0    0  0.64005941504E+01 -0.32285862940E+00 -0.73286313094E+01  0.97355369807E+01  0.51100000000E-03 0. -1.
        -11    1    3    3    0    0  0.96016120020E+01  0.16318654089E+02  0.28275507994E+00  0.18935928153E+02  0.51100000000E-03 0.  1.
        -12    1    3    3    0    0  0.32313110658E+01 -0.25601937256E+02 -0.16502270253E+02  0.30630466630E+02  0.00000000000E+00 0.  1.
</event>
<event>
 7    1  0.6285940E-013  0.5930189E+02  0.7816164E-02  0.1266605E+00
        -11   -1    0    0    0    0  0.00000000000E+00  0.00000000000E+00  0.45593999997E+02  0.45594000000E+02  0.51100000000E-03 0.  1.
         11   -1    0    0    0    0 -0.00000000000E+00 -0.00000000000E+00 -0.45593999997E+02  0.45594000000E+02  0.51100000000E-03 0. -1.
    9900012    2    1    2    0    0 -0.20772611304E+02 -0.17000662086E+02 -0.17210462263E+02  0.59301891691E+02  0.49999904551E+02 0.  0.
        -12    1    1    2    0    0  0.20772611304E+02  0.17000662086E+02  0.17210462263E+02  0.31886108309E+02  0.00000000000E+00 0.  1.
         11    1    3    3    0    0 -0.54471874521E+01 -0.39827664250E+01 -0.10062743306E+02  0.12115819520E+02  0.51100000000E-03 0. -1.
        -11    1    3    3    0    0 -0.80863425939E+01 -0.15920850032E+02 -0.23237221806E+02  0.29305816484E+02  0.51100000000E-03 0.  1.
        -12    1    3    3    0    0 -0.72390812582E+01  0.29029543711E+01  0.16089502848E+02  0.17880255688E+02  0.00000000000E+00 0.  1.
</event>
<event>
 7    1  0.6285940E-013  0.5930198E+02  0.7816164E-02  0.1266605E+00
        -11   -1    0    0    0    0  0.00000000000E+00  0.00000000000E+00  0.45593999997E+02  0.45594000000E+02  0.51100000000E-03 0. -1.
         11   -1    0    0    0    0 -0.00000000000E+00 -0.00000000000E+00 -0.45593999997E+02  0.45594000000E+02  0.51100000000E-03 0.  1.
    9900012    2    1    2    0    0  0.28503867821E+02  0.17265299039E+01  0.14186845805E+02  0.59301984567E+02  0.50000073935E+02 0.  0.
        -12    1    1    2    0    0 -0.28503867821E+02 -0.17265299039E+01 -0.14186845805E+02  0.31886015433E+02  0.00000000000E+00 0.  1.
         11    1    3    3    0    0  0.12377715709E+02 -0.52038078853E+01  0.20920419471E+01  0.13589117059E+02  0.51100000000E-03 0. -1.
        -11    1    3    3    0    0  0.24846918864E+02  0.72407204538E+01 -0.51481915735E+01  0.26387521416E+02  0.51100000000E-03 0.  1.
        -12    1    3    3    0    0 -0.87207667520E+01 -0.31038266457E+00  0.17242995432E+02  0.19325346093E+02  0.00000000000E+00 0.  1.
</event>
<event>
 7    1  0.6285940E-013  0.5930195E+02  0.7816164E-02  0.1266605E+00
        -11   -1    0    0    0    0  0.00000000000E+00  0.00000000000E+00  0.45593999997E+02  0.45594000000E+02  0.51100000000E-03 0.  1.
         11   -1    0    0    0    0 -0.00000000000E+00 -0.00000000000E+00 -0.45593999997E+02  0.45594000000E+02  0.51100000000E-03 0. -1.
    9900012    2    1    2    0    0  0.17736772059E+02 -0.24642381065E+02 -0.97406553542E+01  0.59301946711E+02  0.50000004894E+02 0.  0.
        -12    1    1    2    0    0 -0.17736772059E+02  0.24642381065E+02  0.97406553542E+01  0.31886053289E+02  0.00000000000E+00 0.  1.
         11    1    3    3    0    0 -0.19891174503E+01 -0.17708713690E+02  0.55114247534E+01  0.18652906793E+02  0.51100000000E-03 0. -1.
        -11    1    3    3    0    0  0.18083648885E+02  0.86209845368E+01 -0.19713575746E+01  0.20130225591E+02  0.51100000000E-03 0.  1.
         12    1    3    3    0    0  0.16422406238E+01 -0.15554651912E+02 -0.13280722533E+02  0.20518814327E+02  0.00000000000E+00 0. -1.
</event>
<event>
 7    1  0.6285940E-013  0.5930196E+02  0.7816164E-02  0.1266605E+00
        -11   -1    0    0    0    0  0.00000000000E+00  0.00000000000E+00  0.45593999997E+02  0.45594000000E+02  0.51100000000E-03 0. -1.
         11   -1    0    0    0    0 -0.00000000000E+00 -0.00000000000E+00 -0.45593999997E+02  0.45594000000E+02  0.51100000000E-03 0.  1.
    9900012    2    1    2    0    0  0.19054898025E+02  0.25345122555E+02 -0.33549179713E+01  0.59301955236E+02  0.50000020442E+02 0.  0.
        -12    1    1    2    0    0 -0.19054898025E+02 -0.25345122555E+02  0.33549179713E+01  0.31886044764E+02  0.00000000000E+00 0.  1.
         11    1    3    3    0    0  0.13241418902E+02  0.75149432383E+01  0.13434784241E+02  0.20305244994E+02  0.51100000000E-03 0. -1.
        -11    1    3    3    0    0  0.11124093165E+02 -0.38534337405E+01 -0.13422891753E+01  0.11848887747E+02  0.51100000000E-03 0.  1.
        -12    1    3    3    0    0 -0.53106140420E+01  0.21683613057E+02 -0.15447413037E+02  0.27147822496E+02  0.00000000000E+00 0.  1.
</event>
<event>
 7    1  0.6285940E-013  0.5930192E+02  0.7816164E-02  0.1266605E+00
        -11   -1    0    0    0    0  0.00000000000E+00  0.00000000000E+00  0.45593999997E+02  0.45594000000E+02  0.51100000000E-03 0.  1.
         11   -1    0    0    0    0 -0.00000000000E+00 -0.00000000000E+00 -0.45593999997E+02  0.45594000000E+02  0.51100000000E-03 0. -1.
    9900012    2    1    2    0    0  0.12705946211E+02 -0.20860060165E+02 -0.20497289051E+02  0.59301920943E+02  0.49999957899E+02 0.  0.
        -12    1    1    2    0    0 -0.12705946211E+02  0.20860060165E+02  0.20497289051E+02  0.31886079057E+02  0.00000000000E+00 0.  1.
         11    1    3    3    0    0  0.18273831702E+02 -0.69319876533E+01 -0.10542118000E+01  0.19572857244E+02  0.51100000000E-03 0.  1.
        -11    1    3    3    0    0 -0.10537401479E+01  0.65671590419E+01 -0.17418498516E+02  0.18645161222E+02  0.51100000000E-03 0. -1.
        -12    1    3    3    0    0 -0.45141453435E+01 -0.20495231554E+02 -0.20245787347E+01  0.21083902477E+02  0.00000000000E+00 0.  1.
</event>
<event>
 7    1  0.6285940E-013  0.5930194E+02  0.7816164E-02  0.1266605E+00
        -11   -1    0    0    0    0  0.00000000000E+00  0.00000000000E+00  0.45593999997E+02  0.45594000000E+02  0.51100000000E-03 0.  1.
         11   -1    0    0    0    0 -0.00000000000E+00 -0.00000000000E+00 -0.45593999997E+02  0.45594000000E+02  0.51100000000E-03 0. -1.
    9900012    2    1    2    0    0  0.19675912559E+02 -0.14209451208E+01 -0.25051150809E+02  0.59301940712E+02  0.49999993952E+02 0.  0.
        -12    1    1    2    0    0 -0.19675912559E+02  0.14209451208E+01  0.25051150809E+02  0.31886059288E+02  0.00000000000E+00 0.  1.
         11    1    3    3    0    0  0.88390544421E+01  0.80156825672E+01  0.35973863917E+01  0.12462794212E+02  0.51100000000E-03 0.  1.
        -11    1    3    3    0    0  0.61564613933E+01  0.12661765184E+02 -0.14361413100E+02  0.20111501708E+02  0.51100000000E-03 0. -1.
        -12    1    3    3    0    0  0.46803967240E+01 -0.22098392873E+02 -0.14287124101E+02  0.26727644792E+02  0.00000000000E+00 0.  1.
</event>
<event>
 7    1  0.6285940E-013  0.5930195E+02  0.7816164E-02  0.1266605E+00
        -11   -1    0    0    0    0  0.00000000000E+00  0.00000000000E+00  0.45593999997E+02  0.45594000000E+02  0.51100000000E-03 0.  1.
         11   -1    0    0    0    0 -0.00000000000E+00 -0.00000000000E+00 -0.45593999997E+02  0.45594000000E+02  0.51100000000E-03 0. -1.
    9900012    2    1    2    0    0  0.13930068762E+02  0.14869053753E+02 -0.24527226392E+02  0.59301946471E+02  0.50000004455E+02 0.  0.
        -12    1    1    2    0    0 -0.13930068762E+02 -0.14869053753E+02  0.24527226392E+02  0.31886053529E+02  0.00000000000E+00 0.  1.
         11    1    3    3    0    0  0.33005441796E+01 -0.60925010779E+01 -0.41609124301E+01  0.80824101466E+01  0.51100000000E-03 0. -1.
        -11    1    3    3    0    0 -0.13766441950E+02  0.16554184914E+02 -0.51720738280E+01  0.22142861379E+02  0.51100000000E-03 0.  1.
         12    1    3    3    0    0  0.24395966532E+02  0.44073699167E+01 -0.15194240134E+02  0.29076674945E+02  0.00000000000E+00 0. -1.
</event>
<event>
 7    1  0.6285940E-013  0.5930186E+02  0.7816164E-02  0.1266605E+00
        -11   -1    0    0    0    0  0.00000000000E+00  0.00000000000E+00  0.45593999997E+02  0.45594000000E+02  0.51100000000E-03 0. -1.
         11   -1    0    0    0    0 -0.00000000000E+00 -0.00000000000E+00 -0.45593999997E+02  0.45594000000E+02  0.51100000000E-03 0.  1.
    9900012    2    1    2    0    0  0.18596833843E+02  0.24486955486E+02  0.84423158209E+01  0.59301860153E+02  0.49999847032E+02 0.  0.
        -12    1    1    2    0    0 -0.18596833843E+02 -0.24486955486E+02 -0.84423158209E+01  0.31886139847E+02  0.00000000000E+00 0.  1.
         11    1    3    3    0    0  0.82449357015E+01 -0.36487998673E+01 -0.18591351230E+01  0.92059268333E+01  0.51100000000E-03 0. -1.
        -11    1    3    3    0    0 -0.65685668525E+01  0.28415298176E+02 -0.19103098923E+01  0.29227119685E+02  0.51100000000E-03 0.  1.
         12    1    3    3    0    0  0.16920464994E+02 -0.27954282325E+00  0.12211760836E+02  0.20868813634E+02  0.00000000000E+00 0. -1.
</event>
<event>
 7    1  0.6285940E-013  0.5930191E+02  0.7816164E-02  0.1266605E+00
        -11   -1    0    0    0    0  0.00000000000E+00  0.00000000000E+00  0.45593999997E+02  0.45594000000E+02  0.51100000000E-03 0.  1.
         11   -1    0    0    0    0 -0.00000000000E+00 -0.00000000000E+00 -0.45593999997E+02  0.45594000000E+02  0.51100000000E-03 0. -1.
    9900012    2    1    2    0    0 -0.91764786862E+01  0.28039726415E+02 -0.12094997302E+02  0.59301906194E+02  0.49999930999E+02 0.  0.
        -12    1    1    2    0    0  0.91764786862E+01 -0.28039726415E+02  0.12094997302E+02  0.31886093806E+02  0.00000000000E+00 0.  1.
         11    1    3    3    0    0 -0.12415621806E+02  0.53224570160E+01 -0.98689033346E+01  0.16729359426E+02  0.51100000000E-03 0. -1.
        -11    1    3    3    0    0 -0.41669206196E+01 -0.83788850212E+01 -0.47739967763E+01  0.10505236177E+02  0.51100000000E-03 0.  1.
         12    1    3    3    0    0  0.74060637390E+01  0.31096154420E+02  0.25479028087E+01  0.32067310591E+02  0.00000000000E+00 0. -1.
</event>
<event>
 7    1  0.6285940E-013  0.5930193E+02  0.7816164E-02  0.1266605E+00
        -11   -1    0    0    0    0  0.00000000000E+00  0.00000000000E+00  0.45593999997E+02  0.45594000000E+02  0.51100000000E-03 0.  1.
         11   -1    0    0    0    0 -0.00000000000E+00 -0.00000000000E+00 -0.45593999997E+02  0.45594000000E+02  0.51100000000E-03 0. -1.
    9900012    2    1    2    0    0 -0.12006902497E+02 -0.88233821499E+01 -0.28190494538E+02  0.59301925259E+02  0.49999965770E+02 0.  0.
        -12    1    1    2    0    0  0.12006902497E+02  0.88233821499E+01  0.28190494538E+02  0.31886074741E+02  0.00000000000E+00 0.  1.
         11    1    3    3    0    0  0.44572014772E+01  0.20200807835E+01 -0.47376333346E+01  0.68112070336E+01  0.51100000000E-03 0. -1.
        -11    1    3    3    0    0  0.32256010320E+01  0.36399744847E+01  0.99645371968E+01  0.11088098037E+02  0.51100000000E-03 0.  1.
         12    1    3    3    0    0 -0.19689705006E+02 -0.14483437418E+02 -0.33417398400E+02  0.41402620188E+02  0.00000000000E+00 0. -1.
</event>
<event>
 7    1  0.6285940E-013  0.5930190E+02  0.7816164E-02  0.1266605E+00
        -11   -1    0    0    0    0  0.00000000000E+00  0.00000000000E+00  0.45593999997E+02  0.45594000000E+02  0.51100000000E-03 0.  1.
         11   -1    0    0    0    0 -0.00000000000E+00 -0.00000000000E+00 -0.45593999997E+02  0.45594000000E+02  0.51100000000E-03 0. -1.
    9900012    2    1    2    0    0 -0.24265727274E+02  0.20678687110E+02 -0.53854359591E+00  0.59301895661E+02  0.49999911791E+02 0.  0.
        -12    1    1    2    0    0  0.24265727274E+02 -0.20678687110E+02  0.53854359591E+00  0.31886104339E+02  0.00000000000E+00 0.  1.
         11    1    3    3    0    0 -0.26001339577E+02  0.79103574966E+01 -0.38925485417E+01  0.27455333725E+02  0.51100000000E-03 0. -1.
        -11    1    3    3    0    0  0.17588515412E+01 -0.76379436301E+01 -0.55279071341E+01  0.95911156382E+01  0.51100000000E-03 0.  1.
         12    1    3    3    0    0 -0.23239238339E-01  0.20406273243E+02  0.88819120799E+01  0.22255446298E+02  0.00000000000E+00 0. -1.
</event>
<event>
 7    1  0.6285940E-013  0.5930197E+02  0.7816164E-02  0.1266605E+00
        -11   -1    0    0    0    0  0.00000000000E+00  0.00000000000E+00  0.45593999997E+02  0.45594000000E+02  0.51100000000E-03 0. -1.
         11   -1    0    0    0    0 -0.00000000000E+00 -0.00000000000E+00 -0.45593999997E+02  0.45594000000E+02  0.51100000000E-03 0.  1.
    9900012    2    1    2    0    0  0.67631602606E+01  0.25938372493E+02  0.17267870125E+02  0.59301971038E+02  0.50000049261E+02 0.  0.
        -12    1    1    2    0    0 -0.67631602606E+01 -0.25938372493E+02 -0.17267870125E+02  0.31886028962E+02  0.00000000000E+00 0.  1.
         11    1    3    3    0    0 -0.55201628062E+01  0.16587116744E+02  0.77157452013E+01  0.19108567805E+02  0.51100000000E-03 0.  1.
        -11    1    3    3    0    0  0.55148124320E+01  0.81856117943E+01  0.23035828706E+02  0.25061260962E+02  0.51100000000E-03 0. -1.
        -12    1    3    3    0    0  0.67685106347E+01  0.11656439548E+01 -0.13483703782E+02  0.15132142271E+02  0.00000000000E+00 0.  1.
</event>
<event>
 7    1  0.6285940E-013  0.5930194E+02  0.7816164E-02  0.1266605E+00
        -11   -1    0    0    0    0  0.00000000000E+00  0.00000000000E+00  0.45593999997E+02  0.45594000000E+02  0.51100000000E-03 0.  1.
         11   -1    0    0    0    0 -0.00000000000E+00 -0.00000000000E+00 -0.45593999997E+02  0.45594000000E+02  0.51100000000E-03 0. -1.
    9900012    2    1    2    0    0  0.17456834450E+02  0.16106425496E+01 -0.26634291916E+02  0.59301941223E+02  0.49999994886E+02 0.  0.
        -12    1    1    2    0    0 -0.17456834450E+02 -0.16106425496E+01  0.26634291916E+02  0.31886058777E+02  0.00000000000E+00 0.  1.
         11    1    3    3    0    0  0.20409545105E+00 -0.31312648444E+01 -0.19487648730E+02  0.19738665805E+02  0.51100000000E-03 0. -1.
        -11    1    3    3    0    0  0.98105152871E+01 -0.14908704996E+02 -0.43091933999E+01  0.18359870448E+02  0.51100000000E-03 0.  1.
        -12    1    3    3    0    0  0.74422237117E+01  0.19650612390E+02 -0.28374497865E+01  0.21203404971E+02  0.00000000000E+00 0.  1.
</event>
<event>
 7    1  0.6285940E-013  0.5930208E+02  0.7816164E-02  0.1266604E+00
        -11   -1    0    0    0    0  0.00000000000E+00  0.00000000000E+00  0.45593999997E+02  0.45594000000E+02  0.51100000000E-03 0. -1.
         11   -1    0    0    0    0 -0.00000000000E+00 -0.00000000000E+00 -0.45593999997E+02  0.45594000000E+02  0.51100000000E-03 0.  1.
    9900012    2    1    2    0    0 -0.71087368344E+01  0.40754735687E+01  0.30815064460E+02  0.59302081135E+02  0.50000250049E+02 0.  0.
        -12    1    1    2    0    0  0.71087368344E+01 -0.40754735687E+01 -0.30815064460E+02  0.31885918865E+02  0.00000000000E+00 0.  1.
         11    1    3    3    0    0  0.10461206099E+02 -0.81052239496E+01  0.21567362406E+01  0.13408318306E+02  0.51100000000E-03 0. -1.
        -11    1    3    3    0    0 -0.38071101998E+01  0.56933418481E+01 -0.53147295666E+01  0.86691741302E+01  0.51100000000E-03 0.  1.
        -12    1    3    3    0    0 -0.13762832733E+02  0.64873556703E+01  0.33973057786E+02  0.37224588699E+02  0.00000000000E+00 0.  1.
</event>
<event>
 7    1  0.6285940E-013  0.5930195E+02  0.7816164E-02  0.1266605E+00
        -11   -1    0    0    0    0  0.00000000000E+00  0.00000000000E+00  0.45593999997E+02  0.45594000000E+02  0.51100000000E-03 0.  1.
         11   -1    0    0    0    0 -0.00000000000E+00 -0.00000000000E+00 -0.45593999997E+02  0.45594000000E+02  0.51100000000E-03 0. -1.
    9900012    2    1    2    0    0  0.24682683089E+02 -0.17955193098E+02 -0.92247541578E+01  0.59301954574E+02  0.50000019233E+02 0.  0.
        -12    1    1    2    0    0 -0.24682683089E+02  0.17955193098E+02  0.92247541578E+01  0.31886045426E+02  0.00000000000E+00 0.  1.
         11    1    3    3    0    0 -0.49340539956E+01  0.39228037276E+01  0.55420648114E+01  0.83933164215E+01  0.51100000000E-03 0. -1.
        -11    1    3    3    0    0  0.75406145034E+01 -0.22680552665E+01  0.97475783795E+01  0.12530771178E+02  0.51100000000E-03 0.  1.
         12    1    3    3    0    0  0.22076122581E+02 -0.19609941559E+02 -0.24514397349E+02  0.38377866975E+02  0.00000000000E+00 0. -1.
</event>
<event>
 7    1  0.6285940E-013  0.5930195E+02  0.7816164E-02  0.1266605E+00
        -11   -1    0    0    0    0  0.00000000000E+00  0.00000000000E+00  0.45593999997E+02  0.45594000000E+02  0.51100000000E-03 0. -1.
         11   -1    0    0    0    0 -0.00000000000E+00 -0.00000000000E+00 -0.45593999997E+02  0.45594000000E+02  0.51100000000E-03 0.  1.
    9900012    2    1    2    0    0  0.13190812038E+02 -0.24884954140E+02  0.14948626944E+02  0.59301954270E+02  0.50000018680E+02 0.  0.
        -12    1    1    2    0    0 -0.13190812038E+02  0.24884954140E+02 -0.14948626944E+02  0.31886045730E+02  0.00000000000E+00 0.  1.
         11    1    3    3    0    0  0.63706212659E+01  0.46484175135E+01 -0.19786403080E+01  0.81306591629E+01  0.51100000000E-03 0. -1.
        -11    1    3    3    0    0  0.16234669964E+02 -0.53776166888E+01 -0.43338060457E+01  0.17642707990E+02  0.51100000000E-03 0.  1.
        -12    1    3    3    0    0 -0.94144791926E+01 -0.24155754965E+02  0.21261073297E+02  0.33528587118E+02  0.00000000000E+00 0.  1.
</event>
<event>
 7    1  0.6285940E-013  0.5930194E+02  0.7816164E-02  0.1266605E+00
        -11   -1    0    0    0    0  0.00000000000E+00  0.00000000000E+00  0.45593999997E+02  0.45594000000E+02  0.51100000000E-03 0.  1.
         11   -1    0    0    0    0 -0.00000000000E+00 -0.00000000000E+00 -0.45593999997E+02  0.45594000000E+02  0.51100000000E-03 0. -1.
    9900012    2    1    2    0    0 -0.59786568968E+01  0.30500440819E+02 -0.71203462730E+01  0.59301944122E+02  0.50000000172E+02 0.  0.
        -12    1    1    2    0    0  0.59786568968E+01 -0.30500440819E+02  0.71203462730E+01  0.31886055878E+02  0.00000000000E+00 0.  1.
         11    1    3    3    0    0 -0.19791314037E+02  0.14693288744E+02  0.29050754693E+01  0.24819917590E+02  0.51100000000E-03 0. -1.
        -11    1    3    3    0    0  0.34464645405E+01  0.11326636712E+02  0.72205997770E+01  0.13867511617E+02  0.51100000000E-03 0.  1.
         12    1    3    3    0    0  0.10366192600E+02  0.44805153623E+01 -0.17246021519E+02  0.20614514915E+02  0.00000000000E+00 0. -1.
</event>
<event>
 7    1  0.6285940E-013  0.5930195E+02  0.7816164E-02  0.1266605E+00
        -11   -1    0    0    0    0  0.00000000000E+00  0.00000000000E+00  0.45593999997E+02  0.45594000000E+02  0.51100000000E-03 0.  1.
         11   -1    0    0    0    0 -0.00000000000E+00 -0.00000000000E+00 -0.45593999997E+02  0.45594000000E+02  0.51100000000E-03 0. -1.
    9900012    2    1    2    0    0 -0.21751211117E+02  0.16430988172E+02 -0.16541688273E+02  0.59301952765E+02  0.50000015935E+02 0.  0.
        -12    1    1    2    0    0  0.21751211117E+02 -0.16430988172E+02  0.16541688273E+02  0.31886047235E+02  0.00000000000E+00 0.  1.
         11    1    3    3    0    0 -0.12546232433E+02 -0.69363451635E+01 -0.11026723428E+02  0.18086167707E+02  0.51100000000E-03 0. -1.
        -11    1    3    3    0    0 -0.14142569735E+00 -0.44273212856E+01 -0.10648799793E+02  0.11533347835E+02  0.51100000000E-03 0.  1.
        -12    1    3    3    0    0 -0.90635529865E+01  0.27794654621E+02  0.51338349491E+01  0.29682437223E+02  0.00000000000E+00 0.  1.
</event>
<event>
 7    1  0.6285940E-013  0.5930199E+02  0.7816164E-02  0.1266605E+00
        -11   -1    0    0    0    0  0.00000000000E+00  0.00000000000E+00  0.45593999997E+02  0.45594000000E+02  0.51100000000E-03 0.  1.
         11   -1    0    0    0    0 -0.00000000000E+00 -0.00000000000E+00 -0.45593999997E+02  0.45594000000E+02  0.51100000000E-03 0. -1.
    9900012    2    1    2    0    0 -0.17592120760E+02  0.19643192825E+02 -0.17927066195E+02  0.59301993045E+02  0.50000089396E+02 0.  0.
        -12    1    1    2    0    0  0.17592120760E+02 -0.19643192825E+02  0.17927066195E+02  0.31886006955E+02  0.00000000000E+00 0.  1.
         11    1    3    3    0    0 -0.97274540771E+01  0.27862000861E+02  0.46361658608E+01  0.29873206875E+02  0.51100000000E-03 0. -1.
        -11    1    3    3    0    0 -0.95163979589E+01 -0.96856029233E+00 -0.60492003217E+01  0.11317807382E+02  0.51100000000E-03 0.  1.
        -12    1    3    3    0    0  0.16517312764E+01 -0.72502477445E+01 -0.16514031734E+02  0.18110978788E+02  0.00000000000E+00 0.  1.
</event>
<event>
 7    1  0.6285940E-013  0.5930193E+02  0.7816164E-02  0.1266605E+00
        -11   -1    0    0    0    0  0.00000000000E+00  0.00000000000E+00  0.45593999997E+02  0.45594000000E+02  0.51100000000E-03 0.  1.
         11   -1    0    0    0    0 -0.00000000000E+00 -0.00000000000E+00 -0.45593999997E+02  0.45594000000E+02  0.51100000000E-03 0. -1.
    9900012    2    1    2    0    0  0.15745495413E+02 -0.63872296609E+01  0.26981555966E+02  0.59301926380E+02  0.49999967816E+02 0.  0.
        -12    1    1    2    0    0 -0.15745495413E+02  0.63872296609E+01 -0.26981555966E+02  0.31886073620E+02  0.00000000000E+00 0.  1.
         11    1    3    3    0    0  0.89280390884E+01 -0.75416996452E+01  0.41056711637E+02  0.42687711185E+02  0.51100000000E-03 0.  1.
        -11    1    3    3    0    0  0.17527622318E+01 -0.17117266863E+01 -0.72074616816E+01  0.76124692343E+01  0.51100000000E-03 0. -1.
        -12    1    3    3    0    0  0.50646940929E+01  0.28661966706E+01 -0.68676939900E+01  0.90017459611E+01  0.00000000000E+00 0.  1.
</event>
<event>
 7    1  0.6285940E-013  0.5930194E+02  0.7816164E-02  0.1266605E+00
        -11   -1    0    0    0    0  0.00000000000E+00  0.00000000000E+00  0.45593999997E+02  0.45594000000E+02  0.51100000000E-03 0.  1.
         11   -1    0    0    0    0 -0.00000000000E+00 -0.00000000000E+00 -0.45593999997E+02  0.45594000000E+02  0.51100000000E-03 0. -1.
    9900012    2    1    2    0    0  0.19636745213E+02 -0.18885473028E+02 -0.16566780622E+02  0.59301936050E+02  0.49999985451E+02 0.  0.
        -12    1    1    2    0    0 -0.19636745213E+02  0.18885473028E+02  0.16566780622E+02  0.31886063950E+02  0.00000000000E+00 0.  1.
         11    1    3    3    0    0  0.27278360544E+02 -0.12300993097E+02  0.34559931797E+01  0.30122537647E+02  0.51100000000E-03 0. -1.
        -11    1    3    3    0    0 -0.50424534733E+01  0.49367404189E+01 -0.15045418317E+01  0.72153578829E+01  0.51100000000E-03 0.  1.
        -12    1    3    3    0    0 -0.25991618583E+01 -0.11521220349E+02 -0.18518231970E+02  0.21964040521E+02  0.00000000000E+00 0.  1.
</event>
<event>
 7    1  0.6285940E-013  0.5930194E+02  0.7816164E-02  0.1266605E+00
        -11   -1    0    0    0    0  0.00000000000E+00  0.00000000000E+00  0.45593999997E+02  0.45594000000E+02  0.51100000000E-03 0.  1.
         11   -1    0    0    0    0 -0.00000000000E+00 -0.00000000000E+00 -0.45593999997E+02  0.45594000000E+02  0.51100000000E-03 0. -1.
    9900012    2    1    2    0    0  0.24728421877E+02  0.62391520255E+01 -0.19138932924E+02  0.59301943173E+02  0.49999998441E+02 0.  0.
        -12    1    1    2    0    0 -0.24728421877E+02 -0.62391520255E+01  0.19138932924E+02  0.31886056827E+02  0.00000000000E+00 0.  1.
         11    1    3    3    0    0  0.84361584418E+01 -0.10939007327E+02 -0.14340298088E+02  0.19911674969E+02  0.51100000000E-03 0. -1.
        -11    1    3    3    0    0 -0.84625553918E+01 -0.33766709973E+00  0.95939271256E+00  0.85234557233E+01  0.51100000000E-03 0.  1.
         12    1    3    3    0    0  0.24754818827E+02  0.17515826452E+02 -0.57580275485E+01  0.30866812481E+02  0.00000000000E+00 0. -1.
</event>
<event>
 7    1  0.6285940E-013  0.5930196E+02  0.7816164E-02  0.1266605E+00
        -11   -1    0    0    0    0  0.00000000000E+00  0.00000000000E+00  0.45593999997E+02  0.45594000000E+02  0.51100000000E-03 0.  1.
         11   -1    0    0    0    0 -0.00000000000E+00 -0.00000000000E+00 -0.45593999997E+02  0.45594000000E+02  0.51100000000E-03 0. -1.
    9900012    2    1    2    0    0  0.10724284880E+02  0.23562734433E+02 -0.18614699594E+02  0.59301956327E+02  0.50000022430E+02 0.  0.
        -12    1    1    2    0    0 -0.10724284880E+02 -0.23562734433E+02  0.18614699594E+02  0.31886043673E+02  0.00000000000E+00 0.  1.
         11    1    3    3    0    0 -0.31633706803E+01  0.56565731763E+01 -0.13958426515E+01  0.66296388385E+01  0.51100000000E-03 0. -1.
        -11    1    3    3    0    0 -0.84949011293E+01  0.59360750603E+01 -0.24218399286E+02  0.26342573841E+02  0.51100000000E-03 0.  1.
         12    1    3    3    0    0  0.22382556690E+02  0.11970086197E+02  0.69995423438E+01  0.26329743647E+02  0.00000000000E+00 0. -1.
</event>
<event>
 7    1  0.6285940E-013  0.5930190E+02  0.7816164E-02  0.1266605E+00
        -11   -1    0    0    0    0  0.00000000000E+00  0.00000000000E+00  0.45593999997E+02  0.45594000000E+02  0.51100000000E-03 0.  1.
         11   -1    0    0    0    0 -0.00000000000E+00 -0.00000000000E+00 -0.45593999997E+02  0.45594000000E+02  0.51100000000E-03 0. -1.
    9900012    2    1    2    0    0  0.65258327532E+01 -0.28867356964E+02 -0.11866438754E+02  0.59301903345E+02  0.49999925804E+02 0.  0.
        -12    1    1    2    0    0 -0.65258327532E+01  0.28867356964E+02  0.11866438754E+02  0.31886096655E+02  0.00000000000E+00 0.  1.
         11    1    3    3    0    0  0.63466452712E+01 -0.96662859819E+01  0.11057014593E+02  0.15999205069E+02  0.51100000000E-03 0. -1.
        -11    1    3    3    0    0  0.24960636413E+01  0.24293654505E+01  0.61042178378E+01  0.70280598934E+01  0.51100000000E-03 0.  1.
         12    1    3    3    0    0 -0.23168761593E+01 -0.21630436432E+02 -0.29027671184E+02  0.36274638382E+02  0.00000000000E+00 0. -1.
</event>
<event>
 7    1  0.6285940E-013  0.5930194E+02  0.7816164E-02  0.1266605E+00
        -11   -1    0    0    0    0  0.00000000000E+00  0.00000000000E+00  0.45593999997E+02  0.45594000000E+02  0.51100000000E-03 0.  1.
         11   -1    0    0    0    0 -0.00000000000E+00 -0.00000000000E+00 -0.45593999997E+02  0.45594000000E+02  0.51100000000E-03 0. -1.
    9900012    2    1    2    0    0 -0.13177548459E+02  0.28767847923E+02 -0.39349344119E+01  0.59301944014E+02  0.49999999974E+02 0.  0.
        -12    1    1    2    0    0  0.13177548459E+02 -0.28767847923E+02  0.39349344119E+01  0.31886055986E+02  0.00000000000E+00 0.  1.
         11    1    3    3    0    0 -0.46577756966E+01  0.27381899632E+00  0.13593873149E+01  0.48598133108E+01  0.51100000000E-03 0. -1.
        -11    1    3    3    0    0 -0.11744624625E+01 -0.20128438997E+01  0.16226231955E+02  0.16392727240E+02  0.51100000000E-03 0.  1.
         12    1    3    3    0    0 -0.73453103003E+01  0.30506872827E+02 -0.21520553682E+02  0.38049403463E+02  0.00000000000E+00 0. -1.
</event>
<event>
 7    1  0.6285940E-013  0.5930195E+02  0.7816164E-02  0.1266605E+00
        -11   -1    0    0    0    0  0.00000000000E+00  0.00000000000E+00  0.45593999997E+02  0.45594000000E+02  0.51100000000E-03 0.  1.
         11   -1    0    0    0    0 -0.00000000000E+00 -0.00000000000E+00 -0.45593999997E+02  0.45594000000E+02  0.51100000000E-03 0. -1.
    9900012    2    1    2    0    0 -0.22744491906E+02  0.15609509900E+02 -0.15992240111E+02  0.59301945758E+02  0.50000003155E+02 0.  0.
        -12    1    1    2    0    0  0.22744491906E+02 -0.15609509900E+02  0.15992240111E+02  0.31886054242E+02  0.00000000000E+00 0.  1.
         11    1    3    3    0    0 -0.19024607938E+02  0.13330211744E+02 -0.27250759376E+02  0.35808297071E+02  0.51100000000E-03 0. -1.
        -11    1    3    3    0    0  0.53447124567E+01 -0.55709466405E+01  0.11406234007E+01  0.78040002383E+01  0.51100000000E-03 0.  1.
        -12    1    3    3    0    0 -0.90645964248E+01  0.78502447966E+01  0.10117895864E+02  0.15689648448E+02  0.00000000000E+00 0.  1.
</event>
<event>
 7    1  0.6285940E-013  0.5930193E+02  0.7816164E-02  0.1266605E+00
        -11   -1    0    0    0    0  0.00000000000E+00  0.00000000000E+00  0.45593999997E+02  0.45594000000E+02  0.51100000000E-03 0. -1.
         11   -1    0    0    0    0 -0.00000000000E+00 -0.00000000000E+00 -0.45593999997E+02  0.45594000000E+02  0.51100000000E-03 0.  1.
    9900012    2    1    2    0    0 -0.14470796655E+02 -0.45969189460E+01 -0.28039006358E+02  0.59301929418E+02  0.49999973355E+02 0.  0.
        -12    1    1    2    0    0  0.14470796655E+02  0.45969189460E+01  0.28039006358E+02  0.31886070582E+02  0.00000000000E+00 0.  1.
         11    1    3    3    0    0 -0.84355207549E+01  0.11001385182E+02 -0.16887521129E+02  0.21848955500E+02  0.51100000000E-03 0.  1.
        -11    1    3    3    0    0 -0.18709135741E+02 -0.96789368036E+01 -0.30387488102E+01  0.21282564987E+02  0.51100000000E-03 0. -1.
        -12    1    3    3    0    0  0.12673859841E+02 -0.59193673244E+01 -0.81127364189E+01  0.16170408931E+02  0.00000000000E+00 0.  1.
</event>
<event>
 7    1  0.6285940E-013  0.5930194E+02  0.7816164E-02  0.1266605E+00
        -11   -1    0    0    0    0  0.00000000000E+00  0.00000000000E+00  0.45593999997E+02  0.45594000000E+02  0.51100000000E-03 0.  1.
         11   -1    0    0    0    0 -0.00000000000E+00 -0.00000000000E+00 -0.45593999997E+02  0.45594000000E+02  0.51100000000E-03 0. -1.
    9900012    2    1    2    0    0 -0.21646613950E+02 -0.13108005308E+02 -0.19399107024E+02  0.59301936398E+02  0.49999986086E+02 0.  0.
        -12    1    1    2    0    0  0.21646613950E+02  0.13108005308E+02  0.19399107024E+02  0.31886063602E+02  0.00000000000E+00 0.  1.
         11    1    3    3    0    0 -0.12935856943E+02  0.13025206354E+02  0.37410966403E+01  0.18734679067E+02  0.51100000000E-03 0. -1.
        -11    1    3    3    0    0 -0.13087128017E+01 -0.16254544867E+01  0.32097205328E+01  0.38284641366E+01  0.51100000000E-03 0.  1.
         12    1    3    3    0    0 -0.74020442053E+01 -0.24507757175E+02 -0.26349924198E+02  0.36738793195E+02  0.00000000000E+00 0. -1.
</event>
<event>
 7    1  0.6285940E-013  0.5930193E+02  0.7816164E-02  0.1266605E+00
        -11   -1    0    0    0    0  0.00000000000E+00  0.00000000000E+00  0.45593999997E+02  0.45594000000E+02  0.51100000000E-03 0.  1.
         11   -1    0    0    0    0 -0.00000000000E+00 -0.00000000000E+00 -0.45593999997E+02  0.45594000000E+02  0.51100000000E-03 0. -1.
    9900012    2    1    2    0    0  0.20943921101E+02  0.20179631789E+02 -0.13071184043E+02  0.59301933725E+02  0.49999981210E+02 0.  0.
        -12    1    1    2    0    0 -0.20943921101E+02 -0.20179631789E+02  0.13071184043E+02  0.31886066275E+02  0.00000000000E+00 0.  1.
         11    1    3    3    0    0  0.42751576185E+01  0.70711901447E+01  0.10645471185E+01  0.83313842520E+01  0.51100000000E-03 0. -1.
        -11    1    3    3    0    0 -0.25847179059E+01 -0.56273579944E+01  0.11991309969E+02  0.13495904552E+02  0.51100000000E-03 0.  1.
         12    1    3    3    0    0  0.19253481388E+02  0.18735799639E+02 -0.26127041131E+02  0.37474644920E+02  0.00000000000E+00 0. -1.
</event>
<event>
 7    1  0.6285940E-013  0.5930193E+02  0.7816164E-02  0.1266605E+00
        -11   -1    0    0    0    0  0.00000000000E+00  0.00000000000E+00  0.45593999997E+02  0.45594000000E+02  0.51100000000E-03 0. -1.
         11   -1    0    0    0    0 -0.00000000000E+00 -0.00000000000E+00 -0.45593999997E+02  0.45594000000E+02  0.51100000000E-03 0.  1.
    9900012    2    1    2    0    0  0.93804663543E+00  0.29257824911E+02  0.12642050774E+02  0.59301926272E+02  0.49999967618E+02 0.  0.
        -12    1    1    2    0    0 -0.93804663543E+00 -0.29257824911E+02 -0.12642050774E+02  0.31886073728E+02  0.00000000000E+00 0.  1.
         11    1    3    3    0    0  0.10505191365E+02  0.60182547493E+01  0.59553868997E+01  0.13492407836E+02  0.51100000000E-03 0. -1.
        -11    1    3    3    0    0  0.14614932356E+02  0.81971942331E+01  0.11399865777E+01  0.16795529486E+02  0.51100000000E-03 0.  1.
        -12    1    3    3    0    0 -0.24182077085E+02  0.15042375929E+02  0.55466772962E+01  0.29013988950E+02  0.00000000000E+00 0.  1.
</event>
<event>
 7    1  0.6285940E-013  0.5930195E+02  0.7816164E-02  0.1266605E+00
        -11   -1    0    0    0    0  0.00000000000E+00  0.00000000000E+00  0.45593999997E+02  0.45594000000E+02  0.51100000000E-03 0.  1.
         11   -1    0    0    0    0 -0.00000000000E+00 -0.00000000000E+00 -0.45593999997E+02  0.45594000000E+02  0.51100000000E-03 0. -1.
    9900012    2    1    2    0    0 -0.25292007530E+02 -0.16628668389E+01 -0.19346049912E+02  0.59301946337E+02  0.50000004211E+02 0.  0.
        -12    1    1    2    0    0  0.25292007530E+02  0.16628668389E+01  0.19346049912E+02  0.31886053663E+02  0.00000000000E+00 0.  1.
         11    1    3    3    0    0 -0.80542573493E+01 -0.72224805014E+01 -0.18423825658E+02  0.21365220293E+02  0.51100000000E-03 0. -1.
        -11    1    3    3    0    0 -0.24649981843E+02  0.26428878066E+01  0.79296632285E+01  0.26028561620E+02  0.51100000000E-03 0.  1.
         12    1    3    3    0    0  0.74122316625E+01  0.29167258559E+01 -0.88518874820E+01  0.11908164423E+02  0.00000000000E+00 0. -1.
</event>
<event>
 7    1  0.6285940E-013  0.5930195E+02  0.7816164E-02  0.1266605E+00
        -11   -1    0    0    0    0  0.00000000000E+00  0.00000000000E+00  0.45593999997E+02  0.45594000000E+02  0.51100000000E-03 0.  1.
         11   -1    0    0    0    0 -0.00000000000E+00 -0.00000000000E+00 -0.45593999997E+02  0.45594000000E+02  0.51100000000E-03 0. -1.
    9900012    2    1    2    0    0  0.28450193489E+01 -0.10181676477E+02 -0.30082544291E+02  0.59301950669E+02  0.50000012111E+02 0.  0.
        -12    1    1    2    0    0 -0.28450193489E+01  0.10181676477E+02  0.30082544291E+02  0.31886049331E+02  0.00000000000E+00 0.  1.
         11    1    3    3    0    0  0.58394596092E+01 -0.98142384182E+01 -0.68118851724E+01  0.13297381100E+02  0.51100000000E-03 0. -1.
        -11    1    3    3    0    0  0.78675175759E+01  0.69313399715E+01 -0.29647590325E+02  0.31447113047E+02  0.51100000000E-03 0.  1.
        -12    1    3    3    0    0 -0.10861957836E+02 -0.72987780300E+01  0.63769312071E+01  0.14557456522E+02  0.00000000000E+00 0.  1.
</event>
<event>
 7    1  0.6285940E-013  0.5930165E+02  0.7816164E-02  0.1266606E+00
        -11   -1    0    0    0    0  0.00000000000E+00  0.00000000000E+00  0.45593999997E+02  0.45594000000E+02  0.51100000000E-03 0.  1.
         11   -1    0    0    0    0 -0.00000000000E+00 -0.00000000000E+00 -0.45593999997E+02  0.45594000000E+02  0.51100000000E-03 0. -1.
    9900012    2    1    2    0    0  0.90765609298E+00  0.17486743821E+02 -0.26648250708E+02  0.59301650024E+02  0.49999463804E+02 0.  0.
        -12    1    1    2    0    0 -0.90765609298E+00 -0.17486743821E+02  0.26648250708E+02  0.31886349976E+02  0.00000000000E+00 0.  1.
         11    1    3    3    0    0  0.17621237924E+02  0.12560225793E+02 -0.17237964745E+02  0.27666129594E+02  0.51100000000E-03 0. -1.
        -11    1    3    3    0    0 -0.60563348604E+01  0.10921009932E+02  0.43533645547E+01  0.13224954937E+02  0.51100000000E-03 0.  1.
        -12    1    3    3    0    0 -0.10657246970E+02 -0.59944919038E+01 -0.13763650518E+02  0.18410565492E+02  0.00000000000E+00 0.  1.
</event>
<event>
 7    1  0.6285940E-013  0.5930194E+02  0.7816164E-02  0.1266605E+00
        -11   -1    0    0    0    0  0.00000000000E+00  0.00000000000E+00  0.45593999997E+02  0.45594000000E+02  0.51100000000E-03 0.  1.
         11   -1    0    0    0    0 -0.00000000000E+00 -0.00000000000E+00 -0.45593999997E+02  0.45594000000E+02  0.51100000000E-03 0. -1.
    9900012    2    1    2    0    0 -0.62710389594E+00 -0.43316832098E+01 -0.31584238359E+02  0.59301939543E+02  0.49999991821E+02 0.  0.
        -12    1    1    2    0    0  0.62710389594E+00  0.43316832098E+01  0.31584238359E+02  0.31886060457E+02  0.00000000000E+00 0.  1.
         11    1    3    3    0    0 -0.71860839631E+01 -0.11860678083E+02  0.10545571332E+01  0.13907824356E+02  0.51100000000E-03 0. -1.
        -11    1    3    3    0    0  0.33648090181E+01  0.10885075592E+02  0.10006232778E+01  0.11437135025E+02  0.51100000000E-03 0.  1.
         12    1    3    3    0    0  0.31941710491E+01 -0.33560807191E+01 -0.33639418770E+02  0.33956980161E+02  0.00000000000E+00 0. -1.
</event>
<event>
 7    1  0.6285940E-013  0.5930189E+02  0.7816164E-02  0.1266605E+00
        -11   -1    0    0    0    0  0.00000000000E+00  0.00000000000E+00  0.45593999997E+02  0.45594000000E+02  0.51100000000E-03 0. -1.
         11   -1    0    0    0    0 -0.00000000000E+00 -0.00000000000E+00 -0.45593999997E+02  0.45594000000E+02  0.51100000000E-03 0.  1.
    9900012    2    1    2    0    0  0.18971956069E+02  0.25627894373E+02 -0.46135206976E-02  0.59301888472E+02  0.49999898680E+02 0.  0.
        -12    1    1    2    0    0 -0.18971956069E+02 -0.25627894373E+02  0.46135206976E-02  0.31886111528E+02  0.00000000000E+00 0.  1.
         11    1    3    3    0    0 -0.88075345833E+01  0.15396077251E+01  0.25925063006E+01  0.93093580103E+01  0.51100000000E-03 0. -1.
        -11    1    3    3    0    0  0.71559586298E+01  0.46598742426E+01  0.14552521126E+02  0.16872997459E+02  0.51100000000E-03 0.  1.
        -12    1    3    3    0    0  0.20623532023E+02  0.19428412405E+02 -0.17149640947E+02  0.33119533003E+02  0.00000000000E+00 0.  1.
</event>
<event>
 7    1  0.6285940E-013  0.5930196E+02  0.7816164E-02  0.1266605E+00
        -11   -1    0    0    0    0  0.00000000000E+00  0.00000000000E+00  0.45593999997E+02  0.45594000000E+02  0.51100000000E-03 0. -1.
         11   -1    0    0    0    0 -0.00000000000E+00 -0.00000000000E+00 -0.45593999997E+02  0.45594000000E+02  0.51100000000E-03 0.  1.
    9900012    2    1    2    0    0 -0.17134891081E+01  0.98849144615E+01 -0.30266679157E+02  0.59301961582E+02  0.50000032014E+02 0.  0.
        -12    1    1    2    0    0  0.17134891081E+01 -0.98849144615E+01  0.30266679157E+02  0.31886038418E+02  0.00000000000E+00 0.  1.
         11    1    3    3    0    0 -0.57710476612E+01 -0.79416469782E+01 -0.19177418109E+02  0.21544096950E+02  0.51100000000E-03 0. -1.
        -11    1    3    3    0    0  0.13068970101E+01 -0.53772435220E+01  0.64814207821E+01  0.85224141712E+01  0.51100000000E-03 0.  1.
        -12    1    3    3    0    0  0.27506615431E+01  0.23203804962E+02 -0.17570681830E+02  0.29235450460E+02  0.00000000000E+00 0.  1.
</event>
<event>
 7    1  0.6285940E-013  0.5930196E+02  0.7816164E-02  0.1266605E+00
        -11   -1    0    0    0    0  0.00000000000E+00  0.00000000000E+00  0.45593999997E+02  0.45594000000E+02  0.51100000000E-03 0.  1.
         11   -1    0    0    0    0 -0.00000000000E+00 -0.00000000000E+00 -0.45593999997E+02  0.45594000000E+02  0.51100000000E-03 0. -1.
    9900012    2    1    2    0    0 -0.17282303026E+02  0.26032612763E+02 -0.63517554059E+01  0.59301957256E+02  0.50000024124E+02 0.  0.
        -12    1    1    2    0    0  0.17282303026E+02 -0.26032612763E+02  0.63517554059E+01  0.31886042744E+02  0.00000000000E+00 0.  1.
         11    1    3    3    0    0  0.17760974378E+01 -0.11556806212E+02 -0.67325255673E+01  0.13492264180E+02  0.51100000000E-03 0. -1.
        -11    1    3    3    0    0  0.11510397413E+01  0.44329539106E+01  0.49122658249E+01  0.67161245264E+01  0.51100000000E-03 0.  1.
        -12    1    3    3    0    0 -0.20209440205E+02  0.33156465064E+02 -0.45314956634E+01  0.39093568549E+02  0.00000000000E+00 0.  1.
</event>
<event>
 7    1  0.6285940E-013  0.5930193E+02  0.7816164E-02  0.1266605E+00
        -11   -1    0    0    0    0  0.00000000000E+00  0.00000000000E+00  0.45593999997E+02  0.45594000000E+02  0.51100000000E-03 0.  1.
         11   -1    0    0    0    0 -0.00000000000E+00 -0.00000000000E+00 -0.45593999997E+02  0.45594000000E+02  0.51100000000E-03 0. -1.
    9900012    2    1    2    0    0 -0.21984704845E+02  0.20400365620E+02  0.10826777870E+02  0.59301932767E+02  0.49999979463E+02 0.  0.
        -12    1    1    2    0    0  0.21984704845E+02 -0.20400365620E+02 -0.10826777870E+02  0.31886067233E+02  0.00000000000E+00 0.  1.
         11    1    3    3    0    0 -0.22566663252E+01  0.20095276930E+02 -0.65020012092E+01  0.21241203303E+02  0.51100000000E-03 0. -1.
        -11    1    3    3    0    0 -0.18113991728E+02  0.19312975357E+01 -0.22439552168E+01  0.18354343948E+02  0.51100000000E-03 0.  1.
        -12    1    3    3    0    0 -0.16140467916E+01 -0.16262088458E+01  0.19572734296E+02  0.19706385515E+02  0.00000000000E+00 0.  1.
</event>
<event>
 7    1  0.7427869E-013  0.5930195E+02  0.7816164E-02  0.1266605E+00
        -11   -1    0    0    0    0  0.00000000000E+00  0.00000000000E+00  0.45593999997E+02  0.45594000000E+02  0.51100000000E-03 0. -1.
         11   -1    0    0    0    0 -0.00000000000E+00 -0.00000000000E+00 -0.45593999997E+02  0.45594000000E+02  0.51100000000E-03 0.  1.
    9900012    2    1    2    0    0  0.16515966227E+02  0.13417936248E+02  0.23746624176E+02  0.59301947981E+02  0.50000007210E+02 0.  0.
        -12    1    1    2    0    0 -0.16515966227E+02 -0.13417936248E+02 -0.23746624176E+02  0.31886052019E+02  0.00000000000E+00 0.  1.
         11    1    3    3    0    0 -0.38328169249E+01 -0.87847574694E+01  0.55951590978E+01  0.11098119434E+02  0.51100000000E-03 0. -1.
        -11    1    3    3    0    0  0.74280927125E+01  0.25818422774E+01 -0.92296028071E+01  0.12125511912E+02  0.51100000000E-03 0.  1.
         12    1    3    3    0    0  0.12920690439E+02  0.19620851440E+02  0.27381067886E+02  0.36078316635E+02  0.00000000000E+00 0. -1.
</event>
<event>
 7    1  0.6285940E-013  0.5930195E+02  0.7816164E-02  0.1266605E+00
        -11   -1    0    0    0    0  0.00000000000E+00  0.00000000000E+00  0.45593999997E+02  0.45594000000E+02  0.51100000000E-03 0.  1.
         11   -1    0    0    0    0 -0.00000000000E+00 -0.00000000000E+00 -0.45593999997E+02  0.45594000000E+02  0.51100000000E-03 0. -1.
    9900012    2    1    2    0    0  0.17372232450E+01  0.54422084743E+01 -0.31370120170E+02  0.59301952626E+02  0.50000015680E+02 0.  0.
        -12    1    1    2    0    0 -0.17372232450E+01 -0.54422084743E+01  0.31370120170E+02  0.31886047374E+02  0.00000000000E+00 0.  1.
         11    1    3    3    0    0  0.42221171105E+00  0.19045778256E+02 -0.53571776539E+01  0.19789373026E+02  0.51100000000E-03 0. -1.
        -11    1    3    3    0    0  0.49853256434E+01 -0.36884359451E+01  0.42088352262E+01  0.74948199254E+01  0.51100000000E-03 0.  1.
         12    1    3    3    0    0 -0.36703141094E+01 -0.99151338360E+01 -0.30221777742E+02  0.32017759674E+02  0.00000000000E+00 0. -1.
</event>
<event>
 7    1  0.6285940E-013  0.5930192E+02  0.7816164E-02  0.1266605E+00
        -11   -1    0    0    0    0  0.00000000000E+00  0.00000000000E+00  0.45593999997E+02  0.45594000000E+02  0.51100000000E-03 0.  1.
         11   -1    0    0    0    0 -0.00000000000E+00 -0.00000000000E+00 -0.45593999997E+02  0.45594000000E+02  0.51100000000E-03 0. -1.
    9900012    2    1    2    0    0 -0.87872625939E+01 -0.17008482550E+02 -0.25499369348E+02  0.59301916834E+02  0.49999950405E+02 0.  0.
        -12    1    1    2    0    0  0.87872625939E+01  0.17008482550E+02  0.25499369348E+02  0.31886083166E+02  0.00000000000E+00 0.  1.
         11    1    3    3    0    0  0.29794698536E+01  0.25945884866E+01 -0.72446083933E+01  0.82518774262E+01  0.51100000000E-03 0. -1.
        -11    1    3    3    0    0 -0.13315768629E+02  0.10847248077E+02 -0.70850208300E+01  0.18578751450E+02  0.51100000000E-03 0.  1.
         12    1    3    3    0    0  0.15490361816E+01 -0.30450319113E+02 -0.11169740125E+02  0.32471287958E+02  0.00000000000E+00 0. -1.
</event>
<event>
 7    1  0.6285940E-013  0.5930194E+02  0.7816164E-02  0.1266605E+00
        -11   -1    0    0    0    0  0.00000000000E+00  0.00000000000E+00  0.45593999997E+02  0.45594000000E+02  0.51100000000E-03 0. -1.
         11   -1    0    0    0    0 -0.00000000000E+00 -0.00000000000E+00 -0.45593999997E+02  0.45594000000E+02  0.51100000000E-03 0.  1.
    9900012    2    1    2    0    0 -0.36219977575E+01  0.10686340903E+02  0.29822878818E+02  0.59301939556E+02  0.49999991844E+02 0.  0.
        -12    1    1    2    0    0  0.36219977575E+01 -0.10686340903E+02 -0.29822878818E+02  0.31886060444E+02  0.00000000000E+00 0.  1.
         11    1    3    3    0    0  0.88013268948E+01  0.38816601309E+01 -0.22642483721E+01  0.98821789820E+01  0.51100000000E-03 0. -1.
        -11    1    3    3    0    0 -0.43346417985E+01  0.20609498626E+02  0.14091833693E+02  0.25340093334E+02  0.51100000000E-03 0.  1.
         12    1    3    3    0    0 -0.80886828538E+01 -0.13804817854E+02  0.17995293498E+02  0.24079667239E+02  0.00000000000E+00 0. -1.
</event>
<event>
 7    1  0.6285940E-013  0.5930195E+02  0.7816164E-02  0.1266605E+00
        -11   -1    0    0    0    0  0.00000000000E+00  0.00000000000E+00  0.45593999997E+02  0.45594000000E+02  0.51100000000E-03 0.  1.
         11   -1    0    0    0    0 -0.00000000000E+00 -0.00000000000E+00 -0.45593999997E+02  0.45594000000E+02  0.51100000000E-03 0. -1.
    9900012    2    1    2    0    0 -0.19896688840E+02 -0.22629997969E+02 -0.10427146273E+02  0.59301946398E+02  0.50000004323E+02 0.  0.
        -12    1    1    2    0    0  0.19896688840E+02  0.22629997969E+02  0.10427146273E+02  0.31886053602E+02  0.00000000000E+00 0.  1.
         11    1    3    3    0    0 -0.86033234421E+01 -0.21961471775E+01 -0.10370202024E+02  0.13652154664E+02  0.51100000000E-03 0. -1.
        -11    1    3    3    0    0 -0.35666525806E+01 -0.31057225521E+02 -0.49125053661E+01  0.31644983440E+02  0.51100000000E-03 0.  1.
         12    1    3    3    0    0 -0.77267128176E+01  0.10623374729E+02  0.48555611174E+01  0.14004808294E+02  0.00000000000E+00 0. -1.
</event>
<event>
 7    1  0.6285940E-013  0.5930194E+02  0.7816164E-02  0.1266605E+00
        -11   -1    0    0    0    0  0.00000000000E+00  0.00000000000E+00  0.45593999997E+02  0.45594000000E+02  0.51100000000E-03 0. -1.
         11   -1    0    0    0    0 -0.00000000000E+00 -0.00000000000E+00 -0.45593999997E+02  0.45594000000E+02  0.51100000000E-03 0.  1.
    9900012    2    1    2    0    0 -0.15815849260E+02  0.11382272037E+02  0.25239321488E+02  0.59301944213E+02  0.50000000337E+02 0.  0.
        -12    1    1    2    0    0  0.15815849260E+02 -0.11382272037E+02 -0.25239321488E+02  0.31886055787E+02  0.00000000000E+00 0.  1.
         11    1    3    3    0    0  0.21544468378E+01  0.10857811580E+02  0.61733076638E+01  0.12674519370E+02  0.51100000000E-03 0. -1.
        -11    1    3    3    0    0 -0.67877693634E+00 -0.12150188284E+02 -0.60626572518E+01  0.13595720896E+02  0.51100000000E-03 0.  1.
         12    1    3    3    0    0 -0.17291519161E+02  0.12674648740E+02  0.25128671076E+02  0.33031703947E+02  0.00000000000E+00 0. -1.
</event>
<event>
 7    1  0.6285940E-013  0.5930200E+02  0.7816164E-02  0.1266605E+00
        -11   -1    0    0    0    0  0.00000000000E+00  0.00000000000E+00  0.45593999997E+02  0.45594000000E+02  0.51100000000E-03 0. -1.
         11   -1    0    0    0    0 -0.00000000000E+00 -0.00000000000E+00 -0.45593999997E+02  0.45594000000E+02  0.51100000000E-03 0.  1.
    9900012    2    1    2    0    0  0.11062963168E+02 -0.12009942151E+02  0.27387752727E+02  0.59302002071E+02  0.50000105857E+02 0.  0.
        -12    1    1    2    0    0 -0.11062963168E+02  0.12009942151E+02 -0.27387752727E+02  0.31885997929E+02  0.00000000000E+00 0.  1.
         11    1    3    3    0    0  0.13717261291E+02 -0.10454181531E+02  0.12534571710E+02  0.21320615774E+02  0.51100000000E-03 0. -1.
        -11    1    3    3    0    0 -0.83694697584E+01 -0.13666332421E+02  0.18127498527E+02  0.24195513406E+02  0.51100000000E-03 0.  1.
        -12    1    3    3    0    0  0.57151716362E+01  0.12110571801E+02 -0.32743175103E+01  0.13785872890E+02  0.00000000000E+00 0.  1.
</event>
<event>
 7    1  0.6285940E-013  0.5930195E+02  0.7816164E-02  0.1266605E+00
        -11   -1    0    0    0    0  0.00000000000E+00  0.00000000000E+00  0.45593999997E+02  0.45594000000E+02  0.51100000000E-03 0.  1.
         11   -1    0    0    0    0 -0.00000000000E+00 -0.00000000000E+00 -0.45593999997E+02  0.45594000000E+02  0.51100000000E-03 0. -1.
    9900012    2    1    2    0    0  0.20558242846E+02  0.21919539839E+02 -0.10658935346E+02  0.59301945393E+02  0.50000002490E+02 0.  0.
        -12    1    1    2    0    0 -0.20558242846E+02 -0.21919539839E+02  0.10658935346E+02  0.31886054607E+02  0.00000000000E+00 0.  1.
         11    1    3    3    0    0 -0.56320288792E+01  0.23087781250E+02 -0.76066222509E+01  0.24952476724E+02  0.51100000000E-03 0. -1.
        -11    1    3    3    0    0  0.10107825003E+02  0.26762668060E+01 -0.11698118497E+02  0.15690012968E+02  0.51100000000E-03 0.  1.
        -12    1    3    3    0    0  0.16082446722E+02 -0.38445082169E+01  0.86458054016E+01  0.18659455701E+02  0.00000000000E+00 0.  1.
</event>
<event>
 7    1  0.6285940E-013  0.5930193E+02  0.7816164E-02  0.1266605E+00
        -11   -1    0    0    0    0  0.00000000000E+00  0.00000000000E+00  0.45593999997E+02  0.45594000000E+02  0.51100000000E-03 0. -1.
         11   -1    0    0    0    0 -0.00000000000E+00 -0.00000000000E+00 -0.45593999997E+02  0.45594000000E+02  0.51100000000E-03 0.  1.
    9900012    2    1    2    0    0  0.24525803861E+02  0.19448315141E+02  0.60802678221E+01  0.59301926650E+02  0.49999968308E+02 0.  0.
        -12    1    1    2    0    0 -0.24525803861E+02 -0.19448315141E+02 -0.60802678221E+01  0.31886073350E+02  0.00000000000E+00 0.  1.
         11    1    3    3    0    0  0.19156338884E+02  0.42571140688E+01 -0.65911255569E+01  0.20700996981E+02  0.51100000000E-03 0. -1.
        -11    1    3    3    0    0  0.32017116491E+01  0.15445268085E+02 -0.80885369009E+01  0.17726581542E+02  0.51100000000E-03 0.  1.
         12    1    3    3    0    0  0.21677533283E+01 -0.25406701262E+00  0.20759930280E+02  0.20874348128E+02  0.00000000000E+00 0. -1.
</event>
<event>
 7    1  0.6285940E-013  0.5930195E+02  0.7816164E-02  0.1266605E+00
        -11   -1    0    0    0    0  0.00000000000E+00  0.00000000000E+00  0.45593999997E+02  0.45594000000E+02  0.51100000000E-03 0.  1.
         11   -1    0    0    0    0 -0.00000000000E+00 -0.00000000000E+00 -0.45593999997E+02  0.45594000000E+02  0.51100000000E-03 0. -1.
    9900012    2    1    2    0    0  0.28301521460E+02 -0.13398819116E+02  0.60179471914E+01  0.59301950400E+02  0.50000011622E+02 0.  0.
        -12    1    1    2    0    0 -0.28301521460E+02  0.13398819116E+02 -0.60179471914E+01  0.31886049600E+02  0.00000000000E+00 0.  1.
         11    1    3    3    0    0  0.24205012038E+02 -0.73066153935E+01 -0.57511950272E+01  0.25929625542E+02  0.51100000000E-03 0. -1.
        -11    1    3    3    0    0  0.84913037878E+01  0.29193812886E+01  0.18997238176E+02  0.21012379344E+02  0.51100000000E-03 0.  1.
         12    1    3    3    0    0 -0.43947943655E+01 -0.90115850116E+01 -0.72280959575E+01  0.12359945514E+02  0.00000000000E+00 0. -1.
</event>
<event>
 7    1  0.6285940E-013  0.5930195E+02  0.7816164E-02  0.1266605E+00
        -11   -1    0    0    0    0  0.00000000000E+00  0.00000000000E+00  0.45593999997E+02  0.45594000000E+02  0.51100000000E-03 0. -1.
         11   -1    0    0    0    0 -0.00000000000E+00 -0.00000000000E+00 -0.45593999997E+02  0.45594000000E+02  0.51100000000E-03 0.  1.
    9900012    2    1    2    0    0 -0.18255672696E+02 -0.82483019122E+01  0.24807581550E+02  0.59301950192E+02  0.50000011241E+02 0.  0.
        -12    1    1    2    0    0  0.18255672696E+02  0.82483019122E+01 -0.24807581550E+02  0.31886049808E+02  0.00000000000E+00 0.  1.
         11    1    3    3    0    0 -0.51051853573E+01  0.10145184073E+02 -0.99524427230E+01  0.15100953408E+02  0.51100000000E-03 0.  1.
        -11    1    3    3    0    0  0.18700689125E+01 -0.86800995362E+01  0.15873462610E+02  0.18188130777E+02  0.51100000000E-03 0. -1.
        -12    1    3    3    0    0 -0.15020556251E+02 -0.97133864489E+01  0.18886561664E+02  0.26012866007E+02  0.00000000000E+00 0.  1.
</event>
<event>
 7    1  0.6285940E-013  0.5930197E+02  0.7816164E-02  0.1266605E+00
        -11   -1    0    0    0    0  0.00000000000E+00  0.00000000000E+00  0.45593999997E+02  0.45594000000E+02  0.51100000000E-03 0.  1.
         11   -1    0    0    0    0 -0.00000000000E+00 -0.00000000000E+00 -0.45593999997E+02  0.45594000000E+02  0.51100000000E-03 0. -1.
    9900012    2    1    2    0    0  0.81768688452E+01 -0.15168676980E+02 -0.26828505914E+02  0.59301973671E+02  0.50000054063E+02 0.  0.
        -12    1    1    2    0    0 -0.81768688452E+01  0.15168676980E+02  0.26828505914E+02  0.31886026329E+02  0.00000000000E+00 0.  1.
         11    1    3    3    0    0 -0.16617723493E+01 -0.94635422024E+01 -0.24123946019E+02  0.25966996171E+02  0.51100000000E-03 0. -1.
        -11    1    3    3    0    0 -0.80426098600E+01  0.51700603710E+01 -0.71507038235E+01  0.11939248847E+02  0.51100000000E-03 0.  1.
        -12    1    3    3    0    0  0.17881251055E+02 -0.10875195148E+02  0.44461439277E+01  0.21395728654E+02  0.00000000000E+00 0.  1.
</event>
<event>
 7    1  0.6285940E-013  0.5930214E+02  0.7816164E-02  0.1266604E+00
        -11   -1    0    0    0    0  0.00000000000E+00  0.00000000000E+00  0.45593999997E+02  0.45594000000E+02  0.51100000000E-03 0.  1.
         11   -1    0    0    0    0 -0.00000000000E+00 -0.00000000000E+00 -0.45593999997E+02  0.45594000000E+02  0.51100000000E-03 0. -1.
    9900012    2    1    2    0    0 -0.37426544320E+00 -0.14620401891E+02 -0.28333930295E+02  0.59302143699E+02  0.50000364152E+02 0.  0.
        -12    1    1    2    0    0  0.37426544320E+00  0.14620401891E+02  0.28333930295E+02  0.31885856301E+02  0.00000000000E+00 0.  1.
         11    1    3    3    0    0 -0.16038130015E+02 -0.84833964700E+00 -0.19231307228E+02  0.25055627561E+02  0.51100000000E-03 0. -1.
        -11    1    3    3    0    0 -0.12648646039E+01  0.52501284199E+01 -0.67926161794E+01  0.86777511899E+01  0.51100000000E-03 0.  1.
         12    1    3    3    0    0  0.16928729176E+02 -0.19022190663E+02 -0.23100068878E+01  0.25568764948E+02  0.00000000000E+00 0. -1.
</event>
<event>
 7    1  0.6285940E-013  0.5930193E+02  0.7816164E-02  0.1266605E+00
        -11   -1    0    0    0    0  0.00000000000E+00  0.00000000000E+00  0.45593999997E+02  0.45594000000E+02  0.51100000000E-03 0.  1.
         11   -1    0    0    0    0 -0.00000000000E+00 -0.00000000000E+00 -0.45593999997E+02  0.45594000000E+02  0.51100000000E-03 0. -1.
    9900012    2    1    2    0    0  0.23437356207E+02 -0.18785610199E+02 -0.10701050227E+02  0.59301932628E+02  0.49999979209E+02 0.  0.
        -12    1    1    2    0    0 -0.23437356207E+02  0.18785610199E+02  0.10701050227E+02  0.31886067372E+02  0.00000000000E+00 0.  1.
         11    1    3    3    0    0 -0.41248550386E+01 -0.12099695243E+02 -0.11359315560E+02  0.17101201838E+02  0.51100000000E-03 0. -1.
        -11    1    3    3    0    0 -0.20948288054E+01 -0.11356735641E+02  0.34393330422E+01  0.12049596017E+02  0.51100000000E-03 0.  1.
         12    1    3    3    0    0  0.29657040051E+02  0.46708206850E+01 -0.27810677090E+01  0.30151134772E+02  0.00000000000E+00 0. -1.
</event>
<event>
 7    1  0.6285940E-013  0.5930195E+02  0.7816164E-02  0.1266605E+00
        -11   -1    0    0    0    0  0.00000000000E+00  0.00000000000E+00  0.45593999997E+02  0.45594000000E+02  0.51100000000E-03 0.  1.
         11   -1    0    0    0    0 -0.00000000000E+00 -0.00000000000E+00 -0.45593999997E+02  0.45594000000E+02  0.51100000000E-03 0. -1.
    9900012    2    1    2    0    0  0.65635910477E+01  0.21036234737E+02 -0.23045957868E+02  0.59301951744E+02  0.50000014072E+02 0.  0.
        -12    1    1    2    0    0 -0.65635910477E+01 -0.21036234737E+02  0.23045957868E+02  0.31886048256E+02  0.00000000000E+00 0.  1.
         11    1    3    3    0    0  0.10462923757E+02  0.37026606003E+01 -0.14306187897E+02  0.18106614302E+02  0.51100000000E-03 0. -1.
        -11    1    3    3    0    0  0.38873148405E+01  0.27243883161E+02 -0.75452703476E+01  0.28535442720E+02  0.51100000000E-03 0.  1.
        -12    1    3    3    0    0 -0.77866475498E+01 -0.99103090242E+01 -0.11944996237E+01  0.12659894722E+02  0.00000000000E+00 0.  1.
</event>
<event>
 7    1  0.6285940E-013  0.5930195E+02  0.7816164E-02  0.1266605E+00
        -11   -1    0    0    0    0  0.00000000000E+00  0.00000000000E+00  0.45593999997E+02  0.45594000000E+02  0.51100000000E-03 0. -1.
         11   -1    0    0    0    0 -0.00000000000E+00 -0.00000000000E+00 -0.45593999997E+02  0.45594000000E+02  0.51100000000E-03 0.  1.
    9900012    2    1    2    0    0  0.20161500360E+02  0.21212445655E+02  0.12659635547E+02  0.59301947883E+02  0.50000007031E+02 0.  0.
        -12    1    1    2    0    0 -0.20161500360E+02 -0.21212445655E+02 -0.12659635547E+02  0.31886052117E+02  0.00000000000E+00 0.  1.
         11    1    3    3    0    0  0.27047342299E+02  0.13793800480E+02  0.24082906899E+02  0.38753245826E+02  0.51100000000E-03 0. -1.
        -11    1    3    3    0    0 -0.15812131872E+01  0.10691017049E+02 -0.79217118000E+01  0.13399686518E+02  0.51100000000E-03 0.  1.
        -12    1    3    3    0    0 -0.53046287516E+01 -0.32723718732E+01 -0.35015595525E+01  0.71490155384E+01  0.00000000000E+00 0.  1.
</event>
<event>
 7    1  0.6285940E-013  0.5930195E+02  0.7816164E-02  0.1266605E+00
        -11   -1    0    0    0    0  0.00000000000E+00  0.00000000000E+00  0.45593999997E+02  0.45594000000E+02  0.51100000000E-03 0.  1.
         11   -1    0    0    0    0 -0.00000000000E+00 -0.00000000000E+00 -0.45593999997E+02  0.45594000000E+02  0.51100000000E-03 0. -1.
    9900012    2    1    2    0    0  0.29269697157E+02 -0.11519127897E+02 -0.52263534440E+01  0.59301948983E+02  0.50000009037E+02 0.  0.
        -12    1    1    2    0    0 -0.29269697157E+02  0.11519127897E+02  0.52263534440E+01  0.31886051017E+02  0.00000000000E+00 0.  1.
         11    1    3    3    0    0 -0.30035131674E+01  0.12549179107E+01 -0.50201991433E+01  0.59831688935E+01  0.51100000000E-03 0. -1.
        -11    1    3    3    0    0 -0.78449237521E+01  0.15245711209E+01  0.63754154021E+01  0.10223163287E+02  0.51100000000E-03 0.  1.
         12    1    3    3    0    0  0.40118134076E+02 -0.14298616928E+02 -0.65815697029E+01  0.43095616802E+02  0.00000000000E+00 0. -1.
</event>
<event>
 7    1  0.6285940E-013  0.5930194E+02  0.7816164E-02  0.1266605E+00
        -11   -1    0    0    0    0  0.00000000000E+00  0.00000000000E+00  0.45593999997E+02  0.45594000000E+02  0.51100000000E-03 0.  1.
         11   -1    0    0    0    0 -0.00000000000E+00 -0.00000000000E+00 -0.45593999997E+02  0.45594000000E+02  0.51100000000E-03 0. -1.
    9900012    2    1    2    0    0  0.13290068655E+02 -0.28510831080E+02  0.52180118654E+01  0.59301936249E+02  0.49999985813E+02 0.  0.
        -12    1    1    2    0    0 -0.13290068655E+02  0.28510831080E+02 -0.52180118654E+01  0.31886063751E+02  0.00000000000E+00 0.  1.
         11    1    3    3    0    0  0.63858496487E+01 -0.21033038615E+02 -0.86151089952E+01  0.23609063776E+02  0.51100000000E-03 0. -1.
        -11    1    3    3    0    0  0.12261561826E+02 -0.10028231989E+02 -0.44644579005E+01  0.16457299896E+02  0.51100000000E-03 0.  1.
        -12    1    3    3    0    0 -0.53573428198E+01  0.25504395246E+01  0.18297578761E+02  0.19235572577E+02  0.00000000000E+00 0.  1.
</event>
<event>
 7    1  0.6285940E-013  0.5930192E+02  0.7816164E-02  0.1266605E+00
        -11   -1    0    0    0    0  0.00000000000E+00  0.00000000000E+00  0.45593999997E+02  0.45594000000E+02  0.51100000000E-03 0.  1.
         11   -1    0    0    0    0 -0.00000000000E+00 -0.00000000000E+00 -0.45593999997E+02  0.45594000000E+02  0.51100000000E-03 0. -1.
    9900012    2    1    2    0    0 -0.10018243542E+01 -0.19945960215E+02 -0.24857130796E+02  0.59301922594E+02  0.49999960910E+02 0.  0.
        -12    1    1    2    0    0  0.10018243542E+01  0.19945960215E+02  0.24857130796E+02  0.31886077406E+02  0.00000000000E+00 0.  1.
         11    1    3    3    0    0 -0.37530231008E+01 -0.22285101392E+02 -0.24785317786E+00  0.22600273403E+02  0.51100000000E-03 0. -1.
        -11    1    3    3    0    0  0.99327698795E+00 -0.91915303974E+01  0.24314636809E+00  0.92482404077E+01  0.51100000000E-03 0.  1.
        -12    1    3    3    0    0  0.17579217587E+01  0.11530671574E+02 -0.24852423986E+02  0.27453408784E+02  0.00000000000E+00 0.  1.
</event>
<event>
 7    1  0.6285940E-013  0.5930195E+02  0.7816164E-02  0.1266605E+00
        -11   -1    0    0    0    0  0.00000000000E+00  0.00000000000E+00  0.45593999997E+02  0.45594000000E+02  0.51100000000E-03 0.  1.
         11   -1    0    0    0    0 -0.00000000000E+00 -0.00000000000E+00 -0.45593999997E+02  0.45594000000E+02  0.51100000000E-03 0. -1.
    9900012    2    1    2    0    0  0.19889519924E+02 -0.11363480544E+02 -0.22181044758E+02  0.59301946004E+02  0.50000003604E+02 0.  0.
        -12    1    1    2    0    0 -0.19889519924E+02  0.11363480544E+02  0.22181044758E+02  0.31886053996E+02  0.00000000000E+00 0.  1.
         11    1    3    3    0    0  0.14524233571E+02  0.14593423776E+02 -0.14268601749E+02  0.25050237014E+02  0.51100000000E-03 0. -1.
        -11    1    3    3    0    0  0.11296324237E+02 -0.67808726174E+01 -0.19958196081E+01  0.13325557057E+02  0.51100000000E-03 0.  1.
        -12    1    3    3    0    0 -0.59310378838E+01 -0.19176031703E+02 -0.59166234015E+01  0.20926151933E+02  0.00000000000E+00 0.  1.
</event>
<event>
 7    1  0.6285940E-013  0.5930193E+02  0.7816164E-02  0.1266605E+00
        -11   -1    0    0    0    0  0.00000000000E+00  0.00000000000E+00  0.45593999997E+02  0.45594000000E+02  0.51100000000E-03 0. -1.
         11   -1    0    0    0    0 -0.00000000000E+00 -0.00000000000E+00 -0.45593999997E+02  0.45594000000E+02  0.51100000000E-03 0.  1.
    9900012    2    1    2    0    0 -0.19231019945E+02  0.24493095014E+02  0.68540042833E+01  0.59301933981E+02  0.49999981676E+02 0.  0.
        -12    1    1    2    0    0  0.19231019945E+02 -0.24493095014E+02 -0.68540042833E+01  0.31886066019E+02  0.00000000000E+00 0.  1.
         11    1    3    3    0    0 -0.22251293807E+02  0.15475590837E+02  0.10423786117E+02  0.29039099592E+02  0.51100000000E-03 0. -1.
        -11    1    3    3    0    0 -0.81183009995E+01  0.15030245558E+02  0.10303440460E+00  0.17082906925E+02  0.51100000000E-03 0.  1.
        -12    1    3    3    0    0  0.11138574861E+02 -0.60127413806E+01 -0.36728162379E+01  0.13179927464E+02  0.00000000000E+00 0.  1.
</event>
<event>
 7    1  0.6285940E-013  0.5930196E+02  0.7816164E-02  0.1266605E+00
        -11   -1    0    0    0    0  0.00000000000E+00  0.00000000000E+00  0.45593999997E+02  0.45594000000E+02  0.51100000000E-03 0. -1.
         11   -1    0    0    0    0 -0.00000000000E+00 -0.00000000000E+00 -0.45593999997E+02  0.45594000000E+02  0.51100000000E-03 0.  1.
    9900012    2    1    2    0    0  0.13252954332E+02 -0.10989031422E+02  0.26838780322E+02  0.59301956983E+02  0.50000023627E+02 0.  0.
        -12    1    1    2    0    0 -0.13252954332E+02  0.10989031422E+02 -0.26838780322E+02  0.31886043017E+02  0.00000000000E+00 0.  1.
         11    1    3    3    0    0 -0.11429487985E+02  0.23321708446E+01 -0.30234862900E+01  0.12050464143E+02  0.51100000000E-03 0. -1.
        -11    1    3    3    0    0  0.24824992265E+00  0.56613938449E+01  0.42143131294E+01  0.70621132606E+01  0.51100000000E-03 0.  1.
         12    1    3    3    0    0  0.24434192395E+02 -0.18982596112E+02  0.25647953483E+02  0.40189379579E+02  0.00000000000E+00 0. -1.
</event>
<event>
 7    1  0.6285940E-013  0.5930195E+02  0.7816164E-02  0.1266605E+00
        -11   -1    0    0    0    0  0.00000000000E+00  0.00000000000E+00  0.45593999997E+02  0.45594000000E+02  0.51100000000E-03 0. -1.
         11   -1    0    0    0    0 -0.00000000000E+00 -0.00000000000E+00 -0.45593999997E+02  0.45594000000E+02  0.51100000000E-03 0.  1.
    9900012    2    1    2    0    0 -0.14535592904E+02 -0.51984703788E+01  0.27900048772E+02  0.59301948554E+02  0.50000008254E+02 0.  0.
        -12    1    1    2    0    0  0.14535592904E+02  0.51984703788E+01 -0.27900048772E+02  0.31886051446E+02  0.00000000000E+00 0.  1.
         11    1    3    3    0    0 -0.29248051668E+01  0.84669485106E+01  0.18726248856E+01  0.91515259147E+01  0.51100000000E-03 0.  1.
        -11    1    3    3    0    0 -0.13931969038E+02 -0.60833534951E+01 -0.66001479424E+01  0.16573138029E+02  0.51100000000E-03 0. -1.
         12    1    3    3    0    0  0.23211813010E+01 -0.75820653943E+01  0.32627571829E+02  0.33577284609E+02  0.00000000000E+00 0. -1.
</event>
<event>
 7    1  0.6285940E-013  0.5930200E+02  0.7816164E-02  0.1266605E+00
        -11   -1    0    0    0    0  0.00000000000E+00  0.00000000000E+00  0.45593999997E+02  0.45594000000E+02  0.51100000000E-03 0.  1.
         11   -1    0    0    0    0 -0.00000000000E+00 -0.00000000000E+00 -0.45593999997E+02  0.45594000000E+02  0.51100000000E-03 0. -1.
    9900012    2    1    2    0    0  0.17183966067E+02  0.22647545533E+02 -0.14440120895E+02  0.59301998370E+02  0.50000099107E+02 0.  0.
        -12    1    1    2    0    0 -0.17183966067E+02 -0.22647545533E+02  0.14440120895E+02  0.31886001630E+02  0.00000000000E+00 0.  1.
         11    1    3    3    0    0 -0.87435362785E+00  0.23983163776E+01 -0.12075252271E+02  0.12342128397E+02  0.51100000000E-03 0. -1.
        -11    1    3    3    0    0  0.19964102561E+02  0.24850099453E+02 -0.13610948450E+02  0.34660507092E+02  0.51100000000E-03 0.  1.
        -12    1    3    3    0    0 -0.19057828655E+01 -0.46008702975E+01  0.11246079826E+02  0.12299362881E+02  0.00000000000E+00 0.  1.
</event>
<event>
 7    1  0.6285940E-013  0.5930195E+02  0.7816164E-02  0.1266605E+00
        -11   -1    0    0    0    0  0.00000000000E+00  0.00000000000E+00  0.45593999997E+02  0.45594000000E+02  0.51100000000E-03 0.  1.
         11   -1    0    0    0    0 -0.00000000000E+00 -0.00000000000E+00 -0.45593999997E+02  0.45594000000E+02  0.51100000000E-03 0. -1.
    9900012    2    1    2    0    0  0.25880587169E+02  0.72609437663E+01 -0.17152080883E+02  0.59301953283E+02  0.50000016880E+02 0.  0.
        -12    1    1    2    0    0 -0.25880587169E+02 -0.72609437663E+01  0.17152080883E+02  0.31886046717E+02  0.00000000000E+00 0.  1.
         11    1    3    3    0    0  0.11968176480E+02  0.18402342779E+02 -0.82839240959E+01  0.23462882745E+02  0.51100000000E-03 0. -1.
        -11    1    3    3    0    0  0.75445663602E+01  0.79014353044E+01  0.43939041528E+01  0.11775379204E+02  0.51100000000E-03 0.  1.
         12    1    3    3    0    0  0.63678443289E+01 -0.19042834318E+02 -0.13262060940E+02  0.24063691334E+02  0.00000000000E+00 0. -1.
</event>
<event>
 7    1  0.6285940E-013  0.5930195E+02  0.7816164E-02  0.1266605E+00
        -11   -1    0    0    0    0  0.00000000000E+00  0.00000000000E+00  0.45593999997E+02  0.45594000000E+02  0.51100000000E-03 0.  1.
         11   -1    0    0    0    0 -0.00000000000E+00 -0.00000000000E+00 -0.45593999997E+02  0.45594000000E+02  0.51100000000E-03 0. -1.
    9900012    2    1    2    0    0 -0.63656303112E+00 -0.31259170054E+02 -0.62593579750E+01  0.59301945255E+02  0.50000002238E+02 0.  0.
        -12    1    1    2    0    0  0.63656303112E+00  0.31259170054E+02  0.62593579750E+01  0.31886054745E+02  0.00000000000E+00 0.  1.
         11    1    3    3    0    0 -0.62145111401E+01 -0.21220887431E+01 -0.13282559726E+02  0.14817213047E+02  0.51100000000E-03 0. -1.
        -11    1    3    3    0    0 -0.51699673334E+01  0.55660566667E+01  0.11168013726E+01  0.76783328016E+01  0.51100000000E-03 0.  1.
        -12    1    3    3    0    0  0.10747915442E+02 -0.34703137977E+02  0.59064003787E+01  0.36806399406E+02  0.00000000000E+00 0.  1.
</event>
<event>
 7    1  0.6285940E-013  0.5930194E+02  0.7816164E-02  0.1266605E+00
        -11   -1    0    0    0    0  0.00000000000E+00  0.00000000000E+00  0.45593999997E+02  0.45594000000E+02  0.51100000000E-03 0.  1.
         11   -1    0    0    0    0 -0.00000000000E+00 -0.00000000000E+00 -0.45593999997E+02  0.45594000000E+02  0.51100000000E-03 0. -1.
    9900012    2    1    2    0    0 -0.35589082188E+01 -0.10504496148E+02 -0.29894991598E+02  0.59301940512E+02  0.49999993588E+02 0.  0.
        -12    1    1    2    0    0  0.35589082188E+01  0.10504496148E+02  0.29894991598E+02  0.31886059488E+02  0.00000000000E+00 0.  1.
         11    1    3    3    0    0  0.93784896823E+01  0.43214315197E+00 -0.96851901215E+01  0.13488725825E+02  0.51100000000E-03 0. -1.
        -11    1    3    3    0    0  0.11480313617E+02  0.30336557232E+00  0.10632132321E+01  0.11533432015E+02  0.51100000000E-03 0.  1.
        -12    1    3    3    0    0 -0.24417711518E+02 -0.11240004872E+02 -0.21273014708E+02  0.34279782672E+02  0.00000000000E+00 0.  1.
</event>
<event>
 7    1  0.6285940E-013  0.5930196E+02  0.7816164E-02  0.1266605E+00
        -11   -1    0    0    0    0  0.00000000000E+00  0.00000000000E+00  0.45593999997E+02  0.45594000000E+02  0.51100000000E-03 0.  1.
         11   -1    0    0    0    0 -0.00000000000E+00 -0.00000000000E+00 -0.45593999997E+02  0.45594000000E+02  0.51100000000E-03 0. -1.
    9900012    2    1    2    0    0 -0.11630756820E+02 -0.81751532866E+01 -0.28541401968E+02  0.59301964471E+02  0.50000037283E+02 0.  0.
        -12    1    1    2    0    0  0.11630756820E+02  0.81751532866E+01  0.28541401968E+02  0.31886035529E+02  0.00000000000E+00 0.  1.
         11    1    3    3    0    0 -0.18367592357E+01  0.17866558885E+01 -0.70348476138E+00  0.26572005616E+01  0.51100000000E-03 0. -1.
        -11    1    3    3    0    0 -0.29854330049E+00 -0.68121114213E+01  0.12956693942E+02  0.14641376584E+02  0.51100000000E-03 0.  1.
        -12    1    3    3    0    0 -0.94954542839E+01 -0.31496977538E+01 -0.40794611149E+02  0.42003387325E+02  0.00000000000E+00 0.  1.
</event>
<event>
 7    1  0.6285940E-013  0.5930197E+02  0.7816164E-02  0.1266605E+00
        -11   -1    0    0    0    0  0.00000000000E+00  0.00000000000E+00  0.45593999997E+02  0.45594000000E+02  0.51100000000E-03 0. -1.
         11   -1    0    0    0    0 -0.00000000000E+00 -0.00000000000E+00 -0.45593999997E+02  0.45594000000E+02  0.51100000000E-03 0.  1.
    9900012    2    1    2    0    0  0.13798699922E+02  0.14692045344E+02  0.24707460938E+02  0.59301969486E+02  0.50000046430E+02 0.  0.
        -12    1    1    2    0    0 -0.13798699922E+02 -0.14692045344E+02 -0.24707460938E+02  0.31886030514E+02  0.00000000000E+00 0.  1.
         11    1    3    3    0    0  0.23876670556E+00  0.11640584185E+02 -0.46135417875E+01  0.12523776499E+02  0.51100000000E-03 0. -1.
        -11    1    3    3    0    0 -0.99368215893E+01  0.47774788200E+01  0.16807475268E+02  0.20101143060E+02  0.51100000000E-03 0.  1.
         12    1    3    3    0    0  0.23496754806E+02 -0.17260176610E+01  0.12513527458E+02  0.26677049927E+02  0.00000000000E+00 0. -1.
</event>
<event>
 7    1  0.6285940E-013  0.5930193E+02  0.7816164E-02  0.1266605E+00
        -11   -1    0    0    0    0  0.00000000000E+00  0.00000000000E+00  0.45593999997E+02  0.45594000000E+02  0.51100000000E-03 0.  1.
         11   -1    0    0    0    0 -0.00000000000E+00 -0.00000000000E+00 -0.45593999997E+02  0.45594000000E+02  0.51100000000E-03 0. -1.
    9900012    2    1    2    0    0  0.26745757758E+02  0.35127437809E+01  0.17001365164E+02  0.59301931814E+02  0.49999977725E+02 0.  0.
        -12    1    1    2    0    0 -0.26745757758E+02 -0.35127437809E+01 -0.17001365164E+02  0.31886068186E+02  0.00000000000E+00 0.  1.
         11    1    3    3    0    0  0.14737249788E+02  0.10876770814E+01  0.19554143430E+01  0.14906146996E+02  0.51100000000E-03 0. -1.
        -11    1    3    3    0    0  0.13733973351E+02 -0.13864441772E+02 -0.33096331730E+01  0.19793899102E+02  0.51100000000E-03 0.  1.
        -12    1    3    3    0    0 -0.17254653813E+01  0.16289508471E+02  0.18355583994E+02  0.24601885716E+02  0.00000000000E+00 0.  1.
</event>
<event>
 7    1  0.6285940E-013  0.5930196E+02  0.7816164E-02  0.1266605E+00
        -11   -1    0    0    0    0  0.00000000000E+00  0.00000000000E+00  0.45593999997E+02  0.45594000000E+02  0.51100000000E-03 0.  1.
         11   -1    0    0    0    0 -0.00000000000E+00 -0.00000000000E+00 -0.45593999997E+02  0.45594000000E+02  0.51100000000E-03 0. -1.
    9900012    2    1    2    0    0 -0.25928228664E+02 -0.65550064800E+01 -0.17363137447E+02  0.59301957700E+02  0.50000024934E+02 0.  0.
        -12    1    1    2    0    0  0.25928228664E+02  0.65550064800E+01  0.17363137447E+02  0.31886042300E+02  0.00000000000E+00 0.  1.
         11    1    3    3    0    0 -0.67953445339E+01  0.14881194997E+02 -0.44101977012E+01  0.16943332491E+02  0.51100000000E-03 0.  1.
        -11    1    3    3    0    0 -0.22337622033E+02 -0.13435882760E+02  0.85581793806E+00  0.26081118233E+02  0.51100000000E-03 0. -1.
        -12    1    3    3    0    0  0.32047379034E+01 -0.80003187167E+01 -0.13808757683E+02  0.16277506976E+02  0.00000000000E+00 0.  1.
</event>
<event>
 7    1  0.6285940E-013  0.5930214E+02  0.7816164E-02  0.1266604E+00
        -11   -1    0    0    0    0  0.00000000000E+00  0.00000000000E+00  0.45593999997E+02  0.45594000000E+02  0.51100000000E-03 0. -1.
         11   -1    0    0    0    0 -0.00000000000E+00 -0.00000000000E+00 -0.45593999997E+02  0.45594000000E+02  0.51100000000E-03 0.  1.
    9900012    2    1    2    0    0  0.28955972773E+02  0.36634276150E+01  0.12838965646E+02  0.59302139498E+02  0.50000356489E+02 0.  0.
        -12    1    1    2    0    0 -0.28955972773E+02 -0.36634276150E+01 -0.12838965646E+02  0.31885860502E+02  0.00000000000E+00 0.  1.
         11    1    3    3    0    0  0.11868672081E+02 -0.11748702398E+02  0.21321950311E+01  0.16835784535E+02  0.51100000000E-03 0. -1.
        -11    1    3    3    0    0  0.98967368618E+01 -0.31521014720E+01 -0.95173820757E+01  0.14087643736E+02  0.51100000000E-03 0.  1.
        -12    1    3    3    0    0  0.71905638306E+01  0.18564231485E+02  0.20224152690E+02  0.28378711226E+02  0.00000000000E+00 0.  1.
</event>
<event>
 7    1  0.6285940E-013  0.5930196E+02  0.7816164E-02  0.1266605E+00
        -11   -1    0    0    0    0  0.00000000000E+00  0.00000000000E+00  0.45593999997E+02  0.45594000000E+02  0.51100000000E-03 0. -1.
         11   -1    0    0    0    0 -0.00000000000E+00 -0.00000000000E+00 -0.45593999997E+02  0.45594000000E+02  0.51100000000E-03 0.  1.
    9900012    2    1    2    0    0  0.16709779653E+02  0.23637713284E+02  0.13370173052E+02  0.59301956771E+02  0.50000023241E+02 0.  0.
        -12    1    1    2    0    0 -0.16709779653E+02 -0.23637713284E+02 -0.13370173052E+02  0.31886043229E+02  0.00000000000E+00 0.  1.
         11    1    3    3    0    0  0.44270665560E+01 -0.76714455214E+01  0.38355520597E+01  0.96520181591E+01  0.51100000000E-03 0. -1.
        -11    1    3    3    0    0 -0.30800857487E+00 -0.18930911664E+01 -0.92716531323E+01  0.94679573042E+01  0.51100000000E-03 0.  1.
         12    1    3    3    0    0  0.12590721672E+02  0.33202249972E+02  0.18806274124E+02  0.40181981308E+02  0.00000000000E+00 0. -1.
</event>
<event>
 7    1  0.6285940E-013  0.5930202E+02  0.7816164E-02  0.1266605E+00
        -11   -1    0    0    0    0  0.00000000000E+00  0.00000000000E+00  0.45593999997E+02  0.45594000000E+02  0.51100000000E-03 0. -1.
         11   -1    0    0    0    0 -0.00000000000E+00 -0.00000000000E+00 -0.45593999997E+02  0.45594000000E+02  0.51100000000E-03 0.  1.
    9900012    2    1    2    0    0  0.15336564880E+01  0.13882614521E+02  0.28664208591E+02  0.59302016523E+02  0.50000132214E+02 0.  0.
        -12    1    1    2    0    0 -0.15336564880E+01 -0.13882614521E+02 -0.28664208591E+02  0.31885983477E+02  0.00000000000E+00 0.  1.
         11    1    3    3    0    0  0.15285614202E+02 -0.82752615677E+00  0.28572846446E+02  0.32415156260E+02  0.51100000000E-03 0. -1.
        -11    1    3    3    0    0 -0.12198590880E+01  0.13158531257E+02  0.37554833305E+01  0.13738218819E+02  0.51100000000E-03 0.  1.
        -12    1    3    3    0    0 -0.12532098626E+02  0.15516094208E+01 -0.36641211852E+01  0.13148641444E+02  0.00000000000E+00 0.  1.
</event>
<event>
 7    1  0.6285940E-013  0.5930188E+02  0.7816164E-02  0.1266605E+00
        -11   -1    0    0    0    0  0.00000000000E+00  0.00000000000E+00  0.45593999997E+02  0.45594000000E+02  0.51100000000E-03 0.  1.
         11   -1    0    0    0    0 -0.00000000000E+00 -0.00000000000E+00 -0.45593999997E+02  0.45594000000E+02  0.51100000000E-03 0. -1.
    9900012    2    1    2    0    0 -0.19434763506E+02 -0.21106028911E+02  0.13912224823E+02  0.59301882512E+02  0.49999887810E+02 0.  0.
        -12    1    1    2    0    0  0.19434763506E+02  0.21106028911E+02 -0.13912224823E+02  0.31886117488E+02  0.00000000000E+00 0.  1.
         11    1    3    3    0    0 -0.60425234265E+01 -0.80858812508E+01  0.23113890148E+02  0.25221924649E+02  0.51100000000E-03 0. -1.
        -11    1    3    3    0    0  0.67847269405E+01 -0.74864824302E+01 -0.84055222890E+01  0.13142782964E+02  0.51100000000E-03 0.  1.
         12    1    3    3    0    0 -0.20176967020E+02 -0.55336652298E+01 -0.79614303650E+00  0.20937174899E+02  0.00000000000E+00 0. -1.
</event>
<event>
 7    1  0.6285940E-013  0.5930196E+02  0.7816164E-02  0.1266605E+00
        -11   -1    0    0    0    0  0.00000000000E+00  0.00000000000E+00  0.45593999997E+02  0.45594000000E+02  0.51100000000E-03 0. -1.
         11   -1    0    0    0    0 -0.00000000000E+00 -0.00000000000E+00 -0.45593999997E+02  0.45594000000E+02  0.51100000000E-03 0.  1.
    9900012    2    1    2    0    0 -0.22514019822E+02  0.10009157931E+02  0.20239943879E+02  0.59301958238E+02  0.50000025916E+02 0.  0.
        -12    1    1    2    0    0  0.22514019822E+02 -0.10009157931E+02 -0.20239943879E+02  0.31886041762E+02  0.00000000000E+00 0.  1.
         11    1    3    3    0    0  0.71357834444E+01 -0.13409630459E+01  0.98030442201E+01  0.12199068141E+02  0.51100000000E-03 0. -1.
        -11    1    3    3    0    0 -0.13468508531E+02  0.22481772023E+02  0.45530406820E+01  0.26600018328E+02  0.51100000000E-03 0.  1.
         12    1    3    3    0    0 -0.16181294735E+02 -0.11131651046E+02  0.58838589768E+01  0.20502871769E+02  0.00000000000E+00 0. -1.
</event>
<event>
 7    1  0.6285940E-013  0.5930195E+02  0.7816164E-02  0.1266605E+00
        -11   -1    0    0    0    0  0.00000000000E+00  0.00000000000E+00  0.45593999997E+02  0.45594000000E+02  0.51100000000E-03 0.  1.
         11   -1    0    0    0    0 -0.00000000000E+00 -0.00000000000E+00 -0.45593999997E+02  0.45594000000E+02  0.51100000000E-03 0. -1.
    9900012    2    1    2    0    0 -0.25229866681E+02  0.31847336285E+01 -0.19236206333E+02  0.59301947640E+02  0.50000006587E+02 0.  0.
        -12    1    1    2    0    0  0.25229866681E+02 -0.31847336285E+01  0.19236206333E+02  0.31886052360E+02  0.00000000000E+00 0.  1.
         11    1    3    3    0    0 -0.29683731298E+02  0.58588996728E+01 -0.16539185119E+02  0.34481810478E+02  0.51100000000E-03 0. -1.
        -11    1    3    3    0    0  0.15379654945E+01  0.10667490594E+02 -0.29033504093E+01  0.11161995221E+02  0.51100000000E-03 0.  1.
        -12    1    3    3    0    0  0.29158991220E+01 -0.13341656639E+02  0.20632919558E+00  0.13658141941E+02  0.00000000000E+00 0.  1.
</event>
<event>
 7    1  0.6285940E-013  0.5930209E+02  0.7816164E-02  0.1266604E+00
        -11   -1    0    0    0    0  0.00000000000E+00  0.00000000000E+00  0.45593999997E+02  0.45594000000E+02  0.51100000000E-03 0.  1.
         11   -1    0    0    0    0 -0.00000000000E+00 -0.00000000000E+00 -0.45593999997E+02  0.45594000000E+02  0.51100000000E-03 0. -1.
    9900012    2    1    2    0    0 -0.21954844265E+02  0.13306707132E+01 -0.23085179905E+02  0.59302087711E+02  0.50000262043E+02 0.  0.
        -12    1    1    2    0    0  0.21954844265E+02 -0.13306707132E+01  0.23085179905E+02  0.31885912289E+02  0.00000000000E+00 0.  1.
         11    1    3    3    0    0 -0.16602816931E+02 -0.71124556731E+01 -0.58284719010E+01  0.18979242363E+02  0.51100000000E-03 0. -1.
        -11    1    3    3    0    0 -0.70408258167E+01  0.54127988796E+01  0.96955703217E+01  0.13148220565E+02  0.51100000000E-03 0.  1.
         12    1    3    3    0    0  0.16887984823E+01  0.30303275066E+01 -0.26952278326E+02  0.27174624783E+02  0.00000000000E+00 0. -1.
</event>
<event>
 7    1  0.6285940E-013  0.5930194E+02  0.7816164E-02  0.1266605E+00
        -11   -1    0    0    0    0  0.00000000000E+00  0.00000000000E+00  0.45593999997E+02  0.45594000000E+02  0.51100000000E-03 0.  1.
         11   -1    0    0    0    0 -0.00000000000E+00 -0.00000000000E+00 -0.45593999997E+02  0.45594000000E+02  0.51100000000E-03 0. -1.
    9900012    2    1    2    0    0 -0.24851439692E+02  0.51429359622E+01 -0.19304842807E+02  0.59301940336E+02  0.49999993268E+02 0.  0.
        -12    1    1    2    0    0  0.24851439692E+02 -0.51429359622E+01  0.19304842807E+02  0.31886059664E+02  0.00000000000E+00 0.  1.
         11    1    3    3    0    0 -0.15039495860E+01  0.23840273445E+00 -0.16537395439E+02  0.16607352239E+02  0.51100000000E-03 0. -1.
        -11    1    3    3    0    0  0.91141072823E+01 -0.14118583759E+01 -0.27503448414E+01  0.96241723090E+01  0.51100000000E-03 0.  1.
        -12    1    3    3    0    0 -0.32461597388E+02  0.63163916037E+01 -0.17102526365E-01  0.33070415788E+02  0.00000000000E+00 0.  1.
</event>
<event>
 7    1  0.6285940E-013  0.5930198E+02  0.7816164E-02  0.1266605E+00
        -11   -1    0    0    0    0  0.00000000000E+00  0.00000000000E+00  0.45593999997E+02  0.45594000000E+02  0.51100000000E-03 0.  1.
         11   -1    0    0    0    0 -0.00000000000E+00 -0.00000000000E+00 -0.45593999997E+02  0.45594000000E+02  0.51100000000E-03 0. -1.
    9900012    2    1    2    0    0  0.23578941331E+02 -0.29218734883E+01 -0.21265341485E+02  0.59301975359E+02  0.50000057140E+02 0.  0.
        -12    1    1    2    0    0 -0.23578941331E+02  0.29218734883E+01  0.21265341485E+02  0.31886024641E+02  0.00000000000E+00 0.  1.
         11    1    3    3    0    0  0.78701422496E+01  0.12144452245E+02 -0.23798761778E+02  0.27853328739E+02  0.51100000000E-03 0. -1.
        -11    1    3    3    0    0  0.64734301368E+01 -0.85711810235E+01 -0.99325511508E+01  0.14629627969E+02  0.51100000000E-03 0.  1.
        -12    1    3    3    0    0  0.92353689444E+01 -0.64951447100E+01  0.12465971445E+02  0.16819018652E+02  0.00000000000E+00 0.  1.
</event>
<event>
 7    1  0.6285940E-013  0.5930213E+02  0.7816164E-02  0.1266604E+00
        -11   -1    0    0    0    0  0.00000000000E+00  0.00000000000E+00  0.45593999997E+02  0.45594000000E+02  0.51100000000E-03 0. -1.
         11   -1    0    0    0    0 -0.00000000000E+00 -0.00000000000E+00 -0.45593999997E+02  0.45594000000E+02  0.51100000000E-03 0.  1.
    9900012    2    1    2    0    0 -0.36805529262E+01 -0.90485896578E+01  0.30352678632E+02  0.59302132523E+02  0.50000343769E+02 0.  0.
        -12    1    1    2    0    0  0.36805529262E+01  0.90485896578E+01 -0.30352678632E+02  0.31885867477E+02  0.00000000000E+00 0.  1.
         11    1    3    3    0    0 -0.38287667721E+01  0.14699421841E+01  0.97237272315E+00  0.42149370095E+01  0.51100000000E-03 0. -1.
        -11    1    3    3    0    0  0.81411641720E+01  0.15447472308E+02  0.40122076894E+01  0.17916494233E+02  0.51100000000E-03 0.  1.
         12    1    3    3    0    0 -0.79929503261E+01 -0.25966004150E+02  0.25368098219E+02  0.37170701281E+02  0.00000000000E+00 0. -1.
</event>
<event>
 7    1  0.6285940E-013  0.5930190E+02  0.7816164E-02  0.1266605E+00
        -11   -1    0    0    0    0  0.00000000000E+00  0.00000000000E+00  0.45593999997E+02  0.45594000000E+02  0.51100000000E-03 0. -1.
         11   -1    0    0    0    0 -0.00000000000E+00 -0.00000000000E+00 -0.45593999997E+02  0.45594000000E+02  0.51100000000E-03 0.  1.
    9900012    2    1    2    0    0  0.10038402345E+02  0.15218271009E+02  0.26160242560E+02  0.59301896680E+02  0.49999913649E+02 0.  0.
        -12    1    1    2    0    0 -0.10038402345E+02 -0.15218271009E+02 -0.26160242560E+02  0.31886103320E+02  0.00000000000E+00 0.  1.
         11    1    3    3    0    0  0.53418276095E+01  0.16273307818E+02  0.29594189915E+01  0.17381421995E+02  0.51100000000E-03 0. -1.
        -11    1    3    3    0    0 -0.72019269748E+01  0.58337559300E+01  0.26249522249E+02  0.27837706065E+02  0.51100000000E-03 0.  1.
         12    1    3    3    0    0  0.11898501710E+02 -0.68887927390E+01 -0.30486986804E+01  0.14082768620E+02  0.00000000000E+00 0. -1.
</event>
<event>
 7    1  0.6285940E-013  0.5930194E+02  0.7816164E-02  0.1266605E+00
        -11   -1    0    0    0    0  0.00000000000E+00  0.00000000000E+00  0.45593999997E+02  0.45594000000E+02  0.51100000000E-03 0.  1.
         11   -1    0    0    0    0 -0.00000000000E+00 -0.00000000000E+00 -0.45593999997E+02  0.45594000000E+02  0.51100000000E-03 0. -1.
    9900012    2    1    2    0    0 -0.17224660731E+01  0.77448902537E+00 -0.31830079142E+02  0.59301942532E+02  0.49999997273E+02 0.  0.
        -12    1    1    2    0    0  0.17224660731E+01 -0.77448902537E+00  0.31830079142E+02  0.31886057468E+02  0.00000000000E+00 0.  1.
         11    1    3    3    0    0 -0.68820525905E+01 -0.17062833385E+02  0.14277632175E+01  0.18453764902E+02  0.51100000000E-03 0. -1.
        -11    1    3    3    0    0  0.97675066864E+01  0.75514361784E+01 -0.15509844218E+02  0.19823815050E+02  0.51100000000E-03 0.  1.
        -12    1    3    3    0    0 -0.46079201690E+01  0.10285886232E+02 -0.17747998142E+02  0.21024362580E+02  0.00000000000E+00 0.  1.
</event>
<event>
 7    1  0.6285940E-013  0.5930194E+02  0.7816164E-02  0.1266605E+00
        -11   -1    0    0    0    0  0.00000000000E+00  0.00000000000E+00  0.45593999997E+02  0.45594000000E+02  0.51100000000E-03 0. -1.
         11   -1    0    0    0    0 -0.00000000000E+00 -0.00000000000E+00 -0.45593999997E+02  0.45594000000E+02  0.51100000000E-03 0.  1.
    9900012    2    1    2    0    0  0.29694488500E+01  0.47163538548E+01  0.31395214318E+02  0.59301935611E+02  0.49999984650E+02 0.  0.
        -12    1    1    2    0    0 -0.29694488500E+01 -0.47163538548E+01 -0.31395214318E+02  0.31886064389E+02  0.00000000000E+00 0.  1.
         11    1    3    3    0    0 -0.62055307652E+01 -0.86097587347E+00  0.23006404734E+02  0.23844172257E+02  0.51100000000E-03 0.  1.
        -11    1    3    3    0    0 -0.26628908322E+01  0.15206760964E+02  0.12260620436E+02  0.19714445981E+02  0.51100000000E-03 0. -1.
        -12    1    3    3    0    0  0.11837870447E+02 -0.96294312354E+01 -0.38718108534E+01  0.15743317374E+02  0.00000000000E+00 0.  1.
</event>
<event>
 7    1  0.6285940E-013  0.5930192E+02  0.7816164E-02  0.1266605E+00
        -11   -1    0    0    0    0  0.00000000000E+00  0.00000000000E+00  0.45593999997E+02  0.45594000000E+02  0.51100000000E-03 0. -1.
         11   -1    0    0    0    0 -0.00000000000E+00 -0.00000000000E+00 -0.45593999997E+02  0.45594000000E+02  0.51100000000E-03 0.  1.
    9900012    2    1    2    0    0  0.29212188885E+02 -0.10487224514E+02  0.73067120442E+01  0.59301923127E+02  0.49999961882E+02 0.  0.
        -12    1    1    2    0    0 -0.29212188885E+02  0.10487224514E+02 -0.73067120442E+01  0.31886076873E+02  0.00000000000E+00 0.  1.
         11    1    3    3    0    0  0.14643910251E+02  0.90515073507E+01  0.16017555113E+02  0.23514590467E+02  0.51100000000E-03 0. -1.
        -11    1    3    3    0    0  0.23410259771E+01  0.54221644393E+01  0.16372478771E+01  0.61286907823E+01  0.51100000000E-03 0.  1.
        -12    1    3    3    0    0  0.12227252657E+02 -0.24960896304E+02 -0.10348090946E+02  0.29658641878E+02  0.00000000000E+00 0.  1.
</event>
<event>
 7    1  0.6285940E-013  0.5930194E+02  0.7816164E-02  0.1266605E+00
        -11   -1    0    0    0    0  0.00000000000E+00  0.00000000000E+00  0.45593999997E+02  0.45594000000E+02  0.51100000000E-03 0.  1.
         11   -1    0    0    0    0 -0.00000000000E+00 -0.00000000000E+00 -0.45593999997E+02  0.45594000000E+02  0.51100000000E-03 0. -1.
    9900012    2    1    2    0    0 -0.25424631857E+02  0.57566553516E+01 -0.18362176655E+02  0.59301944781E+02  0.50000001374E+02 0.  0.
        -12    1    1    2    0    0  0.25424631857E+02 -0.57566553516E+01  0.18362176655E+02  0.31886055219E+02  0.00000000000E+00 0.  1.
         11    1    3    3    0    0 -0.12625720970E+02  0.75932393047E+01  0.64287510519E+01  0.16074668068E+02  0.51100000000E-03 0. -1.
        -11    1    3    3    0    0  0.69178214232E+01  0.11058715652E+01  0.41066794928E+01  0.81205924587E+01  0.51100000000E-03 0.  1.
        -12    1    3    3    0    0 -0.19716732310E+02 -0.29424555184E+01 -0.28897607200E+02  0.35106684255E+02  0.00000000000E+00 0.  1.
</event>
<event>
 7    1  0.6285940E-013  0.5930193E+02  0.7816164E-02  0.1266605E+00
        -11   -1    0    0    0    0  0.00000000000E+00  0.00000000000E+00  0.45593999997E+02  0.45594000000E+02  0.51100000000E-03 0. -1.
         11   -1    0    0    0    0 -0.00000000000E+00 -0.00000000000E+00 -0.45593999997E+02  0.45594000000E+02  0.51100000000E-03 0.  1.
    9900012    2    1    2    0    0 -0.20215374743E+01  0.13434002548E+02  0.28847229034E+02  0.59301926846E+02  0.49999968665E+02 0.  0.
        -12    1    1    2    0    0  0.20215374743E+01 -0.13434002548E+02 -0.28847229034E+02  0.31886073154E+02  0.00000000000E+00 0.  1.
         11    1    3    3    0    0  0.17652530528E+01  0.21429018790E+01  0.24754686332E+02  0.24909890454E+02  0.51100000000E-03 0. -1.
        -11    1    3    3    0    0  0.53401360789E+01 -0.89894183521E+01 -0.32863822918E+01  0.10960246552E+02  0.51100000000E-03 0.  1.
         12    1    3    3    0    0 -0.91269266060E+01  0.20280519021E+02  0.73789249944E+01  0.23431789840E+02  0.00000000000E+00 0. -1.
</event>
<event>
 7    1  0.6285940E-013  0.5930194E+02  0.7816164E-02  0.1266605E+00
        -11   -1    0    0    0    0  0.00000000000E+00  0.00000000000E+00  0.45593999997E+02  0.45594000000E+02  0.51100000000E-03 0.  1.
         11   -1    0    0    0    0 -0.00000000000E+00 -0.00000000000E+00 -0.45593999997E+02  0.45594000000E+02  0.51100000000E-03 0. -1.
    9900012    2    1    2    0    0 -0.13218302193E+01  0.28383658473E+02 -0.14468629713E+02  0.59301944283E+02  0.50000000465E+02 0.  0.
        -12    1    1    2    0    0  0.13218302193E+01 -0.28383658473E+02  0.14468629713E+02  0.31886055717E+02  0.00000000000E+00 0.  1.
         11    1    3    3    0    0 -0.36774595771E+00  0.80085055792E+01  0.71661113496E+01  0.10752885698E+02  0.51100000000E-03 0. -1.
        -11    1    3    3    0    0  0.54097936195E+01 -0.35215729720E+01  0.77871517438E+01  0.10114696028E+02  0.51100000000E-03 0.  1.
         12    1    3    3    0    0 -0.63638778810E+01  0.23896725866E+02 -0.29421892807E+02  0.38434362556E+02  0.00000000000E+00 0. -1.
</event>
<event>
 7    1  0.6285940E-013  0.5930197E+02  0.7816164E-02  0.1266605E+00
        -11   -1    0    0    0    0  0.00000000000E+00  0.00000000000E+00  0.45593999997E+02  0.45594000000E+02  0.51100000000E-03 0. -1.
         11   -1    0    0    0    0 -0.00000000000E+00 -0.00000000000E+00 -0.45593999997E+02  0.45594000000E+02  0.51100000000E-03 0.  1.
    9900012    2    1    2    0    0  0.29383111476E+02 -0.72953678012E+01  0.10006450429E+02  0.59301973569E+02  0.50000053877E+02 0.  0.
        -12    1    1    2    0    0 -0.29383111476E+02  0.72953678012E+01 -0.10006450429E+02  0.31886026431E+02  0.00000000000E+00 0.  1.
         11    1    3    3    0    0  0.53003464686E+01 -0.15470724879E+02  0.29157035170E+01  0.16611391520E+02  0.51100000000E-03 0. -1.
        -11    1    3    3    0    0 -0.53534424280E+01 -0.58693796096E+01 -0.30893097430E+01  0.85236610550E+01  0.51100000000E-03 0.  1.
         12    1    3    3    0    0  0.29436207435E+02  0.14044736687E+02  0.10180056655E+02  0.34166920995E+02  0.00000000000E+00 0. -1.
</event>
<event>
 7    1  0.6285940E-013  0.5930200E+02  0.7816164E-02  0.1266605E+00
        -11   -1    0    0    0    0  0.00000000000E+00  0.00000000000E+00  0.45593999997E+02  0.45594000000E+02  0.51100000000E-03 0. -1.
         11   -1    0    0    0    0 -0.00000000000E+00 -0.00000000000E+00 -0.45593999997E+02  0.45594000000E+02  0.51100000000E-03 0.  1.
    9900012    2    1    2    0    0 -0.10825618346E+02 -0.29457638113E+02 -0.56365567863E+01  0.59301996359E+02  0.50000095440E+02 0.  0.
        -12    1    1    2    0    0  0.10825618346E+02  0.29457638113E+02  0.56365567863E+01  0.31886003641E+02  0.00000000000E+00 0.  1.
         11    1    3    3    0    0  0.48502832639E+01  0.76899938283E+01 -0.91833570011E+01  0.12922666091E+02  0.51100000000E-03 0. -1.
        -11    1    3    3    0    0 -0.58613885591E+01  0.16717147509E+01 -0.59891491828E+00  0.61244759278E+01  0.51100000000E-03 0.  1.
         12    1    3    3    0    0 -0.98145130508E+01 -0.38819346692E+02  0.41457151330E+01  0.40254854341E+02  0.00000000000E+00 0. -1.
</event>
<event>
 7    1  0.6285940E-013  0.5930186E+02  0.7816164E-02  0.1266605E+00
        -11   -1    0    0    0    0  0.00000000000E+00  0.00000000000E+00  0.45593999997E+02  0.45594000000E+02  0.51100000000E-03 0.  1.
         11   -1    0    0    0    0 -0.00000000000E+00 -0.00000000000E+00 -0.45593999997E+02  0.45594000000E+02  0.51100000000E-03 0. -1.
    9900012    2    1    2    0    0 -0.32674071679E+01  0.25054225673E+02 -0.19450847436E+02  0.59301864460E+02  0.49999854888E+02 0.  0.
        -12    1    1    2    0    0  0.32674071679E+01 -0.25054225673E+02  0.19450847436E+02  0.31886135540E+02  0.00000000000E+00 0.  1.
         11    1    3    3    0    0  0.15205573021E+02  0.84184738597E+01 -0.75631843106E+01  0.18954733187E+02  0.51100000000E-03 0.  1.
        -11    1    3    3    0    0 -0.11089333561E+02  0.24630627684E+02 -0.11767062149E+02  0.29463619785E+02  0.51100000000E-03 0. -1.
        -12    1    3    3    0    0 -0.73836466286E+01 -0.79948758708E+01 -0.12060097650E+00  0.10883511489E+02  0.00000000000E+00 0.  1.
</event>
<event>
 7    1  0.6285940E-013  0.5930194E+02  0.7816164E-02  0.1266605E+00
        -11   -1    0    0    0    0  0.00000000000E+00  0.00000000000E+00  0.45593999997E+02  0.45594000000E+02  0.51100000000E-03 0.  1.
         11   -1    0    0    0    0 -0.00000000000E+00 -0.00000000000E+00 -0.45593999997E+02  0.45594000000E+02  0.51100000000E-03 0. -1.
    9900012    2    1    2    0    0  0.19851732937E+02  0.24728292749E+02  0.33378282624E+01  0.59301939404E+02  0.49999991567E+02 0.  0.
        -12    1    1    2    0    0 -0.19851732937E+02 -0.24728292749E+02 -0.33378282624E+01  0.31886060596E+02  0.00000000000E+00 0.  1.
         11    1    3    3    0    0 -0.10770670347E+02  0.76373859129E+01 -0.25511341016E+00  0.13206138210E+02  0.51100000000E-03 0.  1.
        -11    1    3    3    0    0  0.14480613400E+01 -0.38024833101E+00 -0.95292721030E+01  0.96461649121E+01  0.51100000000E-03 0. -1.
         12    1    3    3    0    0  0.29174341943E+02  0.17471155167E+02  0.13122213776E+02  0.36449636282E+02  0.00000000000E+00 0. -1.
</event>
<event>
 7    1  0.6285940E-013  0.5930189E+02  0.7816164E-02  0.1266605E+00
        -11   -1    0    0    0    0  0.00000000000E+00  0.00000000000E+00  0.45593999997E+02  0.45594000000E+02  0.51100000000E-03 0.  1.
         11   -1    0    0    0    0 -0.00000000000E+00 -0.00000000000E+00 -0.45593999997E+02  0.45594000000E+02  0.51100000000E-03 0. -1.
    9900012    2    1    2    0    0  0.22004282818E+02  0.11156702763E+01 -0.23049751810E+02  0.59301886392E+02  0.49999894886E+02 0.  0.
        -12    1    1    2    0    0 -0.22004282818E+02 -0.11156702763E+01  0.23049751810E+02  0.31886113608E+02  0.00000000000E+00 0.  1.
         11    1    3    3    0    0  0.53499226660E+01  0.11445301062E+02  0.98758822113E-01  0.12634331897E+02  0.51100000000E-03 0. -1.
        -11    1    3    3    0    0  0.85595662271E+01 -0.12953889407E+02  0.57387317584E+01  0.16553019882E+02  0.51100000000E-03 0.  1.
         12    1    3    3    0    0  0.80947939251E+01  0.26242586217E+01 -0.28887242391E+02  0.30114534613E+02  0.00000000000E+00 0. -1.
</event>
<event>
 7    1  0.6285940E-013  0.5930197E+02  0.7816164E-02  0.1266605E+00
        -11   -1    0    0    0    0  0.00000000000E+00  0.00000000000E+00  0.45593999997E+02  0.45594000000E+02  0.51100000000E-03 0.  1.
         11   -1    0    0    0    0 -0.00000000000E+00 -0.00000000000E+00 -0.45593999997E+02  0.45594000000E+02  0.51100000000E-03 0. -1.
    9900012    2    1    2    0    0  0.12399153388E+02  0.20475894009E+02  0.21064610322E+02  0.59301967819E+02  0.50000043390E+02 0.  0.
        -12    1    1    2    0    0 -0.12399153388E+02 -0.20475894009E+02 -0.21064610322E+02  0.31886032181E+02  0.00000000000E+00 0.  1.
         11    1    3    3    0    0 -0.10763143511E+02  0.20596108752E+02  0.16587152133E+02  0.28551332194E+02  0.51100000000E-03 0. -1.
        -11    1    3    3    0    0 -0.40837612972E+00 -0.16412225050E+01 -0.50167784287E+01  0.52941900644E+01  0.51100000000E-03 0.  1.
        -12    1    3    3    0    0  0.23570673028E+02  0.15210077626E+01  0.94942366183E+01  0.25456445560E+02  0.00000000000E+00 0.  1.
</event>
<event>
 7    1  0.6285940E-013  0.5930196E+02  0.7816164E-02  0.1266605E+00
        -11   -1    0    0    0    0  0.00000000000E+00  0.00000000000E+00  0.45593999997E+02  0.45594000000E+02  0.51100000000E-03 0.  1.
         11   -1    0    0    0    0 -0.00000000000E+00 -0.00000000000E+00 -0.45593999997E+02  0.45594000000E+02  0.51100000000E-03 0. -1.
    9900012    2    1    2    0    0 -0.18406310878E+02 -0.25889719613E+02 -0.27658499950E+01  0.59301956220E+02  0.50000022235E+02 0.  0.
        -12    1    1    2    0    0  0.18406310878E+02  0.25889719613E+02  0.27658499950E+01  0.31886043780E+02  0.00000000000E+00 0.  1.
         11    1    3    3    0    0 -0.19246807316E+02 -0.26843545013E+02 -0.11778103966E+02  0.35067637987E+02  0.51100000000E-03 0. -1.
        -11    1    3    3    0    0 -0.61820732137E+01  0.95171716631E+01  0.35865233380E+01  0.11902005529E+02  0.51100000000E-03 0.  1.
        -12    1    3    3    0    0  0.70225696515E+01 -0.85633462631E+01  0.54257306329E+01  0.12332312704E+02  0.00000000000E+00 0.  1.
</event>
<event>
 7    1  0.6285940E-013  0.5930198E+02  0.7816164E-02  0.1266605E+00
        -11   -1    0    0    0    0  0.00000000000E+00  0.00000000000E+00  0.45593999997E+02  0.45594000000E+02  0.51100000000E-03 0.  1.
         11   -1    0    0    0    0 -0.00000000000E+00 -0.00000000000E+00 -0.45593999997E+02  0.45594000000E+02  0.51100000000E-03 0. -1.
    9900012    2    1    2    0    0 -0.11937039367E+02  0.29525856511E+02 -0.15650535794E+01  0.59301976349E+02  0.50000058947E+02 0.  0.
        -12    1    1    2    0    0  0.11937039367E+02 -0.29525856511E+02  0.15650535794E+01  0.31886023651E+02  0.00000000000E+00 0.  1.
         11    1    3    3    0    0 -0.24642750131E+02  0.18398941663E+02 -0.68063834682E+01  0.31497826028E+02  0.51100000000E-03 0. -1.
        -11    1    3    3    0    0 -0.46096686194E+01  0.60977837639E+01  0.60598025765E+01  0.97546511541E+01  0.51100000000E-03 0.  1.
        -12    1    3    3    0    0  0.17315379383E+02  0.50291310840E+01 -0.81847268769E+00  0.18049499167E+02  0.00000000000E+00 0.  1.
</event>
<event>
 7    1  0.6285940E-013  0.5930194E+02  0.7816164E-02  0.1266605E+00
        -11   -1    0    0    0    0  0.00000000000E+00  0.00000000000E+00  0.45593999997E+02  0.45594000000E+02  0.51100000000E-03 0. -1.
         11   -1    0    0    0    0 -0.00000000000E+00 -0.00000000000E+00 -0.45593999997E+02  0.45594000000E+02  0.51100000000E-03 0.  1.
    9900012    2    1    2    0    0  0.26284620401E+01  0.31732984105E+02 -0.16822660519E+01  0.59301935458E+02  0.49999984371E+02 0.  0.
        -12    1    1    2    0    0 -0.26284620401E+01 -0.31732984105E+02  0.16822660519E+01  0.31886064542E+02  0.00000000000E+00 0.  1.
         11    1    3    3    0    0 -0.33796719386E+01  0.12627705243E+01  0.83651148396E+01  0.91099900302E+01  0.51100000000E-03 0. -1.
        -11    1    3    3    0    0 -0.11654372304E+02 -0.15724117080E+01  0.14281926357E+01  0.11846375262E+02  0.51100000000E-03 0.  1.
        -12    1    3    3    0    0  0.17662506282E+02  0.32042625289E+02 -0.11475573527E+02  0.38345570166E+02  0.00000000000E+00 0.  1.
</event>
<event>
 7    1  0.6285940E-013  0.5930180E+02  0.7816164E-02  0.1266605E+00
        -11   -1    0    0    0    0  0.00000000000E+00  0.00000000000E+00  0.45593999997E+02  0.45594000000E+02  0.51100000000E-03 0. -1.
         11   -1    0    0    0    0 -0.00000000000E+00 -0.00000000000E+00 -0.45593999997E+02  0.45594000000E+02  0.51100000000E-03 0.  1.
    9900012    2    1    2    0    0 -0.96834914713E+01  0.27896733124E+02 -0.12030453785E+02  0.59301803232E+02  0.49999743222E+02 0.  0.
        -12    1    1    2    0    0  0.96834914713E+01 -0.27896733124E+02  0.12030453785E+02  0.31886196768E+02  0.00000000000E+00 0.  1.
         11    1    3    3    0    0 -0.10589403451E+02  0.35718427260E+01 -0.62775920966E+01  0.12818022028E+02  0.51100000000E-03 0. -1.
        -11    1    3    3    0    0 -0.87193159159E+01 -0.81368990025E+01  0.96435076635E+00  0.11965181490E+02  0.51100000000E-03 0.  1.
        -12    1    3    3    0    0  0.96252278956E+01  0.32461789400E+02 -0.67172124546E+01  0.34518599715E+02  0.00000000000E+00 0.  1.
</event>
<event>
 7    1  0.6285940E-013  0.5930197E+02  0.7816164E-02  0.1266605E+00
        -11   -1    0    0    0    0  0.00000000000E+00  0.00000000000E+00  0.45593999997E+02  0.45594000000E+02  0.51100000000E-03 0.  1.
         11   -1    0    0    0    0 -0.00000000000E+00 -0.00000000000E+00 -0.45593999997E+02  0.45594000000E+02  0.51100000000E-03 0. -1.
    9900012    2    1    2    0    0  0.27391316025E+02  0.72093180919E+01 -0.14644461376E+02  0.59301973124E+02  0.50000053065E+02 0.  0.
        -12    1    1    2    0    0 -0.27391316025E+02 -0.72093180919E+01  0.14644461376E+02  0.31886026876E+02  0.00000000000E+00 0.  1.
         11    1    3    3    0    0 -0.65613241243E+01 -0.53250112869E+01  0.58886422374E+01  0.10299651797E+02  0.51100000000E-03 0. -1.
        -11    1    3    3    0    0 -0.18709829730E+01 -0.32132347932E+01  0.15963443941E+01  0.40464516317E+01  0.51100000000E-03 0.  1.
        -12    1    3    3    0    0  0.35823623122E+02  0.15747564172E+02 -0.22129448008E+02  0.44955869696E+02  0.00000000000E+00 0.  1.
</event>
<event>
 7    1  0.6285940E-013  0.5930206E+02  0.7816164E-02  0.1266604E+00
        -11   -1    0    0    0    0  0.00000000000E+00  0.00000000000E+00  0.45593999997E+02  0.45594000000E+02  0.51100000000E-03 0.  1.
         11   -1    0    0    0    0 -0.00000000000E+00 -0.00000000000E+00 -0.45593999997E+02  0.45594000000E+02  0.51100000000E-03 0. -1.
    9900012    2    1    2    0    0  0.87688120613E+00  0.31662151617E+02  0.36677620710E+01  0.59302058830E+02  0.50000209372E+02 0.  0.
        -12    1    1    2    0    0 -0.87688120613E+00 -0.31662151617E+02 -0.36677620710E+01  0.31885941170E+02  0.00000000000E+00 0.  1.
         11    1    3    3    0    0 -0.42581794065E+01  0.18122252738E+02 -0.70639213192E+01  0.19910979906E+02  0.51100000000E-03 0. -1.
        -11    1    3    3    0    0 -0.37355659328E+01 -0.49037825145E+00  0.20018880894E+02  0.20370334219E+02  0.51100000000E-03 0.  1.
         12    1    3    3    0    0  0.88706265455E+01  0.14030277131E+02 -0.92871975040E+01  0.19020744705E+02  0.00000000000E+00 0. -1.
</event>
<event>
 7    1  0.6285940E-013  0.5930211E+02  0.7816164E-02  0.1266604E+00
        -11   -1    0    0    0    0  0.00000000000E+00  0.00000000000E+00  0.45593999997E+02  0.45594000000E+02  0.51100000000E-03 0. -1.
         11   -1    0    0    0    0 -0.00000000000E+00 -0.00000000000E+00 -0.45593999997E+02  0.45594000000E+02  0.51100000000E-03 0.  1.
    9900012    2    1    2    0    0  0.20643438507E+02  0.23854480358E+02 -0.46392298384E+01  0.59302105939E+02  0.50000295287E+02 0.  0.
        -12    1    1    2    0    0 -0.20643438507E+02 -0.23854480358E+02  0.46392298384E+01  0.31885894061E+02  0.00000000000E+00 0.  1.
         11    1    3    3    0    0 -0.11773414402E+01 -0.10228480628E+02  0.72003915725E+01  0.12563979779E+02  0.51100000000E-03 0. -1.
        -11    1    3    3    0    0  0.32519287471E+01 -0.56698616649E+00 -0.61997580218E+01  0.70237820068E+01  0.51100000000E-03 0.  1.
        -12    1    3    3    0    0  0.18568851200E+02  0.34649947152E+02 -0.56398633890E+01  0.39714344154E+02  0.00000000000E+00 0.  1.
</event>
<event>
 7    1  0.6285940E-013  0.5930201E+02  0.7816164E-02  0.1266605E+00
        -11   -1    0    0    0    0  0.00000000000E+00  0.00000000000E+00  0.45593999997E+02  0.45594000000E+02  0.51100000000E-03 0. -1.
         11   -1    0    0    0    0 -0.00000000000E+00 -0.00000000000E+00 -0.45593999997E+02  0.45594000000E+02  0.51100000000E-03 0.  1.
    9900012    2    1    2    0    0  0.15624576448E+02  0.24190180114E+02 -0.13690283064E+02  0.59302014779E+02  0.50000129033E+02 0.  0.
        -12    1    1    2    0    0 -0.15624576448E+02 -0.24190180114E+02  0.13690283064E+02  0.31885985221E+02  0.00000000000E+00 0.  1.
         11    1    3    3    0    0  0.16851857095E+01  0.10039465961E+02  0.75960443532E+01  0.12701599023E+02  0.51100000000E-03 0. -1.
        -11    1    3    3    0    0 -0.10580589943E+02  0.43032724561E+01  0.17371515707E+01  0.11553559331E+02  0.51100000000E-03 0.  1.
         12    1    3    3    0    0  0.24519980681E+02  0.98474416965E+01 -0.23023478988E+02  0.35046856426E+02  0.00000000000E+00 0. -1.
</event>
<event>
 7    1  0.6285940E-013  0.5930197E+02  0.7816164E-02  0.1266605E+00
        -11   -1    0    0    0    0  0.00000000000E+00  0.00000000000E+00  0.45593999997E+02  0.45594000000E+02  0.51100000000E-03 0.  1.
         11   -1    0    0    0    0 -0.00000000000E+00 -0.00000000000E+00 -0.45593999997E+02  0.45594000000E+02  0.51100000000E-03 0. -1.
    9900012    2    1    2    0    0 -0.95872424229E+01 -0.29899807676E+02  0.55502294480E+01  0.59301972288E+02  0.50000051540E+02 0.  0.
        -12    1    1    2    0    0  0.95872424229E+01  0.29899807676E+02 -0.55502294480E+01  0.31886027712E+02  0.00000000000E+00 0.  1.
         11    1    3    3    0    0 -0.31742884673E+01 -0.60165344391E+01  0.56265809536E+00  0.68257877438E+01  0.51100000000E-03 0. -1.
        -11    1    3    3    0    0  0.67740378402E+01 -0.14994677764E+02  0.23107750775E+02  0.28367165809E+02  0.51100000000E-03 0.  1.
         12    1    3    3    0    0 -0.13186991796E+02 -0.88885954724E+01 -0.18120179422E+02  0.24109018735E+02  0.00000000000E+00 0. -1.
</event>
<event>
 7    1  0.6285940E-013  0.5930192E+02  0.7816164E-02  0.1266605E+00
        -11   -1    0    0    0    0  0.00000000000E+00  0.00000000000E+00  0.45593999997E+02  0.45594000000E+02  0.51100000000E-03 0.  1.
         11   -1    0    0    0    0 -0.00000000000E+00 -0.00000000000E+00 -0.45593999997E+02  0.45594000000E+02  0.51100000000E-03 0. -1.
    9900012    2    1    2    0    0 -0.17242191749E+02 -0.19538122661E+02 -0.18376362073E+02  0.59301920020E+02  0.49999956215E+02 0.  0.
        -12    1    1    2    0    0  0.17242191749E+02  0.19538122661E+02  0.18376362073E+02  0.31886079980E+02  0.00000000000E+00 0.  1.
         11    1    3    3    0    0 -0.17374402659E+02 -0.11854332392E+02 -0.70183745430E+01  0.22173241660E+02  0.51100000000E-03 0. -1.
        -11    1    3    3    0    0  0.34739989732E+01 -0.19969641610E+02 -0.13308197276E+02  0.24247955994E+02  0.51100000000E-03 0.  1.
         12    1    3    3    0    0 -0.33417880640E+01  0.12285851340E+02  0.19502097459E+01  0.12880722366E+02  0.00000000000E+00 0. -1.
</event>
<event>
 7    1  0.6285940E-013  0.5930197E+02  0.7816164E-02  0.1266605E+00
        -11   -1    0    0    0    0  0.00000000000E+00  0.00000000000E+00  0.45593999997E+02  0.45594000000E+02  0.51100000000E-03 0.  1.
         11   -1    0    0    0    0 -0.00000000000E+00 -0.00000000000E+00 -0.45593999997E+02  0.45594000000E+02  0.51100000000E-03 0. -1.
    9900012    2    1    2    0    0  0.10332564450E+02  0.16999044052E+02 -0.24919655899E+02  0.59301974269E+02  0.50000055153E+02 0.  0.
        -12    1    1    2    0    0 -0.10332564450E+02 -0.16999044052E+02  0.24919655899E+02  0.31886025731E+02  0.00000000000E+00 0.  1.
         11    1    3    3    0    0  0.41945107663E+01  0.78403491025E-01 -0.29989642914E+02  0.30281656990E+02  0.51100000000E-03 0. -1.
        -11    1    3    3    0    0 -0.55363898639E+01  0.36824575182E-01  0.63852170093E+01  0.84512700401E+01  0.51100000000E-03 0.  1.
        -12    1    3    3    0    0  0.11674443548E+02  0.16883815985E+02 -0.13152299944E+01  0.20569047239E+02  0.00000000000E+00 0.  1.
</event>
<event>
 7    1  0.6285940E-013  0.5930193E+02  0.7816164E-02  0.1266605E+00
        -11   -1    0    0    0    0  0.00000000000E+00  0.00000000000E+00  0.45593999997E+02  0.45594000000E+02  0.51100000000E-03 0.  1.
         11   -1    0    0    0    0 -0.00000000000E+00 -0.00000000000E+00 -0.45593999997E+02  0.45594000000E+02  0.51100000000E-03 0. -1.
    9900012    2    1    2    0    0 -0.61624883304E+00  0.31291107000E+02 -0.60998401703E+01  0.59301934235E+02  0.49999982140E+02 0.  0.
        -12    1    1    2    0    0  0.61624883304E+00 -0.31291107000E+02  0.60998401703E+01  0.31886065765E+02  0.00000000000E+00 0.  1.
         11    1    3    3    0    0  0.10999151929E+01 -0.30058455392E+01 -0.31239556069E+01  0.44725853521E+01  0.51100000000E-03 0. -1.
        -11    1    3    3    0    0 -0.13669118837E+02 -0.26336374744E+01 -0.73932969754E+01  0.15762033389E+02  0.51100000000E-03 0.  1.
         12    1    3    3    0    0  0.11952954811E+02  0.36930590013E+02  0.44174124120E+01  0.39067315493E+02  0.00000000000E+00 0. -1.
</event>
<event>
 7    1  0.6285940E-013  0.5930199E+02  0.7816164E-02  0.1266605E+00
        -11   -1    0    0    0    0  0.00000000000E+00  0.00000000000E+00  0.45593999997E+02  0.45594000000E+02  0.51100000000E-03 0.  1.
         11   -1    0    0    0    0 -0.00000000000E+00 -0.00000000000E+00 -0.45593999997E+02  0.45594000000E+02  0.51100000000E-03 0. -1.
    9900012    2    1    2    0    0 -0.30477735954E+00 -0.31850602433E+02  0.14710603376E+01  0.59301987658E+02  0.50000079571E+02 0.  0.
        -12    1    1    2    0    0  0.30477735954E+00  0.31850602433E+02 -0.14710603376E+01  0.31886012342E+02  0.00000000000E+00 0.  1.
         11    1    3    3    0    0  0.12501499920E+01 -0.31001290014E+02  0.10933437743E+00  0.31026679033E+02  0.51100000000E-03 0. -1.
        -11    1    3    3    0    0 -0.70958973282E+01 -0.11842782014E+02 -0.46592142815E+01  0.14570913585E+02  0.51100000000E-03 0.  1.
        -12    1    3    3    0    0  0.55409699766E+01  0.10993469595E+02  0.60209402417E+01  0.13704395040E+02  0.00000000000E+00 0.  1.
</event>
<event>
 7    1  0.6285940E-013  0.5930194E+02  0.7816164E-02  0.1266605E+00
        -11   -1    0    0    0    0  0.00000000000E+00  0.00000000000E+00  0.45593999997E+02  0.45594000000E+02  0.51100000000E-03 0. -1.
         11   -1    0    0    0    0 -0.00000000000E+00 -0.00000000000E+00 -0.45593999997E+02  0.45594000000E+02  0.51100000000E-03 0.  1.
    9900012    2    1    2    0    0 -0.29929838624E+02 -0.39604345188E+01  0.10258695137E+02  0.59301935527E+02  0.49999984497E+02 0.  0.
        -12    1    1    2    0    0  0.29929838624E+02  0.39604345188E+01 -0.10258695137E+02  0.31886064473E+02  0.00000000000E+00 0.  1.
         11    1    3    3    0    0 -0.17331235087E+02 -0.11096622531E+02 -0.82286988362E+01  0.22163443460E+02  0.51100000000E-03 0. -1.
        -11    1    3    3    0    0  0.19073002820E+01 -0.95705743250E+01  0.32982711285E+01  0.10301081495E+02  0.51100000000E-03 0.  1.
         12    1    3    3    0    0 -0.14505903819E+02  0.16706762337E+02  0.15189122845E+02  0.26837410571E+02  0.00000000000E+00 0. -1.
</event>
<event>
 7    1  0.6285940E-013  0.5930198E+02  0.7816164E-02  0.1266605E+00
        -11   -1    0    0    0    0  0.00000000000E+00  0.00000000000E+00  0.45593999997E+02  0.45594000000E+02  0.51100000000E-03 0.  1.
         11   -1    0    0    0    0 -0.00000000000E+00 -0.00000000000E+00 -0.45593999997E+02  0.45594000000E+02  0.51100000000E-03 0. -1.
    9900012    2    1    2    0    0 -0.16972296041E+02 -0.18690462978E+02 -0.19476299717E+02  0.59301976574E+02  0.50000059357E+02 0.  0.
        -12    1    1    2    0    0  0.16972296041E+02  0.18690462978E+02  0.19476299717E+02  0.31886023426E+02  0.00000000000E+00 0.  1.
         11    1    3    3    0    0  0.32444758253E+01 -0.29435113620E+02 -0.86732056216E+01  0.30857365947E+02  0.51100000000E-03 0. -1.
        -11    1    3    3    0    0  0.96654332219E+00  0.13530800333E+00  0.14686834041E+01  0.17633903289E+01  0.51100000000E-03 0.  1.
         12    1    3    3    0    0 -0.21183315188E+02  0.10609342638E+02 -0.12271777500E+02  0.26681220298E+02  0.00000000000E+00 0. -1.
</event>
<event>
 7    1  0.6285940E-013  0.5930188E+02  0.7816164E-02  0.1266605E+00
        -11   -1    0    0    0    0  0.00000000000E+00  0.00000000000E+00  0.45593999997E+02  0.45594000000E+02  0.51100000000E-03 0. -1.
         11   -1    0    0    0    0 -0.00000000000E+00 -0.00000000000E+00 -0.45593999997E+02  0.45594000000E+02  0.51100000000E-03 0.  1.
    9900012    2    1    2    0    0  0.25631720039E+02  0.16294585024E+02 -0.97070199125E+01  0.59301877488E+02  0.49999878648E+02 0.  0.
        -12    1    1    2    0    0 -0.25631720039E+02 -0.16294585024E+02  0.97070199125E+01  0.31886122512E+02  0.00000000000E+00 0.  1.
         11    1    3    3    0    0 -0.35505778284E+01  0.10235373439E+01  0.10507969807E+02  0.11138745950E+02  0.51100000000E-03 0. -1.
        -11    1    3    3    0    0  0.64359504983E+01  0.13929230179E+02  0.29993905260E+01  0.15634617231E+02  0.51100000000E-03 0.  1.
        -12    1    3    3    0    0  0.22746347369E+02  0.13418175019E+01 -0.23214380246E+02  0.32528514307E+02  0.00000000000E+00 0.  1.
</event>
<event>
 7    1  0.6285940E-013  0.5930191E+02  0.7816164E-02  0.1266605E+00
        -11   -1    0    0    0    0  0.00000000000E+00  0.00000000000E+00  0.45593999997E+02  0.45594000000E+02  0.51100000000E-03 0.  1.
         11   -1    0    0    0    0 -0.00000000000E+00 -0.00000000000E+00 -0.45593999997E+02  0.45594000000E+02  0.51100000000E-03 0. -1.
    9900012    2    1    2    0    0 -0.13995542232E+02  0.15184172604E+02 -0.24295855327E+02  0.59301907638E+02  0.49999933634E+02 0.  0.
        -12    1    1    2    0    0  0.13995542232E+02 -0.15184172604E+02  0.24295855327E+02  0.31886092362E+02  0.00000000000E+00 0.  1.
         11    1    3    3    0    0 -0.12384937472E+02 -0.96893083961E+01 -0.19084742929E+02  0.24728461058E+02  0.51100000000E-03 0. -1.
        -11    1    3    3    0    0  0.74883047287E+01  0.13604429069E+01 -0.54485958296E+01  0.93601660983E+01  0.51100000000E-03 0.  1.
         12    1    3    3    0    0 -0.90989094888E+01  0.23513038093E+02  0.23748343131E+00  0.25213280482E+02  0.00000000000E+00 0. -1.
</event>
<event>
 7    1  0.6285940E-013  0.5930203E+02  0.7816164E-02  0.1266604E+00
        -11   -1    0    0    0    0  0.00000000000E+00  0.00000000000E+00  0.45593999997E+02  0.45594000000E+02  0.51100000000E-03 0. -1.
         11   -1    0    0    0    0 -0.00000000000E+00 -0.00000000000E+00 -0.45593999997E+02  0.45594000000E+02  0.51100000000E-03 0.  1.
    9900012    2    1    2    0    0  0.27853079033E+02 -0.10068254950E+02  0.11813173845E+02  0.59302033719E+02  0.50000163576E+02 0.  0.
        -12    1    1    2    0    0 -0.27853079033E+02  0.10068254950E+02 -0.11813173845E+02  0.31885966281E+02  0.00000000000E+00 0.  1.
         11    1    3    3    0    0  0.11487947134E+02 -0.49400099553E+01 -0.35744612142E+00  0.12510171690E+02  0.51100000000E-03 0. -1.
        -11    1    3    3    0    0  0.82216437955E+01 -0.76962885925E+01 -0.14745269296E+02  0.18554009045E+02  0.51100000000E-03 0.  1.
         12    1    3    3    0    0  0.81434881038E+01  0.25680435979E+01  0.26915889262E+02  0.28237852984E+02  0.00000000000E+00 0. -1.
</event>
<event>
 7    1  0.6285940E-013  0.5930198E+02  0.7816164E-02  0.1266605E+00
        -11   -1    0    0    0    0  0.00000000000E+00  0.00000000000E+00  0.45593999997E+02  0.45594000000E+02  0.51100000000E-03 0.  1.
         11   -1    0    0    0    0 -0.00000000000E+00 -0.00000000000E+00 -0.45593999997E+02  0.45594000000E+02  0.51100000000E-03 0. -1.
    9900012    2    1    2    0    0  0.14081744965E+02 -0.46229675070E+01 -0.28232085078E+02  0.59301984293E+02  0.50000073434E+02 0.  0.
        -12    1    1    2    0    0 -0.14081744965E+02  0.46229675070E+01  0.28232085078E+02  0.31886015707E+02  0.00000000000E+00 0.  1.
         11    1    3    3    0    0 -0.17350184843E+01  0.10021830239E+02 -0.87208144515E+01  0.13397760090E+02  0.51100000000E-03 0. -1.
        -11    1    3    3    0    0 -0.97571058832E+01  0.15838106452E+01 -0.10230531708E+02  0.14225798770E+02  0.51100000000E-03 0.  1.
         12    1    3    3    0    0  0.25573869333E+02 -0.16228608391E+02 -0.92807389187E+01  0.31678425432E+02  0.00000000000E+00 0. -1.
</event>
<event>
 7    1  0.6285940E-013  0.5930193E+02  0.7816164E-02  0.1266605E+00
        -11   -1    0    0    0    0  0.00000000000E+00  0.00000000000E+00  0.45593999997E+02  0.45594000000E+02  0.51100000000E-03 0. -1.
         11   -1    0    0    0    0 -0.00000000000E+00 -0.00000000000E+00 -0.45593999997E+02  0.45594000000E+02  0.51100000000E-03 0.  1.
    9900012    2    1    2    0    0  0.95459059982E+01  0.17894049003E+02  0.24604885973E+02  0.59301925848E+02  0.49999966845E+02 0.  0.
        -12    1    1    2    0    0 -0.95459059982E+01 -0.17894049003E+02 -0.24604885973E+02  0.31886074152E+02  0.00000000000E+00 0.  1.
         11    1    3    3    0    0 -0.13201748465E+02  0.15222066843E+02  0.20517733840E+02  0.28757170996E+02  0.51100000000E-03 0. -1.
        -11    1    3    3    0    0  0.44364578915E+00 -0.23553384931E+01  0.70906342601E+01  0.74847535347E+01  0.51100000000E-03 0.  1.
        -12    1    3    3    0    0  0.22304008674E+02  0.50273206534E+01 -0.30034821266E+01  0.23060001318E+02  0.00000000000E+00 0.  1.
</event>
<event>
 7    1  0.6285940E-013  0.5930189E+02  0.7816164E-02  0.1266605E+00
        -11   -1    0    0    0    0  0.00000000000E+00  0.00000000000E+00  0.45593999997E+02  0.45594000000E+02  0.51100000000E-03 0.  1.
         11   -1    0    0    0    0 -0.00000000000E+00 -0.00000000000E+00 -0.45593999997E+02  0.45594000000E+02  0.51100000000E-03 0. -1.
    9900012    2    1    2    0    0 -0.27407048889E+02  0.16172753165E+02 -0.20049556948E+01  0.59301888273E+02  0.49999898316E+02 0.  0.
        -12    1    1    2    0    0  0.27407048889E+02 -0.16172753165E+02  0.20049556948E+01  0.31886111727E+02  0.00000000000E+00 0.  1.
         11    1    3    3    0    0 -0.24776631077E+02  0.16337659918E+02 -0.13021231256E+02  0.32409150602E+02  0.51100000000E-03 0. -1.
        -11    1    3    3    0    0 -0.11025176067E+02 -0.67043037031E+01  0.22340895509E+01  0.13095547023E+02  0.51100000000E-03 0.  1.
        -12    1    3    3    0    0  0.83947582552E+01  0.65393969508E+01  0.87821860098E+01  0.13797190647E+02  0.00000000000E+00 0.  1.
</event>
<event>
 7    1  0.6285940E-013  0.5930195E+02  0.7816164E-02  0.1266605E+00
        -11   -1    0    0    0    0  0.00000000000E+00  0.00000000000E+00  0.45593999997E+02  0.45594000000E+02  0.51100000000E-03 0.  1.
         11   -1    0    0    0    0 -0.00000000000E+00 -0.00000000000E+00 -0.45593999997E+02  0.45594000000E+02  0.51100000000E-03 0. -1.
    9900012    2    1    2    0    0 -0.40470275492E+01  0.83255821290E+01 -0.30512726609E+02  0.59301949212E+02  0.50000009455E+02 0.  0.
        -12    1    1    2    0    0  0.40470275492E+01 -0.83255821290E+01  0.30512726609E+02  0.31886050788E+02  0.00000000000E+00 0.  1.
         11    1    3    3    0    0 -0.39732817851E+01  0.18901754577E+02 -0.15759657321E+01  0.19379034095E+02  0.51100000000E-03 0. -1.
        -11    1    3    3    0    0 -0.83028306426E+01  0.32234177785E+01 -0.29725443312E+01  0.93895388021E+01  0.51100000000E-03 0.  1.
         12    1    3    3    0    0  0.82290848785E+01 -0.13799590226E+02 -0.25964216545E+02  0.30533376314E+02  0.00000000000E+00 0. -1.
</event>
<event>
 7    1  0.6285940E-013  0.5930192E+02  0.7816164E-02  0.1266605E+00
        -11   -1    0    0    0    0  0.00000000000E+00  0.00000000000E+00  0.45593999997E+02  0.45594000000E+02  0.51100000000E-03 0. -1.
         11   -1    0    0    0    0 -0.00000000000E+00 -0.00000000000E+00 -0.45593999997E+02  0.45594000000E+02  0.51100000000E-03 0.  1.
    9900012    2    1    2    0    0  0.64124610310E+01  0.29791484677E+02 -0.93845694771E+01  0.59301915888E+02  0.49999948680E+02 0.  0.
        -12    1    1    2    0    0 -0.64124610310E+01 -0.29791484677E+02  0.93845694771E+01  0.31886084112E+02  0.00000000000E+00 0.  1.
         11    1    3    3    0    0  0.14134140422E+02  0.10556639054E+01 -0.48747138779E+01  0.14988368404E+02  0.51100000000E-03 0. -1.
        -11    1    3    3    0    0  0.12225314879E+02  0.98821380479E+01  0.26649138378E+01  0.15944175811E+02  0.51100000000E-03 0.  1.
         12    1    3    3    0    0 -0.19946994270E+02  0.18853682724E+02 -0.71747694370E+01  0.28369371673E+02  0.00000000000E+00 0. -1.
</event>
<event>
 7    1  0.6285940E-013  0.5930194E+02  0.7816164E-02  0.1266605E+00
        -11   -1    0    0    0    0  0.00000000000E+00  0.00000000000E+00  0.45593999997E+02  0.45594000000E+02  0.51100000000E-03 0.  1.
         11   -1    0    0    0    0 -0.00000000000E+00 -0.00000000000E+00 -0.45593999997E+02  0.45594000000E+02  0.51100000000E-03 0. -1.
    9900012    2    1    2    0    0  0.38540097531E+01  0.25234620194E+02 -0.19107095805E+02  0.59301944151E+02  0.50000000225E+02 0.  0.
        -12    1    1    2    0    0 -0.38540097531E+01 -0.25234620194E+02  0.19107095805E+02  0.31886055849E+02  0.00000000000E+00 0.  1.
         11    1    3    3    0    0 -0.13191122200E+01 -0.12906643779E+01  0.40627913594E+01  0.44623027101E+01  0.51100000000E-03 0. -1.
        -11    1    3    3    0    0  0.14123074698E+01 -0.84541076212E+01  0.48639918939E+01  0.98551999201E+01  0.51100000000E-03 0.  1.
         12    1    3    3    0    0  0.37608145033E+01  0.34979392193E+02 -0.28033879058E+02  0.44984441521E+02  0.00000000000E+00 0. -1.
</event>
<event>
 7    1  0.6285940E-013  0.5930193E+02  0.7816164E-02  0.1266605E+00
        -11   -1    0    0    0    0  0.00000000000E+00  0.00000000000E+00  0.45593999997E+02  0.45594000000E+02  0.51100000000E-03 0.  1.
         11   -1    0    0    0    0 -0.00000000000E+00 -0.00000000000E+00 -0.45593999997E+02  0.45594000000E+02  0.51100000000E-03 0. -1.
    9900012    2    1    2    0    0  0.30974302564E+01 -0.31670647472E+02 -0.20242058338E+01  0.59301931024E+02  0.49999976284E+02 0.  0.
        -12    1    1    2    0    0 -0.30974302564E+01  0.31670647472E+02  0.20242058338E+01  0.31886068976E+02  0.00000000000E+00 0.  1.
         11    1    3    3    0    0 -0.90256460893E+00 -0.21076014051E+02 -0.87965317300E+01  0.22855895561E+02  0.51100000000E-03 0. -1.
        -11    1    3    3    0    0  0.11565876638E+02 -0.13444549218E+02  0.16204439682E+02  0.24023098713E+02  0.51100000000E-03 0.  1.
         12    1    3    3    0    0 -0.75658817726E+01  0.28499157969E+01 -0.94321137858E+01  0.12422936751E+02  0.00000000000E+00 0. -1.
</event>
<event>
 7    1  0.6285940E-013  0.5930195E+02  0.7816164E-02  0.1266605E+00
        -11   -1    0    0    0    0  0.00000000000E+00  0.00000000000E+00  0.45593999997E+02  0.45594000000E+02  0.51100000000E-03 0. -1.
         11   -1    0    0    0    0 -0.00000000000E+00 -0.00000000000E+00 -0.45593999997E+02  0.45594000000E+02  0.51100000000E-03 0.  1.
    9900012    2    1    2    0    0  0.11747676524E+01  0.72399732618E+00  0.31856175533E+02  0.59301950217E+02  0.50000011288E+02 0.  0.
        -12    1    1    2    0    0 -0.11747676524E+01 -0.72399732618E+00 -0.31856175533E+02  0.31886049783E+02  0.00000000000E+00 0.  1.
         11    1    3    3    0    0  0.10197188329E+02  0.30509975503E+01  0.16879784263E+02  0.19955409113E+02  0.51100000000E-03 0. -1.
        -11    1    3    3    0    0 -0.20058777511E+01 -0.17629031957E+02  0.13788574466E+02  0.22470671983E+02  0.51100000000E-03 0.  1.
         12    1    3    3    0    0 -0.70165429258E+01  0.15302031733E+02  0.11878168045E+01  0.16875869120E+02  0.00000000000E+00 0. -1.
</event>
<event>
 7    1  0.6285940E-013  0.5930194E+02  0.7816164E-02  0.1266605E+00
        -11   -1    0    0    0    0  0.00000000000E+00  0.00000000000E+00  0.45593999997E+02  0.45594000000E+02  0.51100000000E-03 0.  1.
         11   -1    0    0    0    0 -0.00000000000E+00 -0.00000000000E+00 -0.45593999997E+02  0.45594000000E+02  0.51100000000E-03 0. -1.
    9900012    2    1    2    0    0 -0.44580088020E+01 -0.53983814673E+01 -0.31107945390E+02  0.59301942995E+02  0.49999998117E+02 0.  0.
        -12    1    1    2    0    0  0.44580088020E+01  0.53983814673E+01  0.31107945390E+02  0.31886057005E+02  0.00000000000E+00 0.  1.
         11    1    3    3    0    0 -0.89612828019E+00  0.83191697688E+01  0.34929102921E+01  0.90670863074E+01  0.51100000000E-03 0. -1.
        -11    1    3    3    0    0  0.62522216630E+01 -0.28296108353E+01  0.46810364665E+01  0.83071701478E+01  0.51100000000E-03 0.  1.
         12    1    3    3    0    0 -0.98141021848E+01 -0.10887940401E+02 -0.39281892148E+02  0.41927686540E+02  0.00000000000E+00 0. -1.
</event>
<event>
 7    1  0.6285940E-013  0.5930196E+02  0.7816164E-02  0.1266605E+00
        -11   -1    0    0    0    0  0.00000000000E+00  0.00000000000E+00  0.45593999997E+02  0.45594000000E+02  0.51100000000E-03 0. -1.
         11   -1    0    0    0    0 -0.00000000000E+00 -0.00000000000E+00 -0.45593999997E+02  0.45594000000E+02  0.51100000000E-03 0.  1.
    9900012    2    1    2    0    0  0.25006932254E+02  0.95299960131E+01  0.17336440139E+02  0.59301958517E+02  0.50000026424E+02 0.  0.
        -12    1    1    2    0    0 -0.25006932254E+02 -0.95299960131E+01 -0.17336440139E+02  0.31886041483E+02  0.00000000000E+00 0.  1.
         11    1    3    3    0    0 -0.62125955483E+01  0.89181259092E+00  0.19272847888E+02  0.20269048796E+02  0.51100000000E-03 0. -1.
        -11    1    3    3    0    0  0.22382091273E+02 -0.27459658712E+01  0.49089338051E+01  0.23078040854E+02  0.51100000000E-03 0.  1.
        -12    1    3    3    0    0  0.88374365300E+01  0.11384149293E+02 -0.68453415536E+01  0.15954868866E+02  0.00000000000E+00 0.  1.
</event>
<event>
 7    1  0.6285940E-013  0.5930195E+02  0.7816164E-02  0.1266605E+00
        -11   -1    0    0    0    0  0.00000000000E+00  0.00000000000E+00  0.45593999997E+02  0.45594000000E+02  0.51100000000E-03 0.  1.
         11   -1    0    0    0    0 -0.00000000000E+00 -0.00000000000E+00 -0.45593999997E+02  0.45594000000E+02  0.51100000000E-03 0. -1.
    9900012    2    1    2    0    0 -0.16240532431E+02 -0.18097345576E+02 -0.20626465393E+02  0.59301954695E+02  0.50000019455E+02 0.  0.
        -12    1    1    2    0    0  0.16240532431E+02  0.18097345576E+02  0.20626465393E+02  0.31886045305E+02  0.00000000000E+00 0.  1.
         11    1    3    3    0    0 -0.68644757962E+00 -0.12476666476E+02 -0.84780854462E+01  0.15100210254E+02  0.51100000000E-03 0. -1.
        -11    1    3    3    0    0 -0.27428700226E+01 -0.39580290594E+01 -0.25307271020E+02  0.25761352774E+02  0.51100000000E-03 0.  1.
         12    1    3    3    0    0 -0.12811214829E+02 -0.16626500412E+01  0.13158891073E+02  0.18440391667E+02  0.00000000000E+00 0. -1.
</event>
<event>
 7    1  0.6285940E-013  0.5930195E+02  0.7816164E-02  0.1266605E+00
        -11   -1    0    0    0    0  0.00000000000E+00  0.00000000000E+00  0.45593999997E+02  0.45594000000E+02  0.51100000000E-03 0.  1.
         11   -1    0    0    0    0 -0.00000000000E+00 -0.00000000000E+00 -0.45593999997E+02  0.45594000000E+02  0.51100000000E-03 0. -1.
    9900012    2    1    2    0    0 -0.80832905562E+01  0.17904282320E+02 -0.25116080509E+02  0.59301946438E+02  0.50000004396E+02 0.  0.
        -12    1    1    2    0    0  0.80832905562E+01 -0.17904282320E+02  0.25116080509E+02  0.31886053562E+02  0.00000000000E+00 0.  1.
         11    1    3    3    0    0 -0.25331426552E+02  0.21264101539E+01 -0.15354135819E+01  0.25466846809E+02  0.51100000000E-03 0. -1.
        -11    1    3    3    0    0  0.56119655009E+01  0.60353570115E+01 -0.12784165131E+02  0.15210344158E+02  0.51100000000E-03 0.  1.
        -12    1    3    3    0    0  0.11636170494E+02  0.97425151545E+01 -0.10796501796E+02  0.18624755471E+02  0.00000000000E+00 0.  1.
</event>
<event>
 7    1  0.6285940E-013  0.5930200E+02  0.7816164E-02  0.1266605E+00
        -11   -1    0    0    0    0  0.00000000000E+00  0.00000000000E+00  0.45593999997E+02  0.45594000000E+02  0.51100000000E-03 0.  1.
         11   -1    0    0    0    0 -0.00000000000E+00 -0.00000000000E+00 -0.45593999997E+02  0.45594000000E+02  0.51100000000E-03 0. -1.
    9900012    2    1    2    0    0  0.31364124706E+02  0.57198090866E+01 -0.54090026532E+00  0.59301998250E+02  0.50000098888E+02 0.  0.
        -12    1    1    2    0    0 -0.31364124706E+02 -0.57198090866E+01  0.54090026532E+00  0.31886001750E+02  0.00000000000E+00 0.  1.
         11    1    3    3    0    0 -0.15044314179E+01 -0.12984134206E+01 -0.93594712665E+01  0.95681186213E+01  0.51100000000E-03 0. -1.
        -11    1    3    3    0    0  0.10538911308E+02 -0.79979201824E+01 -0.10264555746E+02  0.16745043557E+02  0.51100000000E-03 0.  1.
         12    1    3    3    0    0  0.22329644815E+02  0.15016142690E+02  0.19083126748E+02  0.32988836071E+02  0.00000000000E+00 0. -1.
</event>
<event>
 7    1  0.6285940E-013  0.5930193E+02  0.7816164E-02  0.1266605E+00
        -11   -1    0    0    0    0  0.00000000000E+00  0.00000000000E+00  0.45593999997E+02  0.45594000000E+02  0.51100000000E-03 0. -1.
         11   -1    0    0    0    0 -0.00000000000E+00 -0.00000000000E+00 -0.45593999997E+02  0.45594000000E+02  0.51100000000E-03 0.  1.
    9900012    2    1    2    0    0 -0.26533902897E+02 -0.12778722742E+02  0.12222011368E+02  0.59301932200E+02  0.49999978428E+02 0.  0.
        -12    1    1    2    0    0  0.26533902897E+02  0.12778722742E+02 -0.12222011368E+02  0.31886067800E+02  0.00000000000E+00 0.  1.
         11    1    3    3    0    0 -0.14527476535E+02  0.42919584338E+01  0.10946349081E+02  0.18689329580E+02  0.51100000000E-03 0. -1.
        -11    1    3    3    0    0  0.34223979033E+01 -0.17751301912E+02  0.12099368193E+02  0.21753533917E+02  0.51100000000E-03 0.  1.
         12    1    3    3    0    0 -0.15428824266E+02  0.68062073578E+00 -0.10823705905E+02  0.18859068703E+02  0.00000000000E+00 0. -1.
</event>
<event>
 7    1  0.6285940E-013  0.5930196E+02  0.7816164E-02  0.1266605E+00
        -11   -1    0    0    0    0  0.00000000000E+00  0.00000000000E+00  0.45593999997E+02  0.45594000000E+02  0.51100000000E-03 0.  1.
         11   -1    0    0    0    0 -0.00000000000E+00 -0.00000000000E+00 -0.45593999997E+02  0.45594000000E+02  0.51100000000E-03 0. -1.
    9900012    2    1    2    0    0  0.98787180734E+01 -0.76474785801E+01 -0.29336781729E+02  0.59301956633E+02  0.50000022988E+02 0.  0.
        -12    1    1    2    0    0 -0.98787180734E+01  0.76474785801E+01  0.29336781729E+02  0.31886043367E+02  0.00000000000E+00 0.  1.
         11    1    3    3    0    0  0.87813262653E+01  0.33263643774E+01 -0.15764082347E+02  0.18348915048E+02  0.51100000000E-03 0. -1.
        -11    1    3    3    0    0  0.22618032612E+01  0.81007332046E+01  0.83628961699E+01  0.11860677259E+02  0.51100000000E-03 0.  1.
        -12    1    3    3    0    0 -0.11644114531E+01 -0.19074576162E+02 -0.21935595552E+02  0.29092364325E+02  0.00000000000E+00 0.  1.
</event>
<event>
 7    1  0.6285940E-013  0.5930195E+02  0.7816164E-02  0.1266605E+00
        -11   -1    0    0    0    0  0.00000000000E+00  0.00000000000E+00  0.45593999997E+02  0.45594000000E+02  0.51100000000E-03 0. -1.
         11   -1    0    0    0    0 -0.00000000000E+00 -0.00000000000E+00 -0.45593999997E+02  0.45594000000E+02  0.51100000000E-03 0.  1.
    9900012    2    1    2    0    0  0.30656962241E+02 -0.61234351166E+01  0.62748955128E+01  0.59301951246E+02  0.50000013164E+02 0.  0.
        -12    1    1    2    0    0 -0.30656962241E+02  0.61234351166E+01 -0.62748955128E+01  0.31886048754E+02  0.00000000000E+00 0.  1.
         11    1    3    3    0    0  0.31825621555E+01  0.55595316483E+01  0.42142434361E+01  0.76679164068E+01  0.51100000000E-03 0.  1.
        -11    1    3    3    0    0  0.34824500479E+02 -0.18306522631E+02  0.79238504884E+01  0.40133053849E+02  0.51100000000E-03 0. -1.
         12    1    3    3    0    0 -0.73501003939E+01  0.66235558660E+01 -0.58631984117E+01  0.11500980990E+02  0.00000000000E+00 0. -1.
</event>
<event>
 7    1  0.6285940E-013  0.5930186E+02  0.7816164E-02  0.1266605E+00
        -11   -1    0    0    0    0  0.00000000000E+00  0.00000000000E+00  0.45593999997E+02  0.45594000000E+02  0.51100000000E-03 0.  1.
         11   -1    0    0    0    0 -0.00000000000E+00 -0.00000000000E+00 -0.45593999997E+02  0.45594000000E+02  0.51100000000E-03 0. -1.
    9900012    2    1    2    0    0 -0.48701111831E+01  0.28798032381E+02 -0.12793793991E+02  0.59301861685E+02  0.49999849826E+02 0.  0.
        -12    1    1    2    0    0  0.48701111831E+01 -0.28798032381E+02  0.12793793991E+02  0.31886138315E+02  0.00000000000E+00 0.  1.
         11    1    3    3    0    0 -0.88693813472E+01 -0.39332944717E+01 -0.31184576300E+01  0.10191246692E+02  0.51100000000E-03 0. -1.
        -11    1    3    3    0    0  0.69143061030E+00 -0.73097434274E+01  0.13101916975E+01  0.74583528885E+01  0.51100000000E-03 0.  1.
        -12    1    3    3    0    0  0.33078395538E+01  0.40041070280E+02 -0.10985528059E+02  0.41652262105E+02  0.00000000000E+00 0.  1.
</event>
<event>
 7    1  0.1165431E-012  0.5930185E+02  0.7816164E-02  0.1266605E+00
        -11   -1    0    0    0    0  0.00000000000E+00  0.00000000000E+00  0.45593999997E+02  0.45594000000E+02  0.51100000000E-03 0. -1.
         11   -1    0    0    0    0 -0.00000000000E+00 -0.00000000000E+00 -0.45593999997E+02  0.45594000000E+02  0.51100000000E-03 0.  1.
    9900012    2    1    2    0    0  0.20969772721E+02  0.21012402899E+02  0.11639322888E+02  0.59301854406E+02  0.49999836551E+02 0.  0.
        -12    1    1    2    0    0 -0.20969772721E+02 -0.21012402899E+02 -0.11639322888E+02  0.31886145594E+02  0.00000000000E+00 0.  1.
         11    1    3    3    0    0  0.17019692021E+02  0.17883045719E+02  0.21033188944E+02  0.32432518837E+02  0.51100000000E-03 0. -1.
        -11    1    3    3    0    0  0.61290226172E+01  0.13126664828E+02 -0.79817914129E+01  0.16540351936E+02  0.51100000000E-03 0.  1.
        -12    1    3    3    0    0 -0.21789419177E+01 -0.99973076482E+01 -0.14120746425E+01  0.10328983633E+02  0.00000000000E+00 0.  1.
</event>
<event>
 7    1  0.6285940E-013  0.5930196E+02  0.7816164E-02  0.1266605E+00
        -11   -1    0    0    0    0  0.00000000000E+00  0.00000000000E+00  0.45593999997E+02  0.45594000000E+02  0.51100000000E-03 0. -1.
         11   -1    0    0    0    0 -0.00000000000E+00 -0.00000000000E+00 -0.45593999997E+02  0.45594000000E+02  0.51100000000E-03 0.  1.
    9900012    2    1    2    0    0 -0.30671686745E+02  0.44285638239E+01  0.75070117861E+01  0.59301956481E+02  0.50000022712E+02 0.  0.
        -12    1    1    2    0    0  0.30671686745E+02 -0.44285638239E+01 -0.75070117861E+01  0.31886043519E+02  0.00000000000E+00 0.  1.
         11    1    3    3    0    0 -0.11634329524E+02  0.10147163449E+01 -0.14205413632E+02  0.18389699547E+02  0.51100000000E-03 0. -1.
        -11    1    3    3    0    0 -0.72071928463E+01  0.15178718976E+02  0.55829439398E+01  0.17706111989E+02  0.51100000000E-03 0.  1.
        -12    1    3    3    0    0 -0.11830164375E+02 -0.11764871496E+02  0.16129481478E+02  0.23206144945E+02  0.00000000000E+00 0.  1.
</event>
<event>
 7    1  0.6285940E-013  0.5930193E+02  0.7816164E-02  0.1266605E+00
        -11   -1    0    0    0    0  0.00000000000E+00  0.00000000000E+00  0.45593999997E+02  0.45594000000E+02  0.51100000000E-03 0.  1.
         11   -1    0    0    0    0 -0.00000000000E+00 -0.00000000000E+00 -0.45593999997E+02  0.45594000000E+02  0.51100000000E-03 0. -1.
    9900012    2    1    2    0    0 -0.23810022395E+02  0.20889980279E+02 -0.36623357043E+01  0.59301934935E+02  0.49999983418E+02 0.  0.
        -12    1    1    2    0    0  0.23810022395E+02 -0.20889980279E+02  0.36623357043E+01  0.31886065065E+02  0.00000000000E+00 0.  1.
         11    1    3    3    0    0 -0.14991179808E+01 -0.36360880486E+01  0.27147949193E+01  0.47789750713E+01  0.51100000000E-03 0. -1.
        -11    1    3    3    0    0  0.48401377422E+01  0.15264255718E+02  0.12386018278E+02  0.20244453192E+02  0.51100000000E-03 0.  1.
         12    1    3    3    0    0 -0.27151042156E+02  0.92618126095E+01 -0.18763148902E+02  0.34278506672E+02  0.00000000000E+00 0. -1.
</event>
<event>
 7    1  0.6285940E-013  0.5930195E+02  0.7816164E-02  0.1266605E+00
        -11   -1    0    0    0    0  0.00000000000E+00  0.00000000000E+00  0.45593999997E+02  0.45594000000E+02  0.51100000000E-03 0.  1.
         11   -1    0    0    0    0 -0.00000000000E+00 -0.00000000000E+00 -0.45593999997E+02  0.45594000000E+02  0.51100000000E-03 0. -1.
    9900012    2    1    2    0    0  0.44954751319E+01  0.22402024437E+02  0.22240955445E+02  0.59301951411E+02  0.50000013465E+02 0.  0.
        -12    1    1    2    0    0 -0.44954751319E+01 -0.22402024437E+02 -0.22240955445E+02  0.31886048589E+02  0.00000000000E+00 0.  1.
         11    1    3    3    0    0 -0.71640565995E+01  0.20100828249E+02  0.54528296274E+01  0.22024993858E+02  0.51100000000E-03 0. -1.
        -11    1    3    3    0    0 -0.10086325324E+02  0.49084122667E+01  0.74615213730E+01  0.13472222199E+02  0.51100000000E-03 0.  1.
         12    1    3    3    0    0  0.21745857056E+02 -0.26072160783E+01  0.93266044442E+01  0.23804735353E+02  0.00000000000E+00 0. -1.
</event>
<event>
 7    1  0.6285940E-013  0.5930180E+02  0.7816164E-02  0.1266605E+00
        -11   -1    0    0    0    0  0.00000000000E+00  0.00000000000E+00  0.45593999997E+02  0.45594000000E+02  0.51100000000E-03 0. -1.
         11   -1    0    0    0    0 -0.00000000000E+00 -0.00000000000E+00 -0.45593999997E+02  0.45594000000E+02  0.51100000000E-03 0.  1.
    9900012    2    1    2    0    0 -0.18115328031E+02  0.35369808380E+01  0.26001046680E+02  0.59301799668E+02  0.49999736722E+02 0.  0.
        -12    1    1    2    0    0  0.18115328031E+02 -0.35369808380E+01 -0.26001046680E+02  0.31886200332E+02  0.00000000000E+00 0.  1.
         11    1    3    3    0    0  0.23011217793E+00  0.95022558168E+01  0.63820864793E+01  0.11448879653E+02  0.51100000000E-03 0.  1.
        -11    1    3    3    0    0  0.35239408081E+01  0.12817021076E+02  0.57963892613E+00  0.13305268492E+02  0.51100000000E-03 0. -1.
         12    1    3    3    0    0 -0.21869381017E+02 -0.18782296055E+02  0.19039321275E+02  0.34547651523E+02  0.00000000000E+00 0. -1.
</event>
<event>
 7    1  0.6285940E-013  0.5930201E+02  0.7816164E-02  0.1266605E+00
        -11   -1    0    0    0    0  0.00000000000E+00  0.00000000000E+00  0.45593999997E+02  0.45594000000E+02  0.51100000000E-03 0. -1.
         11   -1    0    0    0    0 -0.00000000000E+00 -0.00000000000E+00 -0.45593999997E+02  0.45594000000E+02  0.51100000000E-03 0.  1.
    9900012    2    1    2    0    0 -0.46901333415E+01 -0.16726801477E+01  0.31494777577E+02  0.59302012101E+02  0.50000124150E+02 0.  0.
        -12    1    1    2    0    0  0.46901333415E+01  0.16726801477E+01 -0.31494777577E+02  0.31885987899E+02  0.00000000000E+00 0.  1.
         11    1    3    3    0    0 -0.59817291919E+01  0.63695251473E+01  0.88535628142E+01  0.12439353259E+02  0.51100000000E-03 0. -1.
        -11    1    3    3    0    0  0.99536484527E+01  0.54854424318E+01  0.27765813340E+02  0.30001759730E+02  0.51100000000E-03 0.  1.
         12    1    3    3    0    0 -0.86620526023E+01 -0.13527647727E+02 -0.51245985772E+01  0.16860899113E+02  0.00000000000E+00 0. -1.
</event>
<event>
 7    1  0.6285940E-013  0.5930194E+02  0.7816164E-02  0.1266605E+00
        -11   -1    0    0    0    0  0.00000000000E+00  0.00000000000E+00  0.45593999997E+02  0.45594000000E+02  0.51100000000E-03 0.  1.
         11   -1    0    0    0    0 -0.00000000000E+00 -0.00000000000E+00 -0.45593999997E+02  0.45594000000E+02  0.51100000000E-03 0. -1.
    9900012    2    1    2    0    0 -0.17600932727E+02 -0.45651719147E+01 -0.26193261206E+02  0.59301944112E+02  0.50000000154E+02 0.  0.
        -12    1    1    2    0    0  0.17600932727E+02  0.45651719147E+01  0.26193261206E+02  0.31886055888E+02  0.00000000000E+00 0.  1.
         11    1    3    3    0    0 -0.23954076152E+02 -0.16905145272E+02 -0.23785935731E+02  0.37753840067E+02  0.51100000000E-03 0. -1.
        -11    1    3    3    0    0  0.15331750420E+01 -0.40491751815E+01 -0.44274704194E+00  0.43522948618E+01  0.51100000000E-03 0.  1.
        -12    1    3    3    0    0  0.48199683824E+01  0.16389148539E+02 -0.19645784327E+01  0.17195809183E+02  0.00000000000E+00 0.  1.
</event>
<event>
 7    1  0.6285940E-013  0.5930196E+02  0.7816164E-02  0.1266605E+00
        -11   -1    0    0    0    0  0.00000000000E+00  0.00000000000E+00  0.45593999997E+02  0.45594000000E+02  0.51100000000E-03 0.  1.
         11   -1    0    0    0    0 -0.00000000000E+00 -0.00000000000E+00 -0.45593999997E+02  0.45594000000E+02  0.51100000000E-03 0. -1.
    9900012    2    1    2    0    0  0.28330082393E+02 -0.10116395663E+01 -0.14598043342E+02  0.59301955209E+02  0.50000020392E+02 0.  0.
        -12    1    1    2    0    0 -0.28330082393E+02  0.10116395663E+01  0.14598043342E+02  0.31886044791E+02  0.00000000000E+00 0.  1.
         11    1    3    3    0    0  0.63401483722E+01 -0.38971596034E+01  0.54700723670E+01  0.92361802883E+01  0.51100000000E-03 0. -1.
        -11    1    3    3    0    0  0.21730843504E+02 -0.15986714511E+02 -0.12455062393E+02  0.29714191554E+02  0.51100000000E-03 0.  1.
         12    1    3    3    0    0  0.25909051719E+00  0.18872234548E+02 -0.76130533157E+01  0.20351583367E+02  0.00000000000E+00 0. -1.
</event>
<event>
 7    1  0.6285940E-013  0.5930191E+02  0.7816164E-02  0.1266605E+00
        -11   -1    0    0    0    0  0.00000000000E+00  0.00000000000E+00  0.45593999997E+02  0.45594000000E+02  0.51100000000E-03 0.  1.
         11   -1    0    0    0    0 -0.00000000000E+00 -0.00000000000E+00 -0.45593999997E+02  0.45594000000E+02  0.51100000000E-03 0. -1.
    9900012    2    1    2    0    0  0.10448016006E+02  0.23479075275E+02 -0.18875776475E+02  0.59301906609E+02  0.49999931757E+02 0.  0.
        -12    1    1    2    0    0 -0.10448016006E+02 -0.23479075275E+02  0.18875776475E+02  0.31886093391E+02  0.00000000000E+00 0.  1.
         11    1    3    3    0    0 -0.48758186950E+01  0.12170200343E+02  0.30347839814E+01  0.13457239629E+02  0.51100000000E-03 0. -1.
        -11    1    3    3    0    0  0.21636454993E+02  0.18802849538E+02 -0.98603536895E+01  0.30313526858E+02  0.51100000000E-03 0.  1.
        -12    1    3    3    0    0 -0.63126202925E+01 -0.74939746072E+01 -0.12050206767E+02  0.15531140122E+02  0.00000000000E+00 0.  1.
</event>
<event>
 7    1  0.6285940E-013  0.5930193E+02  0.7816164E-02  0.1266605E+00
        -11   -1    0    0    0    0  0.00000000000E+00  0.00000000000E+00  0.45593999997E+02  0.45594000000E+02  0.51100000000E-03 0. -1.
         11   -1    0    0    0    0 -0.00000000000E+00 -0.00000000000E+00 -0.45593999997E+02  0.45594000000E+02  0.51100000000E-03 0.  1.
    9900012    2    1    2    0    0 -0.17977554364E+02 -0.25532434075E+02  0.64516445831E+01  0.59301931435E+02  0.49999977033E+02 0.  0.
        -12    1    1    2    0    0  0.17977554364E+02  0.25532434075E+02 -0.64516445831E+01  0.31886068565E+02  0.00000000000E+00 0.  1.
         11    1    3    3    0    0 -0.24822116815E+02 -0.11786427998E+02  0.57806868186E+01  0.28079774010E+02  0.51100000000E-03 0. -1.
        -11    1    3    3    0    0 -0.59039601393E+01 -0.16350712454E+02 -0.31364764178E+01  0.17664654756E+02  0.51100000000E-03 0.  1.
        -12    1    3    3    0    0  0.12748522590E+02  0.26047063765E+01  0.38074341823E+01  0.13557502668E+02  0.00000000000E+00 0.  1.
</event>
<event>
 7    1  0.6285940E-013  0.5930195E+02  0.7816164E-02  0.1266605E+00
        -11   -1    0    0    0    0  0.00000000000E+00  0.00000000000E+00  0.45593999997E+02  0.45594000000E+02  0.51100000000E-03 0. -1.
         11   -1    0    0    0    0 -0.00000000000E+00 -0.00000000000E+00 -0.45593999997E+02  0.45594000000E+02  0.51100000000E-03 0.  1.
    9900012    2    1    2    0    0 -0.28197361462E+02  0.46316258295E+01  0.14148396031E+02  0.59301948794E+02  0.50000008693E+02 0.  0.
        -12    1    1    2    0    0  0.28197361462E+02 -0.46316258295E+01 -0.14148396031E+02  0.31886051206E+02  0.00000000000E+00 0.  1.
         11    1    3    3    0    0  0.87652316811E+01  0.26157990013E+01  0.60420667114E+01  0.10962584606E+02  0.51100000000E-03 0. -1.
        -11    1    3    3    0    0 -0.13412911885E+02  0.14791608477E+02  0.80989833106E+01  0.21547422526E+02  0.51100000000E-03 0.  1.
         12    1    3    3    0    0 -0.23549681258E+02 -0.12775781649E+02  0.73460088862E-02  0.26791941662E+02  0.00000000000E+00 0. -1.
</event>
<event>
 7    1  0.6285940E-013  0.5930200E+02  0.7816164E-02  0.1266605E+00
        -11   -1    0    0    0    0  0.00000000000E+00  0.00000000000E+00  0.45593999997E+02  0.45594000000E+02  0.51100000000E-03 0. -1.
         11   -1    0    0    0    0 -0.00000000000E+00 -0.00000000000E+00 -0.45593999997E+02  0.45594000000E+02  0.51100000000E-03 0.  1.
    9900012    2    1    2    0    0  0.12501565393E+02  0.12277565223E+02  0.26639998987E+02  0.59301995373E+02  0.50000093641E+02 0.  0.
        -12    1    1    2    0    0 -0.12501565393E+02 -0.12277565223E+02 -0.26639998987E+02  0.31886004627E+02  0.00000000000E+00 0.  1.
         11    1    3    3    0    0  0.64214727996E+01  0.50639445318E+01  0.27477361941E-01  0.81779950113E+01  0.51100000000E-03 0. -1.
        -11    1    3    3    0    0 -0.11932250109E+02 -0.34451097896E+01 -0.48523623979E+01  0.13333896476E+02  0.51100000000E-03 0.  1.
         12    1    3    3    0    0  0.18012342703E+02  0.10658730481E+02  0.31464884023E+02  0.37790103885E+02  0.00000000000E+00 0. -1.
</event>
<event>
 7    1  0.6285940E-013  0.5930193E+02  0.7816164E-02  0.1266605E+00
        -11   -1    0    0    0    0  0.00000000000E+00  0.00000000000E+00  0.45593999997E+02  0.45594000000E+02  0.51100000000E-03 0. -1.
         11   -1    0    0    0    0 -0.00000000000E+00 -0.00000000000E+00 -0.45593999997E+02  0.45594000000E+02  0.51100000000E-03 0.  1.
    9900012    2    1    2    0    0 -0.30565054528E+02  0.89771344181E+01 -0.13819586077E+01  0.59301932349E+02  0.49999978701E+02 0.  0.
        -12    1    1    2    0    0  0.30565054528E+02 -0.89771344181E+01  0.13819586077E+01  0.31886067651E+02  0.00000000000E+00 0.  1.
         11    1    3    3    0    0 -0.97306995905E-01 -0.14087005515E+02 -0.26116651582E+01  0.14327385951E+02  0.51100000000E-03 0. -1.
        -11    1    3    3    0    0  0.23180348090E+01  0.16881499646E+01 -0.45833279582E+01  0.54064804737E+01  0.51100000000E-03 0.  1.
         12    1    3    3    0    0 -0.32785782341E+02  0.21375989968E+02  0.58130345087E+01  0.39568065925E+02  0.00000000000E+00 0. -1.
</event>
<event>
 7    1  0.6285940E-013  0.5930195E+02  0.7816164E-02  0.1266605E+00
        -11   -1    0    0    0    0  0.00000000000E+00  0.00000000000E+00  0.45593999997E+02  0.45594000000E+02  0.51100000000E-03 0.  1.
         11   -1    0    0    0    0 -0.00000000000E+00 -0.00000000000E+00 -0.45593999997E+02  0.45594000000E+02  0.51100000000E-03 0. -1.
    9900012    2    1    2    0    0 -0.76770887453E+01  0.19075975881E+02 -0.24369845888E+02  0.59301953898E+02  0.50000018001E+02 0.  0.
        -12    1    1    2    0    0  0.76770887453E+01 -0.19075975881E+02  0.24369845888E+02  0.31886046102E+02  0.00000000000E+00 0.  1.
         11    1    3    3    0    0 -0.11493774346E+02 -0.70228856689E+01 -0.60177532541E+01  0.14752665059E+02  0.51100000000E-03 0.  1.
        -11    1    3    3    0    0  0.12647198606E+02  0.28064459348E+02 -0.10363236740E+02  0.32480181451E+02  0.51100000000E-03 0. -1.
         12    1    3    3    0    0 -0.88305130052E+01 -0.19655977989E+01 -0.79888558949E+01  0.12069107388E+02  0.00000000000E+00 0. -1.
</event>
<event>
 7    1  0.6285940E-013  0.5930185E+02  0.7816164E-02  0.1266605E+00
        -11   -1    0    0    0    0  0.00000000000E+00  0.00000000000E+00  0.45593999997E+02  0.45594000000E+02  0.51100000000E-03 0.  1.
         11   -1    0    0    0    0 -0.00000000000E+00 -0.00000000000E+00 -0.45593999997E+02  0.45594000000E+02  0.51100000000E-03 0. -1.
    9900012    2    1    2    0    0 -0.87736062189E+01  0.14013118664E+02 -0.27265050759E+02  0.59301848560E+02  0.49999825889E+02 0.  0.
        -12    1    1    2    0    0  0.87736062189E+01 -0.14013118664E+02  0.27265050759E+02  0.31886151440E+02  0.00000000000E+00 0.  1.
         11    1    3    3    0    0 -0.82986181948E+01 -0.14678424818E+01 -0.16781257958E+02  0.18778504850E+02  0.51100000000E-03 0. -1.
        -11    1    3    3    0    0  0.63870748026E+01 -0.63660582964E+01 -0.14693677940E+02  0.17240231856E+02  0.51100000000E-03 0.  1.
        -12    1    3    3    0    0 -0.68620628267E+01  0.21847019442E+02  0.42098851386E+01  0.23283111854E+02  0.00000000000E+00 0.  1.
</event>
<event>
 7    1  0.6285940E-013  0.5930196E+02  0.7816164E-02  0.1266605E+00
        -11   -1    0    0    0    0  0.00000000000E+00  0.00000000000E+00  0.45593999997E+02  0.45594000000E+02  0.51100000000E-03 0.  1.
         11   -1    0    0    0    0 -0.00000000000E+00 -0.00000000000E+00 -0.45593999997E+02  0.45594000000E+02  0.51100000000E-03 0. -1.
    9900012    2    1    2    0    0  0.25320730289E+01  0.49654764687E+01 -0.31395099489E+02  0.59301958817E+02  0.50000026972E+02 0.  0.
        -12    1    1    2    0    0 -0.25320730289E+01 -0.49654764687E+01  0.31395099489E+02  0.31886041183E+02  0.00000000000E+00 0.  1.
         11    1    3    3    0    0 -0.38732572503E+01  0.50353897372E+01 -0.35245225351E+01  0.72649522293E+01  0.51100000000E-03 0. -1.
        -11    1    3    3    0    0 -0.17355988025E+02 -0.40406120452E+00 -0.21107215047E+02  0.27329619702E+02  0.51100000000E-03 0.  1.
         12    1    3    3    0    0  0.23761318304E+02  0.33414793600E+00 -0.67633619077E+01  0.24707386885E+02  0.00000000000E+00 0. -1.
</event>
<event>
 7    1  0.6285940E-013  0.5930194E+02  0.7816164E-02  0.1266605E+00
        -11   -1    0    0    0    0  0.00000000000E+00  0.00000000000E+00  0.45593999997E+02  0.45594000000E+02  0.51100000000E-03 0. -1.
         11   -1    0    0    0    0 -0.00000000000E+00 -0.00000000000E+00 -0.45593999997E+02  0.45594000000E+02  0.51100000000E-03 0.  1.
    9900012    2    1    2    0    0  0.90960452382E+01 -0.24346456435E+02  0.18472487509E+02  0.59301940747E+02  0.49999994017E+02 0.  0.
        -12    1    1    2    0    0 -0.90960452382E+01  0.24346456435E+02 -0.18472487509E+02  0.31886059253E+02  0.00000000000E+00 0.  1.
         11    1    3    3    0    0  0.15590070164E+02 -0.17642203337E+02  0.10139231938E+02  0.25633994048E+02  0.51100000000E-03 0. -1.
        -11    1    3    3    0    0  0.10358939726E+02 -0.67707556014E+01 -0.37495866378E+01  0.12930976911E+02  0.51100000000E-03 0.  1.
        -12    1    3    3    0    0 -0.16852964652E+02  0.66502503662E-01  0.12082842208E+02  0.20736969788E+02  0.00000000000E+00 0.  1.
</event>
<event>
 7    1  0.6285940E-013  0.5930205E+02  0.7816164E-02  0.1266604E+00
        -11   -1    0    0    0    0  0.00000000000E+00  0.00000000000E+00  0.45593999997E+02  0.45594000000E+02  0.51100000000E-03 0. -1.
         11   -1    0    0    0    0 -0.00000000000E+00 -0.00000000000E+00 -0.45593999997E+02  0.45594000000E+02  0.51100000000E-03 0.  1.
    9900012    2    1    2    0    0 -0.74669425936E+01  0.21577083103E+02  0.22257314886E+02  0.59302049914E+02  0.50000193111E+02 0.  0.
        -12    1    1    2    0    0  0.74669425936E+01 -0.21577083103E+02 -0.22257314886E+02  0.31885950086E+02  0.00000000000E+00 0.  1.
         11    1    3    3    0    0 -0.39988049269E+00  0.19255257466E+02  0.13542301066E+02  0.23543975087E+02  0.51100000000E-03 0. -1.
        -11    1    3    3    0    0 -0.10357351716E+02  0.11657323165E+02  0.16840724509E+02  0.22951643083E+02  0.51100000000E-03 0.  1.
        -12    1    3    3    0    0  0.32902896149E+01 -0.93354975268E+01 -0.81257106893E+01  0.12806431745E+02  0.00000000000E+00 0.  1.
</event>
<event>
 7    1  0.6285940E-013  0.5930194E+02  0.7816164E-02  0.1266605E+00
        -11   -1    0    0    0    0  0.00000000000E+00  0.00000000000E+00  0.45593999997E+02  0.45594000000E+02  0.51100000000E-03 0. -1.
         11   -1    0    0    0    0 -0.00000000000E+00 -0.00000000000E+00 -0.45593999997E+02  0.45594000000E+02  0.51100000000E-03 0.  1.
    9900012    2    1    2    0    0  0.12572396195E+02 -0.28342101285E+02  0.74418299601E+01  0.59301942161E+02  0.49999996596E+02 0.  0.
        -12    1    1    2    0    0 -0.12572396195E+02  0.28342101285E+02 -0.74418299601E+01  0.31886057839E+02  0.00000000000E+00 0.  1.
         11    1    3    3    0    0  0.63504172291E+01 -0.98945884564E+01  0.44692519194E+00  0.11765645843E+02  0.51100000000E-03 0. -1.
        -11    1    3    3    0    0 -0.83113648724E+01 -0.19307464690E+02 -0.11530128714E+02  0.23975004634E+02  0.51100000000E-03 0.  1.
         12    1    3    3    0    0  0.14533343838E+02  0.85995186146E+00  0.18525033482E+02  0.23561291684E+02  0.00000000000E+00 0. -1.
</event>
<event>
 7    1  0.6285940E-013  0.5930193E+02  0.7816164E-02  0.1266605E+00
        -11   -1    0    0    0    0  0.00000000000E+00  0.00000000000E+00  0.45593999997E+02  0.45594000000E+02  0.51100000000E-03 0.  1.
         11   -1    0    0    0    0 -0.00000000000E+00 -0.00000000000E+00 -0.45593999997E+02  0.45594000000E+02  0.51100000000E-03 0. -1.
    9900012    2    1    2    0    0  0.27853038262E+02 -0.10553304075E+02  0.11382328817E+02  0.59301931308E+02  0.49999976803E+02 0.  0.
        -12    1    1    2    0    0 -0.27853038262E+02  0.10553304075E+02 -0.11382328817E+02  0.31886068692E+02  0.00000000000E+00 0.  1.
         11    1    3    3    0    0 -0.27801929785E+01  0.88381122213E+01  0.15076455261E+00  0.92663062137E+01  0.51100000000E-03 0. -1.
        -11    1    3    3    0    0  0.87380000978E+01 -0.79256217816E+01  0.20489497488E+02  0.23642919318E+02  0.51100000000E-03 0.  1.
         12    1    3    3    0    0  0.21895231143E+02 -0.11465794514E+02 -0.92579332236E+01  0.26392705777E+02  0.00000000000E+00 0. -1.
</event>
<event>
 7    1  0.6285940E-013  0.5930194E+02  0.7816164E-02  0.1266605E+00
        -11   -1    0    0    0    0  0.00000000000E+00  0.00000000000E+00  0.45593999997E+02  0.45594000000E+02  0.51100000000E-03 0. -1.
         11   -1    0    0    0    0 -0.00000000000E+00 -0.00000000000E+00 -0.45593999997E+02  0.45594000000E+02  0.51100000000E-03 0.  1.
    9900012    2    1    2    0    0 -0.24195642345E+02 -0.20469339081E+02  0.35068241530E+01  0.59301940875E+02  0.49999994250E+02 0.  0.
        -12    1    1    2    0    0  0.24195642345E+02  0.20469339081E+02 -0.35068241530E+01  0.31886059125E+02  0.00000000000E+00 0.  1.
         11    1    3    3    0    0  0.63001908224E+01 -0.12281079314E+02  0.23696922389E+01  0.14004740451E+02  0.51100000000E-03 0. -1.
        -11    1    3    3    0    0  0.21062197179E-02  0.36944481804E+01  0.10600247848E+02  0.11225604950E+02  0.51100000000E-03 0.  1.
        -12    1    3    3    0    0 -0.30497939387E+02 -0.11882707947E+02 -0.94631159334E+01  0.34071595474E+02  0.00000000000E+00 0.  1.
</event>
<event>
 7    1  0.6285940E-013  0.5930191E+02  0.7816164E-02  0.1266605E+00
        -11   -1    0    0    0    0  0.00000000000E+00  0.00000000000E+00  0.45593999997E+02  0.45594000000E+02  0.51100000000E-03 0. -1.
         11   -1    0    0    0    0 -0.00000000000E+00 -0.00000000000E+00 -0.45593999997E+02  0.45594000000E+02  0.51100000000E-03 0.  1.
    9900012    2    1    2    0    0  0.20079229214E+02 -0.23410357702E+02  0.80933469255E+01  0.59301912783E+02  0.49999943017E+02 0.  0.
        -12    1    1    2    0    0 -0.20079229214E+02  0.23410357702E+02 -0.80933469255E+01  0.31886087217E+02  0.00000000000E+00 0.  1.
         11    1    3    3    0    0 -0.65797290477E+01  0.10232412109E+02 -0.31966884948E+01  0.12578311075E+02  0.51100000000E-03 0. -1.
        -11    1    3    3    0    0  0.14875386307E+02 -0.27511704610E+02  0.38857968401E+01  0.31516193071E+02  0.51100000000E-03 0.  1.
        -12    1    3    3    0    0  0.11783571954E+02 -0.61310652012E+01  0.74042385802E+01  0.15207408637E+02  0.00000000000E+00 0.  1.
</event>
<event>
 7    1  0.6285940E-013  0.5930199E+02  0.7816164E-02  0.1266605E+00
        -11   -1    0    0    0    0  0.00000000000E+00  0.00000000000E+00  0.45593999997E+02  0.45594000000E+02  0.51100000000E-03 0.  1.
         11   -1    0    0    0    0 -0.00000000000E+00 -0.00000000000E+00 -0.45593999997E+02  0.45594000000E+02  0.51100000000E-03 0. -1.
    9900012    2    1    2    0    0  0.28546789189E+02 -0.14082751978E+02 -0.18639529448E+01  0.59301993714E+02  0.50000090616E+02 0.  0.
        -12    1    1    2    0    0 -0.28546789189E+02  0.14082751978E+02  0.18639529448E+01  0.31886006286E+02  0.00000000000E+00 0.  1.
         11    1    3    3    0    0  0.14080890337E+02  0.14377156399E+02  0.57654274883E+01  0.20933567617E+02  0.51100000000E-03 0. -1.
        -11    1    3    3    0    0  0.15153733236E+02 -0.81943485395E+01 -0.21291573296E+01  0.17358464511E+02  0.51100000000E-03 0.  1.
        -12    1    3    3    0    0 -0.68783438350E+00 -0.20265559838E+02 -0.55002231034E+01  0.21009961586E+02  0.00000000000E+00 0.  1.
</event>
<event>
 7    1  0.6285940E-013  0.5930198E+02  0.7816164E-02  0.1266605E+00
        -11   -1    0    0    0    0  0.00000000000E+00  0.00000000000E+00  0.45593999997E+02  0.45594000000E+02  0.51100000000E-03 0.  1.
         11   -1    0    0    0    0 -0.00000000000E+00 -0.00000000000E+00 -0.45593999997E+02  0.45594000000E+02  0.51100000000E-03 0. -1.
    9900012    2    1    2    0    0  0.25299377256E+02 -0.14377740750E+02  0.13036127108E+02  0.59301975968E+02  0.50000058251E+02 0.  0.
        -12    1    1    2    0    0 -0.25299377256E+02  0.14377740750E+02 -0.13036127108E+02  0.31886024032E+02  0.00000000000E+00 0.  1.
         11    1    3    3    0    0  0.68454750406E+01  0.15920853813E+02  0.88592975548E+00  0.17352780366E+02  0.51100000000E-03 0. -1.
        -11    1    3    3    0    0  0.38617648438E+01 -0.30363792406E+00  0.72705297004E+01  0.82380838842E+01  0.51100000000E-03 0.  1.
         12    1    3    3    0    0  0.14592137371E+02 -0.29994956639E+02  0.48796676524E+01  0.33711111717E+02  0.00000000000E+00 0. -1.
</event>
<event>
 7    1  0.6285940E-013  0.5930193E+02  0.7816164E-02  0.1266605E+00
        -11   -1    0    0    0    0  0.00000000000E+00  0.00000000000E+00  0.45593999997E+02  0.45594000000E+02  0.51100000000E-03 0. -1.
         11   -1    0    0    0    0 -0.00000000000E+00 -0.00000000000E+00 -0.45593999997E+02  0.45594000000E+02  0.51100000000E-03 0.  1.
    9900012    2    1    2    0    0 -0.81423888984E+01 -0.30496652475E+02  0.45141315679E+01  0.59301926347E+02  0.49999967755E+02 0.  0.
        -12    1    1    2    0    0  0.81423888984E+01  0.30496652475E+02 -0.45141315679E+01  0.31886073653E+02  0.00000000000E+00 0.  1.
         11    1    3    3    0    0 -0.56689331877E+01 -0.11256427419E+02  0.44494642723E+01  0.13365690940E+02  0.51100000000E-03 0. -1.
        -11    1    3    3    0    0 -0.20887708204E+02 -0.12616725631E+02 -0.65725686248E+01  0.25272055283E+02  0.51100000000E-03 0.  1.
        -12    1    3    3    0    0  0.18414252493E+02 -0.66234994252E+01  0.66372359205E+01  0.20664180124E+02  0.00000000000E+00 0.  1.
</event>
<event>
 7    1  0.6285940E-013  0.5930196E+02  0.7816164E-02  0.1266605E+00
        -11   -1    0    0    0    0  0.00000000000E+00  0.00000000000E+00  0.45593999997E+02  0.45594000000E+02  0.51100000000E-03 0.  1.
         11   -1    0    0    0    0 -0.00000000000E+00 -0.00000000000E+00 -0.45593999997E+02  0.45594000000E+02  0.51100000000E-03 0. -1.
    9900012    2    1    2    0    0 -0.10248718488E+02 -0.79668140118E+01 -0.29124102763E+02  0.59301957318E+02  0.50000024238E+02 0.  0.
        -12    1    1    2    0    0  0.10248718488E+02  0.79668140118E+01  0.29124102763E+02  0.31886042682E+02  0.00000000000E+00 0.  1.
         11    1    3    3    0    0 -0.13566337360E+02 -0.13526148273E+02 -0.26932182806E+02  0.33050637928E+02  0.51100000000E-03 0. -1.
        -11    1    3    3    0    0 -0.38024187461E+01 -0.38190114702E+01 -0.10526051135E+02  0.11825438245E+02  0.51100000000E-03 0.  1.
        -12    1    3    3    0    0  0.71200376186E+01  0.93783457310E+01  0.83341311774E+01  0.14425881145E+02  0.00000000000E+00 0.  1.
</event>
<event>
 7    1  0.6285940E-013  0.5930196E+02  0.7816164E-02  0.1266605E+00
        -11   -1    0    0    0    0  0.00000000000E+00  0.00000000000E+00  0.45593999997E+02  0.45594000000E+02  0.51100000000E-03 0.  1.
         11   -1    0    0    0    0 -0.00000000000E+00 -0.00000000000E+00 -0.45593999997E+02  0.45594000000E+02  0.51100000000E-03 0. -1.
    9900012    2    1    2    0    0  0.14483007209E+02 -0.20000128591E+02  0.20173178048E+02  0.59301956752E+02  0.50000023205E+02 0.  0.
        -12    1    1    2    0    0 -0.14483007209E+02  0.20000128591E+02 -0.20173178048E+02  0.31886043248E+02  0.00000000000E+00 0.  1.
         11    1    3    3    0    0  0.49031378514E+01 -0.39465598817E+01  0.19878134518E+02  0.20850811204E+02  0.51100000000E-03 0.  1.
        -11    1    3    3    0    0 -0.59698418203E+01  0.75871258076E+01  0.27787283660E+01  0.10046134628E+02  0.51100000000E-03 0. -1.
        -12    1    3    3    0    0  0.15549711178E+02 -0.23640694517E+02 -0.24836848354E+01  0.28405010919E+02  0.00000000000E+00 0.  1.
</event>
<event>
 7    1  0.6285940E-013  0.5930192E+02  0.7816164E-02  0.1266605E+00
        -11   -1    0    0    0    0  0.00000000000E+00  0.00000000000E+00  0.45593999997E+02  0.45594000000E+02  0.51100000000E-03 0. -1.
         11   -1    0    0    0    0 -0.00000000000E+00 -0.00000000000E+00 -0.45593999997E+02  0.45594000000E+02  0.51100000000E-03 0.  1.
    9900012    2    1    2    0    0  0.15690252714E+02 -0.10079578700E+02  0.25863876398E+02  0.59301920916E+02  0.49999957850E+02 0.  0.
        -12    1    1    2    0    0 -0.15690252714E+02  0.10079578700E+02 -0.25863876398E+02  0.31886079084E+02  0.00000000000E+00 0.  1.
         11    1    3    3    0    0 -0.51430627971E+01 -0.58430760477E+01  0.11526479952E+02  0.13908715720E+02  0.51100000000E-03 0. -1.
        -11    1    3    3    0    0 -0.28838964288E+01 -0.12937416377E+02 -0.43712752571E+01  0.13957136123E+02  0.51100000000E-03 0.  1.
        -12    1    3    3    0    0  0.23717211940E+02  0.87009137255E+01  0.18708671704E+02  0.31436069073E+02  0.00000000000E+00 0.  1.
</event>
<event>
 7    1  0.6285940E-013  0.5930195E+02  0.7816164E-02  0.1266605E+00
        -11   -1    0    0    0    0  0.00000000000E+00  0.00000000000E+00  0.45593999997E+02  0.45594000000E+02  0.51100000000E-03 0.  1.
         11   -1    0    0    0    0 -0.00000000000E+00 -0.00000000000E+00 -0.45593999997E+02  0.45594000000E+02  0.51100000000E-03 0. -1.
    9900012    2    1    2    0    0 -0.90985529007E+01  0.28266955568E+02 -0.11615332063E+02  0.59301946922E+02  0.50000005278E+02 0.  0.
        -12    1    1    2    0    0  0.90985529007E+01 -0.28266955568E+02  0.11615332063E+02  0.31886053078E+02  0.00000000000E+00 0.  1.
         11    1    3    3    0    0 -0.81555920357E+01  0.21580862376E+02 -0.60746032708E+01  0.23856825177E+02  0.51100000000E-03 0. -1.
        -11    1    3    3    0    0  0.14029137079E+02  0.11216924518E+02 -0.79053910343E+01  0.19624762177E+02  0.51100000000E-03 0.  1.
         12    1    3    3    0    0 -0.14972097944E+02 -0.45308313263E+01  0.23646622420E+01  0.15820359569E+02  0.00000000000E+00 0. -1.
</event>
<event>
 7    1  0.6285940E-013  0.5930193E+02  0.7816164E-02  0.1266605E+00
        -11   -1    0    0    0    0  0.00000000000E+00  0.00000000000E+00  0.45593999997E+02  0.45594000000E+02  0.51100000000E-03 0. -1.
         11   -1    0    0    0    0 -0.00000000000E+00 -0.00000000000E+00 -0.45593999997E+02  0.45594000000E+02  0.51100000000E-03 0.  1.
    9900012    2    1    2    0    0 -0.28605454197E+02 -0.13595244328E+02  0.36903351850E+01  0.59301933263E+02  0.49999980368E+02 0.  0.
        -12    1    1    2    0    0  0.28605454197E+02  0.13595244328E+02 -0.36903351850E+01  0.31886066737E+02  0.00000000000E+00 0.  1.
         11    1    3    3    0    0  0.80127302975E+01 -0.87242316659E+01 -0.70985754648E+00  0.11866758739E+02  0.51100000000E-03 0.  1.
        -11    1    3    3    0    0 -0.11388712091E+02  0.97975020830E+01  0.95485200721E+01  0.17800787791E+02  0.51100000000E-03 0. -1.
        -12    1    3    3    0    0 -0.25229472404E+02 -0.14668514745E+02 -0.51483273406E+01  0.29634386732E+02  0.00000000000E+00 0.  1.
</event>
<event>
 7    1  0.6285940E-013  0.5930195E+02  0.7816164E-02  0.1266605E+00
        -11   -1    0    0    0    0  0.00000000000E+00  0.00000000000E+00  0.45593999997E+02  0.45594000000E+02  0.51100000000E-03 0.  1.
         11   -1    0    0    0    0 -0.00000000000E+00 -0.00000000000E+00 -0.45593999997E+02  0.45594000000E+02  0.51100000000E-03 0. -1.
    9900012    2    1    2    0    0 -0.22205674561E+02  0.22754305347E+02 -0.24227121886E+01  0.59301954010E+02  0.50000018205E+02 0.  0.
        -12    1    1    2    0    0  0.22205674561E+02 -0.22754305347E+02  0.24227121886E+01  0.31886045990E+02  0.00000000000E+00 0.  1.
         11    1    3    3    0    0  0.72262866048E+01 -0.63736756809E+01 -0.62201089350E+01  0.11468771303E+02  0.51100000000E-03 0. -1.
        -11    1    3    3    0    0 -0.18534470161E+01  0.38884955602E+01  0.91061037413E+01  0.10073568840E+02  0.51100000000E-03 0.  1.
        -12    1    3    3    0    0 -0.27578514150E+02  0.25239485468E+02 -0.53087069949E+01  0.37759613867E+02  0.00000000000E+00 0.  1.
</event>
<event>
 7    1  0.6285940E-013  0.5930195E+02  0.7816164E-02  0.1266605E+00
        -11   -1    0    0    0    0  0.00000000000E+00  0.00000000000E+00  0.45593999997E+02  0.45594000000E+02  0.51100000000E-03 0.  1.
         11   -1    0    0    0    0 -0.00000000000E+00 -0.00000000000E+00 -0.45593999997E+02  0.45594000000E+02  0.51100000000E-03 0. -1.
    9900012    2    1    2    0    0 -0.30092078506E+02  0.36042348435E+01 -0.99093985017E+01  0.59301954834E+02  0.50000019709E+02 0.  0.
        -12    1    1    2    0    0  0.30092078506E+02 -0.36042348435E+01  0.99093985017E+01  0.31886045166E+02  0.00000000000E+00 0.  1.
         11    1    3    3    0    0  0.98889030019E+01 -0.39706228094E+01  0.19607123932E+00  0.10658081078E+02  0.51100000000E-03 0.  1.
        -11    1    3    3    0    0 -0.86005027076E+01 -0.23544761043E+01 -0.12822258866E+02  0.15618019312E+02  0.51100000000E-03 0. -1.
        -12    1    3    3    0    0 -0.31380478801E+02  0.99293337571E+01  0.27167891246E+01  0.33025854444E+02  0.00000000000E+00 0.  1.
</event>
<event>
 7    1  0.6285940E-013  0.5930195E+02  0.7816164E-02  0.1266605E+00
        -11   -1    0    0    0    0  0.00000000000E+00  0.00000000000E+00  0.45593999997E+02  0.45594000000E+02  0.51100000000E-03 0.  1.
         11   -1    0    0    0    0 -0.00000000000E+00 -0.00000000000E+00 -0.45593999997E+02  0.45594000000E+02  0.51100000000E-03 0. -1.
    9900012    2    1    2    0    0 -0.18448097703E+02 -0.21365653988E+01 -0.25919548068E+02  0.59301949875E+02  0.50000010663E+02 0.  0.
        -12    1    1    2    0    0  0.18448097703E+02  0.21365653988E+01  0.25919548068E+02  0.31886050125E+02  0.00000000000E+00 0.  1.
         11    1    3    3    0    0  0.27928245798E+01 -0.16725886803E+02 -0.13013508925E+02  0.21375373056E+02  0.51100000000E-03 0. -1.
        -11    1    3    3    0    0 -0.18021906416E+02 -0.18134162397E+01 -0.10775338193E+02  0.21075708832E+02  0.51100000000E-03 0.  1.
         12    1    3    3    0    0 -0.32190158663E+01  0.16402737644E+02 -0.21307009498E+01  0.16850867987E+02  0.00000000000E+00 0. -1.
</event>
<event>
 7    1  0.6285940E-013  0.5930194E+02  0.7816164E-02  0.1266605E+00
        -11   -1    0    0    0    0  0.00000000000E+00  0.00000000000E+00  0.45593999997E+02  0.45594000000E+02  0.51100000000E-03 0.  1.
         11   -1    0    0    0    0 -0.00000000000E+00 -0.00000000000E+00 -0.45593999997E+02  0.45594000000E+02  0.51100000000E-03 0. -1.
    9900012    2    1    2    0    0  0.16388753470E+02 -0.14309808406E+02 -0.23310057807E+02  0.59301942673E+02  0.49999997528E+02 0.  0.
        -12    1    1    2    0    0 -0.16388753470E+02  0.14309808406E+02  0.23310057807E+02  0.31886057327E+02  0.00000000000E+00 0.  1.
         11    1    3    3    0    0  0.16447514613E+02 -0.22676145814E+02 -0.31311744498E+02  0.42013731918E+02  0.51100000000E-03 0. -1.
        -11    1    3    3    0    0 -0.53618355084E+01  0.11741305534E+01  0.30962611927E+00  0.54976114059E+01  0.51100000000E-03 0.  1.
        -12    1    3    3    0    0  0.53030743654E+01  0.71922068548E+01  0.76920605711E+01  0.11790599349E+02  0.00000000000E+00 0.  1.
</event>
<event>
 7    1  0.6285940E-013  0.5930195E+02  0.7816164E-02  0.1266605E+00
        -11   -1    0    0    0    0  0.00000000000E+00  0.00000000000E+00  0.45593999997E+02  0.45594000000E+02  0.51100000000E-03 0.  1.
         11   -1    0    0    0    0 -0.00000000000E+00 -0.00000000000E+00 -0.45593999997E+02  0.45594000000E+02  0.51100000000E-03 0. -1.
    9900012    2    1    2    0    0 -0.16064410559E+01 -0.23783810734E+01 -0.31756614691E+02  0.59301954055E+02  0.50000018287E+02 0.  0.
        -12    1    1    2    0    0  0.16064410559E+01  0.23783810734E+01  0.31756614691E+02  0.31886045945E+02  0.00000000000E+00 0.  1.
         11    1    3    3    0    0  0.99829261837E+01 -0.29678559245E+01 -0.12411912850E+02  0.16202548097E+02  0.51100000000E-03 0. -1.
        -11    1    3    3    0    0 -0.32335839022E+00 -0.13837419540E+02 -0.20526007758E+02  0.24756731103E+02  0.51100000000E-03 0.  1.
         12    1    3    3    0    0 -0.11266008849E+02  0.14426894391E+02  0.11813059171E+01  0.18342674855E+02  0.00000000000E+00 0. -1.
</event>
<event>
 7    1  0.6285940E-013  0.5930196E+02  0.7816164E-02  0.1266605E+00
        -11   -1    0    0    0    0  0.00000000000E+00  0.00000000000E+00  0.45593999997E+02  0.45594000000E+02  0.51100000000E-03 0. -1.
         11   -1    0    0    0    0 -0.00000000000E+00 -0.00000000000E+00 -0.45593999997E+02  0.45594000000E+02  0.51100000000E-03 0.  1.
    9900012    2    1    2    0    0  0.24235444794E+02  0.30294779586E+01  0.20498415862E+02  0.59301959577E+02  0.50000028357E+02 0.  0.
        -12    1    1    2    0    0 -0.24235444794E+02 -0.30294779586E+01 -0.20498415862E+02  0.31886040423E+02  0.00000000000E+00 0.  1.
         11    1    3    3    0    0  0.79467331529E+01 -0.16857712301E+02  0.29738996357E+01  0.18872655116E+02  0.51100000000E-03 0.  1.
        -11    1    3    3    0    0 -0.69782744734E-01  0.34134525446E+00  0.14790995353E+02  0.14795098175E+02  0.51100000000E-03 0. -1.
        -12    1    3    3    0    0  0.16358494385E+02  0.19545845005E+02  0.27335208735E+01  0.25634206286E+02  0.00000000000E+00 0.  1.
</event>
<event>
 7    1  0.6285940E-013  0.5930193E+02  0.7816164E-02  0.1266605E+00
        -11   -1    0    0    0    0  0.00000000000E+00  0.00000000000E+00  0.45593999997E+02  0.45594000000E+02  0.51100000000E-03 0.  1.
         11   -1    0    0    0    0 -0.00000000000E+00 -0.00000000000E+00 -0.45593999997E+02  0.45594000000E+02  0.51100000000E-03 0. -1.
    9900012    2    1    2    0    0 -0.71745120888E+01 -0.18624472108E+02 -0.24867180405E+02  0.59301933352E+02  0.49999980530E+02 0.  0.
        -12    1    1    2    0    0  0.71745120888E+01  0.18624472108E+02  0.24867180405E+02  0.31886066648E+02  0.00000000000E+00 0.  1.
         11    1    3    3    0    0 -0.74555773465E+01 -0.73552376234E+01 -0.24131294659E+02  0.26305979097E+02  0.51100000000E-03 0. -1.
        -11    1    3    3    0    0 -0.43040991350E+01 -0.15429343111E+02 -0.12086456499E+02  0.20066697017E+02  0.51100000000E-03 0.  1.
        -12    1    3    3    0    0  0.45851643926E+01  0.41601086265E+01  0.11350570753E+02  0.12929257238E+02  0.00000000000E+00 0.  1.
</event>
<event>
 7    1  0.6285940E-013  0.5930195E+02  0.7816164E-02  0.1266605E+00
        -11   -1    0    0    0    0  0.00000000000E+00  0.00000000000E+00  0.45593999997E+02  0.45594000000E+02  0.51100000000E-03 0.  1.
         11   -1    0    0    0    0 -0.00000000000E+00 -0.00000000000E+00 -0.45593999997E+02  0.45594000000E+02  0.51100000000E-03 0. -1.
    9900012    2    1    2    0    0 -0.19349831151E+01  0.11479979826E+02 -0.29684782882E+02  0.59301946133E+02  0.50000003840E+02 0.  0.
        -12    1    1    2    0    0  0.19349831151E+01 -0.11479979826E+02  0.29684782882E+02  0.31886053867E+02  0.00000000000E+00 0.  1.
         11    1    3    3    0    0  0.71321472861E+01  0.24103173643E+01 -0.26125395112E+02  0.27188479632E+02  0.51100000000E-03 0. -1.
        -11    1    3    3    0    0  0.57580334335E+01 -0.14027033306E+01  0.84705294417E+01  0.10337910569E+02  0.51100000000E-03 0.  1.
         12    1    3    3    0    0 -0.14825163835E+02  0.10472365792E+02 -0.12029917212E+02  0.21775555931E+02  0.00000000000E+00 0. -1.
</event>
<event>
 7    1  0.6285940E-013  0.5930194E+02  0.7816164E-02  0.1266605E+00
        -11   -1    0    0    0    0  0.00000000000E+00  0.00000000000E+00  0.45593999997E+02  0.45594000000E+02  0.51100000000E-03 0.  1.
         11   -1    0    0    0    0 -0.00000000000E+00 -0.00000000000E+00 -0.45593999997E+02  0.45594000000E+02  0.51100000000E-03 0. -1.
    9900012    2    1    2    0    0  0.10401678077E+01  0.31756799772E+02 -0.26729558884E+01  0.59301937621E+02  0.49999988316E+02 0.  0.
        -12    1    1    2    0    0 -0.10401678077E+01 -0.31756799772E+02  0.26729558884E+01  0.31886062379E+02  0.00000000000E+00 0.  1.
         11    1    3    3    0    0  0.76389712169E+00  0.27274211045E+02 -0.38057594398E+01  0.27549045938E+02  0.51100000000E-03 0. -1.
        -11    1    3    3    0    0 -0.45554709546E+01  0.17225719674E+02 -0.14690242570E+01  0.17878360284E+02  0.51100000000E-03 0.  1.
         12    1    3    3    0    0  0.48317416407E+01 -0.12743130947E+02  0.26018278084E+01  0.13874531399E+02  0.00000000000E+00 0. -1.
</event>
