<event>
 7    1  0.4102844E-008  0.4614232E+02  0.7816164E-02  0.1320468E+00
        -11   -1    0    0    0    0  0.00000000000E+00  0.00000000000E+00  0.45593999997E+02  0.45594000000E+02  0.51100000000E-03 0. -1.
         11   -1    0    0    0    0 -0.00000000000E+00 -0.00000000000E+00 -0.45593999997E+02  0.45594000000E+02  0.51100000000E-03 0.  1.
    9900012    2    1    2    0    0  0.43495914764E+02  0.18843731087E+01 -0.11561493816E+02  0.46142316495E+02  0.99999884572E+01 0.  0.
        -12    1    1    2    0    0 -0.43495914764E+02 -0.18843731087E+01  0.11561493816E+02  0.45045683505E+02  0.00000000000E+00 0.  1.
         11    1    3    3    0    0  0.43875458579E+01  0.18914786710E+01 -0.10691182663E+00  0.47790878437E+01  0.51100000000E-03 0. -1.
        -11    1    3    3    0    0  0.42136026425E+00 -0.88230538975E+00  0.87516912000E-01  0.98166529127E+00  0.51100000000E-03 0.  1.
         12    1    3    3    0    0  0.38687008642E+02  0.87519982754E+00 -0.11542098902E+02  0.40381563360E+02  0.00000000000E+00 0. -1.
</event>
<event>
 7    1  0.4102844E-008  0.4614232E+02  0.7816164E-02  0.1320468E+00
        -11   -1    0    0    0    0  0.00000000000E+00  0.00000000000E+00  0.45593999997E+02  0.45594000000E+02  0.51100000000E-03 0.  1.
         11   -1    0    0    0    0 -0.00000000000E+00 -0.00000000000E+00 -0.45593999997E+02  0.45594000000E+02  0.51100000000E-03 0. -1.
    9900012    2    1    2    0    0  0.27240652435E+01  0.46863519452E+01 -0.44718353146E+02  0.46142317254E+02  0.99999953754E+01 0.  0.
        -12    1    1    2    0    0 -0.27240652435E+01 -0.46863519452E+01  0.44718353146E+02  0.45045682746E+02  0.00000000000E+00 0.  1.
         11    1    3    3    0    0  0.56576871393E+00 -0.86759052133E-01 -0.49761667052E+01  0.50089776112E+01  0.51100000000E-03 0. -1.
        -11    1    3    3    0    0 -0.16989399533E+01  0.60315917761E+01 -0.28517890720E+02  0.29198229187E+02  0.51100000000E-03 0.  1.
        -12    1    3    3    0    0  0.38572364829E+01 -0.12584807788E+01 -0.11224295721E+02  0.11935110455E+02  0.00000000000E+00 0.  1.
</event>
<event>
 7    1  0.4102844E-008  0.4614232E+02  0.7816164E-02  0.1320468E+00
        -11   -1    0    0    0    0  0.00000000000E+00  0.00000000000E+00  0.45593999997E+02  0.45594000000E+02  0.51100000000E-03 0.  1.
         11   -1    0    0    0    0 -0.00000000000E+00 -0.00000000000E+00 -0.45593999997E+02  0.45594000000E+02  0.51100000000E-03 0. -1.
    9900012    2    1    2    0    0  0.31814893853E+02  0.16624396155E+02 -0.27213149491E+02  0.46142317370E+02  0.99999964320E+01 0.  0.
        -12    1    1    2    0    0 -0.31814893853E+02 -0.16624396155E+02  0.27213149491E+02  0.45045682630E+02  0.00000000000E+00 0.  1.
         11    1    3    3    0    0  0.14320611404E+02  0.43654183952E+01 -0.98676396510E+01  0.17930619100E+02  0.51100000000E-03 0.  1.
        -11    1    3    3    0    0  0.14391464065E+02  0.90043318142E+01 -0.16425626794E+02  0.23621884878E+02  0.51100000000E-03 0. -1.
        -12    1    3    3    0    0  0.31028183839E+01  0.32546459457E+01 -0.91988304571E+00  0.45898133920E+01  0.00000000000E+00 0.  1.
</event>
<event>
 7    1  0.4102844E-008  0.4614232E+02  0.7816164E-02  0.1320468E+00
        -11   -1    0    0    0    0  0.00000000000E+00  0.00000000000E+00  0.45593999997E+02  0.45594000000E+02  0.51100000000E-03 0.  1.
         11   -1    0    0    0    0 -0.00000000000E+00 -0.00000000000E+00 -0.45593999997E+02  0.45594000000E+02  0.51100000000E-03 0. -1.
    9900012    2    1    2    0    0 -0.43226551262E+02  0.95650306156E+01 -0.83119744131E+01  0.46142318039E+02  0.10000002532E+02 0.  0.
        -12    1    1    2    0    0  0.43226551262E+02 -0.95650306156E+01  0.83119744131E+01  0.45045681961E+02  0.00000000000E+00 0.  1.
         11    1    3    3    0    0 -0.45327566528E+01  0.50476447277E+00 -0.32620664268E+01  0.56072941496E+01  0.51100000000E-03 0. -1.
        -11    1    3    3    0    0 -0.11098248356E+02  0.13558153354E+01  0.10895897341E+01  0.11233724131E+02  0.51100000000E-03 0.  1.
         12    1    3    3    0    0 -0.27595546253E+02  0.77044508075E+01 -0.61394977203E+01  0.29301299758E+02  0.00000000000E+00 0. -1.
</event>
<event>
 7    1  0.4102844E-008  0.4614232E+02  0.7816164E-02  0.1320468E+00
        -11   -1    0    0    0    0  0.00000000000E+00  0.00000000000E+00  0.45593999997E+02  0.45594000000E+02  0.51100000000E-03 0.  1.
         11   -1    0    0    0    0 -0.00000000000E+00 -0.00000000000E+00 -0.45593999997E+02  0.45594000000E+02  0.51100000000E-03 0. -1.
    9900012    2    1    2    0    0 -0.99122165929E+01  0.63852218430E+01 -0.43475168949E+02  0.46142318621E+02  0.10000007840E+02 0.  0.
        -12    1    1    2    0    0  0.99122165929E+01 -0.63852218430E+01  0.43475168949E+02  0.45045681379E+02  0.00000000000E+00 0.  1.
         11    1    3    3    0    0 -0.67861173598E+01  0.74022736727E+01 -0.29018325670E+02  0.30706811448E+02  0.51100000000E-03 0. -1.
        -11    1    3    3    0    0 -0.10999521218E+01 -0.21936743478E+01 -0.10924545752E+02  0.11196776409E+02  0.51100000000E-03 0.  1.
        -12    1    3    3    0    0 -0.20261471114E+01  0.11766225182E+01 -0.35322975274E+01  0.42387307640E+01  0.00000000000E+00 0.  1.
</event>
<event>
 7    1  0.4102844E-008  0.4614232E+02  0.7816164E-02  0.1320468E+00
        -11   -1    0    0    0    0  0.00000000000E+00  0.00000000000E+00  0.45593999997E+02  0.45594000000E+02  0.51100000000E-03 0.  1.
         11   -1    0    0    0    0 -0.00000000000E+00 -0.00000000000E+00 -0.45593999997E+02  0.45594000000E+02  0.51100000000E-03 0. -1.
    9900012    2    1    2    0    0 -0.36340966258E+02  0.10327376292E+02 -0.24531469197E+02  0.46142317515E+02  0.99999977514E+01 0.  0.
        -12    1    1    2    0    0  0.36340966258E+02 -0.10327376292E+02  0.24531469197E+02  0.45045682485E+02  0.00000000000E+00 0.  1.
         11    1    3    3    0    0 -0.12278589621E+02  0.11267582389E+01 -0.10037290614E+02  0.15899073883E+02  0.51100000000E-03 0. -1.
        -11    1    3    3    0    0 -0.14570327072E+02  0.56567111731E+01 -0.12268073044E+02  0.19869535192E+02  0.51100000000E-03 0.  1.
        -12    1    3    3    0    0 -0.94920495647E+01  0.35439068801E+01 -0.22261055393E+01  0.10373708439E+02  0.00000000000E+00 0.  1.
</event>
<event>
 7    1  0.4102844E-008  0.4614232E+02  0.7816164E-02  0.1320468E+00
        -11   -1    0    0    0    0  0.00000000000E+00  0.00000000000E+00  0.45593999997E+02  0.45594000000E+02  0.51100000000E-03 0.  1.
         11   -1    0    0    0    0 -0.00000000000E+00 -0.00000000000E+00 -0.45593999997E+02  0.45594000000E+02  0.51100000000E-03 0. -1.
    9900012    2    1    2    0    0  0.38581829866E+02 -0.13755120489E+02 -0.18744395820E+02  0.46142319740E+02  0.10000018045E+02 0.  0.
        -12    1    1    2    0    0 -0.38581829866E+02  0.13755120489E+02  0.18744395820E+02  0.45045680260E+02  0.00000000000E+00 0.  1.
         11    1    3    3    0    0  0.93675922120E+01 -0.15870269157E+01 -0.83309825651E+01  0.12636285413E+02  0.51100000000E-03 0. -1.
        -11    1    3    3    0    0  0.49622299670E+01 -0.11850522232E+01 -0.27811080078E+01  0.58105625398E+01  0.51100000000E-03 0.  1.
        -12    1    3    3    0    0  0.24252007687E+02 -0.10983041350E+02 -0.76323052470E+01  0.27695471787E+02  0.00000000000E+00 0.  1.
</event>
<event>
 7    1  0.4102844E-008  0.4614232E+02  0.7816164E-02  0.1320468E+00
        -11   -1    0    0    0    0  0.00000000000E+00  0.00000000000E+00  0.45593999997E+02  0.45594000000E+02  0.51100000000E-03 0.  1.
         11   -1    0    0    0    0 -0.00000000000E+00 -0.00000000000E+00 -0.45593999997E+02  0.45594000000E+02  0.51100000000E-03 0. -1.
    9900012    2    1    2    0    0  0.18665749079E+02 -0.39157752096E+02 -0.12139759222E+02  0.46142317722E+02  0.99999996450E+01 0.  0.
        -12    1    1    2    0    0 -0.18665749079E+02  0.39157752096E+02  0.12139759222E+02  0.45045682278E+02  0.00000000000E+00 0.  1.
         11    1    3    3    0    0  0.13018126726E+02 -0.28836381858E+02 -0.76464430302E+01  0.32549602661E+02  0.51100000000E-03 0. -1.
        -11    1    3    3    0    0  0.36147187038E+00 -0.42104925601E+01 -0.34305712625E+01  0.54431359490E+01  0.51100000000E-03 0.  1.
         12    1    3    3    0    0  0.52861504823E+01 -0.61108776780E+01 -0.10627449297E+01  0.81495791120E+01  0.00000000000E+00 0. -1.
</event>
<event>
 7    1  0.4102844E-008  0.4614232E+02  0.7816164E-02  0.1320468E+00
        -11   -1    0    0    0    0  0.00000000000E+00  0.00000000000E+00  0.45593999997E+02  0.45594000000E+02  0.51100000000E-03 0. -1.
         11   -1    0    0    0    0 -0.00000000000E+00 -0.00000000000E+00 -0.45593999997E+02  0.45594000000E+02  0.51100000000E-03 0.  1.
    9900012    2    1    2    0    0  0.13647172732E+02  0.13376081954E+02  0.40791526247E+02  0.46142317570E+02  0.99999982582E+01 0.  0.
        -12    1    1    2    0    0 -0.13647172732E+02 -0.13376081954E+02 -0.40791526247E+02  0.45045682430E+02  0.00000000000E+00 0.  1.
         11    1    3    3    0    0  0.83435237176E+01  0.34393241153E+01  0.12521846318E+02  0.15435024259E+02  0.51100000000E-03 0.  1.
        -11    1    3    3    0    0  0.39573466157E+01  0.39757300498E+01  0.16790374310E+02  0.17702646452E+02  0.51100000000E-03 0. -1.
         12    1    3    3    0    0  0.13463023986E+01  0.59610277885E+01  0.11479305619E+02  0.13004646859E+02  0.00000000000E+00 0. -1.
</event>
<event>
 7    1  0.4102844E-008  0.4614232E+02  0.7816164E-02  0.1320468E+00
        -11   -1    0    0    0    0  0.00000000000E+00  0.00000000000E+00  0.45593999997E+02  0.45594000000E+02  0.51100000000E-03 0. -1.
         11   -1    0    0    0    0 -0.00000000000E+00 -0.00000000000E+00 -0.45593999997E+02  0.45594000000E+02  0.51100000000E-03 0.  1.
    9900012    2    1    2    0    0  0.20584017235E+02 -0.10445219044E+02  0.38682149451E+02  0.46142322598E+02  0.10000044107E+02 0.  0.
        -12    1    1    2    0    0 -0.20584017235E+02  0.10445219044E+02 -0.38682149451E+02  0.45045677402E+02  0.00000000000E+00 0.  1.
         11    1    3    3    0    0  0.99447719575E+01 -0.30718395780E+01  0.19258148974E+02  0.21890888284E+02  0.51100000000E-03 0. -1.
        -11    1    3    3    0    0  0.95722365917E+00 -0.20696771310E+01  0.48727073609E+00  0.23317962157E+01  0.51100000000E-03 0.  1.
        -12    1    3    3    0    0  0.96820216183E+01 -0.53037023354E+01  0.18936729741E+02  0.21919638099E+02  0.00000000000E+00 0.  1.
</event>
<event>
 7    1  0.4102844E-008  0.4614232E+02  0.7816164E-02  0.1320468E+00
        -11   -1    0    0    0    0  0.00000000000E+00  0.00000000000E+00  0.45593999997E+02  0.45594000000E+02  0.51100000000E-03 0. -1.
         11   -1    0    0    0    0 -0.00000000000E+00 -0.00000000000E+00 -0.45593999997E+02  0.45594000000E+02  0.51100000000E-03 0.  1.
    9900012    2    1    2    0    0  0.22006767917E+02  0.35590406317E+02  0.16677490879E+02  0.46142316988E+02  0.99999929511E+01 0.  0.
        -12    1    1    2    0    0 -0.22006767917E+02 -0.35590406317E+02 -0.16677490879E+02  0.45045683012E+02  0.00000000000E+00 0.  1.
         11    1    3    3    0    0  0.66179915779E+01  0.11240589375E+02  0.47006446533E+01  0.13865234309E+02  0.51100000000E-03 0. -1.
        -11    1    3    3    0    0  0.94245746508E+01  0.10941403849E+02  0.21117487774E+01  0.14594396483E+02  0.51100000000E-03 0.  1.
         12    1    3    3    0    0  0.59642016885E+01  0.13408413093E+02  0.98650974480E+01  0.17682686196E+02  0.00000000000E+00 0. -1.
</event>
<event>
 7    1  0.4102844E-008  0.4614232E+02  0.7816164E-02  0.1320468E+00
        -11   -1    0    0    0    0  0.00000000000E+00  0.00000000000E+00  0.45593999997E+02  0.45594000000E+02  0.51100000000E-03 0.  1.
         11   -1    0    0    0    0 -0.00000000000E+00 -0.00000000000E+00 -0.45593999997E+02  0.45594000000E+02  0.51100000000E-03 0. -1.
    9900012    2    1    2    0    0 -0.17481212882E+02  0.69791861905E+01 -0.40924463172E+02  0.46142317304E+02  0.99999958285E+01 0.  0.
        -12    1    1    2    0    0  0.17481212882E+02 -0.69791861905E+01  0.40924463172E+02  0.45045682696E+02  0.00000000000E+00 0.  1.
         11    1    3    3    0    0 -0.12084455740E+02  0.91048769117E+01 -0.27803269323E+02  0.31653667077E+02  0.51100000000E-03 0.  1.
        -11    1    3    3    0    0 -0.36250271884E+01 -0.74726016425E+00 -0.98398174689E+01  0.10512907683E+02  0.51100000000E-03 0. -1.
        -12    1    3    3    0    0 -0.17717299537E+01 -0.13784305570E+01 -0.32813763794E+01  0.39757425435E+01  0.00000000000E+00 0.  1.
</event>
<event>
 7    1  0.4102844E-008  0.4614232E+02  0.7816164E-02  0.1320468E+00
        -11   -1    0    0    0    0  0.00000000000E+00  0.00000000000E+00  0.45593999997E+02  0.45594000000E+02  0.51100000000E-03 0.  1.
         11   -1    0    0    0    0 -0.00000000000E+00 -0.00000000000E+00 -0.45593999997E+02  0.45594000000E+02  0.51100000000E-03 0. -1.
    9900012    2    1    2    0    0 -0.65946587324E+00 -0.36828279049E+02 -0.25929834328E+02  0.46142319394E+02  0.10000014888E+02 0.  0.
        -12    1    1    2    0    0  0.65946587324E+00  0.36828279049E+02  0.25929834328E+02  0.45045680606E+02  0.00000000000E+00 0.  1.
         11    1    3    3    0    0 -0.41160444688E+01 -0.21437804566E+02 -0.17992141811E+02  0.28288486242E+02  0.51100000000E-03 0. -1.
        -11    1    3    3    0    0  0.63752585497E-01 -0.62290950752E+00  0.19645378392E+00  0.65625833103E+00  0.51100000000E-03 0.  1.
         12    1    3    3    0    0  0.33928260100E+01 -0.14767564976E+02 -0.81341463015E+01  0.17197574820E+02  0.00000000000E+00 0. -1.
</event>
<event>
 7    1  0.4102844E-008  0.4614232E+02  0.7816164E-02  0.1320468E+00
        -11   -1    0    0    0    0  0.00000000000E+00  0.00000000000E+00  0.45593999997E+02  0.45594000000E+02  0.51100000000E-03 0.  1.
         11   -1    0    0    0    0 -0.00000000000E+00 -0.00000000000E+00 -0.45593999997E+02  0.45594000000E+02  0.51100000000E-03 0. -1.
    9900012    2    1    2    0    0 -0.35218659894E+02 -0.19402623407E+02 -0.20305115116E+02  0.46142317636E+02  0.99999988563E+01 0.  0.
        -12    1    1    2    0    0  0.35218659894E+02  0.19402623407E+02  0.20305115116E+02  0.45045682364E+02  0.00000000000E+00 0.  1.
         11    1    3    3    0    0 -0.59111931508E+01 -0.58220269054E+01 -0.59081260788E+01  0.10185487508E+02  0.51100000000E-03 0.  1.
        -11    1    3    3    0    0 -0.40685572653E+01 -0.36536475721E+01 -0.45158374321E+01  0.70919029024E+01  0.51100000000E-03 0. -1.
         12    1    3    3    0    0 -0.25238909478E+02 -0.99269489296E+01 -0.98811516049E+01  0.28864927225E+02  0.00000000000E+00 0. -1.
</event>
<event>
 7    1  0.4102844E-008  0.4614232E+02  0.7816164E-02  0.1320468E+00
        -11   -1    0    0    0    0  0.00000000000E+00  0.00000000000E+00  0.45593999997E+02  0.45594000000E+02  0.51100000000E-03 0.  1.
         11   -1    0    0    0    0 -0.00000000000E+00 -0.00000000000E+00 -0.45593999997E+02  0.45594000000E+02  0.51100000000E-03 0. -1.
    9900012    2    1    2    0    0  0.60989079648E+01  0.23904716940E+02 -0.37689274171E+02  0.46142316990E+02  0.99999929640E+01 0.  0.
        -12    1    1    2    0    0 -0.60989079648E+01 -0.23904716940E+02  0.37689274171E+02  0.45045683010E+02  0.00000000000E+00 0.  1.
         11    1    3    3    0    0  0.67538276938E+01  0.22299524395E+02 -0.32370531997E+02  0.39884010816E+02  0.51100000000E-03 0. -1.
        -11    1    3    3    0    0 -0.32856894404E+00  0.17754150043E+01 -0.55413915127E+01  0.58281280139E+01  0.51100000000E-03 0.  1.
         12    1    3    3    0    0 -0.32635078498E+00 -0.17022245902E+00  0.22264933911E+00  0.43017815916E+00  0.00000000000E+00 0. -1.
</event>
<event>
 7    1  0.4102844E-008  0.4614232E+02  0.7816164E-02  0.1320468E+00
        -11   -1    0    0    0    0  0.00000000000E+00  0.00000000000E+00  0.45593999997E+02  0.45594000000E+02  0.51100000000E-03 0.  1.
         11   -1    0    0    0    0 -0.00000000000E+00 -0.00000000000E+00 -0.45593999997E+02  0.45594000000E+02  0.51100000000E-03 0. -1.
    9900012    2    1    2    0    0 -0.46913336426E+00  0.36237928324E+02 -0.26752679570E+02  0.46142318747E+02  0.10000008992E+02 0.  0.
        -12    1    1    2    0    0  0.46913336426E+00 -0.36237928324E+02  0.26752679570E+02  0.45045681253E+02  0.00000000000E+00 0.  1.
         11    1    3    3    0    0  0.74661573760E+00  0.31534303471E+02 -0.20583210224E+02  0.37664814799E+02  0.51100000000E-03 0. -1.
        -11    1    3    3    0    0 -0.19705485240E+01  0.45952953382E+01 -0.56992749178E+01  0.75816578386E+01  0.51100000000E-03 0.  1.
        -12    1    3    3    0    0  0.75479942209E+00  0.10832951481E+00 -0.47019442900E+00  0.89584610980E+00  0.00000000000E+00 0.  1.
</event>
<event>
 7    1  0.4102844E-008  0.4614232E+02  0.7816164E-02  0.1320468E+00
        -11   -1    0    0    0    0  0.00000000000E+00  0.00000000000E+00  0.45593999997E+02  0.45594000000E+02  0.51100000000E-03 0.  1.
         11   -1    0    0    0    0 -0.00000000000E+00 -0.00000000000E+00 -0.45593999997E+02  0.45594000000E+02  0.51100000000E-03 0. -1.
    9900012    2    1    2    0    0 -0.32422527519E+02 -0.65625283877E+01  0.30574931421E+02  0.46142317621E+02  0.99999987226E+01 0.  0.
        -12    1    1    2    0    0  0.32422527519E+02  0.65625283877E+01 -0.30574931421E+02  0.45045682379E+02  0.00000000000E+00 0.  1.
         11    1    3    3    0    0 -0.19367600668E+02 -0.56272182837E+01  0.18714823548E+02  0.27513890346E+02  0.51100000000E-03 0. -1.
        -11    1    3    3    0    0 -0.13348354792E+02 -0.13936177912E+01  0.10130149936E+02  0.16814894713E+02  0.51100000000E-03 0.  1.
        -12    1    3    3    0    0  0.29342794104E+00  0.45830768723E+00  0.17299579369E+01  0.18135325627E+01  0.00000000000E+00 0.  1.
</event>
<event>
 7    1  0.4102844E-008  0.4614232E+02  0.7816164E-02  0.1320468E+00
        -11   -1    0    0    0    0  0.00000000000E+00  0.00000000000E+00  0.45593999997E+02  0.45594000000E+02  0.51100000000E-03 0.  1.
         11   -1    0    0    0    0 -0.00000000000E+00 -0.00000000000E+00 -0.45593999997E+02  0.45594000000E+02  0.51100000000E-03 0. -1.
    9900012    2    1    2    0    0  0.15358349476E+02  0.38353974003E+02 -0.17950131990E+02  0.46142318088E+02  0.10000002981E+02 0.  0.
        -12    1    1    2    0    0 -0.15358349476E+02 -0.38353974003E+02  0.17950131990E+02  0.45045681912E+02  0.00000000000E+00 0.  1.
         11    1    3    3    0    0  0.18811534341E+01  0.81144546862E+01 -0.55444980090E+01  0.10006226638E+02  0.51100000000E-03 0. -1.
        -11    1    3    3    0    0  0.42847473985E-01 -0.43990604721E+00 -0.24098920925E+00  0.50341761640E+00  0.51100000000E-03 0.  1.
        -12    1    3    3    0    0  0.13434348568E+02  0.30679425364E+02 -0.12164644772E+02  0.35632673834E+02  0.00000000000E+00 0.  1.
</event>
<event>
 7    1  0.4102844E-008  0.4614232E+02  0.7816164E-02  0.1320468E+00
        -11   -1    0    0    0    0  0.00000000000E+00  0.00000000000E+00  0.45593999997E+02  0.45594000000E+02  0.51100000000E-03 0. -1.
         11   -1    0    0    0    0 -0.00000000000E+00 -0.00000000000E+00 -0.45593999997E+02  0.45594000000E+02  0.51100000000E-03 0.  1.
    9900012    2    1    2    0    0 -0.34400828793E+02 -0.19226741445E+02  0.21818085266E+02  0.46142318155E+02  0.10000003590E+02 0.  0.
        -12    1    1    2    0    0  0.34400828793E+02  0.19226741445E+02 -0.21818085266E+02  0.45045681845E+02  0.00000000000E+00 0.  1.
         11    1    3    3    0    0 -0.10623840480E+02 -0.18699998491E+01  0.50226779224E+01  0.11899167188E+02  0.51100000000E-03 0. -1.
        -11    1    3    3    0    0 -0.12282791023E+02 -0.11042805259E+02  0.11363893773E+02  0.20048655447E+02  0.51100000000E-03 0.  1.
        -12    1    3    3    0    0 -0.11494197289E+02 -0.63139363365E+01  0.54315135711E+01  0.14194495520E+02  0.00000000000E+00 0.  1.
</event>
<event>
 7    1  0.4102844E-008  0.4614232E+02  0.7816164E-02  0.1320468E+00
        -11   -1    0    0    0    0  0.00000000000E+00  0.00000000000E+00  0.45593999997E+02  0.45594000000E+02  0.51100000000E-03 0.  1.
         11   -1    0    0    0    0 -0.00000000000E+00 -0.00000000000E+00 -0.45593999997E+02  0.45594000000E+02  0.51100000000E-03 0. -1.
    9900012    2    1    2    0    0 -0.24870969876E+02  0.16400982060E+02 -0.33786922737E+02  0.46142317597E+02  0.99999985049E+01 0.  0.
        -12    1    1    2    0    0  0.24870969876E+02 -0.16400982060E+02  0.33786922737E+02  0.45045682403E+02  0.00000000000E+00 0.  1.
         11    1    3    3    0    0 -0.22468098060E+02  0.15642687050E+02 -0.33124242768E+02  0.42973533108E+02  0.51100000000E-03 0. -1.
        -11    1    3    3    0    0 -0.17701069038E+01  0.13547421125E+01 -0.48909030804E+00  0.22820635909E+01  0.51100000000E-03 0.  1.
         12    1    3    3    0    0 -0.63276491262E+00 -0.59644710238E+00 -0.17358966014E+00  0.88672089785E+00  0.00000000000E+00 0. -1.
</event>
<event>
 7    1  0.4102844E-008  0.4614232E+02  0.7816164E-02  0.1320468E+00
        -11   -1    0    0    0    0  0.00000000000E+00  0.00000000000E+00  0.45593999997E+02  0.45594000000E+02  0.51100000000E-03 0.  1.
         11   -1    0    0    0    0 -0.00000000000E+00 -0.00000000000E+00 -0.45593999997E+02  0.45594000000E+02  0.51100000000E-03 0. -1.
    9900012    2    1    2    0    0 -0.28672810480E+02 -0.29973047254E+02 -0.17567011928E+02  0.46142317292E+02  0.99999957233E+01 0.  0.
        -12    1    1    2    0    0  0.28672810480E+02  0.29973047254E+02  0.17567011928E+02  0.45045682708E+02  0.00000000000E+00 0.  1.
         11    1    3    3    0    0 -0.12934754479E+02 -0.80457233521E+01 -0.88222617973E+01  0.17603233827E+02  0.51100000000E-03 0. -1.
        -11    1    3    3    0    0 -0.38944038873E+01 -0.75652294573E+01 -0.20127117814E+01  0.87435740607E+01  0.51100000000E-03 0.  1.
         12    1    3    3    0    0 -0.11843652114E+02 -0.14362094445E+02 -0.67320383490E+01  0.19795509404E+02  0.00000000000E+00 0. -1.
</event>
<event>
 7    1  0.4102844E-008  0.4614232E+02  0.7816164E-02  0.1320468E+00
        -11   -1    0    0    0    0  0.00000000000E+00  0.00000000000E+00  0.45593999997E+02  0.45594000000E+02  0.51100000000E-03 0.  1.
         11   -1    0    0    0    0 -0.00000000000E+00 -0.00000000000E+00 -0.45593999997E+02  0.45594000000E+02  0.51100000000E-03 0. -1.
    9900012    2    1    2    0    0 -0.52744385941E+01  0.41155435838E+01 -0.44546111575E+02  0.46142318099E+02  0.10000003083E+02 0.  0.
        -12    1    1    2    0    0  0.52744385941E+01 -0.41155435838E+01  0.44546111575E+02  0.45045681901E+02  0.00000000000E+00 0.  1.
         11    1    3    3    0    0  0.17812493865E+01  0.56086480432E+00 -0.18818866282E+01  0.26512103365E+01  0.51100000000E-03 0. -1.
        -11    1    3    3    0    0 -0.37561307751E+01  0.20795839664E+01 -0.15361599515E+02  0.15950295539E+02  0.51100000000E-03 0.  1.
         12    1    3    3    0    0 -0.32995572055E+01  0.14750948131E+01 -0.27302625432E+02  0.27540812223E+02  0.00000000000E+00 0. -1.
</event>
<event>
 7    1  0.4102844E-008  0.4614233E+02  0.7816164E-02  0.1320468E+00
        -11   -1    0    0    0    0  0.00000000000E+00  0.00000000000E+00  0.45593999997E+02  0.45594000000E+02  0.51100000000E-03 0.  1.
         11   -1    0    0    0    0 -0.00000000000E+00 -0.00000000000E+00 -0.45593999997E+02  0.45594000000E+02  0.51100000000E-03 0. -1.
    9900012    2    1    2    0    0 -0.44551239117E+02 -0.19230953439E+01  0.63719264266E+01  0.46142327078E+02  0.10000084960E+02 0.  0.
        -12    1    1    2    0    0  0.44551239117E+02  0.19230953439E+01 -0.63719264266E+01  0.45045672922E+02  0.00000000000E+00 0.  1.
         11    1    3    3    0    0 -0.29256438053E+02 -0.99339724142E+00  0.46492046673E+01  0.29640194161E+02  0.51100000000E-03 0. -1.
        -11    1    3    3    0    0 -0.14971513518E+02  0.30840132885E+00  0.94447730680E+00  0.15004444876E+02  0.51100000000E-03 0.  1.
        -12    1    3    3    0    0 -0.32328754658E+00 -0.12380994313E+01  0.77824445259E+00  0.14976880408E+01  0.00000000000E+00 0.  1.
</event>
<event>
 7    1  0.4102844E-008  0.4614232E+02  0.7816164E-02  0.1320468E+00
        -11   -1    0    0    0    0  0.00000000000E+00  0.00000000000E+00  0.45593999997E+02  0.45594000000E+02  0.51100000000E-03 0. -1.
         11   -1    0    0    0    0 -0.00000000000E+00 -0.00000000000E+00 -0.45593999997E+02  0.45594000000E+02  0.51100000000E-03 0.  1.
    9900012    2    1    2    0    0  0.36037658098E+02 -0.13639570341E+02 -0.23331586620E+02  0.46142316361E+02  0.99999872367E+01 0.  0.
        -12    1    1    2    0    0 -0.36037658098E+02  0.13639570341E+02  0.23331586620E+02  0.45045683639E+02  0.00000000000E+00 0.  1.
         11    1    3    3    0    0  0.42095526082E+01 -0.34037205214E+01 -0.92838139336E+00  0.54924984135E+01  0.51100000000E-03 0. -1.
        -11    1    3    3    0    0  0.27017861024E+01  0.43624696410E+00 -0.30024211851E+01  0.40625721890E+01  0.51100000000E-03 0.  1.
        -12    1    3    3    0    0  0.29126319387E+02 -0.10672096783E+02 -0.19400784042E+02  0.36587245759E+02  0.00000000000E+00 0.  1.
</event>
<event>
 7    1  0.4102844E-008  0.4614232E+02  0.7816164E-02  0.1320468E+00
        -11   -1    0    0    0    0  0.00000000000E+00  0.00000000000E+00  0.45593999997E+02  0.45594000000E+02  0.51100000000E-03 0. -1.
         11   -1    0    0    0    0 -0.00000000000E+00 -0.00000000000E+00 -0.45593999997E+02  0.45594000000E+02  0.51100000000E-03 0.  1.
    9900012    2    1    2    0    0  0.12795109311E+02 -0.35356252390E+02  0.24805927824E+02  0.46142318070E+02  0.10000002819E+02 0.  0.
        -12    1    1    2    0    0 -0.12795109311E+02  0.35356252390E+02 -0.24805927824E+02  0.45045681930E+02  0.00000000000E+00 0.  1.
         11    1    3    3    0    0  0.10888886030E+01 -0.17707129516E+01  0.14451773032E+01  0.25317267715E+01  0.51100000000E-03 0. -1.
        -11    1    3    3    0    0  0.30587333927E+01 -0.66429933755E+01  0.67731460590E+00  0.73446556278E+01  0.51100000000E-03 0.  1.
        -12    1    3    3    0    0  0.86474873151E+01 -0.26942546063E+02  0.22683435915E+02  0.36265935671E+02  0.00000000000E+00 0.  1.
</event>
<event>
 7    1  0.4102844E-008  0.4614231E+02  0.7816164E-02  0.1320468E+00
        -11   -1    0    0    0    0  0.00000000000E+00  0.00000000000E+00  0.45593999997E+02  0.45594000000E+02  0.51100000000E-03 0.  1.
         11   -1    0    0    0    0 -0.00000000000E+00 -0.00000000000E+00 -0.45593999997E+02  0.45594000000E+02  0.51100000000E-03 0. -1.
    9900012    2    1    2    0    0 -0.40994787808E+02  0.15469172517E+02 -0.10452083016E+02  0.46142312469E+02  0.99999517451E+01 0.  0.
        -12    1    1    2    0    0  0.40994787808E+02 -0.15469172517E+02  0.10452083016E+02  0.45045687531E+02  0.00000000000E+00 0.  1.
         11    1    3    3    0    0 -0.10388384266E+02  0.18335090730E+01 -0.32534989624E+01  0.11039272573E+02  0.51100000000E-03 0. -1.
        -11    1    3    3    0    0 -0.12167107575E+01  0.23188351845E+01  0.53817870767E+00  0.26733907800E+01  0.51100000000E-03 0.  1.
         12    1    3    3    0    0 -0.29389692784E+02  0.11316828259E+02 -0.77367627609E+01  0.32429649116E+02  0.00000000000E+00 0. -1.
</event>
<event>
 7    1  0.4102844E-008  0.4614232E+02  0.7816164E-02  0.1320468E+00
        -11   -1    0    0    0    0  0.00000000000E+00  0.00000000000E+00  0.45593999997E+02  0.45594000000E+02  0.51100000000E-03 0.  1.
         11   -1    0    0    0    0 -0.00000000000E+00 -0.00000000000E+00 -0.45593999997E+02  0.45594000000E+02  0.51100000000E-03 0. -1.
    9900012    2    1    2    0    0 -0.63555039153E+01 -0.39020655024E+02 -0.21589567143E+02  0.46142319208E+02  0.10000013197E+02 0.  0.
        -12    1    1    2    0    0  0.63555039153E+01  0.39020655024E+02  0.21589567143E+02  0.45045680792E+02  0.00000000000E+00 0.  1.
         11    1    3    3    0    0 -0.32203180792E+01 -0.22500335122E+02 -0.10863590925E+02  0.25192322981E+02  0.51100000000E-03 0. -1.
        -11    1    3    3    0    0  0.10233704610E+01 -0.10110264087E+02 -0.76220422429E+01  0.12702765652E+02  0.51100000000E-03 0.  1.
         12    1    3    3    0    0 -0.41585562971E+01 -0.64100558158E+01 -0.31039339755E+01  0.82472305753E+01  0.00000000000E+00 0. -1.
</event>
<event>
 7    1  0.4102844E-008  0.4614232E+02  0.7816164E-02  0.1320468E+00
        -11   -1    0    0    0    0  0.00000000000E+00  0.00000000000E+00  0.45593999997E+02  0.45594000000E+02  0.51100000000E-03 0. -1.
         11   -1    0    0    0    0 -0.00000000000E+00 -0.00000000000E+00 -0.45593999997E+02  0.45594000000E+02  0.51100000000E-03 0.  1.
    9900012    2    1    2    0    0  0.44708134688E+02 -0.25084428490E+01  0.48993825818E+01  0.46142317160E+02  0.99999945189E+01 0.  0.
        -12    1    1    2    0    0 -0.44708134688E+02  0.25084428490E+01 -0.48993825818E+01  0.45045682840E+02  0.00000000000E+00 0.  1.
         11    1    3    3    0    0  0.51106070252E+01 -0.15525289059E+00  0.20907811436E+01  0.55239273780E+01  0.51100000000E-03 0. -1.
        -11    1    3    3    0    0  0.12645495136E+01  0.79981115217E+00  0.15222032299E+01  0.21344522215E+01  0.51100000000E-03 0.  1.
         12    1    3    3    0    0  0.38332978149E+02 -0.31530011106E+01  0.12863982083E+01  0.38483937561E+02  0.00000000000E+00 0. -1.
</event>
<event>
 7    1  0.4102844E-008  0.4614232E+02  0.7816164E-02  0.1320468E+00
        -11   -1    0    0    0    0  0.00000000000E+00  0.00000000000E+00  0.45593999997E+02  0.45594000000E+02  0.51100000000E-03 0. -1.
         11   -1    0    0    0    0 -0.00000000000E+00 -0.00000000000E+00 -0.45593999997E+02  0.45594000000E+02  0.51100000000E-03 0.  1.
    9900012    2    1    2    0    0  0.13900538829E+02  0.37245599864E+02 -0.21181449031E+02  0.46142317943E+02  0.10000001655E+02 0.  0.
        -12    1    1    2    0    0 -0.13900538829E+02 -0.37245599864E+02  0.21181449031E+02  0.45045682057E+02  0.00000000000E+00 0.  1.
         11    1    3    3    0    0  0.95255433752E+01  0.30154325937E+02 -0.14798080754E+02  0.34914216926E+02  0.51100000000E-03 0. -1.
        -11    1    3    3    0    0  0.37720844058E+01  0.64651966246E+01 -0.35879050619E+01  0.83006295636E+01  0.51100000000E-03 0.  1.
        -12    1    3    3    0    0  0.60291104804E+00  0.62607730251E+00 -0.27954632149E+01  0.29274714527E+01  0.00000000000E+00 0.  1.
</event>
<event>
 7    1  0.4102844E-008  0.4614232E+02  0.7816164E-02  0.1320468E+00
        -11   -1    0    0    0    0  0.00000000000E+00  0.00000000000E+00  0.45593999997E+02  0.45594000000E+02  0.51100000000E-03 0.  1.
         11   -1    0    0    0    0 -0.00000000000E+00 -0.00000000000E+00 -0.45593999997E+02  0.45594000000E+02  0.51100000000E-03 0. -1.
    9900012    2    1    2    0    0  0.50424505858E+01  0.44461700151E+02  0.51811470105E+01  0.46142319046E+02  0.10000011718E+02 0.  0.
        -12    1    1    2    0    0 -0.50424505858E+01 -0.44461700151E+02 -0.51811470105E+01  0.45045680954E+02  0.00000000000E+00 0.  1.
         11    1    3    3    0    0  0.46380625060E+01  0.11906324785E+02 -0.50343725026E+00  0.12787714535E+02  0.51100000000E-03 0. -1.
        -11    1    3    3    0    0 -0.61685688433E+00  0.32609213425E+01 -0.60940421214E+00  0.33742397918E+01  0.51100000000E-03 0.  1.
        -12    1    3    3    0    0  0.10212449642E+01  0.29294454024E+02  0.62939884729E+01  0.29980364720E+02  0.00000000000E+00 0.  1.
</event>
<event>
 7    1  0.4102844E-008  0.4614232E+02  0.7816164E-02  0.1320468E+00
        -11   -1    0    0    0    0  0.00000000000E+00  0.00000000000E+00  0.45593999997E+02  0.45594000000E+02  0.51100000000E-03 0.  1.
         11   -1    0    0    0    0 -0.00000000000E+00 -0.00000000000E+00 -0.45593999997E+02  0.45594000000E+02  0.51100000000E-03 0. -1.
    9900012    2    1    2    0    0 -0.43607323890E+02  0.34002009198E+00 -0.11287122838E+02  0.46142318159E+02  0.10000003632E+02 0.  0.
        -12    1    1    2    0    0  0.43607323890E+02 -0.34002009198E+00  0.11287122838E+02  0.45045681841E+02  0.00000000000E+00 0.  1.
         11    1    3    3    0    0 -0.10580917151E+02 -0.12899849567E+01 -0.50153926476E+00  0.10671054814E+02  0.51100000000E-03 0. -1.
        -11    1    3    3    0    0 -0.83281785827E+01 -0.23484628626E+01 -0.14724860828E+01  0.87773601867E+01  0.51100000000E-03 0.  1.
         12    1    3    3    0    0 -0.24698228156E+02  0.39784679113E+01 -0.93130974905E+01  0.26693903159E+02  0.00000000000E+00 0. -1.
</event>
<event>
 7    1  0.4102844E-008  0.4614232E+02  0.7816164E-02  0.1320468E+00
        -11   -1    0    0    0    0  0.00000000000E+00  0.00000000000E+00  0.45593999997E+02  0.45594000000E+02  0.51100000000E-03 0.  1.
         11   -1    0    0    0    0 -0.00000000000E+00 -0.00000000000E+00 -0.45593999997E+02  0.45594000000E+02  0.51100000000E-03 0. -1.
    9900012    2    1    2    0    0 -0.44238969040E+01 -0.99926628991E+01 -0.43699992179E+02  0.46142317720E+02  0.99999996245E+01 0.  0.
        -12    1    1    2    0    0  0.44238969040E+01  0.99926628991E+01  0.43699992179E+02  0.45045682280E+02  0.00000000000E+00 0.  1.
         11    1    3    3    0    0  0.20985533316E+01 -0.36370959200E+01 -0.63702964741E+01  0.76297490290E+01  0.51100000000E-03 0. -1.
        -11    1    3    3    0    0 -0.29024184384E+01 -0.27228373275E+01 -0.21732088218E+02  0.22093472667E+02  0.51100000000E-03 0.  1.
         12    1    3    3    0    0 -0.36200317971E+01 -0.36327296517E+01 -0.15597607487E+02  0.16419096024E+02  0.00000000000E+00 0. -1.
</event>
<event>
 7    1  0.4102844E-008  0.4614232E+02  0.7816164E-02  0.1320468E+00
        -11   -1    0    0    0    0  0.00000000000E+00  0.00000000000E+00  0.45593999997E+02  0.45594000000E+02  0.51100000000E-03 0.  1.
         11   -1    0    0    0    0 -0.00000000000E+00 -0.00000000000E+00 -0.45593999997E+02  0.45594000000E+02  0.51100000000E-03 0. -1.
    9900012    2    1    2    0    0  0.64243663394E+01 -0.13225788992E+02 -0.42578392846E+02  0.46142317469E+02  0.99999973408E+01 0.  0.
        -12    1    1    2    0    0 -0.64243663394E+01  0.13225788992E+02  0.42578392846E+02  0.45045682531E+02  0.00000000000E+00 0.  1.
         11    1    3    3    0    0  0.27354293382E+01 -0.85673232789E+01 -0.30909110698E+02  0.32190910615E+02  0.51100000000E-03 0. -1.
        -11    1    3    3    0    0  0.47869210631E+01 -0.44358296751E+01 -0.99709590463E+01  0.11916846174E+02  0.51100000000E-03 0.  1.
        -12    1    3    3    0    0 -0.10979840620E+01 -0.22263603813E+00 -0.16983231018E+01  0.20345606808E+01  0.00000000000E+00 0.  1.
</event>
<event>
 7    1  0.4102844E-008  0.4614232E+02  0.7816164E-02  0.1320468E+00
        -11   -1    0    0    0    0  0.00000000000E+00  0.00000000000E+00  0.45593999997E+02  0.45594000000E+02  0.51100000000E-03 0.  1.
         11   -1    0    0    0    0 -0.00000000000E+00 -0.00000000000E+00 -0.45593999997E+02  0.45594000000E+02  0.51100000000E-03 0. -1.
    9900012    2    1    2    0    0  0.57458231599E+01 -0.23534502513E+02 -0.37976648062E+02  0.46142322179E+02  0.10000040289E+02 0.  0.
        -12    1    1    2    0    0 -0.57458231599E+01  0.23534502513E+02  0.37976648062E+02  0.45045677821E+02  0.00000000000E+00 0.  1.
         11    1    3    3    0    0  0.16958158667E+01  0.16299027154E+00 -0.42005616091E+01  0.45328881935E+01  0.51100000000E-03 0. -1.
        -11    1    3    3    0    0  0.11752270642E+01 -0.34994705633E+01 -0.34044854653E+01  0.50217501352E+01  0.51100000000E-03 0.  1.
         12    1    3    3    0    0  0.28747802291E+01 -0.20198022222E+02 -0.30371600987E+02  0.36587683851E+02  0.00000000000E+00 0. -1.
</event>
<event>
 7    1  0.4102844E-008  0.4614232E+02  0.7816164E-02  0.1320468E+00
        -11   -1    0    0    0    0  0.00000000000E+00  0.00000000000E+00  0.45593999997E+02  0.45594000000E+02  0.51100000000E-03 0. -1.
         11   -1    0    0    0    0 -0.00000000000E+00 -0.00000000000E+00 -0.45593999997E+02  0.45594000000E+02  0.51100000000E-03 0.  1.
    9900012    2    1    2    0    0  0.11560524766E+02  0.39961555999E+01  0.43353183331E+02  0.46142317661E+02  0.99999990869E+01 0.  0.
        -12    1    1    2    0    0 -0.11560524766E+02 -0.39961555999E+01 -0.43353183331E+02  0.45045682339E+02  0.00000000000E+00 0.  1.
         11    1    3    3    0    0  0.59462157865E+01  0.88552238324E+00  0.31609753416E+02  0.32176360008E+02  0.51100000000E-03 0. -1.
        -11    1    3    3    0    0  0.12020185745E+01  0.28988256284E+01  0.50896944399E+01  0.59793836162E+01  0.51100000000E-03 0.  1.
        -12    1    3    3    0    0  0.44122904049E+01  0.21180758825E+00  0.66537354749E+01  0.79865740366E+01  0.00000000000E+00 0.  1.
</event>
<event>
 7    1  0.4102844E-008  0.4614232E+02  0.7816164E-02  0.1320468E+00
        -11   -1    0    0    0    0  0.00000000000E+00  0.00000000000E+00  0.45593999997E+02  0.45594000000E+02  0.51100000000E-03 0. -1.
         11   -1    0    0    0    0 -0.00000000000E+00 -0.00000000000E+00 -0.45593999997E+02  0.45594000000E+02  0.51100000000E-03 0.  1.
    9900012    2    1    2    0    0  0.25870143612E+01  0.23251253795E+02 -0.38494154491E+02  0.46142319005E+02  0.10000011338E+02 0.  0.
        -12    1    1    2    0    0 -0.25870143612E+01 -0.23251253795E+02  0.38494154491E+02  0.45045680995E+02  0.00000000000E+00 0.  1.
         11    1    3    3    0    0 -0.19494260692E+00  0.79148878256E+01 -0.63218563132E+01  0.10131600042E+02  0.51100000000E-03 0. -1.
        -11    1    3    3    0    0  0.22158888076E+00  0.10317265953E+02 -0.17825531535E+02  0.20597200129E+02  0.51100000000E-03 0.  1.
        -12    1    3    3    0    0  0.25603680873E+01  0.50191000165E+01 -0.14346766643E+02  0.15413518834E+02  0.00000000000E+00 0.  1.
</event>
<event>
 7    1  0.4102844E-008  0.4614232E+02  0.7816164E-02  0.1320468E+00
        -11   -1    0    0    0    0  0.00000000000E+00  0.00000000000E+00  0.45593999997E+02  0.45594000000E+02  0.51100000000E-03 0.  1.
         11   -1    0    0    0    0 -0.00000000000E+00 -0.00000000000E+00 -0.45593999997E+02  0.45594000000E+02  0.51100000000E-03 0. -1.
    9900012    2    1    2    0    0  0.42578301844E+02  0.80065968150E+01  0.12332723705E+02  0.46142318138E+02  0.10000003433E+02 0.  0.
        -12    1    1    2    0    0 -0.42578301844E+02 -0.80065968150E+01 -0.12332723705E+02  0.45045681862E+02  0.00000000000E+00 0.  1.
         11    1    3    3    0    0  0.49757357319E+01  0.42079446918E+01  0.20694285147E+01  0.68371982011E+01  0.51100000000E-03 0. -1.
        -11    1    3    3    0    0  0.54632663975E+01  0.93928137820E+00  0.36793150177E+00  0.55556190554E+01  0.51100000000E-03 0.  1.
        -12    1    3    3    0    0  0.32139299714E+02  0.28593707450E+01  0.98953636890E+01  0.33749500881E+02  0.00000000000E+00 0.  1.
</event>
<event>
 7    1  0.4102844E-008  0.4614233E+02  0.7816164E-02  0.1320468E+00
        -11   -1    0    0    0    0  0.00000000000E+00  0.00000000000E+00  0.45593999997E+02  0.45594000000E+02  0.51100000000E-03 0. -1.
         11   -1    0    0    0    0 -0.00000000000E+00 -0.00000000000E+00 -0.45593999997E+02  0.45594000000E+02  0.51100000000E-03 0.  1.
    9900012    2    1    2    0    0  0.22870495098E+02 -0.38465125697E+02 -0.51465906149E+01  0.46142325004E+02  0.10000066043E+02 0.  0.
        -12    1    1    2    0    0 -0.22870495098E+02  0.38465125697E+02  0.51465906149E+01  0.45045674996E+02  0.00000000000E+00 0.  1.
         11    1    3    3    0    0  0.20280412074E+02 -0.27380704789E+02 -0.50789380258E+01  0.34449872574E+02  0.51100000000E-03 0. -1.
        -11    1    3    3    0    0  0.20460833804E+01 -0.46758856460E+01  0.91777642450E+00  0.51858150373E+01  0.51100000000E-03 0.  1.
        -12    1    3    3    0    0  0.54399964366E+00 -0.64085352618E+01 -0.98542901361E+00  0.65066373923E+01  0.00000000000E+00 0.  1.
</event>
<event>
 7    1  0.4102844E-008  0.4614232E+02  0.7816164E-02  0.1320468E+00
        -11   -1    0    0    0    0  0.00000000000E+00  0.00000000000E+00  0.45593999997E+02  0.45594000000E+02  0.51100000000E-03 0.  1.
         11   -1    0    0    0    0 -0.00000000000E+00 -0.00000000000E+00 -0.45593999997E+02  0.45594000000E+02  0.51100000000E-03 0. -1.
    9900012    2    1    2    0    0 -0.18786992949E+02  0.36435718772E+02 -0.18670854057E+02  0.46142317657E+02  0.99999990520E+01 0.  0.
        -12    1    1    2    0    0  0.18786992949E+02 -0.36435718772E+02  0.18670854057E+02  0.45045682343E+02  0.00000000000E+00 0.  1.
         11    1    3    3    0    0 -0.66319067513E+01  0.20382122118E+02 -0.84561875432E+01  0.23041705606E+02  0.51100000000E-03 0. -1.
        -11    1    3    3    0    0 -0.30713463256E+01  0.50173308013E+01 -0.54890068788E+01  0.80458668519E+01  0.51100000000E-03 0.  1.
        -12    1    3    3    0    0 -0.90837398719E+01  0.11036265853E+02 -0.47256596349E+01  0.15054745200E+02  0.00000000000E+00 0.  1.
</event>
<event>
 7    1  0.4102844E-008  0.4614232E+02  0.7816164E-02  0.1320468E+00
        -11   -1    0    0    0    0  0.00000000000E+00  0.00000000000E+00  0.45593999997E+02  0.45594000000E+02  0.51100000000E-03 0.  1.
         11   -1    0    0    0    0 -0.00000000000E+00 -0.00000000000E+00 -0.45593999997E+02  0.45594000000E+02  0.51100000000E-03 0. -1.
    9900012    2    1    2    0    0  0.22683739067E+02  0.13505477217E+02 -0.36498813388E+02  0.46142319723E+02  0.10000017888E+02 0.  0.
        -12    1    1    2    0    0 -0.22683739067E+02 -0.13505477217E+02  0.36498813388E+02  0.45045680277E+02  0.00000000000E+00 0.  1.
         11    1    3    3    0    0  0.57508912619E+01  0.42432414851E+01 -0.17027902314E+02  0.18466924651E+02  0.51100000000E-03 0.  1.
        -11    1    3    3    0    0  0.90351915067E+01  0.48030703189E+01 -0.12950884110E+02  0.16505440605E+02  0.51100000000E-03 0. -1.
        -12    1    3    3    0    0  0.78976562981E+01  0.44591654124E+01 -0.65200269637E+01  0.11169954467E+02  0.00000000000E+00 0.  1.
</event>
<event>
 7    1  0.4102844E-008  0.4614232E+02  0.7816164E-02  0.1320468E+00
        -11   -1    0    0    0    0  0.00000000000E+00  0.00000000000E+00  0.45593999997E+02  0.45594000000E+02  0.51100000000E-03 0.  1.
         11   -1    0    0    0    0 -0.00000000000E+00 -0.00000000000E+00 -0.45593999997E+02  0.45594000000E+02  0.51100000000E-03 0. -1.
    9900012    2    1    2    0    0  0.16031260136E+01 -0.44704602933E+02 -0.52954595770E+01  0.46142318425E+02  0.10000006052E+02 0.  0.
        -12    1    1    2    0    0 -0.16031260136E+01  0.44704602933E+02  0.52954595770E+01  0.45045681575E+02  0.00000000000E+00 0.  1.
         11    1    3    3    0    0  0.33088847457E+01 -0.16107761602E+02  0.12462843680E+01  0.16491268207E+02  0.51100000000E-03 0. -1.
        -11    1    3    3    0    0 -0.71934627270E+00 -0.12204676552E+02 -0.48105799047E+01  0.13138236871E+02  0.51100000000E-03 0.  1.
         12    1    3    3    0    0 -0.98641245946E+00 -0.16392164780E+02 -0.17311640404E+01  0.16512813347E+02  0.00000000000E+00 0. -1.
</event>
<event>
 7    1  0.4102844E-008  0.4614232E+02  0.7816164E-02  0.1320468E+00
        -11   -1    0    0    0    0  0.00000000000E+00  0.00000000000E+00  0.45593999997E+02  0.45594000000E+02  0.51100000000E-03 0. -1.
         11   -1    0    0    0    0 -0.00000000000E+00 -0.00000000000E+00 -0.45593999997E+02  0.45594000000E+02  0.51100000000E-03 0.  1.
    9900012    2    1    2    0    0  0.44418922772E+02 -0.73265103094E+01 -0.15475899792E+01  0.46142317762E+02  0.10000000008E+02 0.  0.
        -12    1    1    2    0    0 -0.44418922772E+02  0.73265103094E+01  0.15475899792E+01  0.45045682238E+02  0.00000000000E+00 0.  1.
         11    1    3    3    0    0  0.18812578648E+02 -0.52778239610E+01  0.65765959379E+00  0.19549963108E+02  0.51100000000E-03 0. -1.
        -11    1    3    3    0    0  0.24593661528E+01 -0.21388068515E+01  0.46263666012E+00  0.32919613549E+01  0.51100000000E-03 0.  1.
         12    1    3    3    0    0  0.23146977972E+02  0.90120503188E-01 -0.26678862331E+01  0.23300393299E+02  0.00000000000E+00 0. -1.
</event>
<event>
 7    1  0.4102844E-008  0.4614232E+02  0.7816164E-02  0.1320468E+00
        -11   -1    0    0    0    0  0.00000000000E+00  0.00000000000E+00  0.45593999997E+02  0.45594000000E+02  0.51100000000E-03 0.  1.
         11   -1    0    0    0    0 -0.00000000000E+00 -0.00000000000E+00 -0.45593999997E+02  0.45594000000E+02  0.51100000000E-03 0. -1.
    9900012    2    1    2    0    0 -0.34704217228E+02  0.21073714037E+02  0.19509725423E+02  0.46142317601E+02  0.99999985401E+01 0.  0.
        -12    1    1    2    0    0  0.34704217228E+02 -0.21073714037E+02 -0.19509725423E+02  0.45045682399E+02  0.00000000000E+00 0.  1.
         11    1    3    3    0    0 -0.17062742221E+02  0.11693162928E+02  0.10409540297E+02  0.23156548983E+02  0.51100000000E-03 0. -1.
        -11    1    3    3    0    0 -0.17545362900E+02  0.95449924457E+01  0.98086784708E+01  0.22252119308E+02  0.51100000000E-03 0.  1.
        -12    1    3    3    0    0 -0.96112106787E-01 -0.16444133707E+00 -0.70849334462E+00  0.73364930981E+00  0.00000000000E+00 0.  1.
</event>
<event>
 7    1  0.4102844E-008  0.4614232E+02  0.7816164E-02  0.1320468E+00
        -11   -1    0    0    0    0  0.00000000000E+00  0.00000000000E+00  0.45593999997E+02  0.45594000000E+02  0.51100000000E-03 0. -1.
         11   -1    0    0    0    0 -0.00000000000E+00 -0.00000000000E+00 -0.45593999997E+02  0.45594000000E+02  0.51100000000E-03 0.  1.
    9900012    2    1    2    0    0 -0.19274287958E+02 -0.40635159104E+02 -0.25296442101E+01  0.46142318392E+02  0.10000005756E+02 0.  0.
        -12    1    1    2    0    0  0.19274287958E+02  0.40635159104E+02  0.25296442101E+01  0.45045681608E+02  0.00000000000E+00 0.  1.
         11    1    3    3    0    0 -0.14864545426E+02 -0.25593291365E+02 -0.10528746190E+00  0.29596999161E+02  0.51100000000E-03 0. -1.
        -11    1    3    3    0    0 -0.11808830153E+01 -0.11222902209E+01  0.91869654092E+00  0.18703004120E+01  0.51100000000E-03 0.  1.
        -12    1    3    3    0    0 -0.32288595162E+01 -0.13919577518E+02 -0.33430532891E+01  0.14675018819E+02  0.00000000000E+00 0.  1.
</event>
<event>
 7    1  0.4102844E-008  0.4614232E+02  0.7816164E-02  0.1320468E+00
        -11   -1    0    0    0    0  0.00000000000E+00  0.00000000000E+00  0.45593999997E+02  0.45594000000E+02  0.51100000000E-03 0.  1.
         11   -1    0    0    0    0 -0.00000000000E+00 -0.00000000000E+00 -0.45593999997E+02  0.45594000000E+02  0.51100000000E-03 0. -1.
    9900012    2    1    2    0    0  0.42494641711E+02 -0.71716116572E+01 -0.13110564418E+02  0.46142317774E+02  0.10000000113E+02 0.  0.
        -12    1    1    2    0    0 -0.42494641711E+02  0.71716116572E+01  0.13110564418E+02  0.45045682226E+02  0.00000000000E+00 0.  1.
         11    1    3    3    0    0  0.38298239088E+01 -0.79532540419E+00 -0.44528557293E+01  0.59268894100E+01  0.51100000000E-03 0. -1.
        -11    1    3    3    0    0  0.44771706132E+01 -0.10961622268E+01 -0.18050456828E+01  0.49502341869E+01  0.51100000000E-03 0.  1.
        -12    1    3    3    0    0  0.34187647189E+02 -0.52801240262E+01 -0.68526630056E+01  0.35265194177E+02  0.00000000000E+00 0.  1.
</event>
<event>
 7    1  0.4102844E-008  0.4614232E+02  0.7816164E-02  0.1320468E+00
        -11   -1    0    0    0    0  0.00000000000E+00  0.00000000000E+00  0.45593999997E+02  0.45594000000E+02  0.51100000000E-03 0. -1.
         11   -1    0    0    0    0 -0.00000000000E+00 -0.00000000000E+00 -0.45593999997E+02  0.45594000000E+02  0.51100000000E-03 0.  1.
    9900012    2    1    2    0    0 -0.52591581808E+01 -0.42186679602E+02  0.14890897878E+02  0.46142317408E+02  0.99999967762E+01 0.  0.
        -12    1    1    2    0    0  0.52591581808E+01  0.42186679602E+02 -0.14890897878E+02  0.45045682592E+02  0.00000000000E+00 0.  1.
         11    1    3    3    0    0  0.13951905357E+01 -0.24398214189E+02  0.92868723183E+01  0.26143171383E+02  0.51100000000E-03 0. -1.
        -11    1    3    3    0    0 -0.12053574293E+01 -0.11122866653E+01  0.69597263996E+00  0.17816975992E+01  0.51100000000E-03 0.  1.
         12    1    3    3    0    0 -0.54489912872E+01 -0.16676178748E+02  0.49080529199E+01  0.18217448425E+02  0.00000000000E+00 0. -1.
</event>
<event>
 7    1  0.4102844E-008  0.4614232E+02  0.7816164E-02  0.1320468E+00
        -11   -1    0    0    0    0  0.00000000000E+00  0.00000000000E+00  0.45593999997E+02  0.45594000000E+02  0.51100000000E-03 0.  1.
         11   -1    0    0    0    0 -0.00000000000E+00 -0.00000000000E+00 -0.45593999997E+02  0.45594000000E+02  0.51100000000E-03 0. -1.
    9900012    2    1    2    0    0 -0.15919965688E+02  0.31214279130E+02 -0.28307896013E+02  0.46142317568E+02  0.99999982349E+01 0.  0.
        -12    1    1    2    0    0  0.15919965688E+02 -0.31214279130E+02  0.28307896013E+02  0.45045682432E+02  0.00000000000E+00 0.  1.
         11    1    3    3    0    0 -0.51837017249E+01  0.12702073984E+02 -0.12337989571E+02  0.18451000894E+02  0.51100000000E-03 0. -1.
        -11    1    3    3    0    0 -0.11361024220E+01  0.37047447316E+00 -0.34450365086E+01  0.36464032766E+01  0.51100000000E-03 0.  1.
        -12    1    3    3    0    0 -0.96001615413E+01  0.18141730673E+02 -0.12524869933E+02  0.24044913397E+02  0.00000000000E+00 0.  1.
</event>
<event>
 7    1  0.4102844E-008  0.4614232E+02  0.7816164E-02  0.1320468E+00
        -11   -1    0    0    0    0  0.00000000000E+00  0.00000000000E+00  0.45593999997E+02  0.45594000000E+02  0.51100000000E-03 0.  1.
         11   -1    0    0    0    0 -0.00000000000E+00 -0.00000000000E+00 -0.45593999997E+02  0.45594000000E+02  0.51100000000E-03 0. -1.
    9900012    2    1    2    0    0 -0.26169172627E+02 -0.19433438103E+02 -0.31090664496E+02  0.46142317284E+02  0.99999956520E+01 0.  0.
        -12    1    1    2    0    0  0.26169172627E+02  0.19433438103E+02  0.31090664496E+02  0.45045682716E+02  0.00000000000E+00 0.  1.
         11    1    3    3    0    0 -0.17462604248E+02 -0.13652246749E+02 -0.17858690665E+02  0.28465052625E+02  0.51100000000E-03 0. -1.
        -11    1    3    3    0    0 -0.49632903989E+01 -0.61491700645E+01 -0.81189301279E+01  0.11329764814E+02  0.51100000000E-03 0.  1.
         12    1    3    3    0    0 -0.37432779801E+01  0.36797871003E+00 -0.51130437035E+01  0.63474998449E+01  0.00000000000E+00 0. -1.
</event>
<event>
 7    1  0.4102844E-008  0.4614232E+02  0.7816164E-02  0.1320468E+00
        -11   -1    0    0    0    0  0.00000000000E+00  0.00000000000E+00  0.45593999997E+02  0.45594000000E+02  0.51100000000E-03 0. -1.
         11   -1    0    0    0    0 -0.00000000000E+00 -0.00000000000E+00 -0.45593999997E+02  0.45594000000E+02  0.51100000000E-03 0.  1.
    9900012    2    1    2    0    0  0.28067836298E+02  0.30708441867E+02  0.17271409790E+02  0.46142318382E+02  0.10000005659E+02 0.  0.
        -12    1    1    2    0    0 -0.28067836298E+02 -0.30708441867E+02 -0.17271409790E+02  0.45045681618E+02  0.00000000000E+00 0.  1.
         11    1    3    3    0    0  0.76929203544E+01  0.10603749080E+02  0.79662391941E+01  0.15332367243E+02  0.51100000000E-03 0. -1.
        -11    1    3    3    0    0  0.13534398921E+01  0.43377699616E+01  0.24861336270E+01  0.51796629672E+01  0.51100000000E-03 0.  1.
        -12    1    3    3    0    0  0.19021476051E+02  0.15766922826E+02  0.68190369686E+01  0.25630288171E+02  0.00000000000E+00 0.  1.
</event>
<event>
 7    1  0.4102844E-008  0.4614232E+02  0.7816164E-02  0.1320468E+00
        -11   -1    0    0    0    0  0.00000000000E+00  0.00000000000E+00  0.45593999997E+02  0.45594000000E+02  0.51100000000E-03 0. -1.
         11   -1    0    0    0    0 -0.00000000000E+00 -0.00000000000E+00 -0.45593999997E+02  0.45594000000E+02  0.51100000000E-03 0.  1.
    9900012    2    1    2    0    0 -0.12788574085E+02  0.24014785967E+02  0.35900640711E+02  0.46142316792E+02  0.99999911655E+01 0.  0.
        -12    1    1    2    0    0  0.12788574085E+02 -0.24014785967E+02 -0.35900640711E+02  0.45045683208E+02  0.00000000000E+00 0.  1.
         11    1    3    3    0    0 -0.11340045554E+01  0.57347944849E+01  0.82680598275E+01  0.10125939348E+02  0.51100000000E-03 0. -1.
        -11    1    3    3    0    0 -0.11147250166E+02  0.14983194372E+02  0.18471644082E+02  0.26267069407E+02  0.51100000000E-03 0.  1.
        -12    1    3    3    0    0 -0.50731936376E+00  0.32967971099E+01  0.91609368017E+01  0.97493080373E+01  0.00000000000E+00 0.  1.
</event>
<event>
 7    1  0.4102844E-008  0.4614232E+02  0.7816164E-02  0.1320468E+00
        -11   -1    0    0    0    0  0.00000000000E+00  0.00000000000E+00  0.45593999997E+02  0.45594000000E+02  0.51100000000E-03 0. -1.
         11   -1    0    0    0    0 -0.00000000000E+00 -0.00000000000E+00 -0.45593999997E+02  0.45594000000E+02  0.51100000000E-03 0.  1.
    9900012    2    1    2    0    0 -0.14562271659E+01  0.42198841151E+02  0.15692377557E+02  0.46142317572E+02  0.99999982760E+01 0.  0.
        -12    1    1    2    0    0  0.14562271659E+01 -0.42198841151E+02 -0.15692377557E+02  0.45045682428E+02  0.00000000000E+00 0.  1.
         11    1    3    3    0    0  0.14713014279E+01  0.73664887083E+00 -0.22421384292E-01  0.16455644716E+01  0.51100000000E-03 0.  1.
        -11    1    3    3    0    0 -0.11557826078E+01  0.18262852059E+02  0.57054013185E+01  0.19168182054E+02  0.51100000000E-03 0. -1.
        -12    1    3    3    0    0 -0.17717459859E+01  0.23199340220E+02  0.10009397622E+02  0.25328571047E+02  0.00000000000E+00 0.  1.
</event>
<event>
 7    1  0.4102844E-008  0.4614232E+02  0.7816164E-02  0.1320468E+00
        -11   -1    0    0    0    0  0.00000000000E+00  0.00000000000E+00  0.45593999997E+02  0.45594000000E+02  0.51100000000E-03 0.  1.
         11   -1    0    0    0    0 -0.00000000000E+00 -0.00000000000E+00 -0.45593999997E+02  0.45594000000E+02  0.51100000000E-03 0. -1.
    9900012    2    1    2    0    0  0.31029440730E+02 -0.68440909389E+01 -0.31928761670E+02  0.46142316582E+02  0.99999892490E+01 0.  0.
        -12    1    1    2    0    0 -0.31029440730E+02  0.68440909389E+01  0.31928761670E+02  0.45045683418E+02  0.00000000000E+00 0.  1.
         11    1    3    3    0    0 -0.12241958221E+00  0.70026779286E+00 -0.18102377150E+01  0.19448193700E+01  0.51100000000E-03 0. -1.
        -11    1    3    3    0    0  0.15499123529E+01  0.10488420315E+00 -0.50656403134E+00  0.16339633951E+01  0.51100000000E-03 0.  1.
        -12    1    3    3    0    0  0.29601947960E+02 -0.76492429349E+01 -0.29611959923E+02  0.42563533817E+02  0.00000000000E+00 0.  1.
</event>
<event>
 7    1  0.4102844E-008  0.4614232E+02  0.7816164E-02  0.1320468E+00
        -11   -1    0    0    0    0  0.00000000000E+00  0.00000000000E+00  0.45593999997E+02  0.45594000000E+02  0.51100000000E-03 0.  1.
         11   -1    0    0    0    0 -0.00000000000E+00 -0.00000000000E+00 -0.45593999997E+02  0.45594000000E+02  0.51100000000E-03 0. -1.
    9900012    2    1    2    0    0  0.26645565134E+02  0.11805196876E+02 -0.34347703173E+02  0.46142317323E+02  0.99999960067E+01 0.  0.
        -12    1    1    2    0    0 -0.26645565134E+02 -0.11805196876E+02  0.34347703173E+02  0.45045682677E+02  0.00000000000E+00 0.  1.
         11    1    3    3    0    0  0.14755727849E+02  0.54135079321E+01 -0.14419627977E+02  0.21329867410E+02  0.51100000000E-03 0. -1.
        -11    1    3    3    0    0  0.38767635268E+01  0.47482103206E+01 -0.55432253796E+01  0.82645111508E+01  0.51100000000E-03 0.  1.
        -12    1    3    3    0    0  0.80130737575E+01  0.16434786231E+01 -0.14384849817E+02  0.16547938762E+02  0.00000000000E+00 0.  1.
</event>
<event>
 7    1  0.4102844E-008  0.4614232E+02  0.7816164E-02  0.1320468E+00
        -11   -1    0    0    0    0  0.00000000000E+00  0.00000000000E+00  0.45593999997E+02  0.45594000000E+02  0.51100000000E-03 0.  1.
         11   -1    0    0    0    0 -0.00000000000E+00 -0.00000000000E+00 -0.45593999997E+02  0.45594000000E+02  0.51100000000E-03 0. -1.
    9900012    2    1    2    0    0 -0.18214786854E+02  0.62607819699E+01 -0.40720236861E+02  0.46142317176E+02  0.99999946666E+01 0.  0.
        -12    1    1    2    0    0  0.18214786854E+02 -0.62607819699E+01  0.40720236861E+02  0.45045682824E+02  0.00000000000E+00 0.  1.
         11    1    3    3    0    0 -0.40897978124E+01 -0.40215901607E+00 -0.14260337814E+02  0.14840667534E+02  0.51100000000E-03 0. -1.
        -11    1    3    3    0    0 -0.14625233424E+01 -0.19380344301E+00 -0.66467488418E+01  0.68085097289E+01  0.51100000000E-03 0.  1.
        -12    1    3    3    0    0 -0.12662465700E+02  0.68567444290E+01 -0.19813150206E+02  0.24493139914E+02  0.00000000000E+00 0.  1.
</event>
<event>
 7    1  0.4102844E-008  0.4614232E+02  0.7816164E-02  0.1320468E+00
        -11   -1    0    0    0    0  0.00000000000E+00  0.00000000000E+00  0.45593999997E+02  0.45594000000E+02  0.51100000000E-03 0.  1.
         11   -1    0    0    0    0 -0.00000000000E+00 -0.00000000000E+00 -0.45593999997E+02  0.45594000000E+02  0.51100000000E-03 0. -1.
    9900012    2    1    2    0    0  0.36807243538E+01  0.43362788554E+02 -0.11629028486E+02  0.46142318004E+02  0.10000002211E+02 0.  0.
        -12    1    1    2    0    0 -0.36807243538E+01 -0.43362788554E+02  0.11629028486E+02  0.45045681996E+02  0.00000000000E+00 0.  1.
         11    1    3    3    0    0  0.50171190248E+01  0.16034937311E+02 -0.31956272027E+01  0.17102711228E+02  0.51100000000E-03 0. -1.
        -11    1    3    3    0    0 -0.33633865463E+00  0.85107746593E+01 -0.31973680899E+00  0.85234172068E+01  0.51100000000E-03 0.  1.
         12    1    3    3    0    0 -0.10000560164E+01  0.18817076584E+02 -0.81136644747E+01  0.20516189569E+02  0.00000000000E+00 0. -1.
</event>
<event>
 7    1  0.4102844E-008  0.4614232E+02  0.7816164E-02  0.1320468E+00
        -11   -1    0    0    0    0  0.00000000000E+00  0.00000000000E+00  0.45593999997E+02  0.45594000000E+02  0.51100000000E-03 0. -1.
         11   -1    0    0    0    0 -0.00000000000E+00 -0.00000000000E+00 -0.45593999997E+02  0.45594000000E+02  0.51100000000E-03 0.  1.
    9900012    2    1    2    0    0 -0.16085203417E+02 -0.39301020749E+02  0.15026949713E+02  0.46142320756E+02  0.10000027313E+02 0.  0.
        -12    1    1    2    0    0  0.16085203417E+02  0.39301020749E+02 -0.15026949713E+02  0.45045679244E+02  0.00000000000E+00 0.  1.
         11    1    3    3    0    0 -0.12619059271E+02 -0.25300577165E+02  0.11950578738E+02  0.30694888731E+02  0.51100000000E-03 0. -1.
        -11    1    3    3    0    0 -0.33617852180E+01 -0.12565892778E+02  0.11714217619E+01  0.13060455213E+02  0.51100000000E-03 0.  1.
        -12    1    3    3    0    0 -0.10435892828E+00 -0.14345508052E+01  0.19049492134E+01  0.23869768127E+01  0.00000000000E+00 0.  1.
</event>
<event>
 7    1  0.4102844E-008  0.4614231E+02  0.7816164E-02  0.1320468E+00
        -11   -1    0    0    0    0  0.00000000000E+00  0.00000000000E+00  0.45593999997E+02  0.45594000000E+02  0.51100000000E-03 0.  1.
         11   -1    0    0    0    0 -0.00000000000E+00 -0.00000000000E+00 -0.45593999997E+02  0.45594000000E+02  0.51100000000E-03 0. -1.
    9900012    2    1    2    0    0  0.19685802008E+02  0.41903638384E+01 -0.40299187369E+02  0.46142307060E+02  0.99999024178E+01 0.  0.
        -12    1    1    2    0    0 -0.19685802008E+02 -0.41903638384E+01  0.40299187369E+02  0.45045692940E+02  0.00000000000E+00 0.  1.
         11    1    3    3    0    0  0.86927852493E+01  0.48114492846E+01 -0.14681870240E+02  0.17727714845E+02  0.51100000000E-03 0. -1.
        -11    1    3    3    0    0 -0.70636046415E-01  0.10710085242E+01 -0.28380343899E+01  0.30342195322E+01  0.51100000000E-03 0.  1.
         12    1    3    3    0    0  0.11063652805E+02 -0.16920939705E+01 -0.22779282739E+02  0.25380372683E+02  0.00000000000E+00 0. -1.
</event>
<event>
 7    1  0.4102844E-008  0.4614232E+02  0.7816164E-02  0.1320468E+00
        -11   -1    0    0    0    0  0.00000000000E+00  0.00000000000E+00  0.45593999997E+02  0.45594000000E+02  0.51100000000E-03 0.  1.
         11   -1    0    0    0    0 -0.00000000000E+00 -0.00000000000E+00 -0.45593999997E+02  0.45594000000E+02  0.51100000000E-03 0. -1.
    9900012    2    1    2    0    0  0.83369714645E+01  0.23697757353E+02 -0.37390167950E+02  0.46142318120E+02  0.10000003269E+02 0.  0.
        -12    1    1    2    0    0 -0.83369714645E+01 -0.23697757353E+02  0.37390167950E+02  0.45045681880E+02  0.00000000000E+00 0.  1.
         11    1    3    3    0    0  0.12287482154E+01  0.99478647945E+01 -0.11850055441E+02  0.15520749027E+02  0.51100000000E-03 0. -1.
        -11    1    3    3    0    0  0.30853874019E+01  0.10338361470E+02 -0.21213486636E+02  0.23799440095E+02  0.51100000000E-03 0.  1.
        -12    1    3    3    0    0  0.40228358471E+01  0.34115310885E+01 -0.43266258729E+01  0.68221289980E+01  0.00000000000E+00 0.  1.
</event>
<event>
 7    1  0.4102844E-008  0.4614232E+02  0.7816164E-02  0.1320468E+00
        -11   -1    0    0    0    0  0.00000000000E+00  0.00000000000E+00  0.45593999997E+02  0.45594000000E+02  0.51100000000E-03 0.  1.
         11   -1    0    0    0    0 -0.00000000000E+00 -0.00000000000E+00 -0.45593999997E+02  0.45594000000E+02  0.51100000000E-03 0. -1.
    9900012    2    1    2    0    0  0.41951073090E+02  0.77078930533E+01  0.14484798379E+02  0.46142317268E+02  0.99999955044E+01 0.  0.
        -12    1    1    2    0    0 -0.41951073090E+02 -0.77078930533E+01 -0.14484798379E+02  0.45045682732E+02  0.00000000000E+00 0.  1.
         11    1    3    3    0    0  0.12805961508E+02  0.24979150045E+01  0.55735182573E+01  0.14187893978E+02  0.51100000000E-03 0. -1.
        -11    1    3    3    0    0  0.27164757019E+02  0.48349989031E+01  0.10359681799E+02  0.29472431958E+02  0.51100000000E-03 0.  1.
        -12    1    3    3    0    0  0.19803545628E+01  0.37497914569E+00 -0.14484016767E+01  0.24819913319E+01  0.00000000000E+00 0.  1.
</event>
<event>
 7    1  0.4102844E-008  0.4614232E+02  0.7816164E-02  0.1320468E+00
        -11   -1    0    0    0    0  0.00000000000E+00  0.00000000000E+00  0.45593999997E+02  0.45594000000E+02  0.51100000000E-03 0.  1.
         11   -1    0    0    0    0 -0.00000000000E+00 -0.00000000000E+00 -0.45593999997E+02  0.45594000000E+02  0.51100000000E-03 0. -1.
    9900012    2    1    2    0    0 -0.41641963657E+02 -0.14521546251E+02 -0.91752074300E+01  0.46142324579E+02  0.10000062170E+02 0.  0.
        -12    1    1    2    0    0  0.41641963657E+02  0.14521546251E+02  0.91752074300E+01  0.45045675421E+02  0.00000000000E+00 0.  1.
         11    1    3    3    0    0 -0.19009611253E+02 -0.95676886293E+01 -0.78069403900E+01  0.22668354687E+02  0.51100000000E-03 0. -1.
        -11    1    3    3    0    0 -0.17318883113E+02 -0.40692497229E+01 -0.25128462637E+01  0.17967106116E+02  0.51100000000E-03 0.  1.
        -12    1    3    3    0    0 -0.53134692917E+01 -0.88460789879E+00  0.11445792237E+01  0.55068637760E+01  0.00000000000E+00 0.  1.
</event>
<event>
 7    1  0.4102844E-008  0.4614232E+02  0.7816164E-02  0.1320468E+00
        -11   -1    0    0    0    0  0.00000000000E+00  0.00000000000E+00  0.45593999997E+02  0.45594000000E+02  0.51100000000E-03 0. -1.
         11   -1    0    0    0    0 -0.00000000000E+00 -0.00000000000E+00 -0.45593999997E+02  0.45594000000E+02  0.51100000000E-03 0.  1.
    9900012    2    1    2    0    0  0.25215806545E+02 -0.10191849936E+02  0.35908254553E+02  0.46142318188E+02  0.10000003892E+02 0.  0.
        -12    1    1    2    0    0 -0.25215806545E+02  0.10191849936E+02 -0.35908254553E+02  0.45045681812E+02  0.00000000000E+00 0.  1.
         11    1    3    3    0    0  0.37092925914E+01 -0.15236695804E+01  0.67306833320E+01  0.78346996685E+01  0.51100000000E-03 0. -1.
        -11    1    3    3    0    0  0.39593683201E+01 -0.57948645690E+01  0.75255525349E+01  0.10290334984E+02  0.51100000000E-03 0.  1.
         12    1    3    3    0    0  0.17547145634E+02 -0.28733157864E+01  0.21652018687E+02  0.28017283535E+02  0.00000000000E+00 0. -1.
</event>
<event>
 7    1  0.4102844E-008  0.4614232E+02  0.7816164E-02  0.1320468E+00
        -11   -1    0    0    0    0  0.00000000000E+00  0.00000000000E+00  0.45593999997E+02  0.45594000000E+02  0.51100000000E-03 0. -1.
         11   -1    0    0    0    0 -0.00000000000E+00 -0.00000000000E+00 -0.45593999997E+02  0.45594000000E+02  0.51100000000E-03 0.  1.
    9900012    2    1    2    0    0 -0.15000885985E+02 -0.42154599263E+02 -0.52035253215E+01  0.46142317686E+02  0.99999993160E+01 0.  0.
        -12    1    1    2    0    0  0.15000885985E+02  0.42154599263E+02  0.52035253215E+01  0.45045682314E+02  0.00000000000E+00 0.  1.
         11    1    3    3    0    0  0.10209821818E-01 -0.48422549045E+01  0.50279260534E+00  0.48682992375E+01  0.51100000000E-03 0. -1.
        -11    1    3    3    0    0 -0.39244515729E+01 -0.80310776879E+01 -0.43344572875E+01  0.99341355545E+01  0.51100000000E-03 0.  1.
         12    1    3    3    0    0 -0.11086644234E+02 -0.29281266670E+02 -0.13718606393E+01  0.31339882894E+02  0.00000000000E+00 0. -1.
</event>
<event>
 7    1  0.4102844E-008  0.4614232E+02  0.7816164E-02  0.1320468E+00
        -11   -1    0    0    0    0  0.00000000000E+00  0.00000000000E+00  0.45593999997E+02  0.45594000000E+02  0.51100000000E-03 0. -1.
         11   -1    0    0    0    0 -0.00000000000E+00 -0.00000000000E+00 -0.45593999997E+02  0.45594000000E+02  0.51100000000E-03 0.  1.
    9900012    2    1    2    0    0 -0.20065073661E+02  0.37212065781E+02  0.15548901975E+02  0.46142319038E+02  0.10000011642E+02 0.  0.
        -12    1    1    2    0    0  0.20065073661E+02 -0.37212065781E+02 -0.15548901975E+02  0.45045680962E+02  0.00000000000E+00 0.  1.
         11    1    3    3    0    0 -0.20059545194E+01  0.78687843938E+01  0.26318140655E+01  0.85362794534E+01  0.51100000000E-03 0. -1.
        -11    1    3    3    0    0 -0.31736505263E+01  0.32564638062E+01 -0.74850427016E+00  0.46083481951E+01  0.51100000000E-03 0.  1.
         12    1    3    3    0    0 -0.14885468615E+02  0.26086817581E+02  0.13665592180E+02  0.32997691389E+02  0.00000000000E+00 0. -1.
</event>
<event>
 7    1  0.4102844E-008  0.4614232E+02  0.7816164E-02  0.1320468E+00
        -11   -1    0    0    0    0  0.00000000000E+00  0.00000000000E+00  0.45593999997E+02  0.45594000000E+02  0.51100000000E-03 0.  1.
         11   -1    0    0    0    0 -0.00000000000E+00 -0.00000000000E+00 -0.45593999997E+02  0.45594000000E+02  0.51100000000E-03 0. -1.
    9900012    2    1    2    0    0 -0.23122870452E+02  0.29538599395E+02 -0.24938272161E+02  0.46142318625E+02  0.10000007880E+02 0.  0.
        -12    1    1    2    0    0  0.23122870452E+02 -0.29538599395E+02  0.24938272161E+02  0.45045681375E+02  0.00000000000E+00 0.  1.
         11    1    3    3    0    0 -0.69726714996E+01  0.12855261927E+02 -0.86475511175E+01  0.16989880742E+02  0.51100000000E-03 0. -1.
        -11    1    3    3    0    0 -0.60601901974E+01  0.10021196488E+02 -0.54662342975E+01  0.12924008741E+02  0.51100000000E-03 0.  1.
        -12    1    3    3    0    0 -0.10090008755E+02  0.66621409805E+01 -0.10824486745E+02  0.16228429142E+02  0.00000000000E+00 0.  1.
</event>
<event>
 7    1  0.4102844E-008  0.4614232E+02  0.7816164E-02  0.1320468E+00
        -11   -1    0    0    0    0  0.00000000000E+00  0.00000000000E+00  0.45593999997E+02  0.45594000000E+02  0.51100000000E-03 0.  1.
         11   -1    0    0    0    0 -0.00000000000E+00 -0.00000000000E+00 -0.45593999997E+02  0.45594000000E+02  0.51100000000E-03 0. -1.
    9900012    2    1    2    0    0  0.31873109216E+02  0.10628532666E+02 -0.30004210178E+02  0.46142318452E+02  0.10000006299E+02 0.  0.
        -12    1    1    2    0    0 -0.31873109216E+02 -0.10628532666E+02  0.30004210178E+02  0.45045681548E+02  0.00000000000E+00 0.  1.
         11    1    3    3    0    0  0.86633597415E+01  0.69281728451E+00 -0.48397082338E+01  0.99476918855E+01  0.51100000000E-03 0. -1.
        -11    1    3    3    0    0  0.93931855171E+01  0.74208634049E+01 -0.11733148018E+02  0.16762097437E+02  0.51100000000E-03 0.  1.
        -12    1    3    3    0    0  0.13816563958E+02  0.25148519764E+01 -0.13431353926E+02  0.19432529129E+02  0.00000000000E+00 0.  1.
</event>
<event>
 7    1  0.4102844E-008  0.4614231E+02  0.7816164E-02  0.1320468E+00
        -11   -1    0    0    0    0  0.00000000000E+00  0.00000000000E+00  0.45593999997E+02  0.45594000000E+02  0.51100000000E-03 0.  1.
         11   -1    0    0    0    0 -0.00000000000E+00 -0.00000000000E+00 -0.45593999997E+02  0.45594000000E+02  0.51100000000E-03 0. -1.
    9900012    2    1    2    0    0  0.24612163586E+02  0.10133972121E+02 -0.36340855210E+02  0.46142314915E+02  0.99999740498E+01 0.  0.
        -12    1    1    2    0    0 -0.24612163586E+02 -0.10133972121E+02  0.36340855210E+02  0.45045685085E+02  0.00000000000E+00 0.  1.
         11    1    3    3    0    0  0.11683015604E+02  0.56522773094E+01 -0.19238764427E+02  0.23207135742E+02  0.51100000000E-03 0. -1.
        -11    1    3    3    0    0  0.97874002425E+01  0.15251151901E+01 -0.15371908471E+02  0.18287010421E+02  0.51100000000E-03 0.  1.
        -12    1    3    3    0    0  0.31417477394E+01  0.29565796218E+01 -0.17301823125E+01  0.46481687526E+01  0.00000000000E+00 0.  1.
</event>
<event>
 7    1  0.4102844E-008  0.4614232E+02  0.7816164E-02  0.1320468E+00
        -11   -1    0    0    0    0  0.00000000000E+00  0.00000000000E+00  0.45593999997E+02  0.45594000000E+02  0.51100000000E-03 0.  1.
         11   -1    0    0    0    0 -0.00000000000E+00 -0.00000000000E+00 -0.45593999997E+02  0.45594000000E+02  0.51100000000E-03 0. -1.
    9900012    2    1    2    0    0  0.32357204428E+02  0.12453935434E+02 -0.28758029017E+02  0.46142318530E+02  0.10000007009E+02 0.  0.
        -12    1    1    2    0    0 -0.32357204428E+02 -0.12453935434E+02  0.28758029017E+02  0.45045681470E+02  0.00000000000E+00 0.  1.
         11    1    3    3    0    0  0.55486501704E+01  0.42474385114E+01 -0.67752454146E+01  0.97330469695E+01  0.51100000000E-03 0.  1.
        -11    1    3    3    0    0  0.17704335048E+02  0.31241932684E+01 -0.17402025081E+02  0.25020682250E+02  0.51100000000E-03 0. -1.
         12    1    3    3    0    0  0.91042192097E+01  0.50823036542E+01 -0.45807585209E+01  0.11388589310E+02  0.00000000000E+00 0. -1.
</event>
<event>
 7    1  0.4102844E-008  0.4614232E+02  0.7816164E-02  0.1320468E+00
        -11   -1    0    0    0    0  0.00000000000E+00  0.00000000000E+00  0.45593999997E+02  0.45594000000E+02  0.51100000000E-03 0.  1.
         11   -1    0    0    0    0 -0.00000000000E+00 -0.00000000000E+00 -0.45593999997E+02  0.45594000000E+02  0.51100000000E-03 0. -1.
    9900012    2    1    2    0    0  0.29570173900E+02 -0.33544071219E+02 -0.54326448362E+01  0.46142317318E+02  0.99999959557E+01 0.  0.
        -12    1    1    2    0    0 -0.29570173900E+02  0.33544071219E+02  0.54326448362E+01  0.45045682682E+02  0.00000000000E+00 0.  1.
         11    1    3    3    0    0  0.39899968009E+01 -0.39836261238E+01 -0.30828524803E+01  0.64259887365E+01  0.51100000000E-03 0. -1.
        -11    1    3    3    0    0  0.99130970877E+01 -0.16217267226E+02 -0.22251460330E+01  0.19136889123E+02  0.51100000000E-03 0.  1.
         12    1    3    3    0    0  0.15667080012E+02 -0.13343177868E+02 -0.12464632284E+00  0.20579439458E+02  0.00000000000E+00 0. -1.
</event>
<event>
 7    1  0.4102844E-008  0.4614232E+02  0.7816164E-02  0.1320468E+00
        -11   -1    0    0    0    0  0.00000000000E+00  0.00000000000E+00  0.45593999997E+02  0.45594000000E+02  0.51100000000E-03 0. -1.
         11   -1    0    0    0    0 -0.00000000000E+00 -0.00000000000E+00 -0.45593999997E+02  0.45594000000E+02  0.51100000000E-03 0.  1.
    9900012    2    1    2    0    0 -0.37645184713E+02 -0.82533716245E+01  0.23320277500E+02  0.46142318543E+02  0.10000007130E+02 0.  0.
        -12    1    1    2    0    0  0.37645184713E+02  0.82533716245E+01 -0.23320277500E+02  0.45045681457E+02  0.00000000000E+00 0.  1.
         11    1    3    3    0    0 -0.21738769922E+02 -0.77796279809E+01  0.11402559663E+02  0.25751021269E+02  0.51100000000E-03 0. -1.
        -11    1    3    3    0    0 -0.18799128823E+01 -0.54192857993E+00 -0.43784457828E-01  0.19569558939E+01  0.51100000000E-03 0.  1.
         12    1    3    3    0    0 -0.14026501908E+02  0.68184936310E-01  0.11961502296E+02  0.18434341380E+02  0.00000000000E+00 0. -1.
</event>
<event>
 7    1  0.4102844E-008  0.4614232E+02  0.7816164E-02  0.1320468E+00
        -11   -1    0    0    0    0  0.00000000000E+00  0.00000000000E+00  0.45593999997E+02  0.45594000000E+02  0.51100000000E-03 0.  1.
         11   -1    0    0    0    0 -0.00000000000E+00 -0.00000000000E+00 -0.45593999997E+02  0.45594000000E+02  0.51100000000E-03 0. -1.
    9900012    2    1    2    0    0  0.30950782869E+02  0.15267322498E+02 -0.28949463291E+02  0.46142317396E+02  0.99999966694E+01 0.  0.
        -12    1    1    2    0    0 -0.30950782869E+02 -0.15267322498E+02  0.28949463291E+02  0.45045682604E+02  0.00000000000E+00 0.  1.
         11    1    3    3    0    0  0.27666858559E+02  0.14642569984E+02 -0.22621593422E+02  0.38621191171E+02  0.51100000000E-03 0. -1.
        -11    1    3    3    0    0  0.36033321216E+01  0.81325349139E+00 -0.57762798427E+01  0.68564416939E+01  0.51100000000E-03 0.  1.
         12    1    3    3    0    0 -0.31940781222E+00 -0.18850097676E+00 -0.55159002585E+00  0.66468453071E+00  0.00000000000E+00 0. -1.
</event>
<event>
 7    1  0.4102844E-008  0.4614232E+02  0.7816164E-02  0.1320468E+00
        -11   -1    0    0    0    0  0.00000000000E+00  0.00000000000E+00  0.45593999997E+02  0.45594000000E+02  0.51100000000E-03 0.  1.
         11   -1    0    0    0    0 -0.00000000000E+00 -0.00000000000E+00 -0.45593999997E+02  0.45594000000E+02  0.51100000000E-03 0. -1.
    9900012    2    1    2    0    0 -0.31691490911E+02 -0.10579278494E+02 -0.30213270926E+02  0.46142317969E+02  0.10000001898E+02 0.  0.
        -12    1    1    2    0    0  0.31691490911E+02  0.10579278494E+02  0.30213270926E+02  0.45045682031E+02  0.00000000000E+00 0.  1.
         11    1    3    3    0    0 -0.39859773893E+00  0.12645266213E+00 -0.21017879574E+01  0.21429846738E+01  0.51100000000E-03 0. -1.
        -11    1    3    3    0    0 -0.33587148503E+01 -0.27012730237E+01 -0.14073271918E+01  0.45341384496E+01  0.51100000000E-03 0.  1.
         12    1    3    3    0    0 -0.27934178321E+02 -0.80044581326E+01 -0.26704155776E+02  0.39465194846E+02  0.00000000000E+00 0. -1.
</event>
<event>
 7    1  0.4102844E-008  0.4614232E+02  0.7816164E-02  0.1320468E+00
        -11   -1    0    0    0    0  0.00000000000E+00  0.00000000000E+00  0.45593999997E+02  0.45594000000E+02  0.51100000000E-03 0.  1.
         11   -1    0    0    0    0 -0.00000000000E+00 -0.00000000000E+00 -0.45593999997E+02  0.45594000000E+02  0.51100000000E-03 0. -1.
    9900012    2    1    2    0    0  0.20407896916E+01  0.35336164134E+02 -0.27862236504E+02  0.46142317173E+02  0.99999946401E+01 0.  0.
        -12    1    1    2    0    0 -0.20407896916E+01 -0.35336164134E+02  0.27862236504E+02  0.45045682827E+02  0.00000000000E+00 0.  1.
         11    1    3    3    0    0  0.25487769803E+01  0.71665727022E+01 -0.53071185084E+01  0.92747795400E+01  0.51100000000E-03 0. -1.
        -11    1    3    3    0    0 -0.21331012809E+01  0.76068795126E+01 -0.30187385031E+01  0.84573943626E+01  0.51100000000E-03 0.  1.
         12    1    3    3    0    0  0.16251139922E+01  0.20562711919E+02 -0.19536379493E+02  0.28410143271E+02  0.00000000000E+00 0. -1.
</event>
<event>
 7    1  0.4102844E-008  0.4614232E+02  0.7816164E-02  0.1320468E+00
        -11   -1    0    0    0    0  0.00000000000E+00  0.00000000000E+00  0.45593999997E+02  0.45594000000E+02  0.51100000000E-03 0. -1.
         11   -1    0    0    0    0 -0.00000000000E+00 -0.00000000000E+00 -0.45593999997E+02  0.45594000000E+02  0.51100000000E-03 0.  1.
    9900012    2    1    2    0    0  0.37717750483E+02 -0.20503743762E+02 -0.13641163021E+02  0.46142317207E+02  0.99999949448E+01 0.  0.
        -12    1    1    2    0    0 -0.37717750483E+02  0.20503743762E+02  0.13641163021E+02  0.45045682793E+02  0.00000000000E+00 0.  1.
         11    1    3    3    0    0  0.16894916082E+01 -0.11598676571E+01 -0.17888272039E+01  0.27202165176E+01  0.51100000000E-03 0. -1.
        -11    1    3    3    0    0  0.27147485469E+02 -0.15475504096E+02 -0.12629359552E+02  0.33704271499E+02  0.51100000000E-03 0.  1.
         12    1    3    3    0    0  0.88807734053E+01 -0.38683720093E+01  0.77702373559E+00  0.97178291899E+01  0.00000000000E+00 0. -1.
</event>
<event>
 7    1  0.4102844E-008  0.4614233E+02  0.7816164E-02  0.1320468E+00
        -11   -1    0    0    0    0  0.00000000000E+00  0.00000000000E+00  0.45593999997E+02  0.45594000000E+02  0.51100000000E-03 0.  1.
         11   -1    0    0    0    0 -0.00000000000E+00 -0.00000000000E+00 -0.45593999997E+02  0.45594000000E+02  0.51100000000E-03 0. -1.
    9900012    2    1    2    0    0 -0.25624966874E+02  0.12981937881E+01 -0.37024156031E+02  0.46142330239E+02  0.10000113785E+02 0.  0.
        -12    1    1    2    0    0  0.25624966874E+02 -0.12981937881E+01  0.37024156031E+02  0.45045669761E+02  0.00000000000E+00 0.  1.
         11    1    3    3    0    0 -0.34051045053E+01  0.17040558288E+01 -0.28097756590E+01  0.47321646711E+01  0.51100000000E-03 0. -1.
        -11    1    3    3    0    0 -0.19940670600E+01  0.11647644213E+01 -0.10584962053E+01  0.25403531397E+01  0.51100000000E-03 0.  1.
         12    1    3    3    0    0 -0.20225795308E+02 -0.15706264621E+01 -0.33155884167E+02  0.38869812428E+02  0.00000000000E+00 0. -1.
</event>
<event>
 7    1  0.4102844E-008  0.4614232E+02  0.7816164E-02  0.1320468E+00
        -11   -1    0    0    0    0  0.00000000000E+00  0.00000000000E+00  0.45593999997E+02  0.45594000000E+02  0.51100000000E-03 0.  1.
         11   -1    0    0    0    0 -0.00000000000E+00 -0.00000000000E+00 -0.45593999997E+02  0.45594000000E+02  0.51100000000E-03 0. -1.
    9900012    2    1    2    0    0  0.56131865531E+01 -0.16168977845E+02 -0.41667370337E+02  0.46142318091E+02  0.10000003010E+02 0.  0.
        -12    1    1    2    0    0 -0.56131865531E+01  0.16168977845E+02  0.41667370337E+02  0.45045681909E+02  0.00000000000E+00 0.  1.
         11    1    3    3    0    0 -0.15763931857E+01 -0.26298300707E+01 -0.99514647249E+01  0.10413100984E+02  0.51100000000E-03 0. -1.
        -11    1    3    3    0    0  0.64159261725E+00 -0.73543524436E+00 -0.75136385739E+01  0.75767586054E+01  0.51100000000E-03 0.  1.
         12    1    3    3    0    0  0.65479871215E+01 -0.12803712530E+02 -0.24202267038E+02  0.28152458502E+02  0.00000000000E+00 0. -1.
</event>
<event>
 7    1  0.4102844E-008  0.4614232E+02  0.7816164E-02  0.1320468E+00
        -11   -1    0    0    0    0  0.00000000000E+00  0.00000000000E+00  0.45593999997E+02  0.45594000000E+02  0.51100000000E-03 0. -1.
         11   -1    0    0    0    0 -0.00000000000E+00 -0.00000000000E+00 -0.45593999997E+02  0.45594000000E+02  0.51100000000E-03 0.  1.
    9900012    2    1    2    0    0  0.99526597648E+01  0.42647268679E+02  0.10548396834E+02  0.46142316101E+02  0.99999848593E+01 0.  0.
        -12    1    1    2    0    0 -0.99526597648E+01 -0.42647268679E+02 -0.10548396834E+02  0.45045683899E+02  0.00000000000E+00 0.  1.
         11    1    3    3    0    0  0.29870068889E+01  0.22043473093E+02  0.63520617225E+01  0.23134078857E+02  0.51100000000E-03 0. -1.
        -11    1    3    3    0    0  0.71746498902E+01  0.13538417366E+02  0.13262863673E+01  0.15379316682E+02  0.51100000000E-03 0.  1.
        -12    1    3    3    0    0 -0.20899701435E+00  0.70653782201E+01  0.28700487438E+01  0.76289205617E+01  0.00000000000E+00 0.  1.
</event>
<event>
 7    1  0.4102844E-008  0.4614232E+02  0.7816164E-02  0.1320468E+00
        -11   -1    0    0    0    0  0.00000000000E+00  0.00000000000E+00  0.45593999997E+02  0.45594000000E+02  0.51100000000E-03 0.  1.
         11   -1    0    0    0    0 -0.00000000000E+00 -0.00000000000E+00 -0.45593999997E+02  0.45594000000E+02  0.51100000000E-03 0. -1.
    9900012    2    1    2    0    0  0.86099435671E+01 -0.15602596984E+02 -0.41370778914E+02  0.46142317534E+02  0.99999979265E+01 0.  0.
        -12    1    1    2    0    0 -0.86099435671E+01  0.15602596984E+02  0.41370778914E+02  0.45045682466E+02  0.00000000000E+00 0.  1.
         11    1    3    3    0    0  0.30906183240E+01 -0.56642894150E+01 -0.77238377210E+01  0.10064480394E+02  0.51100000000E-03 0. -1.
        -11    1    3    3    0    0  0.27056199015E+01 -0.70978451619E+01 -0.28849665094E+02  0.29832917412E+02  0.51100000000E-03 0.  1.
         12    1    3    3    0    0  0.28137053416E+01 -0.28404624072E+01 -0.47972760994E+01  0.62449197280E+01  0.00000000000E+00 0. -1.
</event>
<event>
 7    1  0.4102844E-008  0.4614232E+02  0.7816164E-02  0.1320468E+00
        -11   -1    0    0    0    0  0.00000000000E+00  0.00000000000E+00  0.45593999997E+02  0.45594000000E+02  0.51100000000E-03 0. -1.
         11   -1    0    0    0    0 -0.00000000000E+00 -0.00000000000E+00 -0.45593999997E+02  0.45594000000E+02  0.51100000000E-03 0.  1.
    9900012    2    1    2    0    0 -0.12650379719E+02 -0.40108443091E+02  0.16136734564E+02  0.46142317448E+02  0.99999971437E+01 0.  0.
        -12    1    1    2    0    0  0.12650379719E+02  0.40108443091E+02 -0.16136734564E+02  0.45045682552E+02  0.00000000000E+00 0.  1.
         11    1    3    3    0    0 -0.73383462541E+01 -0.17440311346E+02  0.10063452330E+02  0.21431025609E+02  0.51100000000E-03 0. -1.
        -11    1    3    3    0    0 -0.23275155828E+00 -0.71903623518E+01 -0.34545701341E+00  0.72024179862E+01  0.51100000000E-03 0.  1.
         12    1    3    3    0    0 -0.50792819064E+01 -0.15477769393E+02  0.64187392471E+01  0.17508873853E+02  0.00000000000E+00 0. -1.
</event>
<event>
 7    1  0.4102844E-008  0.4614232E+02  0.7816164E-02  0.1320468E+00
        -11   -1    0    0    0    0  0.00000000000E+00  0.00000000000E+00  0.45593999997E+02  0.45594000000E+02  0.51100000000E-03 0.  1.
         11   -1    0    0    0    0 -0.00000000000E+00 -0.00000000000E+00 -0.45593999997E+02  0.45594000000E+02  0.51100000000E-03 0. -1.
    9900012    2    1    2    0    0  0.12667243848E+02 -0.38262830219E+02  0.20114927112E+02  0.46142317235E+02  0.99999952011E+01 0.  0.
        -12    1    1    2    0    0 -0.12667243848E+02  0.38262830219E+02 -0.20114927112E+02  0.45045682765E+02  0.00000000000E+00 0.  1.
         11    1    3    3    0    0  0.66332162828E+01 -0.22168485221E+02  0.13288742929E+02  0.26683927450E+02  0.51100000000E-03 0. -1.
        -11    1    3    3    0    0  0.10446666208E+01 -0.55889708956E+01 -0.50887471543E+00  0.57084917235E+01  0.51100000000E-03 0.  1.
        -12    1    3    3    0    0  0.49893609445E+01 -0.10505374102E+02  0.73350588982E+01  0.13749898062E+02  0.00000000000E+00 0.  1.
</event>
<event>
 7    1  0.4102844E-008  0.4614232E+02  0.7816164E-02  0.1320468E+00
        -11   -1    0    0    0    0  0.00000000000E+00  0.00000000000E+00  0.45593999997E+02  0.45594000000E+02  0.51100000000E-03 0.  1.
         11   -1    0    0    0    0 -0.00000000000E+00 -0.00000000000E+00 -0.45593999997E+02  0.45594000000E+02  0.51100000000E-03 0. -1.
    9900012    2    1    2    0    0  0.23958226796E+02 -0.21447785082E+02 -0.31545353779E+02  0.46142318063E+02  0.10000002755E+02 0.  0.
        -12    1    1    2    0    0 -0.23958226796E+02  0.21447785082E+02  0.31545353779E+02  0.45045681937E+02  0.00000000000E+00 0.  1.
         11    1    3    3    0    0  0.69708994067E+01 -0.30761880464E+01 -0.42717393284E+01  0.87352234422E+01  0.51100000000E-03 0. -1.
        -11    1    3    3    0    0  0.75992805403E+01 -0.97165328517E+01 -0.17078464488E+02  0.21067368723E+02  0.51100000000E-03 0.  1.
         12    1    3    3    0    0  0.93880468490E+01 -0.86550641840E+01 -0.10195149963E+02  0.16339725898E+02  0.00000000000E+00 0. -1.
</event>
<event>
 7    1  0.4102844E-008  0.4614232E+02  0.7816164E-02  0.1320468E+00
        -11   -1    0    0    0    0  0.00000000000E+00  0.00000000000E+00  0.45593999997E+02  0.45594000000E+02  0.51100000000E-03 0. -1.
         11   -1    0    0    0    0 -0.00000000000E+00 -0.00000000000E+00 -0.45593999997E+02  0.45594000000E+02  0.51100000000E-03 0.  1.
    9900012    2    1    2    0    0  0.42914419630E+02  0.97566536255E+01  0.96059255932E+01  0.46142317536E+02  0.99999979512E+01 0.  0.
        -12    1    1    2    0    0 -0.42914419630E+02 -0.97566536255E+01 -0.96059255932E+01  0.45045682464E+02  0.00000000000E+00 0.  1.
         11    1    3    3    0    0  0.39470379573E+02  0.79841870868E+01  0.11131848344E+02  0.41780092806E+02  0.51100000000E-03 0. -1.
        -11    1    3    3    0    0  0.14307577904E+01  0.72919223945E-01 -0.33726164890E+00  0.14717780910E+01  0.51100000000E-03 0.  1.
        -12    1    3    3    0    0  0.20132822658E+01  0.16995473148E+01 -0.11886611022E+01  0.28904466390E+01  0.00000000000E+00 0.  1.
</event>
<event>
 7    1  0.4102844E-008  0.4614232E+02  0.7816164E-02  0.1320468E+00
        -11   -1    0    0    0    0  0.00000000000E+00  0.00000000000E+00  0.45593999997E+02  0.45594000000E+02  0.51100000000E-03 0.  1.
         11   -1    0    0    0    0 -0.00000000000E+00 -0.00000000000E+00 -0.45593999997E+02  0.45594000000E+02  0.51100000000E-03 0. -1.
    9900012    2    1    2    0    0  0.11088691357E+02  0.13093809140E+02 -0.41649804829E+02  0.46142321450E+02  0.10000033634E+02 0.  0.
        -12    1    1    2    0    0 -0.11088691357E+02 -0.13093809140E+02  0.41649804829E+02  0.45045678550E+02  0.00000000000E+00 0.  1.
         11    1    3    3    0    0  0.71105102451E+01  0.85988627665E+01 -0.29159953406E+02  0.31221830179E+02  0.51100000000E-03 0. -1.
        -11    1    3    3    0    0 -0.13346441824E+01  0.16352877118E+01 -0.28154845159E+01  0.35188626450E+01  0.51100000000E-03 0.  1.
         12    1    3    3    0    0  0.53128252942E+01  0.28596586614E+01 -0.96743669071E+01  0.11401628626E+02  0.00000000000E+00 0. -1.
</event>
<event>
 7    1  0.4102844E-008  0.4614232E+02  0.7816164E-02  0.1320468E+00
        -11   -1    0    0    0    0  0.00000000000E+00  0.00000000000E+00  0.45593999997E+02  0.45594000000E+02  0.51100000000E-03 0. -1.
         11   -1    0    0    0    0 -0.00000000000E+00 -0.00000000000E+00 -0.45593999997E+02  0.45594000000E+02  0.51100000000E-03 0.  1.
    9900012    2    1    2    0    0 -0.37432716864E+02  0.89112018422E+01  0.23419985962E+02  0.46142317048E+02  0.99999934995E+01 0.  0.
        -12    1    1    2    0    0  0.37432716864E+02 -0.89112018422E+01 -0.23419985962E+02  0.45045682952E+02  0.00000000000E+00 0.  1.
         11    1    3    3    0    0 -0.79551230098E+01  0.21904114319E+01  0.85646249975E+01  0.11892631582E+02  0.51100000000E-03 0. -1.
        -11    1    3    3    0    0 -0.29666621154E+01  0.17012741779E+01  0.37401784332E+01  0.50679732545E+01  0.51100000000E-03 0.  1.
        -12    1    3    3    0    0 -0.26510931739E+02  0.50195162324E+01  0.11115182532E+02  0.29181712211E+02  0.00000000000E+00 0.  1.
</event>
<event>
 7    1  0.4102844E-008  0.4614232E+02  0.7816164E-02  0.1320468E+00
        -11   -1    0    0    0    0  0.00000000000E+00  0.00000000000E+00  0.45593999997E+02  0.45594000000E+02  0.51100000000E-03 0.  1.
         11   -1    0    0    0    0 -0.00000000000E+00 -0.00000000000E+00 -0.45593999997E+02  0.45594000000E+02  0.51100000000E-03 0. -1.
    9900012    2    1    2    0    0 -0.16328489660E+01  0.14700009828E+02 -0.42548289781E+02  0.46142318209E+02  0.10000004085E+02 0.  0.
        -12    1    1    2    0    0  0.16328489660E+01 -0.14700009828E+02  0.42548289781E+02  0.45045681791E+02  0.00000000000E+00 0.  1.
         11    1    3    3    0    0 -0.94519058158E-01 -0.14922985015E+00 -0.21044092177E+01  0.21118100807E+01  0.51100000000E-03 0. -1.
        -11    1    3    3    0    0  0.21089157224E+00  0.58782481705E+00  0.39419963313E+00  0.73851667731E+00  0.51100000000E-03 0.  1.
         12    1    3    3    0    0 -0.17492214801E+01  0.14261414862E+02 -0.40838080197E+02  0.43291991451E+02  0.00000000000E+00 0. -1.
</event>
<event>
 7    1  0.4102844E-008  0.4614233E+02  0.7816164E-02  0.1320468E+00
        -11   -1    0    0    0    0  0.00000000000E+00  0.00000000000E+00  0.45593999997E+02  0.45594000000E+02  0.51100000000E-03 0.  1.
         11   -1    0    0    0    0 -0.00000000000E+00 -0.00000000000E+00 -0.45593999997E+02  0.45594000000E+02  0.51100000000E-03 0. -1.
    9900012    2    1    2    0    0  0.11044452172E+02  0.32555862769E+00 -0.43669514165E+02  0.46142330068E+02  0.10000112223E+02 0.  0.
        -12    1    1    2    0    0 -0.11044452172E+02 -0.32555862769E+00  0.43669514165E+02  0.45045669932E+02  0.00000000000E+00 0.  1.
         11    1    3    3    0    0 -0.82643660276E+00  0.30693959297E+00 -0.45683315604E+01  0.46526189269E+01  0.51100000000E-03 0. -1.
        -11    1    3    3    0    0  0.61089113675E+01 -0.28179901771E+01 -0.26571698344E+02  0.27410126228E+02  0.51100000000E-03 0.  1.
        -12    1    3    3    0    0  0.57619774072E+01  0.28366092118E+01 -0.12529484261E+02  0.14079584913E+02  0.00000000000E+00 0.  1.
</event>
<event>
 7    1  0.4102844E-008  0.4614232E+02  0.7816164E-02  0.1320468E+00
        -11   -1    0    0    0    0  0.00000000000E+00  0.00000000000E+00  0.45593999997E+02  0.45594000000E+02  0.51100000000E-03 0. -1.
         11   -1    0    0    0    0 -0.00000000000E+00 -0.00000000000E+00 -0.45593999997E+02  0.45594000000E+02  0.51100000000E-03 0.  1.
    9900012    2    1    2    0    0 -0.42799063993E+02 -0.13277844543E+02  0.45882824259E+01  0.46142319075E+02  0.10000011979E+02 0.  0.
        -12    1    1    2    0    0  0.42799063993E+02  0.13277844543E+02 -0.45882824259E+01  0.45045680925E+02  0.00000000000E+00 0.  1.
         11    1    3    3    0    0 -0.14528368216E+01 -0.12670970449E+01 -0.14821452584E+01  0.24316711495E+01  0.51100000000E-03 0.  1.
        -11    1    3    3    0    0 -0.34442459652E+02 -0.10320376766E+02  0.33921662639E+01  0.36115093738E+02  0.51100000000E-03 0. -1.
         12    1    3    3    0    0 -0.69037675199E+01 -0.16903707314E+01  0.26782614204E+01  0.75955541874E+01  0.00000000000E+00 0. -1.
</event>
<event>
 7    1  0.4102844E-008  0.4614232E+02  0.7816164E-02  0.1320468E+00
        -11   -1    0    0    0    0  0.00000000000E+00  0.00000000000E+00  0.45593999997E+02  0.45594000000E+02  0.51100000000E-03 0.  1.
         11   -1    0    0    0    0 -0.00000000000E+00 -0.00000000000E+00 -0.45593999997E+02  0.45594000000E+02  0.51100000000E-03 0. -1.
    9900012    2    1    2    0    0  0.38361615146E+02 -0.14878811097E+02 -0.18333602590E+02  0.46142317408E+02  0.99999967811E+01 0.  0.
        -12    1    1    2    0    0 -0.38361615146E+02  0.14878811097E+02  0.18333602590E+02  0.45045682592E+02  0.00000000000E+00 0.  1.
         11    1    3    3    0    0  0.60875336791E+01 -0.18838889756E+01  0.58855015416E+00  0.63994918166E+01  0.51100000000E-03 0. -1.
        -11    1    3    3    0    0  0.11917179993E+02 -0.62489094459E+01 -0.62934488290E+01  0.14855152193E+02  0.51100000000E-03 0.  1.
        -12    1    3    3    0    0  0.20356901473E+02 -0.67460126758E+01 -0.12628703915E+02  0.24887673398E+02  0.00000000000E+00 0.  1.
</event>
<event>
 7    1  0.4102844E-008  0.4614232E+02  0.7816164E-02  0.1320468E+00
        -11   -1    0    0    0    0  0.00000000000E+00  0.00000000000E+00  0.45593999997E+02  0.45594000000E+02  0.51100000000E-03 0.  1.
         11   -1    0    0    0    0 -0.00000000000E+00 -0.00000000000E+00 -0.45593999997E+02  0.45594000000E+02  0.51100000000E-03 0. -1.
    9900012    2    1    2    0    0 -0.96799128183E+01 -0.18171824025E+02 -0.40064918484E+02  0.46142316592E+02  0.99999893359E+01 0.  0.
        -12    1    1    2    0    0  0.96799128183E+01  0.18171824025E+02  0.40064918484E+02  0.45045683408E+02  0.00000000000E+00 0.  1.
         11    1    3    3    0    0 -0.71458300792E+01 -0.11383345744E+02 -0.21221560411E+02  0.25119675045E+02  0.51100000000E-03 0. -1.
        -11    1    3    3    0    0 -0.28480969923E+01 -0.13575307145E+01 -0.11234395219E+02  0.11669026623E+02  0.51100000000E-03 0.  1.
         12    1    3    3    0    0  0.31401425311E+00 -0.54309475669E+01 -0.76089628544E+01  0.93536149239E+01  0.00000000000E+00 0. -1.
</event>
<event>
 7    1  0.4102844E-008  0.4614232E+02  0.7816164E-02  0.1320468E+00
        -11   -1    0    0    0    0  0.00000000000E+00  0.00000000000E+00  0.45593999997E+02  0.45594000000E+02  0.51100000000E-03 0. -1.
         11   -1    0    0    0    0 -0.00000000000E+00 -0.00000000000E+00 -0.45593999997E+02  0.45594000000E+02  0.51100000000E-03 0.  1.
    9900012    2    1    2    0    0 -0.32348258719E+02  0.25277480112E+02 -0.18540566050E+02  0.46142318382E+02  0.10000005659E+02 0.  0.
        -12    1    1    2    0    0  0.32348258719E+02 -0.25277480112E+02  0.18540566050E+02  0.45045681618E+02  0.00000000000E+00 0.  1.
         11    1    3    3    0    0 -0.76527255503E+01  0.51438881643E+01 -0.32797985562E+01  0.97867702857E+01  0.51100000000E-03 0. -1.
        -11    1    3    3    0    0 -0.52962770530E+01  0.44477263643E+01  0.35248106148E+00  0.69251038688E+01  0.51100000000E-03 0.  1.
         12    1    3    3    0    0 -0.19399256116E+02  0.15685865584E+02 -0.15613248555E+02  0.29430444227E+02  0.00000000000E+00 0. -1.
</event>
<event>
 7    1  0.4102844E-008  0.4614232E+02  0.7816164E-02  0.1320468E+00
        -11   -1    0    0    0    0  0.00000000000E+00  0.00000000000E+00  0.45593999997E+02  0.45594000000E+02  0.51100000000E-03 0.  1.
         11   -1    0    0    0    0 -0.00000000000E+00 -0.00000000000E+00 -0.45593999997E+02  0.45594000000E+02  0.51100000000E-03 0. -1.
    9900012    2    1    2    0    0  0.12089042221E+02  0.69597756794E+01 -0.42831413621E+02  0.46142318608E+02  0.10000007719E+02 0.  0.
        -12    1    1    2    0    0 -0.12089042221E+02 -0.69597756794E+01  0.42831413621E+02  0.45045681392E+02  0.00000000000E+00 0.  1.
         11    1    3    3    0    0  0.14541209850E+01  0.50655925327E+01 -0.76230192365E+01  0.92674224080E+01  0.51100000000E-03 0. -1.
        -11    1    3    3    0    0  0.18908191731E+01 -0.28934189733E+00 -0.73553685103E+01  0.76000238198E+01  0.51100000000E-03 0.  1.
         12    1    3    3    0    0  0.87441020633E+01  0.21835250441E+01 -0.27853025874E+02  0.29274872380E+02  0.00000000000E+00 0. -1.
</event>
<event>
 7    1  0.4102844E-008  0.4614232E+02  0.7816164E-02  0.1320468E+00
        -11   -1    0    0    0    0  0.00000000000E+00  0.00000000000E+00  0.45593999997E+02  0.45594000000E+02  0.51100000000E-03 0.  1.
         11   -1    0    0    0    0 -0.00000000000E+00 -0.00000000000E+00 -0.45593999997E+02  0.45594000000E+02  0.51100000000E-03 0. -1.
    9900012    2    1    2    0    0  0.68404117400E+01 -0.20501502150E+02 -0.39522281298E+02  0.46142317164E+02  0.99999945550E+01 0.  0.
        -12    1    1    2    0    0 -0.68404117400E+01  0.20501502150E+02  0.39522281298E+02  0.45045682836E+02  0.00000000000E+00 0.  1.
         11    1    3    3    0    0 -0.13297796258E+01 -0.87766067782E+01 -0.15968918138E+02  0.18270289739E+02  0.51100000000E-03 0. -1.
        -11    1    3    3    0    0  0.35652331931E+01 -0.49666178436E+01 -0.14123321096E+02  0.15389814150E+02  0.51100000000E-03 0.  1.
        -12    1    3    3    0    0  0.46049581727E+01 -0.67582775278E+01 -0.94300420645E+01  0.12482213275E+02  0.00000000000E+00 0.  1.
</event>
<event>
 7    1  0.4102844E-008  0.4614232E+02  0.7816164E-02  0.1320468E+00
        -11   -1    0    0    0    0  0.00000000000E+00  0.00000000000E+00  0.45593999997E+02  0.45594000000E+02  0.51100000000E-03 0. -1.
         11   -1    0    0    0    0 -0.00000000000E+00 -0.00000000000E+00 -0.45593999997E+02  0.45594000000E+02  0.51100000000E-03 0.  1.
    9900012    2    1    2    0    0  0.77979038194E+01  0.21816024456E+02  0.38631165498E+02  0.46142321242E+02  0.10000031741E+02 0.  0.
        -12    1    1    2    0    0 -0.77979038194E+01 -0.21816024456E+02 -0.38631165498E+02  0.45045678758E+02  0.00000000000E+00 0.  1.
         11    1    3    3    0    0 -0.29861141567E+00  0.78033809425E+01  0.81046918079E+01  0.11254685801E+02  0.51100000000E-03 0. -1.
        -11    1    3    3    0    0 -0.21412264080E+00 -0.57315878236E-01  0.20001291890E+01  0.20123743809E+01  0.51100000000E-03 0.  1.
         12    1    3    3    0    0  0.83106378759E+01  0.14069959392E+02  0.28526344501E+02  0.32875261060E+02  0.00000000000E+00 0. -1.
</event>
<event>
 7    1  0.4102844E-008  0.4614232E+02  0.7816164E-02  0.1320468E+00
        -11   -1    0    0    0    0  0.00000000000E+00  0.00000000000E+00  0.45593999997E+02  0.45594000000E+02  0.51100000000E-03 0.  1.
         11   -1    0    0    0    0 -0.00000000000E+00 -0.00000000000E+00 -0.45593999997E+02  0.45594000000E+02  0.51100000000E-03 0. -1.
    9900012    2    1    2    0    0  0.25003844751E+02  0.43160604980E+01 -0.37219522143E+02  0.46142318086E+02  0.10000002964E+02 0.  0.
        -12    1    1    2    0    0 -0.25003844751E+02 -0.43160604980E+01  0.37219522143E+02  0.45045681914E+02  0.00000000000E+00 0.  1.
         11    1    3    3    0    0  0.89449828805E+01  0.13193497474E+00 -0.17879415384E+02  0.19992589135E+02  0.51100000000E-03 0. -1.
        -11    1    3    3    0    0  0.51589765627E+01 -0.14084017612E+01 -0.60399764066E+01  0.80672145099E+01  0.51100000000E-03 0.  1.
         12    1    3    3    0    0  0.10899885308E+02  0.55925272844E+01 -0.13300130352E+02  0.18082514441E+02  0.00000000000E+00 0. -1.
</event>
<event>
 7    1  0.4102844E-008  0.4614232E+02  0.7816164E-02  0.1320468E+00
        -11   -1    0    0    0    0  0.00000000000E+00  0.00000000000E+00  0.45593999997E+02  0.45594000000E+02  0.51100000000E-03 0.  1.
         11   -1    0    0    0    0 -0.00000000000E+00 -0.00000000000E+00 -0.45593999997E+02  0.45594000000E+02  0.51100000000E-03 0. -1.
    9900012    2    1    2    0    0 -0.12363335051E+02 -0.23412832508E+02 -0.36443115791E+02  0.46142317985E+02  0.10000002040E+02 0.  0.
        -12    1    1    2    0    0  0.12363335051E+02  0.23412832508E+02  0.36443115791E+02  0.45045682015E+02  0.00000000000E+00 0.  1.
         11    1    3    3    0    0  0.23947167855E+00 -0.60513218630E+00 -0.31901030654E+01  0.32558085750E+01  0.51100000000E-03 0. -1.
        -11    1    3    3    0    0  0.89023601478E+00 -0.28355420269E+01 -0.33295088821E+01  0.44630088960E+01  0.51100000000E-03 0.  1.
         12    1    3    3    0    0 -0.13493042745E+02 -0.19972158294E+02 -0.29923503844E+02  0.38423500514E+02  0.00000000000E+00 0. -1.
</event>
<event>
 7    1  0.4102844E-008  0.4614232E+02  0.7816164E-02  0.1320468E+00
        -11   -1    0    0    0    0  0.00000000000E+00  0.00000000000E+00  0.45593999997E+02  0.45594000000E+02  0.51100000000E-03 0.  1.
         11   -1    0    0    0    0 -0.00000000000E+00 -0.00000000000E+00 -0.45593999997E+02  0.45594000000E+02  0.51100000000E-03 0. -1.
    9900012    2    1    2    0    0 -0.43255267211E+01 -0.42469575068E+02 -0.14378400866E+02  0.46142318749E+02  0.10000009008E+02 0.  0.
        -12    1    1    2    0    0  0.43255267211E+01  0.42469575068E+02  0.14378400866E+02  0.45045681251E+02  0.00000000000E+00 0.  1.
         11    1    3    3    0    0 -0.28552679407E+01 -0.24076797801E+02 -0.40632133597E+01  0.24583621589E+02  0.51100000000E-03 0. -1.
        -11    1    3    3    0    0  0.16725174980E-01 -0.48430747388E+01 -0.73679048553E+00  0.48988277309E+01  0.51100000000E-03 0.  1.
        -12    1    3    3    0    0 -0.14869839555E+01 -0.13549702528E+02 -0.95783970212E+01  0.16659869429E+02  0.00000000000E+00 0.  1.
</event>
<event>
 7    1  0.4102844E-008  0.4614232E+02  0.7816164E-02  0.1320468E+00
        -11   -1    0    0    0    0  0.00000000000E+00  0.00000000000E+00  0.45593999997E+02  0.45594000000E+02  0.51100000000E-03 0. -1.
         11   -1    0    0    0    0 -0.00000000000E+00 -0.00000000000E+00 -0.45593999997E+02  0.45594000000E+02  0.51100000000E-03 0.  1.
    9900012    2    1    2    0    0 -0.21094819863E+02  0.55671832547E+01  0.39409752735E+02  0.46142316910E+02  0.99999922354E+01 0.  0.
        -12    1    1    2    0    0  0.21094819863E+02 -0.55671832547E+01 -0.39409752735E+02  0.45045683090E+02  0.00000000000E+00 0.  1.
         11    1    3    3    0    0 -0.68497085317E+01  0.31565363346E+01  0.75896059509E+01  0.10699735854E+02  0.51100000000E-03 0. -1.
        -11    1    3    3    0    0 -0.48711903113E+01 -0.19795829060E+01  0.10826047265E+02  0.12035387122E+02  0.51100000000E-03 0.  1.
         12    1    3    3    0    0 -0.93739210202E+01  0.43902298261E+01  0.20994099519E+02  0.23407193934E+02  0.00000000000E+00 0. -1.
</event>
<event>
 7    1  0.4102844E-008  0.4614232E+02  0.7816164E-02  0.1320468E+00
        -11   -1    0    0    0    0  0.00000000000E+00  0.00000000000E+00  0.45593999997E+02  0.45594000000E+02  0.51100000000E-03 0.  1.
         11   -1    0    0    0    0 -0.00000000000E+00 -0.00000000000E+00 -0.45593999997E+02  0.45594000000E+02  0.51100000000E-03 0. -1.
    9900012    2    1    2    0    0  0.20156382042E+02 -0.37665987519E+02 -0.14286605791E+02  0.46142318100E+02  0.10000003090E+02 0.  0.
        -12    1    1    2    0    0 -0.20156382042E+02  0.37665987519E+02  0.14286605791E+02  0.45045681900E+02  0.00000000000E+00 0.  1.
         11    1    3    3    0    0  0.14524101634E+02 -0.27144952461E+02 -0.76390531712E+01  0.31719916551E+02  0.51100000000E-03 0. -1.
        -11    1    3    3    0    0  0.57390588221E+01 -0.68181884753E+01 -0.57656630482E+01  0.10614488254E+02  0.51100000000E-03 0.  1.
        -12    1    3    3    0    0 -0.10677841409E+00 -0.37028465825E+01 -0.88188957136E+00  0.38079132946E+01  0.00000000000E+00 0.  1.
</event>
<event>
 7    1  0.4102844E-008  0.4614232E+02  0.7816164E-02  0.1320468E+00
        -11   -1    0    0    0    0  0.00000000000E+00  0.00000000000E+00  0.45593999997E+02  0.45594000000E+02  0.51100000000E-03 0. -1.
         11   -1    0    0    0    0 -0.00000000000E+00 -0.00000000000E+00 -0.45593999997E+02  0.45594000000E+02  0.51100000000E-03 0.  1.
    9900012    2    1    2    0    0 -0.35372202365E+01 -0.23488663223E+02  0.38273809700E+02  0.46142315013E+02  0.99999749378E+01 0.  0.
        -12    1    1    2    0    0  0.35372202365E+01  0.23488663223E+02 -0.38273809700E+02  0.45045684987E+02  0.00000000000E+00 0.  1.
         11    1    3    3    0    0 -0.32428587868E+01 -0.68238175153E+01  0.73614615921E+01  0.10548541872E+02  0.51100000000E-03 0. -1.
        -11    1    3    3    0    0  0.61842372984E+00 -0.63448305990E+01  0.66501906059E+01  0.92121853323E+01  0.51100000000E-03 0.  1.
         12    1    3    3    0    0 -0.91278517956E+00 -0.10320015108E+02  0.24262157502E+02  0.26381587808E+02  0.00000000000E+00 0. -1.
</event>
<event>
 7    1  0.4102844E-008  0.4614232E+02  0.7816164E-02  0.1320468E+00
        -11   -1    0    0    0    0  0.00000000000E+00  0.00000000000E+00  0.45593999997E+02  0.45594000000E+02  0.51100000000E-03 0.  1.
         11   -1    0    0    0    0 -0.00000000000E+00 -0.00000000000E+00 -0.45593999997E+02  0.45594000000E+02  0.51100000000E-03 0. -1.
    9900012    2    1    2    0    0 -0.36777353982E+01 -0.24624075745E+02 -0.37539881599E+02  0.46142317027E+02  0.99999933083E+01 0.  0.
        -12    1    1    2    0    0  0.36777353982E+01  0.24624075745E+02  0.37539881599E+02  0.45045682973E+02  0.00000000000E+00 0.  1.
         11    1    3    3    0    0 -0.45139837860E+01 -0.11017811866E+02 -0.13867268374E+02  0.18277564399E+02  0.51100000000E-03 0. -1.
        -11    1    3    3    0    0  0.77841717375E+00 -0.13097823238E+02 -0.18576581593E+02  0.22743093255E+02  0.51100000000E-03 0.  1.
        -12    1    3    3    0    0  0.57831214014E-01 -0.50844064114E+00 -0.50960316326E+01  0.51216593732E+01  0.00000000000E+00 0.  1.
</event>
<event>
 7    1  0.4102844E-008  0.4614232E+02  0.7816164E-02  0.1320468E+00
        -11   -1    0    0    0    0  0.00000000000E+00  0.00000000000E+00  0.45593999997E+02  0.45594000000E+02  0.51100000000E-03 0.  1.
         11   -1    0    0    0    0 -0.00000000000E+00 -0.00000000000E+00 -0.45593999997E+02  0.45594000000E+02  0.51100000000E-03 0. -1.
    9900012    2    1    2    0    0  0.40801870826E+02  0.17182274823E+02  0.83120543432E+01  0.46142317872E+02  0.10000001009E+02 0.  0.
        -12    1    1    2    0    0 -0.40801870826E+02 -0.17182274823E+02 -0.83120543432E+01  0.45045682128E+02  0.00000000000E+00 0.  1.
         11    1    3    3    0    0  0.17256647051E+02  0.84291189022E+01  0.57590352635E+01  0.20050147140E+02  0.51100000000E-03 0. -1.
        -11    1    3    3    0    0  0.15807944465E+02  0.72945209252E+01  0.44989385426E+01  0.17981701588E+02  0.51100000000E-03 0.  1.
        -12    1    3    3    0    0  0.77372793101E+01  0.14586349955E+01 -0.19459194630E+01  0.81104691436E+01  0.00000000000E+00 0.  1.
</event>
<event>
 7    1  0.4102844E-008  0.4614232E+02  0.7816164E-02  0.1320468E+00
        -11   -1    0    0    0    0  0.00000000000E+00  0.00000000000E+00  0.45593999997E+02  0.45594000000E+02  0.51100000000E-03 0. -1.
         11   -1    0    0    0    0 -0.00000000000E+00 -0.00000000000E+00 -0.45593999997E+02  0.45594000000E+02  0.51100000000E-03 0.  1.
    9900012    2    1    2    0    0  0.33540942697E+02 -0.68852027381E+01 -0.29269652873E+02  0.46142318375E+02  0.10000005602E+02 0.  0.
        -12    1    1    2    0    0 -0.33540942697E+02  0.68852027381E+01  0.29269652873E+02  0.45045681625E+02  0.00000000000E+00 0.  1.
         11    1    3    3    0    0  0.30164542628E+01 -0.26145790355E+00 -0.41438616273E+01  0.51321482834E+01  0.51100000000E-03 0.  1.
        -11    1    3    3    0    0  0.14239692145E+02  0.12212919618E+01 -0.12158534414E+02  0.18764070608E+02  0.51100000000E-03 0. -1.
         12    1    3    3    0    0  0.16284796289E+02 -0.78450367964E+01 -0.12967256832E+02  0.22246099484E+02  0.00000000000E+00 0. -1.
</event>
<event>
 7    1  0.4102844E-008  0.4614231E+02  0.7816164E-02  0.1320468E+00
        -11   -1    0    0    0    0  0.00000000000E+00  0.00000000000E+00  0.45593999997E+02  0.45594000000E+02  0.51100000000E-03 0.  1.
         11   -1    0    0    0    0 -0.00000000000E+00 -0.00000000000E+00 -0.45593999997E+02  0.45594000000E+02  0.51100000000E-03 0. -1.
    9900012    2    1    2    0    0  0.33364838307E+02 -0.89824461674E+01 -0.28900120739E+02  0.46142314822E+02  0.99999732016E+01 0.  0.
        -12    1    1    2    0    0 -0.33364838307E+02  0.89824461674E+01  0.28900120739E+02  0.45045685178E+02  0.00000000000E+00 0.  1.
         11    1    3    3    0    0  0.24393798141E+02 -0.38026246438E+01 -0.20477602174E+02  0.32075684450E+02  0.51100000000E-03 0. -1.
        -11    1    3    3    0    0  0.67093276954E+01 -0.14223709432E+01 -0.55652916679E+01  0.88323659816E+01  0.51100000000E-03 0.  1.
        -12    1    3    3    0    0  0.22617124711E+01 -0.37574505804E+01 -0.28572268971E+01  0.52342643903E+01  0.00000000000E+00 0.  1.
</event>
<event>
 7    1  0.4102844E-008  0.4614232E+02  0.7816164E-02  0.1320468E+00
        -11   -1    0    0    0    0  0.00000000000E+00  0.00000000000E+00  0.45593999997E+02  0.45594000000E+02  0.51100000000E-03 0.  1.
         11   -1    0    0    0    0 -0.00000000000E+00 -0.00000000000E+00 -0.45593999997E+02  0.45594000000E+02  0.51100000000E-03 0. -1.
    9900012    2    1    2    0    0 -0.79547985764E+01  0.16911486110E+02 -0.40985805908E+02  0.46142317979E+02  0.10000001986E+02 0.  0.
        -12    1    1    2    0    0  0.79547985764E+01 -0.16911486110E+02  0.40985805908E+02  0.45045682021E+02  0.00000000000E+00 0.  1.
         11    1    3    3    0    0 -0.22826613101E+01  0.21275384236E+01 -0.10874849247E+02  0.11313677952E+02  0.51100000000E-03 0. -1.
        -11    1    3    3    0    0  0.12359520810E+01  0.50488728614E+01 -0.61013267777E+01  0.80152906015E+01  0.51100000000E-03 0.  1.
        -12    1    3    3    0    0 -0.69080893472E+01  0.97350748247E+01 -0.24009629883E+02  0.26813349425E+02  0.00000000000E+00 0.  1.
</event>
<event>
 7    1  0.4102844E-008  0.4614232E+02  0.7816164E-02  0.1320468E+00
        -11   -1    0    0    0    0  0.00000000000E+00  0.00000000000E+00  0.45593999997E+02  0.45594000000E+02  0.51100000000E-03 0. -1.
         11   -1    0    0    0    0 -0.00000000000E+00 -0.00000000000E+00 -0.45593999997E+02  0.45594000000E+02  0.51100000000E-03 0.  1.
    9900012    2    1    2    0    0  0.86832682386E+01 -0.40743117640E+02  0.17138052569E+02  0.46142316209E+02  0.99999858460E+01 0.  0.
        -12    1    1    2    0    0 -0.86832682386E+01  0.40743117640E+02 -0.17138052569E+02  0.45045683791E+02  0.00000000000E+00 0.  1.
         11    1    3    3    0    0  0.24774808244E+01 -0.59950952875E+01  0.22890436213E+01  0.68788661641E+01  0.51100000000E-03 0. -1.
        -11    1    3    3    0    0  0.70467229088E+01 -0.18472490522E+02  0.57114122982E+01  0.20579344998E+02  0.51100000000E-03 0.  1.
        -12    1    3    3    0    0 -0.84093549464E+00 -0.16275531831E+02  0.91375966499E+01  0.18684105047E+02  0.00000000000E+00 0.  1.
</event>
<event>
 7    1  0.4102844E-008  0.4614232E+02  0.7816164E-02  0.1320468E+00
        -11   -1    0    0    0    0  0.00000000000E+00  0.00000000000E+00  0.45593999997E+02  0.45594000000E+02  0.51100000000E-03 0. -1.
         11   -1    0    0    0    0 -0.00000000000E+00 -0.00000000000E+00 -0.45593999997E+02  0.45594000000E+02  0.51100000000E-03 0.  1.
    9900012    2    1    2    0    0 -0.42551952373E+02 -0.24270671180E-02  0.14779882476E+02  0.46142316714E+02  0.99999904547E+01 0.  0.
        -12    1    1    2    0    0  0.42551952373E+02  0.24270671180E-02 -0.14779882476E+02  0.45045683286E+02  0.00000000000E+00 0.  1.
         11    1    3    3    0    0 -0.10325294352E+02 -0.32428136663E+01  0.61923707487E+01  0.12468881252E+02  0.51100000000E-03 0. -1.
        -11    1    3    3    0    0 -0.23446707593E+02  0.32699134723E+01  0.74607716189E+01  0.24821433168E+02  0.51100000000E-03 0.  1.
         12    1    3    3    0    0 -0.87799504275E+01 -0.29526873123E-01  0.11267401088E+01  0.88520022943E+01  0.00000000000E+00 0. -1.
</event>
<event>
 7    1  0.4102844E-008  0.4614232E+02  0.7816164E-02  0.1320468E+00
        -11   -1    0    0    0    0  0.00000000000E+00  0.00000000000E+00  0.45593999997E+02  0.45594000000E+02  0.51100000000E-03 0.  1.
         11   -1    0    0    0    0 -0.00000000000E+00 -0.00000000000E+00 -0.45593999997E+02  0.45594000000E+02  0.51100000000E-03 0. -1.
    9900012    2    1    2    0    0 -0.24192939739E+02 -0.39947891057E+01 -0.37786990374E+02  0.46142319688E+02  0.10000017575E+02 0.  0.
        -12    1    1    2    0    0  0.24192939739E+02  0.39947891057E+01  0.37786990374E+02  0.45045680312E+02  0.00000000000E+00 0.  1.
         11    1    3    3    0    0 -0.11385842824E+02  0.11257813368E+01 -0.17044499762E+02  0.20528511218E+02  0.51100000000E-03 0. -1.
        -11    1    3    3    0    0 -0.32485584380E+01  0.13094281523E+01 -0.45702517755E+01  0.57580322649E+01  0.51100000000E-03 0.  1.
         12    1    3    3    0    0 -0.95585384774E+01 -0.64299985947E+01 -0.16172238836E+02  0.19855776205E+02  0.00000000000E+00 0. -1.
</event>
<event>
 7    1  0.4102844E-008  0.4614232E+02  0.7816164E-02  0.1320468E+00
        -11   -1    0    0    0    0  0.00000000000E+00  0.00000000000E+00  0.45593999997E+02  0.45594000000E+02  0.51100000000E-03 0. -1.
         11   -1    0    0    0    0 -0.00000000000E+00 -0.00000000000E+00 -0.45593999997E+02  0.45594000000E+02  0.51100000000E-03 0.  1.
    9900012    2    1    2    0    0  0.16616457583E+02  0.14011312648E+01  0.41845474404E+02  0.46142316972E+02  0.99999928010E+01 0.  0.
        -12    1    1    2    0    0 -0.16616457583E+02 -0.14011312648E+01 -0.41845474404E+02  0.45045683028E+02  0.00000000000E+00 0.  1.
         11    1    3    3    0    0  0.53835617423E+01  0.20523712266E+01  0.20412650907E+02  0.21210169306E+02  0.51100000000E-03 0. -1.
        -11    1    3    3    0    0  0.11907961168E+02 -0.44809326388E+00  0.19265282856E+02  0.22652846412E+02  0.51100000000E-03 0.  1.
         12    1    3    3    0    0 -0.67506532784E+00 -0.20314669791E+00  0.21675406402E+01  0.22793012536E+01  0.00000000000E+00 0. -1.
</event>
<event>
 7    1  0.4102844E-008  0.4614232E+02  0.7816164E-02  0.1320468E+00
        -11   -1    0    0    0    0  0.00000000000E+00  0.00000000000E+00  0.45593999997E+02  0.45594000000E+02  0.51100000000E-03 0.  1.
         11   -1    0    0    0    0 -0.00000000000E+00 -0.00000000000E+00 -0.45593999997E+02  0.45594000000E+02  0.51100000000E-03 0. -1.
    9900012    2    1    2    0    0 -0.37995193953E+01  0.20506366495E+02 -0.39927009359E+02  0.46142317734E+02  0.99999997546E+01 0.  0.
        -12    1    1    2    0    0  0.37995193953E+01 -0.20506366495E+02  0.39927009359E+02  0.45045682266E+02  0.00000000000E+00 0.  1.
         11    1    3    3    0    0 -0.23930955098E+01  0.18223382099E+01 -0.18959205684E+01  0.35556065211E+01  0.51100000000E-03 0.  1.
        -11    1    3    3    0    0  0.12768023853E-01  0.78346753834E+01 -0.11790009032E+02  0.14155797916E+02  0.51100000000E-03 0. -1.
        -12    1    3    3    0    0 -0.14191919094E+01  0.10849352902E+02 -0.26241079758E+02  0.28430913297E+02  0.00000000000E+00 0.  1.
</event>
<event>
 7    1  0.4102844E-008  0.4614232E+02  0.7816164E-02  0.1320468E+00
        -11   -1    0    0    0    0  0.00000000000E+00  0.00000000000E+00  0.45593999997E+02  0.45594000000E+02  0.51100000000E-03 0. -1.
         11   -1    0    0    0    0 -0.00000000000E+00 -0.00000000000E+00 -0.45593999997E+02  0.45594000000E+02  0.51100000000E-03 0.  1.
    9900012    2    1    2    0    0  0.22754770210E+02 -0.12802433205E+02  0.36707378844E+02  0.46142317356E+02  0.99999963038E+01 0.  0.
        -12    1    1    2    0    0 -0.22754770210E+02  0.12802433205E+02 -0.36707378844E+02  0.45045682644E+02  0.00000000000E+00 0.  1.
         11    1    3    3    0    0  0.30607659803E+01  0.88648384506E+00  0.61157273934E+01  0.68961049735E+01  0.51100000000E-03 0. -1.
        -11    1    3    3    0    0  0.11225244458E+02 -0.49811436935E+01  0.17594585231E+02  0.21456638491E+02  0.51100000000E-03 0.  1.
        -12    1    3    3    0    0  0.84687597718E+01 -0.87077733567E+01  0.12997066220E+02  0.17789573891E+02  0.00000000000E+00 0.  1.
</event>
<event>
 7    1  0.4102844E-008  0.4614232E+02  0.7816164E-02  0.1320468E+00
        -11   -1    0    0    0    0  0.00000000000E+00  0.00000000000E+00  0.45593999997E+02  0.45594000000E+02  0.51100000000E-03 0.  1.
         11   -1    0    0    0    0 -0.00000000000E+00 -0.00000000000E+00 -0.45593999997E+02  0.45594000000E+02  0.51100000000E-03 0. -1.
    9900012    2    1    2    0    0  0.43654755277E+02 -0.21454532874E+01 -0.10898294642E+02  0.46142318140E+02  0.10000003455E+02 0.  0.
        -12    1    1    2    0    0 -0.43654755277E+02  0.21454532874E+01  0.10898294642E+02  0.45045681860E+02  0.00000000000E+00 0.  1.
         11    1    3    3    0    0  0.13167808136E+02  0.81539292904E+00 -0.30007200550E+01  0.13529979965E+02  0.51100000000E-03 0. -1.
        -11    1    3    3    0    0  0.13122866334E+02  0.21695739345E+01 -0.53120546348E+01  0.14322520608E+02  0.51100000000E-03 0.  1.
        -12    1    3    3    0    0  0.17364080807E+02 -0.51304201509E+01 -0.25855199524E+01  0.18289817567E+02  0.00000000000E+00 0.  1.
</event>
<event>
 7    1  0.4102844E-008  0.4614232E+02  0.7816164E-02  0.1320468E+00
        -11   -1    0    0    0    0  0.00000000000E+00  0.00000000000E+00  0.45593999997E+02  0.45594000000E+02  0.51100000000E-03 0.  1.
         11   -1    0    0    0    0 -0.00000000000E+00 -0.00000000000E+00 -0.45593999997E+02  0.45594000000E+02  0.51100000000E-03 0. -1.
    9900012    2    1    2    0    0 -0.37874763875E+02  0.24330541012E+02  0.16249703923E+01  0.46142317706E+02  0.99999994991E+01 0.  0.
        -12    1    1    2    0    0  0.37874763875E+02 -0.24330541012E+02 -0.16249703923E+01  0.45045682294E+02  0.00000000000E+00 0.  1.
         11    1    3    3    0    0 -0.40711183010E+01  0.35816812899E+01 -0.13776613570E+01  0.55946756974E+01  0.51100000000E-03 0. -1.
        -11    1    3    3    0    0 -0.25423237303E+02  0.14369725760E+02 -0.11514325124E+01  0.29225944133E+02  0.51100000000E-03 0.  1.
        -12    1    3    3    0    0 -0.83804082714E+01  0.63791339619E+01  0.41540642617E+01  0.11321697876E+02  0.00000000000E+00 0.  1.
</event>
<event>
 7    1  0.4102844E-008  0.4614231E+02  0.7816164E-02  0.1320468E+00
        -11   -1    0    0    0    0  0.00000000000E+00  0.00000000000E+00  0.45593999997E+02  0.45594000000E+02  0.51100000000E-03 0.  1.
         11   -1    0    0    0    0 -0.00000000000E+00 -0.00000000000E+00 -0.45593999997E+02  0.45594000000E+02  0.51100000000E-03 0. -1.
    9900012    2    1    2    0    0 -0.34696750136E+02 -0.95711330456E+01 -0.27085849575E+02  0.46142308697E+02  0.99999173438E+01 0.  0.
        -12    1    1    2    0    0  0.34696750136E+02  0.95711330456E+01  0.27085849575E+02  0.45045691303E+02  0.00000000000E+00 0.  1.
         11    1    3    3    0    0 -0.69852707792E+01  0.93544527347E+00 -0.45349584521E+01  0.83806273120E+01  0.51100000000E-03 0. -1.
        -11    1    3    3    0    0 -0.94745727156E+00 -0.16215543047E+01 -0.26433924763E+01  0.32426282071E+01  0.51100000000E-03 0.  1.
         12    1    3    3    0    0 -0.26764022086E+02 -0.88850240144E+01 -0.19907498646E+02  0.34519053178E+02  0.00000000000E+00 0. -1.
</event>
<event>
 7    1  0.4102844E-008  0.4614232E+02  0.7816164E-02  0.1320468E+00
        -11   -1    0    0    0    0  0.00000000000E+00  0.00000000000E+00  0.45593999997E+02  0.45594000000E+02  0.51100000000E-03 0.  1.
         11   -1    0    0    0    0 -0.00000000000E+00 -0.00000000000E+00 -0.45593999997E+02  0.45594000000E+02  0.51100000000E-03 0. -1.
    9900012    2    1    2    0    0 -0.96738136951E+00  0.42031922308E+02 -0.16170808650E+02  0.46142319053E+02  0.10000011780E+02 0.  0.
        -12    1    1    2    0    0  0.96738136951E+00 -0.42031922308E+02  0.16170808650E+02  0.45045680947E+02  0.00000000000E+00 0.  1.
         11    1    3    3    0    0 -0.59311393687E+00  0.23048435458E+02 -0.97527866286E+01  0.25033957108E+02  0.51100000000E-03 0. -1.
        -11    1    3    3    0    0 -0.28035092920E+01  0.42147034886E+01 -0.81708212819E+00  0.51274763103E+01  0.51100000000E-03 0.  1.
        -12    1    3    3    0    0  0.24292418594E+01  0.14768783361E+02 -0.56009398934E+01  0.15980885635E+02  0.00000000000E+00 0.  1.
</event>
<event>
 7    1  0.4102844E-008  0.4614232E+02  0.7816164E-02  0.1320468E+00
        -11   -1    0    0    0    0  0.00000000000E+00  0.00000000000E+00  0.45593999997E+02  0.45594000000E+02  0.51100000000E-03 0.  1.
         11   -1    0    0    0    0 -0.00000000000E+00 -0.00000000000E+00 -0.45593999997E+02  0.45594000000E+02  0.51100000000E-03 0. -1.
    9900012    2    1    2    0    0  0.80892515727E+01 -0.82338810894E+01 -0.43541711928E+02  0.46142318005E+02  0.10000002221E+02 0.  0.
        -12    1    1    2    0    0 -0.80892515727E+01  0.82338810894E+01  0.43541711928E+02  0.45045681995E+02  0.00000000000E+00 0.  1.
         11    1    3    3    0    0  0.33371017674E+01 -0.61732210649E+01 -0.14381251601E+02  0.16002040632E+02  0.51100000000E-03 0.  1.
        -11    1    3    3    0    0  0.43614476256E+01  0.75483317493E+00 -0.21908192528E+02  0.22350859013E+02  0.51100000000E-03 0. -1.
        -12    1    3    3    0    0  0.39070217964E+00 -0.28154931995E+01 -0.72522677992E+01  0.77894183596E+01  0.00000000000E+00 0.  1.
</event>
<event>
 7    1  0.4102844E-008  0.4614232E+02  0.7816164E-02  0.1320468E+00
        -11   -1    0    0    0    0  0.00000000000E+00  0.00000000000E+00  0.45593999997E+02  0.45594000000E+02  0.51100000000E-03 0.  1.
         11   -1    0    0    0    0 -0.00000000000E+00 -0.00000000000E+00 -0.45593999997E+02  0.45594000000E+02  0.51100000000E-03 0. -1.
    9900012    2    1    2    0    0  0.15065458563E+01  0.42196276231E+02 -0.15694526427E+02  0.46142316878E+02  0.99999919469E+01 0.  0.
        -12    1    1    2    0    0 -0.15065458563E+01 -0.42196276231E+02  0.15694526427E+02  0.45045683122E+02  0.00000000000E+00 0.  1.
         11    1    3    3    0    0  0.26406156841E+01  0.10115073252E+02 -0.55167954636E+01  0.11820431064E+02  0.51100000000E-03 0. -1.
        -11    1    3    3    0    0  0.73704549842E+00  0.90436124149E+01 -0.16842763040E-01  0.90736125946E+01  0.51100000000E-03 0.  1.
         12    1    3    3    0    0 -0.18711153262E+01  0.23037590564E+02 -0.10160888200E+02  0.25248273219E+02  0.00000000000E+00 0. -1.
</event>
<event>
 7    1  0.4102844E-008  0.4614232E+02  0.7816164E-02  0.1320468E+00
        -11   -1    0    0    0    0  0.00000000000E+00  0.00000000000E+00  0.45593999997E+02  0.45594000000E+02  0.51100000000E-03 0.  1.
         11   -1    0    0    0    0 -0.00000000000E+00 -0.00000000000E+00 -0.45593999997E+02  0.45594000000E+02  0.51100000000E-03 0. -1.
    9900012    2    1    2    0    0  0.22241848973E+02 -0.39140752263E+02  0.15540801855E+01  0.46142317646E+02  0.99999989540E+01 0.  0.
        -12    1    1    2    0    0 -0.22241848973E+02  0.39140752263E+02 -0.15540801855E+01  0.45045682354E+02  0.00000000000E+00 0.  1.
         11    1    3    3    0    0  0.31232473208E+01 -0.81946631672E+01  0.11458113507E+01  0.88442106580E+01  0.51100000000E-03 0. -1.
        -11    1    3    3    0    0  0.59947697994E+01 -0.47723041785E+01  0.21751089402E+01  0.79651271982E+01  0.51100000000E-03 0.  1.
         12    1    3    3    0    0  0.13123831853E+02 -0.26173784918E+02 -0.17668401054E+01  0.29332979790E+02  0.00000000000E+00 0. -1.
</event>
<event>
 7    1  0.4102844E-008  0.4614232E+02  0.7816164E-02  0.1320468E+00
        -11   -1    0    0    0    0  0.00000000000E+00  0.00000000000E+00  0.45593999997E+02  0.45594000000E+02  0.51100000000E-03 0.  1.
         11   -1    0    0    0    0 -0.00000000000E+00 -0.00000000000E+00 -0.45593999997E+02  0.45594000000E+02  0.51100000000E-03 0. -1.
    9900012    2    1    2    0    0  0.29964568659E+02  0.32708649829E+02  0.78346941221E+01  0.46142316738E+02  0.99999906725E+01 0.  0.
        -12    1    1    2    0    0 -0.29964568659E+02 -0.32708649829E+02 -0.78346941221E+01  0.45045683262E+02  0.00000000000E+00 0.  1.
         11    1    3    3    0    0  0.23491101846E+02  0.20860634684E+02  0.51186557721E+01  0.31830780426E+02  0.51100000000E-03 0. -1.
        -11    1    3    3    0    0  0.55896308624E+01  0.67651754783E+01  0.25940141133E+01  0.91509825654E+01  0.51100000000E-03 0.  1.
        -12    1    3    3    0    0  0.88383595083E+00  0.50828396662E+01  0.12202423674E+00  0.51605537469E+01  0.00000000000E+00 0.  1.
</event>
<event>
 7    1  0.4102844E-008  0.4614232E+02  0.7816164E-02  0.1320468E+00
        -11   -1    0    0    0    0  0.00000000000E+00  0.00000000000E+00  0.45593999997E+02  0.45594000000E+02  0.51100000000E-03 0.  1.
         11   -1    0    0    0    0 -0.00000000000E+00 -0.00000000000E+00 -0.45593999997E+02  0.45594000000E+02  0.51100000000E-03 0. -1.
    9900012    2    1    2    0    0 -0.25916016826E+01 -0.27874457966E+01 -0.44884599363E+02  0.46142317484E+02  0.99999974707E+01 0.  0.
        -12    1    1    2    0    0  0.25916016826E+01  0.27874457966E+01  0.44884599363E+02  0.45045682516E+02  0.00000000000E+00 0.  1.
         11    1    3    3    0    0  0.91012839804E+00 -0.49131660305E+01 -0.27530101515E+02  0.27979886059E+02  0.51100000000E-03 0. -1.
        -11    1    3    3    0    0 -0.97652015417E+00  0.11751345838E+01 -0.17361846252E+01  0.23127624641E+01  0.51100000000E-03 0.  1.
         12    1    3    3    0    0 -0.25252099265E+01  0.95058565007E+00 -0.15618313223E+02  0.15849668961E+02  0.00000000000E+00 0. -1.
</event>
<event>
 7    1  0.4102844E-008  0.4614232E+02  0.7816164E-02  0.1320468E+00
        -11   -1    0    0    0    0  0.00000000000E+00  0.00000000000E+00  0.45593999997E+02  0.45594000000E+02  0.51100000000E-03 0.  1.
         11   -1    0    0    0    0 -0.00000000000E+00 -0.00000000000E+00 -0.45593999997E+02  0.45594000000E+02  0.51100000000E-03 0. -1.
    9900012    2    1    2    0    0 -0.15116064282E+02  0.53078205664E+01 -0.42100417554E+02  0.46142317446E+02  0.99999971299E+01 0.  0.
        -12    1    1    2    0    0  0.15116064282E+02 -0.53078205664E+01  0.42100417554E+02  0.45045682554E+02  0.00000000000E+00 0.  1.
         11    1    3    3    0    0 -0.39804188456E+01  0.21177368908E+01 -0.76581264499E+01  0.88868129669E+01  0.51100000000E-03 0.  1.
        -11    1    3    3    0    0 -0.78107792428E+01  0.38054838475E+01 -0.13584452822E+02  0.16125363203E+02  0.51100000000E-03 0. -1.
         12    1    3    3    0    0 -0.33248661932E+01 -0.61540017189E+00 -0.20857838282E+02  0.21130141277E+02  0.00000000000E+00 0. -1.
</event>
<event>
 7    1  0.4102844E-008  0.4614232E+02  0.7816164E-02  0.1320468E+00
        -11   -1    0    0    0    0  0.00000000000E+00  0.00000000000E+00  0.45593999997E+02  0.45594000000E+02  0.51100000000E-03 0.  1.
         11   -1    0    0    0    0 -0.00000000000E+00 -0.00000000000E+00 -0.45593999997E+02  0.45594000000E+02  0.51100000000E-03 0. -1.
    9900012    2    1    2    0    0 -0.30572180767E+02 -0.15316156845E+02 -0.29323549746E+02  0.46142317998E+02  0.10000002158E+02 0.  0.
        -12    1    1    2    0    0  0.30572180767E+02  0.15316156845E+02  0.29323549746E+02  0.45045682002E+02  0.00000000000E+00 0.  1.
         11    1    3    3    0    0 -0.18867182555E+02 -0.95036416136E+01 -0.15188676736E+02  0.26018948532E+02  0.51100000000E-03 0. -1.
        -11    1    3    3    0    0 -0.32151108859E+01 -0.31985716333E+01 -0.17040486551E+01  0.48447477315E+01  0.51100000000E-03 0.  1.
        -12    1    3    3    0    0 -0.84898873261E+01 -0.26139435984E+01 -0.12430824355E+02  0.15278621734E+02  0.00000000000E+00 0.  1.
</event>
<event>
 7    1  0.4102844E-008  0.4614232E+02  0.7816164E-02  0.1320468E+00
        -11   -1    0    0    0    0  0.00000000000E+00  0.00000000000E+00  0.45593999997E+02  0.45594000000E+02  0.51100000000E-03 0.  1.
         11   -1    0    0    0    0 -0.00000000000E+00 -0.00000000000E+00 -0.45593999997E+02  0.45594000000E+02  0.51100000000E-03 0. -1.
    9900012    2    1    2    0    0 -0.42387621115E+02  0.14990652487E+02  0.27718852839E+01  0.46142318367E+02  0.10000005526E+02 0.  0.
        -12    1    1    2    0    0  0.42387621115E+02 -0.14990652487E+02 -0.27718852839E+01  0.45045681633E+02  0.00000000000E+00 0.  1.
         11    1    3    3    0    0 -0.75671815148E+01  0.48769254269E+01 -0.26405523716E+01  0.93818524176E+01  0.51100000000E-03 0. -1.
        -11    1    3    3    0    0 -0.13507964325E+02  0.50957078674E+01  0.28501420666E+01  0.14715795899E+02  0.51100000000E-03 0.  1.
        -12    1    3    3    0    0 -0.21312475275E+02  0.50180191929E+01  0.25622955889E+01  0.22044670050E+02  0.00000000000E+00 0.  1.
</event>
<event>
 7    1  0.4102844E-008  0.4614231E+02  0.7816164E-02  0.1320468E+00
        -11   -1    0    0    0    0  0.00000000000E+00  0.00000000000E+00  0.45593999997E+02  0.45594000000E+02  0.51100000000E-03 0.  1.
         11   -1    0    0    0    0 -0.00000000000E+00 -0.00000000000E+00 -0.45593999997E+02  0.45594000000E+02  0.51100000000E-03 0. -1.
    9900012    2    1    2    0    0  0.25879720179E+02 -0.36671315037E+02 -0.38168722263E+01  0.46142314561E+02  0.99999708191E+01 0.  0.
        -12    1    1    2    0    0 -0.25879720179E+02  0.36671315037E+02  0.38168722263E+01  0.45045685439E+02  0.00000000000E+00 0.  1.
         11    1    3    3    0    0  0.15416470749E+02 -0.27005474339E+02 -0.58397147767E+01  0.31639618891E+02  0.51100000000E-03 0. -1.
        -11    1    3    3    0    0  0.15215840466E+01 -0.66914670518E+00  0.44340729462E+00  0.17203446207E+01  0.51100000000E-03 0.  1.
         12    1    3    3    0    0  0.89416653828E+01 -0.89966939931E+01  0.15794352558E+01  0.12782351049E+02  0.00000000000E+00 0. -1.
</event>
<event>
 7    1  0.4102844E-008  0.4614232E+02  0.7816164E-02  0.1320468E+00
        -11   -1    0    0    0    0  0.00000000000E+00  0.00000000000E+00  0.45593999997E+02  0.45594000000E+02  0.51100000000E-03 0.  1.
         11   -1    0    0    0    0 -0.00000000000E+00 -0.00000000000E+00 -0.45593999997E+02  0.45594000000E+02  0.51100000000E-03 0. -1.
    9900012    2    1    2    0    0 -0.23253228089E+02 -0.21228657806E+02 -0.32214049500E+02  0.46142317477E+02  0.99999974064E+01 0.  0.
        -12    1    1    2    0    0  0.23253228089E+02  0.21228657806E+02  0.32214049500E+02  0.45045682523E+02  0.00000000000E+00 0.  1.
         11    1    3    3    0    0 -0.40108150900E+01 -0.81155217919E+01 -0.61349292446E+01  0.10935524164E+02  0.51100000000E-03 0. -1.
        -11    1    3    3    0    0 -0.76846447826E+01 -0.68046189848E+01 -0.90772186742E+01  0.13702280981E+02  0.51100000000E-03 0.  1.
         12    1    3    3    0    0 -0.11557768217E+02 -0.63085170294E+01 -0.17001901581E+02  0.21504512332E+02  0.00000000000E+00 0. -1.
</event>
<event>
 7    1  0.4102844E-008  0.4614232E+02  0.7816164E-02  0.1320468E+00
        -11   -1    0    0    0    0  0.00000000000E+00  0.00000000000E+00  0.45593999997E+02  0.45594000000E+02  0.51100000000E-03 0.  1.
         11   -1    0    0    0    0 -0.00000000000E+00 -0.00000000000E+00 -0.45593999997E+02  0.45594000000E+02  0.51100000000E-03 0. -1.
    9900012    2    1    2    0    0 -0.19634325425E+00  0.43624130466E+02 -0.11225430456E+02  0.46142316539E+02  0.99999888532E+01 0.  0.
        -12    1    1    2    0    0  0.19634325425E+00 -0.43624130466E+02  0.11225430456E+02  0.45045683461E+02  0.00000000000E+00 0.  1.
         11    1    3    3    0    0 -0.16940530835E+01  0.14989017742E+02 -0.49604548784E+01  0.15879124081E+02  0.51100000000E-03 0. -1.
        -11    1    3    3    0    0  0.75138289900E+00  0.19561113835E+02 -0.77203892314E+01  0.21042959889E+02  0.51100000000E-03 0.  1.
         12    1    3    3    0    0  0.74632693022E+00  0.90739988892E+01  0.14554136542E+01  0.92202325693E+01  0.00000000000E+00 0. -1.
</event>
<event>
 7    1  0.4102844E-008  0.4614232E+02  0.7816164E-02  0.1320468E+00
        -11   -1    0    0    0    0  0.00000000000E+00  0.00000000000E+00  0.45593999997E+02  0.45594000000E+02  0.51100000000E-03 0. -1.
         11   -1    0    0    0    0 -0.00000000000E+00 -0.00000000000E+00 -0.45593999997E+02  0.45594000000E+02  0.51100000000E-03 0.  1.
    9900012    2    1    2    0    0  0.20975397754E+02  0.21389210188E+02  0.33639971407E+02  0.46142319856E+02  0.10000019101E+02 0.  0.
        -12    1    1    2    0    0 -0.20975397754E+02 -0.21389210188E+02 -0.33639971407E+02  0.45045680144E+02  0.00000000000E+00 0.  1.
         11    1    3    3    0    0  0.35543832544E+01  0.78575115978E+00  0.55608863611E+01  0.66463901921E+01  0.51100000000E-03 0. -1.
        -11    1    3    3    0    0  0.37146473526E+01  0.43236306960E+01  0.25077126512E+01  0.62274401122E+01  0.51100000000E-03 0.  1.
         12    1    3    3    0    0  0.13706367147E+02  0.16279828333E+02  0.25571372395E+02  0.33268489551E+02  0.00000000000E+00 0. -1.
</event>
<event>
 7    1  0.4102844E-008  0.4614232E+02  0.7816164E-02  0.1320468E+00
        -11   -1    0    0    0    0  0.00000000000E+00  0.00000000000E+00  0.45593999997E+02  0.45594000000E+02  0.51100000000E-03 0.  1.
         11   -1    0    0    0    0 -0.00000000000E+00 -0.00000000000E+00 -0.45593999997E+02  0.45594000000E+02  0.51100000000E-03 0. -1.
    9900012    2    1    2    0    0  0.13909105667E+02 -0.14386557374E+02 -0.40356873138E+02  0.46142318043E+02  0.10000002567E+02 0.  0.
        -12    1    1    2    0    0 -0.13909105667E+02  0.14386557374E+02  0.40356873138E+02  0.45045681957E+02  0.00000000000E+00 0.  1.
         11    1    3    3    0    0  0.60507320112E+01 -0.15773179723E+01 -0.12672195307E+02  0.14130952694E+02  0.51100000000E-03 0. -1.
        -11    1    3    3    0    0  0.55676220813E+01 -0.39135385793E+01 -0.10225636834E+02  0.12283234459E+02  0.51100000000E-03 0.  1.
         12    1    3    3    0    0  0.22907515749E+01 -0.88957008227E+01 -0.17459040996E+02  0.19728130890E+02  0.00000000000E+00 0. -1.
</event>
<event>
 7    1  0.4102844E-008  0.4614232E+02  0.7816164E-02  0.1320468E+00
        -11   -1    0    0    0    0  0.00000000000E+00  0.00000000000E+00  0.45593999997E+02  0.45594000000E+02  0.51100000000E-03 0. -1.
         11   -1    0    0    0    0 -0.00000000000E+00 -0.00000000000E+00 -0.45593999997E+02  0.45594000000E+02  0.51100000000E-03 0.  1.
    9900012    2    1    2    0    0  0.36575911699E+02 -0.47747218369E+01  0.25855717414E+02  0.46142318651E+02  0.10000008111E+02 0.  0.
        -12    1    1    2    0    0 -0.36575911699E+02  0.47747218369E+01 -0.25855717414E+02  0.45045681349E+02  0.00000000000E+00 0.  1.
         11    1    3    3    0    0  0.19403469656E+02 -0.19082896136E+01  0.11009984340E+02  0.22390979420E+02  0.51100000000E-03 0. -1.
        -11    1    3    3    0    0  0.87422104663E+01 -0.29735719014E+00  0.11207265338E+02  0.14216802093E+02  0.51100000000E-03 0.  1.
         12    1    3    3    0    0  0.84302315767E+01 -0.25690750332E+01  0.36384677354E+01  0.95345371374E+01  0.00000000000E+00 0. -1.
</event>
<event>
 7    1  0.4102844E-008  0.4614232E+02  0.7816164E-02  0.1320468E+00
        -11   -1    0    0    0    0  0.00000000000E+00  0.00000000000E+00  0.45593999997E+02  0.45594000000E+02  0.51100000000E-03 0. -1.
         11   -1    0    0    0    0 -0.00000000000E+00 -0.00000000000E+00 -0.45593999997E+02  0.45594000000E+02  0.51100000000E-03 0.  1.
    9900012    2    1    2    0    0 -0.29037237913E+02  0.23201462453E+02  0.25448858790E+02  0.46142318084E+02  0.10000002943E+02 0.  0.
        -12    1    1    2    0    0  0.29037237913E+02 -0.23201462453E+02 -0.25448858790E+02  0.45045681916E+02  0.00000000000E+00 0.  1.
         11    1    3    3    0    0 -0.18754113733E+02  0.12539167976E+02  0.16906118811E+02  0.28191565564E+02  0.51100000000E-03 0. -1.
        -11    1    3    3    0    0 -0.10715975982E+02  0.96496895360E+01  0.69332631177E+01  0.16000587086E+02  0.51100000000E-03 0.  1.
        -12    1    3    3    0    0  0.43285180220E+00  0.10126049410E+01  0.16094768617E+01  0.19501654334E+01  0.00000000000E+00 0.  1.
</event>
<event>
 7    1  0.4102844E-008  0.4614232E+02  0.7816164E-02  0.1320468E+00
        -11   -1    0    0    0    0  0.00000000000E+00  0.00000000000E+00  0.45593999997E+02  0.45594000000E+02  0.51100000000E-03 0. -1.
         11   -1    0    0    0    0 -0.00000000000E+00 -0.00000000000E+00 -0.45593999997E+02  0.45594000000E+02  0.51100000000E-03 0.  1.
    9900012    2    1    2    0    0  0.22533353542E+02  0.38137687346E+02 -0.81779126810E+01  0.46142317924E+02  0.10000001482E+02 0.  0.
        -12    1    1    2    0    0 -0.22533353542E+02 -0.38137687346E+02  0.81779126810E+01  0.45045682076E+02  0.00000000000E+00 0.  1.
         11    1    3    3    0    0  0.28846400310E+01  0.18638502499E+01 -0.10791060306E+01  0.35999383257E+01  0.51100000000E-03 0. -1.
        -11    1    3    3    0    0  0.16034171546E+02  0.22585247813E+02 -0.33745825492E+01  0.27902972666E+02  0.51100000000E-03 0.  1.
         12    1    3    3    0    0  0.36145419644E+01  0.13688589283E+02 -0.37242241012E+01  0.14639406932E+02  0.00000000000E+00 0. -1.
</event>
<event>
 7    1  0.4102844E-008  0.4614232E+02  0.7816164E-02  0.1320468E+00
        -11   -1    0    0    0    0  0.00000000000E+00  0.00000000000E+00  0.45593999997E+02  0.45594000000E+02  0.51100000000E-03 0. -1.
         11   -1    0    0    0    0 -0.00000000000E+00 -0.00000000000E+00 -0.45593999997E+02  0.45594000000E+02  0.51100000000E-03 0.  1.
    9900012    2    1    2    0    0 -0.41465154391E+02 -0.17363984228E+02 -0.28716711109E+01  0.46142317944E+02  0.10000001668E+02 0.  0.
        -12    1    1    2    0    0  0.41465154391E+02  0.17363984228E+02  0.28716711109E+01  0.45045682056E+02  0.00000000000E+00 0.  1.
         11    1    3    3    0    0 -0.53990168954E+01 -0.49792760293E+01 -0.21192753414E+01  0.76442070515E+01  0.51100000000E-03 0. -1.
        -11    1    3    3    0    0 -0.26176790526E+02 -0.99676228831E+01 -0.26748271709E+01  0.28137742781E+02  0.51100000000E-03 0.  1.
         12    1    3    3    0    0 -0.98893469698E+01 -0.24170853156E+01  0.19224314013E+01  0.10360368111E+02  0.00000000000E+00 0. -1.
</event>
<event>
 7    1  0.4102844E-008  0.4614232E+02  0.7816164E-02  0.1320468E+00
        -11   -1    0    0    0    0  0.00000000000E+00  0.00000000000E+00  0.45593999997E+02  0.45594000000E+02  0.51100000000E-03 0.  1.
         11   -1    0    0    0    0 -0.00000000000E+00 -0.00000000000E+00 -0.45593999997E+02  0.45594000000E+02  0.51100000000E-03 0. -1.
    9900012    2    1    2    0    0 -0.28223224665E+01  0.38570735276E+02 -0.23096448346E+02  0.46142322627E+02  0.10000044370E+02 0.  0.
        -12    1    1    2    0    0  0.28223224665E+01 -0.38570735276E+02  0.23096448346E+02  0.45045677373E+02  0.00000000000E+00 0.  1.
         11    1    3    3    0    0 -0.18342480068E+01  0.29848246109E+02 -0.19228276156E+02  0.35552902353E+02  0.51100000000E-03 0. -1.
        -11    1    3    3    0    0  0.12063185624E+00  0.16219137128E+01 -0.29174960745E+01  0.33402005543E+01  0.51100000000E-03 0.  1.
        -12    1    3    3    0    0 -0.11087063159E+01  0.71005754534E+01 -0.95067611563E+00  0.72492197194E+01  0.00000000000E+00 0.  1.
</event>
<event>
 7    1  0.4102844E-008  0.4614232E+02  0.7816164E-02  0.1320468E+00
        -11   -1    0    0    0    0  0.00000000000E+00  0.00000000000E+00  0.45593999997E+02  0.45594000000E+02  0.51100000000E-03 0.  1.
         11   -1    0    0    0    0 -0.00000000000E+00 -0.00000000000E+00 -0.45593999997E+02  0.45594000000E+02  0.51100000000E-03 0. -1.
    9900012    2    1    2    0    0 -0.46910539930E+01  0.44800600501E+02  0.11694201932E+00  0.46142317985E+02  0.10000002038E+02 0.  0.
        -12    1    1    2    0    0  0.46910539930E+01 -0.44800600501E+02 -0.11694201932E+00  0.45045682015E+02  0.00000000000E+00 0.  1.
         11    1    3    3    0    0 -0.37174878826E+01  0.80576749290E+01 -0.81457947255E+00  0.89111941622E+01  0.51100000000E-03 0. -1.
        -11    1    3    3    0    0  0.93874686604E+00  0.16024221939E+01  0.84054314549E+00  0.20385081816E+01  0.51100000000E-03 0.  1.
         12    1    3    3    0    0 -0.19123129764E+01  0.35140503378E+02  0.90978346383E-01  0.35192615641E+02  0.00000000000E+00 0. -1.
</event>
<event>
 7    1  0.4102844E-008  0.4614232E+02  0.7816164E-02  0.1320468E+00
        -11   -1    0    0    0    0  0.00000000000E+00  0.00000000000E+00  0.45593999997E+02  0.45594000000E+02  0.51100000000E-03 0. -1.
         11   -1    0    0    0    0 -0.00000000000E+00 -0.00000000000E+00 -0.45593999997E+02  0.45594000000E+02  0.51100000000E-03 0.  1.
    9900012    2    1    2    0    0 -0.39175884860E+02  0.12888485460E+02 -0.18117684376E+02  0.46142317642E+02  0.99999989099E+01 0.  0.
        -12    1    1    2    0    0  0.39175884860E+02 -0.12888485460E+02  0.18117684376E+02  0.45045682358E+02  0.00000000000E+00 0.  1.
         11    1    3    3    0    0 -0.32840428413E+01  0.19168777238E+01 -0.21165977936E+01  0.43519356696E+01  0.51100000000E-03 0.  1.
        -11    1    3    3    0    0 -0.32279994222E+02  0.10581431100E+02 -0.17050478297E+02  0.38008992640E+02  0.51100000000E-03 0. -1.
         12    1    3    3    0    0 -0.36118477962E+01  0.39017663581E+00  0.10493917139E+01  0.37813893319E+01  0.00000000000E+00 0. -1.
</event>
<event>
 7    1  0.4102844E-008  0.4614232E+02  0.7816164E-02  0.1320468E+00
        -11   -1    0    0    0    0  0.00000000000E+00  0.00000000000E+00  0.45593999997E+02  0.45594000000E+02  0.51100000000E-03 0.  1.
         11   -1    0    0    0    0 -0.00000000000E+00 -0.00000000000E+00 -0.45593999997E+02  0.45594000000E+02  0.51100000000E-03 0. -1.
    9900012    2    1    2    0    0 -0.23841807948E+02  0.33887021357E+02 -0.17673469842E+02  0.46142316978E+02  0.99999928583E+01 0.  0.
        -12    1    1    2    0    0  0.23841807948E+02 -0.33887021357E+02  0.17673469842E+02  0.45045683022E+02  0.00000000000E+00 0.  1.
         11    1    3    3    0    0 -0.13941953017E+02  0.22583337951E+02 -0.65684589731E+01  0.27340992309E+02  0.51100000000E-03 0. -1.
        -11    1    3    3    0    0 -0.13297288491E+01  0.22651342797E+01 -0.27512474424E+01  0.38037317029E+01  0.51100000000E-03 0.  1.
         12    1    3    3    0    0 -0.85701260826E+01  0.90385491260E+01 -0.83537634265E+01  0.14997592966E+02  0.00000000000E+00 0. -1.
</event>
<event>
 7    1  0.4102844E-008  0.4614232E+02  0.7816164E-02  0.1320468E+00
        -11   -1    0    0    0    0  0.00000000000E+00  0.00000000000E+00  0.45593999997E+02  0.45594000000E+02  0.51100000000E-03 0.  1.
         11   -1    0    0    0    0 -0.00000000000E+00 -0.00000000000E+00 -0.45593999997E+02  0.45594000000E+02  0.51100000000E-03 0. -1.
    9900012    2    1    2    0    0  0.83897191063E+01 -0.42371574335E+02 -0.12781860255E+02  0.46142315968E+02  0.99999836508E+01 0.  0.
        -12    1    1    2    0    0 -0.83897191063E+01  0.42371574335E+02  0.12781860255E+02  0.45045684032E+02  0.00000000000E+00 0.  1.
         11    1    3    3    0    0  0.56338322793E+01 -0.18157239471E+02 -0.46043488198E+01  0.19560813881E+02  0.51100000000E-03 0. -1.
        -11    1    3    3    0    0  0.32016976302E+00  0.42537065296E+00 -0.15780115370E+00  0.55529301705E+00  0.51100000000E-03 0.  1.
         12    1    3    3    0    0  0.24357170640E+01 -0.24639705517E+02 -0.80197102817E+01  0.26026209071E+02  0.00000000000E+00 0. -1.
</event>
<event>
 7    1  0.4102844E-008  0.4614231E+02  0.7816164E-02  0.1320468E+00
        -11   -1    0    0    0    0  0.00000000000E+00  0.00000000000E+00  0.45593999997E+02  0.45594000000E+02  0.51100000000E-03 0.  1.
         11   -1    0    0    0    0 -0.00000000000E+00 -0.00000000000E+00 -0.45593999997E+02  0.45594000000E+02  0.51100000000E-03 0. -1.
    9900012    2    1    2    0    0  0.11613575566E+02 -0.36382339066E+02 -0.23886482331E+02  0.46142314618E+02  0.99999713415E+01 0.  0.
        -12    1    1    2    0    0 -0.11613575566E+02  0.36382339066E+02  0.23886482331E+02  0.45045685382E+02  0.00000000000E+00 0.  1.
         11    1    3    3    0    0  0.63781416088E+01 -0.24790892760E+02 -0.16924429673E+02  0.30687218418E+02  0.51100000000E-03 0. -1.
        -11    1    3    3    0    0  0.13379912644E+01 -0.85970101752E+01 -0.56287577264E+01  0.10362515061E+02  0.51100000000E-03 0.  1.
        -12    1    3    3    0    0  0.38974426933E+01 -0.29944361311E+01 -0.13332949310E+01  0.50925811397E+01  0.00000000000E+00 0.  1.
</event>
<event>
 7    1  0.4102844E-008  0.4614232E+02  0.7816164E-02  0.1320468E+00
        -11   -1    0    0    0    0  0.00000000000E+00  0.00000000000E+00  0.45593999997E+02  0.45594000000E+02  0.51100000000E-03 0. -1.
         11   -1    0    0    0    0 -0.00000000000E+00 -0.00000000000E+00 -0.45593999997E+02  0.45594000000E+02  0.51100000000E-03 0.  1.
    9900012    2    1    2    0    0  0.37708778794E+02  0.32973629328E+01  0.24419029271E+02  0.46142316622E+02  0.99999896168E+01 0.  0.
        -12    1    1    2    0    0 -0.37708778794E+02 -0.32973629328E+01 -0.24419029271E+02  0.45045683378E+02  0.00000000000E+00 0.  1.
         11    1    3    3    0    0  0.71362743582E+01  0.17909211668E+01  0.78568152173E+01  0.10763984205E+02  0.51100000000E-03 0. -1.
        -11    1    3    3    0    0  0.18079454523E+02  0.34441378501E+01  0.77609652671E+01  0.19974016710E+02  0.51100000000E-03 0.  1.
        -12    1    3    3    0    0  0.12493049912E+02 -0.19376960841E+01  0.88012487863E+01  0.15404315708E+02  0.00000000000E+00 0.  1.
</event>
<event>
 7    1  0.4102844E-008  0.4614232E+02  0.7816164E-02  0.1320468E+00
        -11   -1    0    0    0    0  0.00000000000E+00  0.00000000000E+00  0.45593999997E+02  0.45594000000E+02  0.51100000000E-03 0.  1.
         11   -1    0    0    0    0 -0.00000000000E+00 -0.00000000000E+00 -0.45593999997E+02  0.45594000000E+02  0.51100000000E-03 0. -1.
    9900012    2    1    2    0    0 -0.15225721362E+02 -0.35372324622E+02 -0.23368559155E+02  0.46142317664E+02  0.99999991151E+01 0.  0.
        -12    1    1    2    0    0  0.15225721362E+02  0.35372324622E+02  0.23368559155E+02  0.45045682336E+02  0.00000000000E+00 0.  1.
         11    1    3    3    0    0  0.46113511019E+00 -0.18384691413E+00  0.39515194289E+00  0.63450027327E+00  0.51100000000E-03 0. -1.
        -11    1    3    3    0    0 -0.62147545599E+01 -0.11370887963E+02 -0.57370278470E+01  0.14171582695E+02  0.51100000000E-03 0.  1.
         12    1    3    3    0    0 -0.94721019121E+01 -0.23817589744E+02 -0.18026683251E+02  0.31336234695E+02  0.00000000000E+00 0. -1.
</event>
<event>
 7    1  0.4102844E-008  0.4614232E+02  0.7816164E-02  0.1320468E+00
        -11   -1    0    0    0    0  0.00000000000E+00  0.00000000000E+00  0.45593999997E+02  0.45594000000E+02  0.51100000000E-03 0. -1.
         11   -1    0    0    0    0 -0.00000000000E+00 -0.00000000000E+00 -0.45593999997E+02  0.45594000000E+02  0.51100000000E-03 0.  1.
    9900012    2    1    2    0    0 -0.92356879284E+01 -0.30881133903E+02  0.31466987964E+02  0.46142315476E+02  0.99999791668E+01 0.  0.
        -12    1    1    2    0    0  0.92356879284E+01  0.30881133903E+02 -0.31466987964E+02  0.45045684524E+02  0.00000000000E+00 0.  1.
         11    1    3    3    0    0 -0.45176731460E+00 -0.36927453072E+01  0.76320123140E+01  0.84904695885E+01  0.51100000000E-03 0. -1.
        -11    1    3    3    0    0  0.51744702489E+00 -0.54873546575E+01  0.39120928263E+01  0.67589409750E+01  0.51100000000E-03 0.  1.
        -12    1    3    3    0    0 -0.93013676387E+01 -0.21701033939E+02  0.19922882824E+02  0.30892904913E+02  0.00000000000E+00 0.  1.
</event>
<event>
 7    1  0.4102844E-008  0.4614232E+02  0.7816164E-02  0.1320468E+00
        -11   -1    0    0    0    0  0.00000000000E+00  0.00000000000E+00  0.45593999997E+02  0.45594000000E+02  0.51100000000E-03 0.  1.
         11   -1    0    0    0    0 -0.00000000000E+00 -0.00000000000E+00 -0.45593999997E+02  0.45594000000E+02  0.51100000000E-03 0. -1.
    9900012    2    1    2    0    0 -0.38265531310E+02 -0.47660807646E+00 -0.23762058905E+02  0.46142317797E+02  0.10000000329E+02 0.  0.
        -12    1    1    2    0    0  0.38265531310E+02  0.47660807646E+00  0.23762058905E+02  0.45045682203E+02  0.00000000000E+00 0.  1.
         11    1    3    3    0    0 -0.54202105605E+00  0.90865557650E+00 -0.73443362162E+00  0.12879576032E+01  0.51100000000E-03 0. -1.
        -11    1    3    3    0    0 -0.87667211753E+01 -0.23862704341E+01 -0.27617819873E+01  0.94961637915E+01  0.51100000000E-03 0.  1.
         12    1    3    3    0    0 -0.28956789079E+02  0.10010067812E+01 -0.20265843296E+02  0.35358196402E+02  0.00000000000E+00 0. -1.
</event>
<event>
 7    1  0.4102844E-008  0.4614232E+02  0.7816164E-02  0.1320468E+00
        -11   -1    0    0    0    0  0.00000000000E+00  0.00000000000E+00  0.45593999997E+02  0.45594000000E+02  0.51100000000E-03 0.  1.
         11   -1    0    0    0    0 -0.00000000000E+00 -0.00000000000E+00 -0.45593999997E+02  0.45594000000E+02  0.51100000000E-03 0. -1.
    9900012    2    1    2    0    0  0.29168232504E+01 -0.23065761903E+02 -0.38582071314E+02  0.46142318110E+02  0.10000003179E+02 0.  0.
        -12    1    1    2    0    0 -0.29168232504E+01  0.23065761903E+02  0.38582071314E+02  0.45045681890E+02  0.00000000000E+00 0.  1.
         11    1    3    3    0    0 -0.66118051232E+00  0.33689497868E+00 -0.13428099900E+00  0.75411507367E+00  0.51100000000E-03 0. -1.
        -11    1    3    3    0    0  0.37809425257E+00 -0.85722127957E+01 -0.17857428048E+02  0.19811954074E+02  0.51100000000E-03 0.  1.
         12    1    3    3    0    0  0.31999095101E+01 -0.14830444086E+02 -0.20590362268E+02  0.25576248962E+02  0.00000000000E+00 0. -1.
</event>
<event>
 7    1  0.4102844E-008  0.4614232E+02  0.7816164E-02  0.1320468E+00
        -11   -1    0    0    0    0  0.00000000000E+00  0.00000000000E+00  0.45593999997E+02  0.45594000000E+02  0.51100000000E-03 0.  1.
         11   -1    0    0    0    0 -0.00000000000E+00 -0.00000000000E+00 -0.45593999997E+02  0.45594000000E+02  0.51100000000E-03 0. -1.
    9900012    2    1    2    0    0 -0.30571631408E+02 -0.17443367011E+02 -0.28110812377E+02  0.46142317941E+02  0.10000001644E+02 0.  0.
        -12    1    1    2    0    0  0.30571631408E+02  0.17443367011E+02  0.28110812377E+02  0.45045682059E+02  0.00000000000E+00 0.  1.
         11    1    3    3    0    0 -0.33057241597E+01 -0.35500451591E+01 -0.55568984901E+01  0.73762967634E+01  0.51100000000E-03 0. -1.
        -11    1    3    3    0    0 -0.23099479778E+02 -0.11320321351E+02 -0.15042996205E+02  0.29799788197E+02  0.51100000000E-03 0.  1.
        -12    1    3    3    0    0 -0.41664274700E+01 -0.25730005007E+01 -0.75109176820E+01  0.89662329807E+01  0.00000000000E+00 0.  1.
</event>
<event>
 7    1  0.4102844E-008  0.4614232E+02  0.7816164E-02  0.1320468E+00
        -11   -1    0    0    0    0  0.00000000000E+00  0.00000000000E+00  0.45593999997E+02  0.45594000000E+02  0.51100000000E-03 0.  1.
         11   -1    0    0    0    0 -0.00000000000E+00 -0.00000000000E+00 -0.45593999997E+02  0.45594000000E+02  0.51100000000E-03 0. -1.
    9900012    2    1    2    0    0 -0.74273317511E+01 -0.32736133481E+02 -0.30038204001E+02  0.46142318833E+02  0.10000009774E+02 0.  0.
        -12    1    1    2    0    0  0.74273317511E+01  0.32736133481E+02  0.30038204001E+02  0.45045681167E+02  0.00000000000E+00 0.  1.
         11    1    3    3    0    0 -0.39876074907E+01 -0.81169617134E+01 -0.10838127500E+02  0.14115632785E+02  0.51100000000E-03 0. -1.
        -11    1    3    3    0    0 -0.42544351084E+01 -0.23069847367E+02 -0.16053315254E+02  0.28425815847E+02  0.51100000000E-03 0.  1.
         12    1    3    3    0    0  0.81471084799E+00 -0.15493244004E+01 -0.31467612468E+01  0.36008702015E+01  0.00000000000E+00 0. -1.
</event>
<event>
 7    1  0.4102844E-008  0.4614232E+02  0.7816164E-02  0.1320468E+00
        -11   -1    0    0    0    0  0.00000000000E+00  0.00000000000E+00  0.45593999997E+02  0.45594000000E+02  0.51100000000E-03 0. -1.
         11   -1    0    0    0    0 -0.00000000000E+00 -0.00000000000E+00 -0.45593999997E+02  0.45594000000E+02  0.51100000000E-03 0.  1.
    9900012    2    1    2    0    0  0.85768811502E+01 -0.24805364320E+02  0.36609349352E+02  0.46142318195E+02  0.10000003954E+02 0.  0.
        -12    1    1    2    0    0 -0.85768811502E+01  0.24805364320E+02 -0.36609349352E+02  0.45045681805E+02  0.00000000000E+00 0.  1.
         11    1    3    3    0    0 -0.74617494556E+00 -0.92991124492E+01  0.14162842574E+02  0.16959256453E+02  0.51100000000E-03 0.  1.
        -11    1    3    3    0    0  0.75192035784E+01 -0.14994828578E+02  0.20219629025E+02  0.26271975653E+02  0.51100000000E-03 0. -1.
         12    1    3    3    0    0  0.18038525175E+01 -0.51142329252E+00  0.22268777531E+01  0.29110860888E+01  0.00000000000E+00 0. -1.
</event>
<event>
 7    1  0.4102844E-008  0.4614232E+02  0.7816164E-02  0.1320468E+00
        -11   -1    0    0    0    0  0.00000000000E+00  0.00000000000E+00  0.45593999997E+02  0.45594000000E+02  0.51100000000E-03 0.  1.
         11   -1    0    0    0    0 -0.00000000000E+00 -0.00000000000E+00 -0.45593999997E+02  0.45594000000E+02  0.51100000000E-03 0. -1.
    9900012    2    1    2    0    0 -0.30173920658E+02 -0.23761407691E+02 -0.23538132514E+02  0.46142315794E+02  0.99999820647E+01 0.  0.
        -12    1    1    2    0    0  0.30173920658E+02  0.23761407691E+02  0.23538132514E+02  0.45045684206E+02  0.00000000000E+00 0.  1.
         11    1    3    3    0    0 -0.25152044351E+01  0.39482435563E-01 -0.24312112333E+01  0.34983711260E+01  0.51100000000E-03 0. -1.
        -11    1    3    3    0    0 -0.76359807004E+01 -0.10122029655E+02 -0.89361536624E+01  0.15511883449E+02  0.51100000000E-03 0.  1.
         12    1    3    3    0    0 -0.20022735523E+02 -0.13678860472E+02 -0.12170767618E+02  0.27132061220E+02  0.00000000000E+00 0. -1.
</event>
<event>
 7    1  0.4102844E-008  0.4614232E+02  0.7816164E-02  0.1320468E+00
        -11   -1    0    0    0    0  0.00000000000E+00  0.00000000000E+00  0.45593999997E+02  0.45594000000E+02  0.51100000000E-03 0.  1.
         11   -1    0    0    0    0 -0.00000000000E+00 -0.00000000000E+00 -0.45593999997E+02  0.45594000000E+02  0.51100000000E-03 0. -1.
    9900012    2    1    2    0    0  0.14215460585E+02 -0.28549329023E+02 -0.31811472526E+02  0.46142319945E+02  0.10000019916E+02 0.  0.
        -12    1    1    2    0    0 -0.14215460585E+02  0.28549329023E+02  0.31811472526E+02  0.45045680055E+02  0.00000000000E+00 0.  1.
         11    1    3    3    0    0  0.12985785302E+02 -0.24063686238E+02 -0.27494291245E+02  0.38776638155E+02  0.51100000000E-03 0. -1.
        -11    1    3    3    0    0  0.21258473104E+01 -0.10379374758E+01 -0.13122942282E+01  0.27053017195E+01  0.51100000000E-03 0.  1.
         12    1    3    3    0    0 -0.89617202737E+00 -0.34477053094E+01 -0.30048870523E+01  0.46603800703E+01  0.00000000000E+00 0. -1.
</event>
<event>
 7    1  0.4102844E-008  0.4614232E+02  0.7816164E-02  0.1320468E+00
        -11   -1    0    0    0    0  0.00000000000E+00  0.00000000000E+00  0.45593999997E+02  0.45594000000E+02  0.51100000000E-03 0.  1.
         11   -1    0    0    0    0 -0.00000000000E+00 -0.00000000000E+00 -0.45593999997E+02  0.45594000000E+02  0.51100000000E-03 0. -1.
    9900012    2    1    2    0    0 -0.22458794327E+01 -0.16511026893E+02 -0.41850392843E+02  0.46142319135E+02  0.10000012529E+02 0.  0.
        -12    1    1    2    0    0  0.22458794327E+01  0.16511026893E+02  0.41850392843E+02  0.45045680865E+02  0.00000000000E+00 0.  1.
         11    1    3    3    0    0 -0.11488140639E+01 -0.68382965173E+01 -0.20038566291E+02  0.21204391344E+02  0.51100000000E-03 0. -1.
        -11    1    3    3    0    0  0.69555423030E+00 -0.23946657017E+00 -0.84599804355E+01  0.84919025639E+01  0.51100000000E-03 0.  1.
        -12    1    3    3    0    0 -0.17926195991E+01 -0.94332638059E+01 -0.13351846116E+02  0.16446025227E+02  0.00000000000E+00 0.  1.
</event>
<event>
 7    1  0.4102844E-008  0.4614232E+02  0.7816164E-02  0.1320468E+00
        -11   -1    0    0    0    0  0.00000000000E+00  0.00000000000E+00  0.45593999997E+02  0.45594000000E+02  0.51100000000E-03 0. -1.
         11   -1    0    0    0    0 -0.00000000000E+00 -0.00000000000E+00 -0.45593999997E+02  0.45594000000E+02  0.51100000000E-03 0.  1.
    9900012    2    1    2    0    0 -0.24151788472E+02  0.36835431573E+02  0.94316254693E+01  0.46142318026E+02  0.10000002414E+02 0.  0.
        -12    1    1    2    0    0  0.24151788472E+02 -0.36835431573E+02 -0.94316254693E+01  0.45045681974E+02  0.00000000000E+00 0.  1.
         11    1    3    3    0    0 -0.29725845408E+01  0.67578246113E+01 -0.16687328668E+01  0.75689577864E+01  0.51100000000E-03 0. -1.
        -11    1    3    3    0    0 -0.39354167002E+01  0.64603259355E+01  0.97348054633E+00  0.76269902604E+01  0.51100000000E-03 0.  1.
        -12    1    3    3    0    0 -0.17243787231E+02  0.23617281026E+02  0.10126877790E+02  0.30946369979E+02  0.00000000000E+00 0.  1.
</event>
<event>
 7    1  0.4102844E-008  0.4614232E+02  0.7816164E-02  0.1320468E+00
        -11   -1    0    0    0    0  0.00000000000E+00  0.00000000000E+00  0.45593999997E+02  0.45594000000E+02  0.51100000000E-03 0. -1.
         11   -1    0    0    0    0 -0.00000000000E+00 -0.00000000000E+00 -0.45593999997E+02  0.45594000000E+02  0.51100000000E-03 0.  1.
    9900012    2    1    2    0    0 -0.14918805636E+02  0.41491283502E+02 -0.92203971740E+01  0.46142322157E+02  0.10000040089E+02 0.  0.
        -12    1    1    2    0    0  0.14918805636E+02 -0.41491283502E+02  0.92203971740E+01  0.45045677843E+02  0.00000000000E+00 0.  1.
         11    1    3    3    0    0 -0.45631611525E+01  0.13721895998E+02  0.35779757262E+00  0.14465161211E+02  0.51100000000E-03 0.  1.
        -11    1    3    3    0    0 -0.19244954199E+01  0.85885880881E+01 -0.42155251774E+00  0.88116533497E+01  0.51100000000E-03 0. -1.
         12    1    3    3    0    0 -0.84311490636E+01  0.19180799415E+02 -0.91566422289E+01  0.22865507597E+02  0.00000000000E+00 0. -1.
</event>
<event>
 7    1  0.4102844E-008  0.4614232E+02  0.7816164E-02  0.1320468E+00
        -11   -1    0    0    0    0  0.00000000000E+00  0.00000000000E+00  0.45593999997E+02  0.45594000000E+02  0.51100000000E-03 0.  1.
         11   -1    0    0    0    0 -0.00000000000E+00 -0.00000000000E+00 -0.45593999997E+02  0.45594000000E+02  0.51100000000E-03 0. -1.
    9900012    2    1    2    0    0 -0.44681903770E+02 -0.55856572972E+01 -0.12005982653E+01  0.46142317320E+02  0.99999959758E+01 0.  0.
        -12    1    1    2    0    0  0.44681903770E+02  0.55856572972E+01  0.12005982653E+01  0.45045682680E+02  0.00000000000E+00 0.  1.
         11    1    3    3    0    0 -0.89034262042E+01 -0.38940998332E+01 -0.27337605482E+01  0.10094971950E+02  0.51100000000E-03 0.  1.
        -11    1    3    3    0    0 -0.20001781573E+02 -0.25563590918E+01 -0.81809728168E-01  0.20164645571E+02  0.51100000000E-03 0. -1.
        -12    1    3    3    0    0 -0.15776695993E+02  0.86480162775E+00  0.16149720111E+01  0.15882699799E+02  0.00000000000E+00 0.  1.
</event>
<event>
 7    1  0.4102844E-008  0.4614232E+02  0.7816164E-02  0.1320468E+00
        -11   -1    0    0    0    0  0.00000000000E+00  0.00000000000E+00  0.45593999997E+02  0.45594000000E+02  0.51100000000E-03 0.  1.
         11   -1    0    0    0    0 -0.00000000000E+00 -0.00000000000E+00 -0.45593999997E+02  0.45594000000E+02  0.51100000000E-03 0. -1.
    9900012    2    1    2    0    0  0.85251917639E+01  0.76951791192E+01 -0.43557076135E+02  0.46142316991E+02  0.99999929779E+01 0.  0.
        -12    1    1    2    0    0 -0.85251917639E+01 -0.76951791192E+01  0.43557076135E+02  0.45045683009E+02  0.00000000000E+00 0.  1.
         11    1    3    3    0    0  0.16621205395E+00  0.40003024661E+01 -0.12122774513E+02  0.12766820607E+02  0.51100000000E-03 0. -1.
        -11    1    3    3    0    0  0.47707095904E+01  0.16599590849E+01 -0.72153362876E+01  0.88077359272E+01  0.51100000000E-03 0.  1.
        -12    1    3    3    0    0  0.35882701195E+01  0.20349175682E+01 -0.24218965335E+02  0.24567760457E+02  0.00000000000E+00 0.  1.
</event>
<event>
 7    1  0.4102844E-008  0.4614232E+02  0.7816164E-02  0.1320468E+00
        -11   -1    0    0    0    0  0.00000000000E+00  0.00000000000E+00  0.45593999997E+02  0.45594000000E+02  0.51100000000E-03 0.  1.
         11   -1    0    0    0    0 -0.00000000000E+00 -0.00000000000E+00 -0.45593999997E+02  0.45594000000E+02  0.51100000000E-03 0. -1.
    9900012    2    1    2    0    0  0.21639004426E+02  0.20875913369E+02 -0.33541962297E+02  0.46142317562E+02  0.99999981888E+01 0.  0.
        -12    1    1    2    0    0 -0.21639004426E+02 -0.20875913369E+02  0.33541962297E+02  0.45045682438E+02  0.00000000000E+00 0.  1.
         11    1    3    3    0    0  0.59292363762E+01  0.11169607740E+01 -0.65657791573E+01  0.89170007054E+01  0.51100000000E-03 0.  1.
        -11    1    3    3    0    0  0.14468870971E+02  0.15488222969E+02 -0.21913159109E+02  0.30486387459E+02  0.51100000000E-03 0. -1.
         12    1    3    3    0    0  0.12408970791E+01  0.42707296259E+01 -0.50630240301E+01  0.67389293977E+01  0.00000000000E+00 0. -1.
</event>
<event>
 7    1  0.4102844E-008  0.4614231E+02  0.7816164E-02  0.1320468E+00
        -11   -1    0    0    0    0  0.00000000000E+00  0.00000000000E+00  0.45593999997E+02  0.45594000000E+02  0.51100000000E-03 0. -1.
         11   -1    0    0    0    0 -0.00000000000E+00 -0.00000000000E+00 -0.45593999997E+02  0.45594000000E+02  0.51100000000E-03 0.  1.
    9900012    2    1    2    0    0 -0.35102590188E+02  0.68008694035E+01  0.27398359807E+02  0.46142314494E+02  0.99999702102E+01 0.  0.
        -12    1    1    2    0    0  0.35102590188E+02 -0.68008694035E+01 -0.27398359807E+02  0.45045685506E+02  0.00000000000E+00 0.  1.
         11    1    3    3    0    0 -0.24713517721E+02  0.52255515885E+01  0.14388503712E+02  0.29070489966E+02  0.51100000000E-03 0. -1.
        -11    1    3    3    0    0 -0.83260049514E+01  0.25938305070E+01  0.97390360939E+01  0.13072839762E+02  0.51100000000E-03 0.  1.
        -12    1    3    3    0    0 -0.20630675161E+01 -0.10185126920E+01  0.32708200005E+01  0.39989847656E+01  0.00000000000E+00 0.  1.
</event>
<event>
 7    1  0.4102844E-008  0.4614232E+02  0.7816164E-02  0.1320468E+00
        -11   -1    0    0    0    0  0.00000000000E+00  0.00000000000E+00  0.45593999997E+02  0.45594000000E+02  0.51100000000E-03 0.  1.
         11   -1    0    0    0    0 -0.00000000000E+00 -0.00000000000E+00 -0.45593999997E+02  0.45594000000E+02  0.51100000000E-03 0. -1.
    9900012    2    1    2    0    0 -0.37803784039E+02  0.16450814956E+02 -0.18148225389E+02  0.46142317796E+02  0.10000000322E+02 0.  0.
        -12    1    1    2    0    0  0.37803784039E+02 -0.16450814956E+02  0.18148225389E+02  0.45045682204E+02  0.00000000000E+00 0.  1.
         11    1    3    3    0    0 -0.48825637819E+01  0.42073157283E+01 -0.16596645691E+01  0.66554805585E+01  0.51100000000E-03 0. -1.
        -11    1    3    3    0    0 -0.20731135770E+02  0.82461972931E+01 -0.65314420715E+01  0.23247354601E+02  0.51100000000E-03 0.  1.
         12    1    3    3    0    0 -0.12190084487E+02  0.39973019343E+01 -0.99571187487E+01  0.16239482637E+02  0.00000000000E+00 0. -1.
</event>
<event>
 7    1  0.4102844E-008  0.4614232E+02  0.7816164E-02  0.1320468E+00
        -11   -1    0    0    0    0  0.00000000000E+00  0.00000000000E+00  0.45593999997E+02  0.45594000000E+02  0.51100000000E-03 0.  1.
         11   -1    0    0    0    0 -0.00000000000E+00 -0.00000000000E+00 -0.45593999997E+02  0.45594000000E+02  0.51100000000E-03 0. -1.
    9900012    2    1    2    0    0  0.25735058969E+02 -0.34863771330E+02  0.12301938527E+02  0.46142317598E+02  0.99999985134E+01 0.  0.
        -12    1    1    2    0    0 -0.25735058969E+02  0.34863771330E+02 -0.12301938527E+02  0.45045682402E+02  0.00000000000E+00 0.  1.
         11    1    3    3    0    0  0.17283107700E+02 -0.20859038812E+02  0.35868819357E+01  0.27325281960E+02  0.51100000000E-03 0. -1.
        -11    1    3    3    0    0  0.38372287255E+01 -0.39350397243E+01  0.19190597610E+01  0.58216537643E+01  0.51100000000E-03 0.  1.
        -12    1    3    3    0    0  0.46147225439E+01 -0.10069692794E+02  0.67959968298E+01  0.12995381874E+02  0.00000000000E+00 0.  1.
</event>
<event>
 7    1  0.4102844E-008  0.4614232E+02  0.7816164E-02  0.1320468E+00
        -11   -1    0    0    0    0  0.00000000000E+00  0.00000000000E+00  0.45593999997E+02  0.45594000000E+02  0.51100000000E-03 0. -1.
         11   -1    0    0    0    0 -0.00000000000E+00 -0.00000000000E+00 -0.45593999997E+02  0.45594000000E+02  0.51100000000E-03 0.  1.
    9900012    2    1    2    0    0  0.22678855812E+02  0.31117004934E+02 -0.23377660905E+02  0.46142317339E+02  0.99999961496E+01 0.  0.
        -12    1    1    2    0    0 -0.22678855812E+02 -0.31117004934E+02  0.23377660905E+02  0.45045682661E+02  0.00000000000E+00 0.  1.
         11    1    3    3    0    0  0.39804080039E+01  0.60315819257E+01 -0.63099078783E+01  0.95936732329E+01  0.51100000000E-03 0. -1.
        -11    1    3    3    0    0  0.78944264183E+01  0.46180648450E+01 -0.55362416487E+01  0.10691045938E+02  0.51100000000E-03 0.  1.
        -12    1    3    3    0    0  0.10804021390E+02  0.20467358163E+02 -0.11531511378E+02  0.25857598168E+02  0.00000000000E+00 0.  1.
</event>
<event>
 7    1  0.4102844E-008  0.4614232E+02  0.7816164E-02  0.1320468E+00
        -11   -1    0    0    0    0  0.00000000000E+00  0.00000000000E+00  0.45593999997E+02  0.45594000000E+02  0.51100000000E-03 0.  1.
         11   -1    0    0    0    0 -0.00000000000E+00 -0.00000000000E+00 -0.45593999997E+02  0.45594000000E+02  0.51100000000E-03 0. -1.
    9900012    2    1    2    0    0 -0.33982112117E+02  0.15336405102E+02  0.25280908312E+02  0.46142316628E+02  0.99999896708E+01 0.  0.
        -12    1    1    2    0    0  0.33982112117E+02 -0.15336405102E+02 -0.25280908312E+02  0.45045683372E+02  0.00000000000E+00 0.  1.
         11    1    3    3    0    0 -0.84134494146E+01  0.15398968202E+01  0.92009346552E+01  0.12562428589E+02  0.51100000000E-03 0. -1.
        -11    1    3    3    0    0 -0.18043634062E+02  0.85856733579E+01  0.85791863668E+01  0.21746010120E+02  0.51100000000E-03 0.  1.
         12    1    3    3    0    0 -0.75250286403E+01  0.52108349240E+01  0.75007872896E+01  0.11833877919E+02  0.00000000000E+00 0. -1.
</event>
<event>
 7    1  0.4102844E-008  0.4614232E+02  0.7816164E-02  0.1320468E+00
        -11   -1    0    0    0    0  0.00000000000E+00  0.00000000000E+00  0.45593999997E+02  0.45594000000E+02  0.51100000000E-03 0.  1.
         11   -1    0    0    0    0 -0.00000000000E+00 -0.00000000000E+00 -0.45593999997E+02  0.45594000000E+02  0.51100000000E-03 0. -1.
    9900012    2    1    2    0    0 -0.10998570033E+02 -0.96317340131E+01 -0.42607213868E+02  0.46142317449E+02  0.99999971535E+01 0.  0.
        -12    1    1    2    0    0  0.10998570033E+02  0.96317340131E+01  0.42607213868E+02  0.45045682551E+02  0.00000000000E+00 0.  1.
         11    1    3    3    0    0  0.16792898186E+01 -0.18446407205E+01 -0.50781329395E+01  0.56577511517E+01  0.51100000000E-03 0.  1.
        -11    1    3    3    0    0 -0.76631483880E+01 -0.61850359393E+01 -0.22520541312E+02  0.24579529980E+02  0.51100000000E-03 0. -1.
        -12    1    3    3    0    0 -0.50147114632E+01 -0.16020573533E+01 -0.15008539616E+02  0.15905036317E+02  0.00000000000E+00 0.  1.
</event>
<event>
 7    1  0.4102844E-008  0.4614232E+02  0.7816164E-02  0.1320468E+00
        -11   -1    0    0    0    0  0.00000000000E+00  0.00000000000E+00  0.45593999997E+02  0.45594000000E+02  0.51100000000E-03 0.  1.
         11   -1    0    0    0    0 -0.00000000000E+00 -0.00000000000E+00 -0.45593999997E+02  0.45594000000E+02  0.51100000000E-03 0. -1.
    9900012    2    1    2    0    0  0.23878477458E+02  0.64867574431E+01 -0.37641118164E+02  0.46142317805E+02  0.10000000396E+02 0.  0.
        -12    1    1    2    0    0 -0.23878477458E+02 -0.64867574431E+01  0.37641118164E+02  0.45045682195E+02  0.00000000000E+00 0.  1.
         11    1    3    3    0    0  0.16945884158E+02  0.54119416303E+01 -0.26045556684E+02  0.31540816815E+02  0.51100000000E-03 0. -1.
        -11    1    3    3    0    0  0.58970744378E+01 -0.92635082191E+00 -0.10540616615E+02  0.12113554873E+02  0.51100000000E-03 0.  1.
        -12    1    3    3    0    0  0.10355188620E+01  0.20011666346E+01 -0.10549448650E+01  0.24879461171E+01  0.00000000000E+00 0.  1.
</event>
<event>
 7    1  0.4102844E-008  0.4614232E+02  0.7816164E-02  0.1320468E+00
        -11   -1    0    0    0    0  0.00000000000E+00  0.00000000000E+00  0.45593999997E+02  0.45594000000E+02  0.51100000000E-03 0.  1.
         11   -1    0    0    0    0 -0.00000000000E+00 -0.00000000000E+00 -0.45593999997E+02  0.45594000000E+02  0.51100000000E-03 0. -1.
    9900012    2    1    2    0    0  0.20270917425E+02 -0.38971643806E+02 -0.99706788196E+01  0.46142317073E+02  0.99999937272E+01 0.  0.
        -12    1    1    2    0    0 -0.20270917425E+02  0.38971643806E+02  0.99706788196E+01  0.45045682927E+02  0.00000000000E+00 0.  1.
         11    1    3    3    0    0  0.46454716633E+01 -0.68319868229E+01 -0.58980224490E+00  0.82827723542E+01  0.51100000000E-03 0. -1.
        -11    1    3    3    0    0  0.68939078032E+00 -0.34811691281E+01 -0.35519756050E+01  0.50209888574E+01  0.51100000000E-03 0.  1.
        -12    1    3    3    0    0  0.14936054981E+02 -0.28658487855E+02 -0.58289009697E+01  0.32838555862E+02  0.00000000000E+00 0.  1.
</event>
<event>
 7    1  0.4102844E-008  0.4614232E+02  0.7816164E-02  0.1320468E+00
        -11   -1    0    0    0    0  0.00000000000E+00  0.00000000000E+00  0.45593999997E+02  0.45594000000E+02  0.51100000000E-03 0.  1.
         11   -1    0    0    0    0 -0.00000000000E+00 -0.00000000000E+00 -0.45593999997E+02  0.45594000000E+02  0.51100000000E-03 0. -1.
    9900012    2    1    2    0    0  0.12820965838E+02 -0.19226027436E+02 -0.38666474927E+02  0.46142316752E+02  0.99999907953E+01 0.  0.
        -12    1    1    2    0    0 -0.12820965838E+02  0.19226027436E+02  0.38666474927E+02  0.45045683248E+02  0.00000000000E+00 0.  1.
         11    1    3    3    0    0  0.38049840263E+01 -0.65635913142E+01 -0.13120973947E+02  0.15156470301E+02  0.51100000000E-03 0. -1.
        -11    1    3    3    0    0  0.32991688192E+01 -0.10523187449E+02 -0.13099603449E+02  0.17123714544E+02  0.51100000000E-03 0.  1.
        -12    1    3    3    0    0  0.57168129925E+01 -0.21392486731E+01 -0.12445897531E+02  0.13862131908E+02  0.00000000000E+00 0.  1.
</event>
<event>
 7    1  0.4102844E-008  0.4614232E+02  0.7816164E-02  0.1320468E+00
        -11   -1    0    0    0    0  0.00000000000E+00  0.00000000000E+00  0.45593999997E+02  0.45594000000E+02  0.51100000000E-03 0.  1.
         11   -1    0    0    0    0 -0.00000000000E+00 -0.00000000000E+00 -0.45593999997E+02  0.45594000000E+02  0.51100000000E-03 0. -1.
    9900012    2    1    2    0    0  0.57714711179E+00 -0.12282234331E+02 -0.43335056506E+02  0.46142317618E+02  0.99999986906E+01 0.  0.
        -12    1    1    2    0    0 -0.57714711179E+00  0.12282234331E+02  0.43335056506E+02  0.45045682382E+02  0.00000000000E+00 0.  1.
         11    1    3    3    0    0 -0.56658108855E+00 -0.23068202866E+00 -0.96373809533E+01  0.96567769069E+01  0.51100000000E-03 0. -1.
        -11    1    3    3    0    0 -0.76960006067E+00 -0.42520542205E+01 -0.21157804699E+02  0.21594558326E+02  0.51100000000E-03 0.  1.
        -12    1    3    3    0    0  0.19133282610E+01 -0.77994980821E+01 -0.12539870854E+02  0.14890982385E+02  0.00000000000E+00 0.  1.
</event>
<event>
 7    1  0.4102844E-008  0.4614232E+02  0.7816164E-02  0.1320468E+00
        -11   -1    0    0    0    0  0.00000000000E+00  0.00000000000E+00  0.45593999997E+02  0.45594000000E+02  0.51100000000E-03 0.  1.
         11   -1    0    0    0    0 -0.00000000000E+00 -0.00000000000E+00 -0.45593999997E+02  0.45594000000E+02  0.51100000000E-03 0. -1.
    9900012    2    1    2    0    0  0.33921201195E+02 -0.18128643329E+02 -0.23448187839E+02  0.46142321934E+02  0.10000038052E+02 0.  0.
        -12    1    1    2    0    0 -0.33921201195E+02  0.18128643329E+02  0.23448187839E+02  0.45045678066E+02  0.00000000000E+00 0.  1.
         11    1    3    3    0    0  0.19805066685E+02 -0.10893682688E+02 -0.16216766620E+02  0.27818995466E+02  0.51100000000E-03 0. -1.
        -11    1    3    3    0    0  0.13588870413E+02 -0.49411431423E+01 -0.65448923451E+01  0.15871607062E+02  0.51100000000E-03 0.  1.
        -12    1    3    3    0    0  0.52726409726E+00 -0.22938174995E+01 -0.68652887381E+00  0.24517194056E+01  0.00000000000E+00 0.  1.
</event>
<event>
 7    1  0.4102844E-008  0.4614232E+02  0.7816164E-02  0.1320468E+00
        -11   -1    0    0    0    0  0.00000000000E+00  0.00000000000E+00  0.45593999997E+02  0.45594000000E+02  0.51100000000E-03 0. -1.
         11   -1    0    0    0    0 -0.00000000000E+00 -0.00000000000E+00 -0.45593999997E+02  0.45594000000E+02  0.51100000000E-03 0.  1.
    9900012    2    1    2    0    0 -0.35689755202E+02 -0.96390797799E+01  0.25737969255E+02  0.46142317113E+02  0.99999940907E+01 0.  0.
        -12    1    1    2    0    0  0.35689755202E+02  0.96390797799E+01 -0.25737969255E+02  0.45045682887E+02  0.00000000000E+00 0.  1.
         11    1    3    3    0    0 -0.66868864770E+01 -0.23713102906E+01  0.48008420380E+01  0.85665423471E+01  0.51100000000E-03 0. -1.
        -11    1    3    3    0    0 -0.81902570916E+01 -0.62110000889E+01  0.82297749062E+01  0.13167612866E+02  0.51100000000E-03 0.  1.
         12    1    3    3    0    0 -0.20812611633E+02 -0.10567694004E+01  0.12707352311E+02  0.24408161900E+02  0.00000000000E+00 0. -1.
</event>
<event>
 7    1  0.4102844E-008  0.4614232E+02  0.7816164E-02  0.1320468E+00
        -11   -1    0    0    0    0  0.00000000000E+00  0.00000000000E+00  0.45593999997E+02  0.45594000000E+02  0.51100000000E-03 0.  1.
         11   -1    0    0    0    0 -0.00000000000E+00 -0.00000000000E+00 -0.45593999997E+02  0.45594000000E+02  0.51100000000E-03 0. -1.
    9900012    2    1    2    0    0 -0.49970549530E+01 -0.88326032702E+01 -0.43887676079E+02  0.46142317073E+02  0.99999937255E+01 0.  0.
        -12    1    1    2    0    0  0.49970549530E+01  0.88326032702E+01  0.43887676079E+02  0.45045682927E+02  0.00000000000E+00 0.  1.
         11    1    3    3    0    0 -0.43453016597E+01 -0.10351590493E+02 -0.36840610012E+02  0.38513213558E+02  0.51100000000E-03 0. -1.
        -11    1    3    3    0    0  0.18389261433E+00 -0.33518685866E+00 -0.10675852626E+00  0.39694378427E+00  0.51100000000E-03 0.  1.
         12    1    3    3    0    0 -0.83564590758E+00  0.18541740817E+01 -0.69403075411E+01  0.72321597309E+01  0.00000000000E+00 0. -1.
</event>
<event>
 7    1  0.4102844E-008  0.4614232E+02  0.7816164E-02  0.1320468E+00
        -11   -1    0    0    0    0  0.00000000000E+00  0.00000000000E+00  0.45593999997E+02  0.45594000000E+02  0.51100000000E-03 0.  1.
         11   -1    0    0    0    0 -0.00000000000E+00 -0.00000000000E+00 -0.45593999997E+02  0.45594000000E+02  0.51100000000E-03 0. -1.
    9900012    2    1    2    0    0  0.39649667281E+02  0.14520119334E+02  0.15690224706E+02  0.46142321713E+02  0.10000036041E+02 0.  0.
        -12    1    1    2    0    0 -0.39649667281E+02 -0.14520119334E+02 -0.15690224706E+02  0.45045678287E+02  0.00000000000E+00 0.  1.
         11    1    3    3    0    0  0.39567222807E+01 -0.80951208568E+00  0.84046710983E+00  0.41252086308E+01  0.51100000000E-03 0.  1.
        -11    1    3    3    0    0  0.43289418082E+01  0.60770314103E-01  0.25750415753E+01  0.50372879196E+01  0.51100000000E-03 0. -1.
         12    1    3    3    0    0  0.31364003192E+02  0.15268861105E+02  0.12274716020E+02  0.36979825163E+02  0.00000000000E+00 0. -1.
</event>
<event>
 7    1  0.4102844E-008  0.4614232E+02  0.7816164E-02  0.1320468E+00
        -11   -1    0    0    0    0  0.00000000000E+00  0.00000000000E+00  0.45593999997E+02  0.45594000000E+02  0.51100000000E-03 0.  1.
         11   -1    0    0    0    0 -0.00000000000E+00 -0.00000000000E+00 -0.45593999997E+02  0.45594000000E+02  0.51100000000E-03 0. -1.
    9900012    2    1    2    0    0 -0.29283819277E+02 -0.50182575879E+01 -0.33858357729E+02  0.46142319089E+02  0.10000012107E+02 0.  0.
        -12    1    1    2    0    0  0.29283819277E+02  0.50182575879E+01  0.33858357729E+02  0.45045680911E+02  0.00000000000E+00 0.  1.
         11    1    3    3    0    0 -0.41927916081E+01 -0.13368371539E+01 -0.57588722872E+01  0.72478441847E+01  0.51100000000E-03 0. -1.
        -11    1    3    3    0    0 -0.17839142422E+02  0.14979214677E+01 -0.17329915672E+02  0.24915953695E+02  0.51100000000E-03 0.  1.
        -12    1    3    3    0    0 -0.72518852470E+01 -0.51793419016E+01 -0.10769569769E+02  0.13978521209E+02  0.00000000000E+00 0.  1.
</event>
<event>
 7    1  0.4102844E-008  0.4614232E+02  0.7816164E-02  0.1320468E+00
        -11   -1    0    0    0    0  0.00000000000E+00  0.00000000000E+00  0.45593999997E+02  0.45594000000E+02  0.51100000000E-03 0. -1.
         11   -1    0    0    0    0 -0.00000000000E+00 -0.00000000000E+00 -0.45593999997E+02  0.45594000000E+02  0.51100000000E-03 0.  1.
    9900012    2    1    2    0    0  0.42251290684E+01 -0.37802387916E+02  0.24129678546E+02  0.46142316139E+02  0.99999852073E+01 0.  0.
        -12    1    1    2    0    0 -0.42251290684E+01  0.37802387916E+02 -0.24129678546E+02  0.45045683861E+02  0.00000000000E+00 0.  1.
         11    1    3    3    0    0  0.45395808933E+01 -0.28055979494E+02  0.15380522400E+02  0.32315727589E+02  0.51100000000E-03 0. -1.
        -11    1    3    3    0    0 -0.10833281335E+01 -0.40993568592E+00  0.26619275634E+00  0.11884889381E+01  0.51100000000E-03 0.  1.
        -12    1    3    3    0    0  0.76887630862E+00 -0.93364727363E+01  0.84829633895E+01  0.12638099612E+02  0.00000000000E+00 0.  1.
</event>
<event>
 7    1  0.4102844E-008  0.4614232E+02  0.7816164E-02  0.1320468E+00
        -11   -1    0    0    0    0  0.00000000000E+00  0.00000000000E+00  0.45593999997E+02  0.45594000000E+02  0.51100000000E-03 0.  1.
         11   -1    0    0    0    0 -0.00000000000E+00 -0.00000000000E+00 -0.45593999997E+02  0.45594000000E+02  0.51100000000E-03 0. -1.
    9900012    2    1    2    0    0  0.32891250670E+02 -0.29696849866E+02 -0.80855573766E+01  0.46142317624E+02  0.99999987531E+01 0.  0.
        -12    1    1    2    0    0 -0.32891250670E+02  0.29696849866E+02  0.80855573766E+01  0.45045682376E+02  0.00000000000E+00 0.  1.
         11    1    3    3    0    0  0.12478006439E+02 -0.10937995065E+02 -0.59319427053E+01  0.17621813904E+02  0.51100000000E-03 0. -1.
        -11    1    3    3    0    0  0.10631360590E+01 -0.18246694915E+00  0.10510651132E+01  0.15060845264E+01  0.51100000000E-03 0.  1.
        -12    1    3    3    0    0  0.19350108173E+02 -0.18576387851E+02 -0.32046797845E+01  0.27014419194E+02  0.00000000000E+00 0.  1.
</event>
<event>
 7    1  0.4102844E-008  0.4614231E+02  0.7816164E-02  0.1320468E+00
        -11   -1    0    0    0    0  0.00000000000E+00  0.00000000000E+00  0.45593999997E+02  0.45594000000E+02  0.51100000000E-03 0.  1.
         11   -1    0    0    0    0 -0.00000000000E+00 -0.00000000000E+00 -0.45593999997E+02  0.45594000000E+02  0.51100000000E-03 0. -1.
    9900012    2    1    2    0    0  0.48625702724E+01  0.42487321802E+02 -0.14152624962E+02  0.46142313227E+02  0.99999586521E+01 0.  0.
        -12    1    1    2    0    0 -0.48625702724E+01 -0.42487321802E+02  0.14152624962E+02  0.45045686773E+02  0.00000000000E+00 0.  1.
         11    1    3    3    0    0  0.22274307235E+01  0.29812771333E+02 -0.98760326518E+01  0.31484898020E+02  0.51100000000E-03 0. -1.
        -11    1    3    3    0    0 -0.13024105393E+01  0.65977342739E+01 -0.26997094917E+01  0.72467097612E+01  0.51100000000E-03 0.  1.
         12    1    3    3    0    0  0.39375500883E+01  0.60768161955E+01 -0.15768828185E+01  0.74107054452E+01  0.00000000000E+00 0. -1.
</event>
<event>
 7    1  0.4102844E-008  0.4614232E+02  0.7816164E-02  0.1320468E+00
        -11   -1    0    0    0    0  0.00000000000E+00  0.00000000000E+00  0.45593999997E+02  0.45594000000E+02  0.51100000000E-03 0.  1.
         11   -1    0    0    0    0 -0.00000000000E+00 -0.00000000000E+00 -0.45593999997E+02  0.45594000000E+02  0.51100000000E-03 0. -1.
    9900012    2    1    2    0    0 -0.86628188545E+01  0.95580516897E+01 -0.43159155772E+02  0.46142317525E+02  0.99999978508E+01 0.  0.
        -12    1    1    2    0    0  0.86628188545E+01 -0.95580516897E+01  0.43159155772E+02  0.45045682475E+02  0.00000000000E+00 0.  1.
         11    1    3    3    0    0 -0.29910205230E+01  0.32924032008E+01 -0.24556292843E+02  0.24955913949E+02  0.51100000000E-03 0. -1.
        -11    1    3    3    0    0 -0.30963477221E+01  0.67574209179E+01 -0.12481685921E+02  0.14527304994E+02  0.51100000000E-03 0.  1.
        -12    1    3    3    0    0 -0.25754506094E+01 -0.49177242903E+00 -0.61211770086E+01  0.66590985827E+01  0.00000000000E+00 0.  1.
</event>
<event>
 7    1  0.4102844E-008  0.4614232E+02  0.7816164E-02  0.1320468E+00
        -11   -1    0    0    0    0  0.00000000000E+00  0.00000000000E+00  0.45593999997E+02  0.45594000000E+02  0.51100000000E-03 0. -1.
         11   -1    0    0    0    0 -0.00000000000E+00 -0.00000000000E+00 -0.45593999997E+02  0.45594000000E+02  0.51100000000E-03 0.  1.
    9900012    2    1    2    0    0 -0.31817376587E+02  0.21702487976E+02  0.23361722783E+02  0.46142317315E+02  0.99999959280E+01 0.  0.
        -12    1    1    2    0    0  0.31817376587E+02 -0.21702487976E+02 -0.23361722783E+02  0.45045682685E+02  0.00000000000E+00 0.  1.
         11    1    3    3    0    0 -0.24897189638E+02  0.19503008530E+02  0.21894953647E+02  0.38465912040E+02  0.51100000000E-03 0. -1.
        -11    1    3    3    0    0 -0.52623705328E+00 -0.37026131417E+00  0.15024071923E+00  0.66075064272E+00  0.51100000000E-03 0.  1.
         12    1    3    3    0    0 -0.63939498957E+01  0.25697407607E+01  0.13165284160E+01  0.70156546321E+01  0.00000000000E+00 0. -1.
</event>
<event>
 7    1  0.4102844E-008  0.4614232E+02  0.7816164E-02  0.1320468E+00
        -11   -1    0    0    0    0  0.00000000000E+00  0.00000000000E+00  0.45593999997E+02  0.45594000000E+02  0.51100000000E-03 0.  1.
         11   -1    0    0    0    0 -0.00000000000E+00 -0.00000000000E+00 -0.45593999997E+02  0.45594000000E+02  0.51100000000E-03 0. -1.
    9900012    2    1    2    0    0 -0.14199733362E+01 -0.33008371322E+02 -0.30619350381E+02  0.46142317418E+02  0.99999968671E+01 0.  0.
        -12    1    1    2    0    0  0.14199733362E+01  0.33008371322E+02  0.30619350381E+02  0.45045682582E+02  0.00000000000E+00 0.  1.
         11    1    3    3    0    0 -0.21438996213E+01 -0.74672800402E+01 -0.11617939193E+02  0.13976161424E+02  0.51100000000E-03 0. -1.
        -11    1    3    3    0    0  0.85816057303E+00 -0.36752039737E+01 -0.11707376083E+01  0.39514795490E+01  0.51100000000E-03 0.  1.
         12    1    3    3    0    0 -0.13423428796E+00 -0.21865887308E+02 -0.17830673579E+02  0.28214676445E+02  0.00000000000E+00 0. -1.
</event>
<event>
 7    1  0.4102844E-008  0.4614231E+02  0.7816164E-02  0.1320468E+00
        -11   -1    0    0    0    0  0.00000000000E+00  0.00000000000E+00  0.45593999997E+02  0.45594000000E+02  0.51100000000E-03 0.  1.
         11   -1    0    0    0    0 -0.00000000000E+00 -0.00000000000E+00 -0.45593999997E+02  0.45594000000E+02  0.51100000000E-03 0. -1.
    9900012    2    1    2    0    0 -0.68173993464E+00  0.15992929076E+02 -0.42105525933E+02  0.46142313593E+02  0.99999619912E+01 0.  0.
        -12    1    1    2    0    0  0.68173993464E+00 -0.15992929076E+02  0.42105525933E+02  0.45045686407E+02  0.00000000000E+00 0.  1.
         11    1    3    3    0    0 -0.24411762659E+01  0.80311429363E+01 -0.18835543556E+02  0.20621258442E+02  0.51100000000E-03 0. -1.
        -11    1    3    3    0    0 -0.15138396034E+01  0.54627791957E+01 -0.87287168128E+01  0.10407889524E+02  0.51100000000E-03 0.  1.
        -12    1    3    3    0    0  0.32732759346E+01  0.24990069444E+01 -0.14541265564E+02  0.15113165626E+02  0.00000000000E+00 0.  1.
</event>
<event>
 7    1  0.4102844E-008  0.4614232E+02  0.7816164E-02  0.1320468E+00
        -11   -1    0    0    0    0  0.00000000000E+00  0.00000000000E+00  0.45593999997E+02  0.45594000000E+02  0.51100000000E-03 0. -1.
         11   -1    0    0    0    0 -0.00000000000E+00 -0.00000000000E+00 -0.45593999997E+02  0.45594000000E+02  0.51100000000E-03 0.  1.
    9900012    2    1    2    0    0 -0.21127155131E+02 -0.19711846728E+02  0.34557197605E+02  0.46142317725E+02  0.99999996698E+01 0.  0.
        -12    1    1    2    0    0  0.21127155131E+02  0.19711846728E+02 -0.34557197605E+02  0.45045682275E+02  0.00000000000E+00 0.  1.
         11    1    3    3    0    0 -0.30252411236E+01 -0.33659501050E+01  0.26880662682E+01  0.52637823368E+01  0.51100000000E-03 0. -1.
        -11    1    3    3    0    0 -0.30717742638E+01 -0.75183386631E+01  0.89782719616E+01  0.12106633762E+02  0.51100000000E-03 0.  1.
         12    1    3    3    0    0 -0.15030139743E+02 -0.88275579596E+01  0.22890859375E+02  0.28771901626E+02  0.00000000000E+00 0. -1.
</event>
<event>
 7    1  0.4102844E-008  0.4614232E+02  0.7816164E-02  0.1320468E+00
        -11   -1    0    0    0    0  0.00000000000E+00  0.00000000000E+00  0.45593999997E+02  0.45594000000E+02  0.51100000000E-03 0.  1.
         11   -1    0    0    0    0 -0.00000000000E+00 -0.00000000000E+00 -0.45593999997E+02  0.45594000000E+02  0.51100000000E-03 0. -1.
    9900012    2    1    2    0    0 -0.22773679463E+02 -0.34486248035E+02 -0.17921260642E+02  0.46142319155E+02  0.10000012711E+02 0.  0.
        -12    1    1    2    0    0  0.22773679463E+02  0.34486248035E+02  0.17921260642E+02  0.45045680845E+02  0.00000000000E+00 0.  1.
         11    1    3    3    0    0 -0.11938663357E+01 -0.61967251677E+01 -0.22763288581E+01  0.67086804189E+01  0.51100000000E-03 0. -1.
        -11    1    3    3    0    0 -0.44224858890E+01 -0.65535056950E+01 -0.66101359257E+01  0.10305373140E+02  0.51100000000E-03 0.  1.
         12    1    3    3    0    0 -0.17157327238E+02 -0.21736017172E+02 -0.90347958581E+01  0.29128265596E+02  0.00000000000E+00 0. -1.
</event>
<event>
 7    1  0.4102844E-008  0.4614232E+02  0.7816164E-02  0.1320468E+00
        -11   -1    0    0    0    0  0.00000000000E+00  0.00000000000E+00  0.45593999997E+02  0.45594000000E+02  0.51100000000E-03 0. -1.
         11   -1    0    0    0    0 -0.00000000000E+00 -0.00000000000E+00 -0.45593999997E+02  0.45594000000E+02  0.51100000000E-03 0.  1.
    9900012    2    1    2    0    0 -0.48696830550E+01  0.44203310015E+02  0.71740534366E+01  0.46142317942E+02  0.10000001648E+02 0.  0.
        -12    1    1    2    0    0  0.48696830550E+01 -0.44203310015E+02 -0.71740534366E+01  0.45045682058E+02  0.00000000000E+00 0.  1.
         11    1    3    3    0    0 -0.36766909488E+00  0.59314234758E+01 -0.23678859037E+00  0.59475233593E+01  0.51100000000E-03 0. -1.
        -11    1    3    3    0    0  0.34119318378E+00 -0.33384790776E+00 -0.25087125616E+00  0.53926233176E+00  0.51100000000E-03 0.  1.
         12    1    3    3    0    0 -0.48432071439E+01  0.38605734447E+02  0.76617132831E+01  0.39655532251E+02  0.00000000000E+00 0. -1.
</event>
<event>
 7    1  0.4102844E-008  0.4614232E+02  0.7816164E-02  0.1320468E+00
        -11   -1    0    0    0    0  0.00000000000E+00  0.00000000000E+00  0.45593999997E+02  0.45594000000E+02  0.51100000000E-03 0.  1.
         11   -1    0    0    0    0 -0.00000000000E+00 -0.00000000000E+00 -0.45593999997E+02  0.45594000000E+02  0.51100000000E-03 0. -1.
    9900012    2    1    2    0    0  0.29477935070E+02  0.12250251185E+02 -0.31782010527E+02  0.46142317596E+02  0.99999984951E+01 0.  0.
        -12    1    1    2    0    0 -0.29477935070E+02 -0.12250251185E+02  0.31782010527E+02  0.45045682404E+02  0.00000000000E+00 0.  1.
         11    1    3    3    0    0  0.13600666834E+02  0.73550262827E+01 -0.15056603786E+02  0.21581841159E+02  0.51100000000E-03 0. -1.
        -11    1    3    3    0    0  0.14907697768E+02  0.25896132064E+01 -0.12395213432E+02  0.19559827852E+02  0.51100000000E-03 0.  1.
        -12    1    3    3    0    0  0.96957046729E+00  0.23056116963E+01 -0.43301933085E+01  0.50006485854E+01  0.00000000000E+00 0.  1.
</event>
<event>
 7    1  0.4102844E-008  0.4614232E+02  0.7816164E-02  0.1320468E+00
        -11   -1    0    0    0    0  0.00000000000E+00  0.00000000000E+00  0.45593999997E+02  0.45594000000E+02  0.51100000000E-03 0.  1.
         11   -1    0    0    0    0 -0.00000000000E+00 -0.00000000000E+00 -0.45593999997E+02  0.45594000000E+02  0.51100000000E-03 0. -1.
    9900012    2    1    2    0    0  0.38760355966E+02 -0.18329842969E+02 -0.13811777882E+02  0.46142317120E+02  0.99999941542E+01 0.  0.
        -12    1    1    2    0    0 -0.38760355966E+02  0.18329842969E+02  0.13811777882E+02  0.45045682880E+02  0.00000000000E+00 0.  1.
         11    1    3    3    0    0  0.23005332576E+02 -0.96536077415E+01 -0.55375077733E+01  0.25555849858E+02  0.51100000000E-03 0. -1.
        -11    1    3    3    0    0  0.56962691500E+01 -0.31405490414E+01 -0.60668823241E+01  0.88948070191E+01  0.51100000000E-03 0.  1.
        -12    1    3    3    0    0  0.10058754240E+02 -0.55356861865E+01 -0.22073877842E+01  0.11691660243E+02  0.00000000000E+00 0.  1.
</event>
<event>
 7    1  0.4102844E-008  0.4614232E+02  0.7816164E-02  0.1320468E+00
        -11   -1    0    0    0    0  0.00000000000E+00  0.00000000000E+00  0.45593999997E+02  0.45594000000E+02  0.51100000000E-03 0. -1.
         11   -1    0    0    0    0 -0.00000000000E+00 -0.00000000000E+00 -0.45593999997E+02  0.45594000000E+02  0.51100000000E-03 0.  1.
    9900012    2    1    2    0    0  0.33889257313E+02 -0.10715026756E+02  0.27673452064E+02  0.46142317535E+02  0.99999979386E+01 0.  0.
        -12    1    1    2    0    0 -0.33889257313E+02  0.10715026756E+02 -0.27673452064E+02  0.45045682465E+02  0.00000000000E+00 0.  1.
         11    1    3    3    0    0  0.19795925416E+02 -0.97836061986E+01  0.14741480948E+02  0.26550120039E+02  0.51100000000E-03 0. -1.
        -11    1    3    3    0    0  0.56697571682E+01 -0.13894193074E+01  0.77104661456E+01  0.96709834455E+01  0.51100000000E-03 0.  1.
         12    1    3    3    0    0  0.84235747292E+01  0.45799875042E+00  0.52215049703E+01  0.99212140502E+01  0.00000000000E+00 0. -1.
</event>
<event>
 7    1  0.4102844E-008  0.4614232E+02  0.7816164E-02  0.1320468E+00
        -11   -1    0    0    0    0  0.00000000000E+00  0.00000000000E+00  0.45593999997E+02  0.45594000000E+02  0.51100000000E-03 0.  1.
         11   -1    0    0    0    0 -0.00000000000E+00 -0.00000000000E+00 -0.45593999997E+02  0.45594000000E+02  0.51100000000E-03 0. -1.
    9900012    2    1    2    0    0 -0.39271024065E+02  0.14517172692E+02 -0.16617817294E+02  0.46142317791E+02  0.10000000274E+02 0.  0.
        -12    1    1    2    0    0  0.39271024065E+02 -0.14517172692E+02  0.16617817294E+02  0.45045682209E+02  0.00000000000E+00 0.  1.
         11    1    3    3    0    0 -0.21929975435E+02  0.76668204254E+01 -0.49525823265E+01  0.23753568784E+02  0.51100000000E-03 0. -1.
        -11    1    3    3    0    0 -0.14286561114E+02  0.38361994558E+01 -0.85483691228E+01  0.17084989600E+02  0.51100000000E-03 0.  1.
         12    1    3    3    0    0 -0.30544875153E+01  0.30141528108E+01 -0.31168658444E+01  0.53037594063E+01  0.00000000000E+00 0. -1.
</event>
<event>
 7    1  0.4102844E-008  0.4614232E+02  0.7816164E-02  0.1320468E+00
        -11   -1    0    0    0    0  0.00000000000E+00  0.00000000000E+00  0.45593999997E+02  0.45594000000E+02  0.51100000000E-03 0.  1.
         11   -1    0    0    0    0 -0.00000000000E+00 -0.00000000000E+00 -0.45593999997E+02  0.45594000000E+02  0.51100000000E-03 0. -1.
    9900012    2    1    2    0    0  0.54854304919E+00  0.44585361274E+02  0.63998577958E+01  0.46142317418E+02  0.99999968750E+01 0.  0.
        -12    1    1    2    0    0 -0.54854304919E+00 -0.44585361274E+02 -0.63998577958E+01  0.45045682582E+02  0.00000000000E+00 0.  1.
         11    1    3    3    0    0 -0.14909912880E+00  0.18431963272E+02  0.37870872542E+01  0.18817585678E+02  0.51100000000E-03 0. -1.
        -11    1    3    3    0    0 -0.26743448672E+01  0.10872596209E+02  0.32641133138E+01  0.11662757168E+02  0.51100000000E-03 0.  1.
        -12    1    3    3    0    0  0.33719870452E+01  0.15280801794E+02 -0.65134277218E+00  0.15661974572E+02  0.00000000000E+00 0.  1.
</event>
<event>
 7    1  0.4102844E-008  0.4614231E+02  0.7816164E-02  0.1320468E+00
        -11   -1    0    0    0    0  0.00000000000E+00  0.00000000000E+00  0.45593999997E+02  0.45594000000E+02  0.51100000000E-03 0.  1.
         11   -1    0    0    0    0 -0.00000000000E+00 -0.00000000000E+00 -0.45593999997E+02  0.45594000000E+02  0.51100000000E-03 0. -1.
    9900012    2    1    2    0    0  0.42136018584E+01  0.43384554026E+02  0.11364000934E+02  0.46142306689E+02  0.99998990337E+01 0.  0.
        -12    1    1    2    0    0 -0.42136018584E+01 -0.43384554026E+02 -0.11364000934E+02  0.45045693311E+02  0.00000000000E+00 0.  1.
         11    1    3    3    0    0  0.54330721463E+01  0.29186314136E+02  0.67796072102E+01  0.30451966767E+02  0.51100000000E-03 0. -1.
        -11    1    3    3    0    0  0.65518093437E+00  0.12369206697E+02  0.37947324716E+01  0.12954787963E+02  0.51100000000E-03 0.  1.
        -12    1    3    3    0    0 -0.18746512222E+01  0.18290331923E+01  0.78966125252E+00  0.27355519584E+01  0.00000000000E+00 0.  1.
</event>
<event>
 7    1  0.4102844E-008  0.4614232E+02  0.7816164E-02  0.1320468E+00
        -11   -1    0    0    0    0  0.00000000000E+00  0.00000000000E+00  0.45593999997E+02  0.45594000000E+02  0.51100000000E-03 0. -1.
         11   -1    0    0    0    0 -0.00000000000E+00 -0.00000000000E+00 -0.45593999997E+02  0.45594000000E+02  0.51100000000E-03 0.  1.
    9900012    2    1    2    0    0 -0.76537663924E+01  0.19799683685E+02  0.39730414133E+02  0.46142318506E+02  0.10000006797E+02 0.  0.
        -12    1    1    2    0    0  0.76537663924E+01 -0.19799683685E+02 -0.39730414133E+02  0.45045681494E+02  0.00000000000E+00 0.  1.
         11    1    3    3    0    0 -0.27311169741E+01  0.84144425779E+01  0.18168677835E+02  0.20207986005E+02  0.51100000000E-03 0.  1.
        -11    1    3    3    0    0 -0.10998812634E+01  0.10139692411E+02  0.17244644765E+02  0.20034991248E+02  0.51100000000E-03 0. -1.
        -12    1    3    3    0    0 -0.38227681550E+01  0.12455486961E+01  0.43170915325E+01  0.58993412531E+01  0.00000000000E+00 0.  1.
</event>
<event>
 7    1  0.4102844E-008  0.4614232E+02  0.7816164E-02  0.1320468E+00
        -11   -1    0    0    0    0  0.00000000000E+00  0.00000000000E+00  0.45593999997E+02  0.45594000000E+02  0.51100000000E-03 0.  1.
         11   -1    0    0    0    0 -0.00000000000E+00 -0.00000000000E+00 -0.45593999997E+02  0.45594000000E+02  0.51100000000E-03 0. -1.
    9900012    2    1    2    0    0 -0.53138182154E+01 -0.31297410538E+02 -0.31958550078E+02  0.46142317704E+02  0.99999994816E+01 0.  0.
        -12    1    1    2    0    0  0.53138182154E+01  0.31297410538E+02  0.31958550078E+02  0.45045682296E+02  0.00000000000E+00 0.  1.
         11    1    3    3    0    0 -0.46100496228E+01 -0.16857497181E+02 -0.17409165853E+02  0.24667931099E+02  0.51100000000E-03 0. -1.
        -11    1    3    3    0    0 -0.29764625216E+01 -0.38635542808E+01 -0.56709160907E+01  0.74796838430E+01  0.51100000000E-03 0.  1.
        -12    1    3    3    0    0  0.22726939289E+01 -0.10576359076E+02 -0.88784681346E+01  0.13994702763E+02  0.00000000000E+00 0.  1.
</event>
<event>
 7    1  0.4102844E-008  0.4614232E+02  0.7816164E-02  0.1320468E+00
        -11   -1    0    0    0    0  0.00000000000E+00  0.00000000000E+00  0.45593999997E+02  0.45594000000E+02  0.51100000000E-03 0. -1.
         11   -1    0    0    0    0 -0.00000000000E+00 -0.00000000000E+00 -0.45593999997E+02  0.45594000000E+02  0.51100000000E-03 0.  1.
    9900012    2    1    2    0    0  0.63686068302E+01  0.75647526467E+01  0.43946886791E+02  0.46142317697E+02  0.99999994109E+01 0.  0.
        -12    1    1    2    0    0 -0.63686068302E+01 -0.75647526467E+01 -0.43946886791E+02  0.45045682303E+02  0.00000000000E+00 0.  1.
         11    1    3    3    0    0  0.37405106265E+00  0.25627911840E+01  0.89849164873E+01  0.93507506327E+01  0.51100000000E-03 0. -1.
        -11    1    3    3    0    0 -0.31344003209E+00  0.19152637729E+01  0.21685235035E+02  0.21771906181E+02  0.51100000000E-03 0.  1.
        -12    1    3    3    0    0  0.63079957996E+01  0.30866976899E+01  0.13276735269E+02  0.15019660883E+02  0.00000000000E+00 0.  1.
</event>
<event>
 7    1  0.4102844E-008  0.4614232E+02  0.7816164E-02  0.1320468E+00
        -11   -1    0    0    0    0  0.00000000000E+00  0.00000000000E+00  0.45593999997E+02  0.45594000000E+02  0.51100000000E-03 0.  1.
         11   -1    0    0    0    0 -0.00000000000E+00 -0.00000000000E+00 -0.45593999997E+02  0.45594000000E+02  0.51100000000E-03 0. -1.
    9900012    2    1    2    0    0  0.35667389728E+02  0.81415730638E+01 -0.26280516042E+02  0.46142318461E+02  0.10000006379E+02 0.  0.
        -12    1    1    2    0    0 -0.35667389728E+02 -0.81415730638E+01  0.26280516042E+02  0.45045681539E+02  0.00000000000E+00 0.  1.
         11    1    3    3    0    0  0.92449067837E+01  0.35803087252E+01 -0.26243255629E+01  0.10255437432E+02  0.51100000000E-03 0. -1.
        -11    1    3    3    0    0  0.88477585321E+01  0.93885596507E+00 -0.96316621272E+01  0.13112329967E+02  0.51100000000E-03 0.  1.
         12    1    3    3    0    0  0.17574724412E+02  0.36224083735E+01 -0.14024528352E+02  0.22774551062E+02  0.00000000000E+00 0. -1.
</event>
<event>
 7    1  0.4102844E-008  0.4614232E+02  0.7816164E-02  0.1320468E+00
        -11   -1    0    0    0    0  0.00000000000E+00  0.00000000000E+00  0.45593999997E+02  0.45594000000E+02  0.51100000000E-03 0.  1.
         11   -1    0    0    0    0 -0.00000000000E+00 -0.00000000000E+00 -0.45593999997E+02  0.45594000000E+02  0.51100000000E-03 0. -1.
    9900012    2    1    2    0    0  0.32908996533E+02 -0.19442064203E+02 -0.23835217937E+02  0.46142317328E+02  0.99999960511E+01 0.  0.
        -12    1    1    2    0    0 -0.32908996533E+02  0.19442064203E+02  0.23835217937E+02  0.45045682672E+02  0.00000000000E+00 0.  1.
         11    1    3    3    0    0  0.12638772946E+02 -0.79526034970E+01 -0.13433087864E+02  0.20085575267E+02  0.51100000000E-03 0. -1.
        -11    1    3    3    0    0  0.70776846975E+01 -0.38313147179E+01 -0.64098832296E+01  0.10288789843E+02  0.51100000000E-03 0.  1.
        -12    1    3    3    0    0  0.13192538889E+02 -0.76581459883E+01 -0.39922468432E+01  0.15767952219E+02  0.00000000000E+00 0.  1.
</event>
<event>
 7    1  0.4102844E-008  0.4614232E+02  0.7816164E-02  0.1320468E+00
        -11   -1    0    0    0    0  0.00000000000E+00  0.00000000000E+00  0.45593999997E+02  0.45594000000E+02  0.51100000000E-03 0.  1.
         11   -1    0    0    0    0 -0.00000000000E+00 -0.00000000000E+00 -0.45593999997E+02  0.45594000000E+02  0.51100000000E-03 0. -1.
    9900012    2    1    2    0    0  0.40933451613E+02  0.16768048773E+02 -0.85087339421E+01  0.46142317922E+02  0.10000001467E+02 0.  0.
        -12    1    1    2    0    0 -0.40933451613E+02 -0.16768048773E+02  0.85087339421E+01  0.45045682078E+02  0.00000000000E+00 0.  1.
         11    1    3    3    0    0  0.13968296689E+02  0.72601217528E+01 -0.44507063796E+01  0.16359445828E+02  0.51100000000E-03 0. -1.
        -11    1    3    3    0    0  0.26773260683E+02  0.79670227409E+01 -0.40800516409E+01  0.28229908973E+02  0.51100000000E-03 0.  1.
        -12    1    3    3    0    0  0.19189424077E+00  0.15409042788E+01  0.22024078457E-01  0.15529631213E+01  0.00000000000E+00 0.  1.
</event>
<event>
 7    1  0.4102844E-008  0.4614232E+02  0.7816164E-02  0.1320468E+00
        -11   -1    0    0    0    0  0.00000000000E+00  0.00000000000E+00  0.45593999997E+02  0.45594000000E+02  0.51100000000E-03 0. -1.
         11   -1    0    0    0    0 -0.00000000000E+00 -0.00000000000E+00 -0.45593999997E+02  0.45594000000E+02  0.51100000000E-03 0.  1.
    9900012    2    1    2    0    0 -0.20626994725E+02 -0.14029216069E+02  0.37507621219E+02  0.46142318027E+02  0.10000002427E+02 0.  0.
        -12    1    1    2    0    0  0.20626994725E+02  0.14029216069E+02 -0.37507621219E+02  0.45045681973E+02  0.00000000000E+00 0.  1.
         11    1    3    3    0    0 -0.67112351183E+01 -0.52054168115E+01  0.11087297420E+02  0.13966574574E+02  0.51100000000E-03 0. -1.
        -11    1    3    3    0    0 -0.72726039102E+01 -0.30858771396E+01  0.19362414931E+02  0.20912114135E+02  0.51100000000E-03 0.  1.
        -12    1    3    3    0    0 -0.66431556968E+01 -0.57379221177E+01  0.70579088680E+01  0.11263629319E+02  0.00000000000E+00 0.  1.
</event>
<event>
 7    1  0.4102844E-008  0.4614232E+02  0.7816164E-02  0.1320468E+00
        -11   -1    0    0    0    0  0.00000000000E+00  0.00000000000E+00  0.45593999997E+02  0.45594000000E+02  0.51100000000E-03 0. -1.
         11   -1    0    0    0    0 -0.00000000000E+00 -0.00000000000E+00 -0.45593999997E+02  0.45594000000E+02  0.51100000000E-03 0.  1.
    9900012    2    1    2    0    0 -0.34797007095E+02  0.15268863637E+02  0.24189739814E+02  0.46142318611E+02  0.10000007748E+02 0.  0.
        -12    1    1    2    0    0  0.34797007095E+02 -0.15268863637E+02 -0.24189739814E+02  0.45045681389E+02  0.00000000000E+00 0.  1.
         11    1    3    3    0    0 -0.68417494762E+01  0.33169204058E+01  0.36764258721E+01  0.84455671407E+01  0.51100000000E-03 0. -1.
        -11    1    3    3    0    0 -0.16743769808E+02  0.77945315041E+01  0.17321022959E+02  0.25320473640E+02  0.51100000000E-03 0.  1.
        -12    1    3    3    0    0 -0.11211487811E+02  0.41574117270E+01  0.31922909825E+01  0.12376277830E+02  0.00000000000E+00 0.  1.
</event>
<event>
 7    1  0.4102844E-008  0.4614232E+02  0.7816164E-02  0.1320468E+00
        -11   -1    0    0    0    0  0.00000000000E+00  0.00000000000E+00  0.45593999997E+02  0.45594000000E+02  0.51100000000E-03 0.  1.
         11   -1    0    0    0    0 -0.00000000000E+00 -0.00000000000E+00 -0.45593999997E+02  0.45594000000E+02  0.51100000000E-03 0. -1.
    9900012    2    1    2    0    0 -0.24463434482E+02  0.30613218270E+02 -0.22214514628E+02  0.46142318524E+02  0.10000006958E+02 0.  0.
        -12    1    1    2    0    0  0.24463434482E+02 -0.30613218270E+02  0.22214514628E+02  0.45045681476E+02  0.00000000000E+00 0.  1.
         11    1    3    3    0    0 -0.78632321290E+01  0.14867688316E+02 -0.79244534385E+01  0.18592351598E+02  0.51100000000E-03 0. -1.
        -11    1    3    3    0    0 -0.75493586259E+00  0.95925822417E+00 -0.27220214582E+01  0.29832039114E+01  0.51100000000E-03 0.  1.
         12    1    3    3    0    0 -0.15845266490E+02  0.14786271729E+02 -0.11568039731E+02  0.24566763015E+02  0.00000000000E+00 0. -1.
</event>
<event>
 7    1  0.4102844E-008  0.4614232E+02  0.7816164E-02  0.1320468E+00
        -11   -1    0    0    0    0  0.00000000000E+00  0.00000000000E+00  0.45593999997E+02  0.45594000000E+02  0.51100000000E-03 0. -1.
         11   -1    0    0    0    0 -0.00000000000E+00 -0.00000000000E+00 -0.45593999997E+02  0.45594000000E+02  0.51100000000E-03 0.  1.
    9900012    2    1    2    0    0 -0.57090648469E+01  0.23049953840E+02  0.38278189481E+02  0.46142316706E+02  0.99999903806E+01 0.  0.
        -12    1    1    2    0    0  0.57090648469E+01 -0.23049953840E+02 -0.38278189481E+02  0.45045683294E+02  0.00000000000E+00 0.  1.
         11    1    3    3    0    0 -0.16904462598E+01  0.16399143848E+02  0.28463173741E+02  0.32892883533E+02  0.51100000000E-03 0. -1.
        -11    1    3    3    0    0  0.20278708091E+00  0.37826787132E+01  0.44688620241E+01  0.58583708400E+01  0.51100000000E-03 0.  1.
        -12    1    3    3    0    0 -0.42214056680E+01  0.28681312794E+01  0.53461537164E+01  0.73910623329E+01  0.00000000000E+00 0.  1.
</event>
<event>
 7    1  0.4102844E-008  0.4614232E+02  0.7816164E-02  0.1320468E+00
        -11   -1    0    0    0    0  0.00000000000E+00  0.00000000000E+00  0.45593999997E+02  0.45594000000E+02  0.51100000000E-03 0. -1.
         11   -1    0    0    0    0 -0.00000000000E+00 -0.00000000000E+00 -0.45593999997E+02  0.45594000000E+02  0.51100000000E-03 0.  1.
    9900012    2    1    2    0    0 -0.11619960088E+02 -0.10640289734E+02  0.42200406590E+02  0.46142317028E+02  0.99999933159E+01 0.  0.
        -12    1    1    2    0    0  0.11619960088E+02  0.10640289734E+02 -0.42200406590E+02  0.45045682972E+02  0.00000000000E+00 0.  1.
         11    1    3    3    0    0 -0.61116315490E+01 -0.27047930502E+01  0.14163654895E+02  0.15661323887E+02  0.51100000000E-03 0.  1.
        -11    1    3    3    0    0 -0.56921993701E+01 -0.21267805781E+01  0.12664436680E+02  0.14046789170E+02  0.51100000000E-03 0. -1.
        -12    1    3    3    0    0  0.18387083078E+00 -0.58087161055E+01  0.15372315014E+02  0.16434203972E+02  0.00000000000E+00 0.  1.
</event>
<event>
 7    1  0.4102844E-008  0.4614232E+02  0.7816164E-02  0.1320468E+00
        -11   -1    0    0    0    0  0.00000000000E+00  0.00000000000E+00  0.45593999997E+02  0.45594000000E+02  0.51100000000E-03 0.  1.
         11   -1    0    0    0    0 -0.00000000000E+00 -0.00000000000E+00 -0.45593999997E+02  0.45594000000E+02  0.51100000000E-03 0. -1.
    9900012    2    1    2    0    0 -0.27313243932E+02 -0.32467249876E+02 -0.15132020653E+02  0.46142315882E+02  0.99999828693E+01 0.  0.
        -12    1    1    2    0    0  0.27313243932E+02  0.32467249876E+02  0.15132020653E+02  0.45045684118E+02  0.00000000000E+00 0.  1.
         11    1    3    3    0    0 -0.12946711074E+02 -0.19975632470E+02 -0.87462479473E+01  0.25360206498E+02  0.51100000000E-03 0. -1.
        -11    1    3    3    0    0 -0.78835846413E+01 -0.80378789592E+01 -0.11145617415E+01  0.11313737362E+02  0.51100000000E-03 0.  1.
         12    1    3    3    0    0 -0.64829482160E+01 -0.44537384466E+01 -0.52712109640E+01  0.94683720221E+01  0.00000000000E+00 0. -1.
</event>
<event>
 7    1  0.4102844E-008  0.4614232E+02  0.7816164E-02  0.1320468E+00
        -11   -1    0    0    0    0  0.00000000000E+00  0.00000000000E+00  0.45593999997E+02  0.45594000000E+02  0.51100000000E-03 0. -1.
         11   -1    0    0    0    0 -0.00000000000E+00 -0.00000000000E+00 -0.45593999997E+02  0.45594000000E+02  0.51100000000E-03 0.  1.
    9900012    2    1    2    0    0 -0.42967069420E+02 -0.80415339212E+01  0.10875562487E+02  0.46142321165E+02  0.10000031038E+02 0.  0.
        -12    1    1    2    0    0  0.42967069420E+02  0.80415339212E+01 -0.10875562487E+02  0.45045678835E+02  0.00000000000E+00 0.  1.
         11    1    3    3    0    0 -0.24043493362E+02 -0.51625260256E+01  0.76637896222E+01  0.25758006903E+02  0.51100000000E-03 0. -1.
        -11    1    3    3    0    0 -0.72452124317E+01 -0.39672338073E+01  0.25151064258E+01  0.86346863207E+01  0.51100000000E-03 0.  1.
         12    1    3    3    0    0 -0.11678363626E+02  0.10882259117E+01  0.69666643893E+00  0.11749627941E+02  0.00000000000E+00 0. -1.
</event>
<event>
 7    1  0.4102844E-008  0.4614232E+02  0.7816164E-02  0.1320468E+00
        -11   -1    0    0    0    0  0.00000000000E+00  0.00000000000E+00  0.45593999997E+02  0.45594000000E+02  0.51100000000E-03 0.  1.
         11   -1    0    0    0    0 -0.00000000000E+00 -0.00000000000E+00 -0.45593999997E+02  0.45594000000E+02  0.51100000000E-03 0. -1.
    9900012    2    1    2    0    0 -0.18119846764E+02 -0.26211631501E+02 -0.31839205327E+02  0.46142317981E+02  0.10000002006E+02 0.  0.
        -12    1    1    2    0    0  0.18119846764E+02  0.26211631501E+02  0.31839205327E+02  0.45045682019E+02  0.00000000000E+00 0.  1.
         11    1    3    3    0    0 -0.53812525321E+01 -0.11218105826E+02 -0.15008193182E+02  0.19494861887E+02  0.51100000000E-03 0. -1.
        -11    1    3    3    0    0 -0.94795949939E+01 -0.63285105083E+01 -0.90369533423E+01  0.14545765448E+02  0.51100000000E-03 0.  1.
        -12    1    3    3    0    0 -0.32589992383E+01 -0.86650151670E+01 -0.77940588024E+01  0.12101690646E+02  0.00000000000E+00 0.  1.
</event>
<event>
 7    1  0.4102844E-008  0.4614232E+02  0.7816164E-02  0.1320468E+00
        -11   -1    0    0    0    0  0.00000000000E+00  0.00000000000E+00  0.45593999997E+02  0.45594000000E+02  0.51100000000E-03 0.  1.
         11   -1    0    0    0    0 -0.00000000000E+00 -0.00000000000E+00 -0.45593999997E+02  0.45594000000E+02  0.51100000000E-03 0. -1.
    9900012    2    1    2    0    0  0.20675738518E+02 -0.24889076213E+02 -0.31339450528E+02  0.46142318327E+02  0.10000005164E+02 0.  0.
        -12    1    1    2    0    0 -0.20675738518E+02  0.24889076213E+02  0.31339450528E+02  0.45045681673E+02  0.00000000000E+00 0.  1.
         11    1    3    3    0    0  0.53557040848E+00 -0.11502708461E+01 -0.69875226666E+00  0.14485212021E+01  0.51100000000E-03 0. -1.
        -11    1    3    3    0    0  0.28502612427E-01 -0.49816166957E+01 -0.38007576720E+01  0.62660255700E+01  0.51100000000E-03 0.  1.
         12    1    3    3    0    0  0.20111665497E+02 -0.18757188671E+02 -0.26839940589E+02  0.38427771555E+02  0.00000000000E+00 0. -1.
</event>
<event>
 7    1  0.4102844E-008  0.4614232E+02  0.7816164E-02  0.1320468E+00
        -11   -1    0    0    0    0  0.00000000000E+00  0.00000000000E+00  0.45593999997E+02  0.45594000000E+02  0.51100000000E-03 0.  1.
         11   -1    0    0    0    0 -0.00000000000E+00 -0.00000000000E+00 -0.45593999997E+02  0.45594000000E+02  0.51100000000E-03 0. -1.
    9900012    2    1    2    0    0 -0.43251872305E+02 -0.12490478756E+02 -0.15416917768E+01  0.46142319508E+02  0.10000015929E+02 0.  0.
        -12    1    1    2    0    0  0.43251872305E+02  0.12490478756E+02  0.15416917768E+01  0.45045680492E+02  0.00000000000E+00 0.  1.
         11    1    3    3    0    0 -0.14502797443E+02 -0.51697162702E+01  0.70453629550E-01  0.15396819930E+02  0.51100000000E-03 0. -1.
        -11    1    3    3    0    0 -0.23091612728E+02 -0.53095737831E+01 -0.44432795193E+01  0.24107195716E+02  0.51100000000E-03 0.  1.
         12    1    3    3    0    0 -0.56574621343E+01 -0.20111887025E+01  0.28311341130E+01  0.66383038620E+01  0.00000000000E+00 0. -1.
</event>
<event>
 7    1  0.4102844E-008  0.4614232E+02  0.7816164E-02  0.1320468E+00
        -11   -1    0    0    0    0  0.00000000000E+00  0.00000000000E+00  0.45593999997E+02  0.45594000000E+02  0.51100000000E-03 0.  1.
         11   -1    0    0    0    0 -0.00000000000E+00 -0.00000000000E+00 -0.45593999997E+02  0.45594000000E+02  0.51100000000E-03 0. -1.
    9900012    2    1    2    0    0 -0.45097504824E+01 -0.44467692359E+02  0.56035693159E+01  0.46142317607E+02  0.99999985950E+01 0.  0.
        -12    1    1    2    0    0  0.45097504824E+01  0.44467692359E+02 -0.56035693159E+01  0.45045682393E+02  0.00000000000E+00 0.  1.
         11    1    3    3    0    0  0.18787621375E+01 -0.25929458309E+01 -0.38846995126E+00  0.32255269981E+01  0.51100000000E-03 0.  1.
        -11    1    3    3    0    0 -0.12670435970E+01 -0.15526860301E+02  0.34478968135E+01  0.15955462481E+02  0.51100000000E-03 0. -1.
        -12    1    3    3    0    0 -0.51214690228E+01 -0.26347886227E+02  0.25441424536E+01  0.26961328128E+02  0.00000000000E+00 0.  1.
</event>
<event>
 7    1  0.4102844E-008  0.4614232E+02  0.7816164E-02  0.1320468E+00
        -11   -1    0    0    0    0  0.00000000000E+00  0.00000000000E+00  0.45593999997E+02  0.45594000000E+02  0.51100000000E-03 0. -1.
         11   -1    0    0    0    0 -0.00000000000E+00 -0.00000000000E+00 -0.45593999997E+02  0.45594000000E+02  0.51100000000E-03 0.  1.
    9900012    2    1    2    0    0  0.42631186364E+02  0.63869786574E+00  0.14535731870E+02  0.46142317779E+02  0.10000000163E+02 0.  0.
        -12    1    1    2    0    0 -0.42631186364E+02 -0.63869786574E+00 -0.14535731870E+02  0.45045682221E+02  0.00000000000E+00 0.  1.
         11    1    3    3    0    0  0.10970023260E+02  0.23585007087E+01  0.44251532780E+01  0.12061754338E+02  0.51100000000E-03 0. -1.
        -11    1    3    3    0    0  0.22273502311E+02 -0.91666465182E+00  0.10519527744E+02  0.24649739218E+02  0.51100000000E-03 0.  1.
        -12    1    3    3    0    0  0.93876607927E+01 -0.80313819117E+00 -0.40894915230E+00  0.94308242228E+01  0.00000000000E+00 0.  1.
</event>
<event>
 7    1  0.4102844E-008  0.4614232E+02  0.7816164E-02  0.1320468E+00
        -11   -1    0    0    0    0  0.00000000000E+00  0.00000000000E+00  0.45593999997E+02  0.45594000000E+02  0.51100000000E-03 0.  1.
         11   -1    0    0    0    0 -0.00000000000E+00 -0.00000000000E+00 -0.45593999997E+02  0.45594000000E+02  0.51100000000E-03 0. -1.
    9900012    2    1    2    0    0 -0.39217228138E+02  0.19596138641E+02 -0.10349587940E+02  0.46142316489E+02  0.99999883989E+01 0.  0.
        -12    1    1    2    0    0  0.39217228138E+02 -0.19596138641E+02  0.10349587940E+02  0.45045683511E+02  0.00000000000E+00 0.  1.
         11    1    3    3    0    0 -0.12938430078E+02  0.47773513257E+01 -0.21610250958E+01  0.13960518912E+02  0.51100000000E-03 0. -1.
        -11    1    3    3    0    0 -0.73517889881E+01  0.35060031496E+01  0.11685308945E+01  0.82283852682E+01  0.51100000000E-03 0.  1.
         12    1    3    3    0    0 -0.18927009072E+02  0.11312784165E+02 -0.93570937390E+01  0.23953412309E+02  0.00000000000E+00 0. -1.
</event>
<event>
 7    1  0.4102844E-008  0.4614232E+02  0.7816164E-02  0.1320468E+00
        -11   -1    0    0    0    0  0.00000000000E+00  0.00000000000E+00  0.45593999997E+02  0.45594000000E+02  0.51100000000E-03 0.  1.
         11   -1    0    0    0    0 -0.00000000000E+00 -0.00000000000E+00 -0.45593999997E+02  0.45594000000E+02  0.51100000000E-03 0. -1.
    9900012    2    1    2    0    0  0.29070686226E+02  0.12475144065E+02 -0.32068356485E+02  0.46142317580E+02  0.99999983440E+01 0.  0.
        -12    1    1    2    0    0 -0.29070686226E+02 -0.12475144065E+02  0.32068356485E+02  0.45045682420E+02  0.00000000000E+00 0.  1.
         11    1    3    3    0    0  0.83220833425E+01  0.34419423715E+01 -0.82846392313E+01  0.12236800477E+02  0.51100000000E-03 0. -1.
        -11    1    3    3    0    0  0.21517736819E+02  0.85875843088E+01 -0.23425556167E+02  0.32947174144E+02  0.51100000000E-03 0.  1.
        -12    1    3    3    0    0 -0.76913393508E+00  0.44561738440E+00 -0.35816108587E+00  0.95834295886E+00  0.00000000000E+00 0.  1.
</event>
<event>
 7    1  0.4102844E-008  0.4614232E+02  0.7816164E-02  0.1320468E+00
        -11   -1    0    0    0    0  0.00000000000E+00  0.00000000000E+00  0.45593999997E+02  0.45594000000E+02  0.51100000000E-03 0.  1.
         11   -1    0    0    0    0 -0.00000000000E+00 -0.00000000000E+00 -0.45593999997E+02  0.45594000000E+02  0.51100000000E-03 0. -1.
    9900012    2    1    2    0    0  0.37822498863E+01 -0.24640804056E+02 -0.37518514262E+02  0.46142317064E+02  0.99999936459E+01 0.  0.
        -12    1    1    2    0    0 -0.37822498863E+01  0.24640804056E+02  0.37518514262E+02  0.45045682936E+02  0.00000000000E+00 0.  1.
         11    1    3    3    0    0  0.63659177085E+00 -0.98195801738E+01 -0.14494181293E+02  0.17518866844E+02  0.51100000000E-03 0. -1.
        -11    1    3    3    0    0  0.53051759790E+01 -0.11063191845E+02 -0.19491837697E+02  0.23031952654E+02  0.51100000000E-03 0.  1.
         12    1    3    3    0    0 -0.21595178636E+01 -0.37580320374E+01 -0.35324952715E+01  0.55914975668E+01  0.00000000000E+00 0. -1.
</event>
<event>
 7    1  0.4102844E-008  0.4614232E+02  0.7816164E-02  0.1320468E+00
        -11   -1    0    0    0    0  0.00000000000E+00  0.00000000000E+00  0.45593999997E+02  0.45594000000E+02  0.51100000000E-03 0.  1.
         11   -1    0    0    0    0 -0.00000000000E+00 -0.00000000000E+00 -0.45593999997E+02  0.45594000000E+02  0.51100000000E-03 0. -1.
    9900012    2    1    2    0    0 -0.14704185694E+02 -0.35171076694E+02 -0.23997829033E+02  0.46142317509E+02  0.99999977054E+01 0.  0.
        -12    1    1    2    0    0  0.14704185694E+02  0.35171076694E+02  0.23997829033E+02  0.45045682491E+02  0.00000000000E+00 0.  1.
         11    1    3    3    0    0 -0.11439934487E+02 -0.21153881919E+02 -0.14982810655E+02  0.28334491996E+02  0.51100000000E-03 0. -1.
        -11    1    3    3    0    0 -0.96095803911E+00 -0.27214763102E+01  0.41273422263E+00  0.29155142702E+01  0.51100000000E-03 0.  1.
        -12    1    3    3    0    0 -0.23032931678E+01 -0.11295718465E+02 -0.94277526012E+01  0.14892311243E+02  0.00000000000E+00 0.  1.
</event>
<event>
 7    1  0.4102844E-008  0.4614232E+02  0.7816164E-02  0.1320468E+00
        -11   -1    0    0    0    0  0.00000000000E+00  0.00000000000E+00  0.45593999997E+02  0.45594000000E+02  0.51100000000E-03 0.  1.
         11   -1    0    0    0    0 -0.00000000000E+00 -0.00000000000E+00 -0.45593999997E+02  0.45594000000E+02  0.51100000000E-03 0. -1.
    9900012    2    1    2    0    0  0.82712408620E+01  0.15937466018E+02 -0.41312192839E+02  0.46142317347E+02  0.99999962247E+01 0.  0.
        -12    1    1    2    0    0 -0.82712408620E+01 -0.15937466018E+02  0.41312192839E+02  0.45045682653E+02  0.00000000000E+00 0.  1.
         11    1    3    3    0    0  0.23723467755E+01  0.35986831405E+01 -0.76628646517E+01  0.87919306469E+01  0.51100000000E-03 0. -1.
        -11    1    3    3    0    0  0.73088213823E+00  0.38423945636E+01 -0.24757118681E+01  0.46289668606E+01  0.51100000000E-03 0.  1.
        -12    1    3    3    0    0  0.51680119483E+01  0.84963883143E+01 -0.31173616319E+02  0.32721419840E+02  0.00000000000E+00 0.  1.
</event>
<event>
 7    1  0.4102844E-008  0.4614232E+02  0.7816164E-02  0.1320468E+00
        -11   -1    0    0    0    0  0.00000000000E+00  0.00000000000E+00  0.45593999997E+02  0.45594000000E+02  0.51100000000E-03 0.  1.
         11   -1    0    0    0    0 -0.00000000000E+00 -0.00000000000E+00 -0.45593999997E+02  0.45594000000E+02  0.51100000000E-03 0. -1.
    9900012    2    1    2    0    0  0.33445391088E+02 -0.30009156867E+02 -0.31574943497E+01  0.46142318171E+02  0.10000003737E+02 0.  0.
        -12    1    1    2    0    0 -0.33445391088E+02  0.30009156867E+02  0.31574943497E+01  0.45045681829E+02  0.00000000000E+00 0.  1.
         11    1    3    3    0    0  0.25583091739E+02 -0.20962089466E+02 -0.32164411440E+01  0.33230246337E+02  0.51100000000E-03 0. -1.
        -11    1    3    3    0    0  0.53332847561E+01 -0.62644309716E+01 -0.22119259375E+01  0.85193684215E+01  0.51100000000E-03 0.  1.
        -12    1    3    3    0    0  0.25290145930E+01 -0.27826364293E+01  0.22708727319E+01  0.43927034129E+01  0.00000000000E+00 0.  1.
</event>
<event>
 7    1  0.4102844E-008  0.4614232E+02  0.7816164E-02  0.1320468E+00
        -11   -1    0    0    0    0  0.00000000000E+00  0.00000000000E+00  0.45593999997E+02  0.45594000000E+02  0.51100000000E-03 0.  1.
         11   -1    0    0    0    0 -0.00000000000E+00 -0.00000000000E+00 -0.45593999997E+02  0.45594000000E+02  0.51100000000E-03 0. -1.
    9900012    2    1    2    0    0  0.26286047894E+01  0.37248165276E+02 -0.25194802025E+02  0.46142318424E+02  0.10000006044E+02 0.  0.
        -12    1    1    2    0    0 -0.26286047894E+01 -0.37248165276E+02  0.25194802025E+02  0.45045681576E+02  0.00000000000E+00 0.  1.
         11    1    3    3    0    0  0.20786923360E+01  0.22154439300E+02 -0.10781578042E+02  0.24726151497E+02  0.51100000000E-03 0. -1.
        -11    1    3    3    0    0 -0.94579498194E-01  0.20251476805E+01 -0.10905438060E+00  0.20302860706E+01  0.51100000000E-03 0.  1.
        -12    1    3    3    0    0  0.64449195166E+00  0.13068578295E+02 -0.14304169603E+02  0.19385880856E+02  0.00000000000E+00 0.  1.
</event>
<event>
 7    1  0.4102844E-008  0.4614232E+02  0.7816164E-02  0.1320468E+00
        -11   -1    0    0    0    0  0.00000000000E+00  0.00000000000E+00  0.45593999997E+02  0.45594000000E+02  0.51100000000E-03 0.  1.
         11   -1    0    0    0    0 -0.00000000000E+00 -0.00000000000E+00 -0.45593999997E+02  0.45594000000E+02  0.51100000000E-03 0. -1.
    9900012    2    1    2    0    0  0.29785691789E+02 -0.31685329571E+02 -0.11745890138E+02  0.46142317849E+02  0.10000000798E+02 0.  0.
        -12    1    1    2    0    0 -0.29785691789E+02  0.31685329571E+02  0.11745890138E+02  0.45045682151E+02  0.00000000000E+00 0.  1.
         11    1    3    3    0    0  0.18092934757E+02 -0.17614464777E+02 -0.43365586468E+01  0.25620878179E+02  0.51100000000E-03 0. -1.
        -11    1    3    3    0    0  0.35155595794E+01 -0.73702010962E+01 -0.11794485048E+01  0.82504619502E+01  0.51100000000E-03 0.  1.
         12    1    3    3    0    0  0.81771974526E+01 -0.67006636973E+01 -0.62298829869E+01  0.12270977720E+02  0.00000000000E+00 0. -1.
</event>
<event>
 7    1  0.4102844E-008  0.4614232E+02  0.7816164E-02  0.1320468E+00
        -11   -1    0    0    0    0  0.00000000000E+00  0.00000000000E+00  0.45593999997E+02  0.45594000000E+02  0.51100000000E-03 0.  1.
         11   -1    0    0    0    0 -0.00000000000E+00 -0.00000000000E+00 -0.45593999997E+02  0.45594000000E+02  0.51100000000E-03 0. -1.
    9900012    2    1    2    0    0  0.17941611432E+02  0.49330267985E+01 -0.41022887769E+02  0.46142317686E+02  0.99999993163E+01 0.  0.
        -12    1    1    2    0    0 -0.17941611432E+02 -0.49330267985E+01  0.41022887769E+02  0.45045682314E+02  0.00000000000E+00 0.  1.
         11    1    3    3    0    0  0.83037132755E+01  0.63727732893E+01 -0.17229251188E+02  0.20159637653E+02  0.51100000000E-03 0. -1.
        -11    1    3    3    0    0  0.17745845689E+01  0.16300575592E+00 -0.16457477373E+01  0.24257384741E+01  0.51100000000E-03 0.  1.
        -12    1    3    3    0    0  0.78633135880E+01 -0.16027522467E+01 -0.22147888844E+02  0.23556941559E+02  0.00000000000E+00 0.  1.
</event>
<event>
 7    1  0.4102844E-008  0.4614232E+02  0.7816164E-02  0.1320468E+00
        -11   -1    0    0    0    0  0.00000000000E+00  0.00000000000E+00  0.45593999997E+02  0.45594000000E+02  0.51100000000E-03 0.  1.
         11   -1    0    0    0    0 -0.00000000000E+00 -0.00000000000E+00 -0.45593999997E+02  0.45594000000E+02  0.51100000000E-03 0. -1.
    9900012    2    1    2    0    0  0.27331269776E+02  0.34330173434E+02 -0.10176168646E+02  0.46142317367E+02  0.99999964054E+01 0.  0.
        -12    1    1    2    0    0 -0.27331269776E+02 -0.34330173434E+02  0.10176168646E+02  0.45045682633E+02  0.00000000000E+00 0.  1.
         11    1    3    3    0    0  0.19833613423E+02  0.23813886166E+02 -0.82427557663E+01  0.32068932296E+02  0.51100000000E-03 0. -1.
        -11    1    3    3    0    0  0.55342239729E+00  0.34732284966E+01 -0.22541778632E+01  0.41774287115E+01  0.51100000000E-03 0.  1.
         12    1    3    3    0    0  0.69442339559E+01  0.70430587712E+01  0.32076498342E+00  0.98959563592E+01  0.00000000000E+00 0. -1.
</event>
<event>
 7    1  0.4102844E-008  0.4614232E+02  0.7816164E-02  0.1320468E+00
        -11   -1    0    0    0    0  0.00000000000E+00  0.00000000000E+00  0.45593999997E+02  0.45594000000E+02  0.51100000000E-03 0.  1.
         11   -1    0    0    0    0 -0.00000000000E+00 -0.00000000000E+00 -0.45593999997E+02  0.45594000000E+02  0.51100000000E-03 0. -1.
    9900012    2    1    2    0    0  0.41677881069E+02  0.56136445124E+01 -0.16141703119E+02  0.46142319245E+02  0.10000013533E+02 0.  0.
        -12    1    1    2    0    0 -0.41677881069E+02 -0.56136445124E+01  0.16141703119E+02  0.45045680755E+02  0.00000000000E+00 0.  1.
         11    1    3    3    0    0  0.13757527408E+02  0.35590766500E+01 -0.36906404333E+01  0.14681873656E+02  0.51100000000E-03 0. -1.
        -11    1    3    3    0    0 -0.25800297721E+00 -0.48465230344E+00 -0.51630270647E+00  0.75367243370E+00  0.51100000000E-03 0.  1.
        -12    1    3    3    0    0  0.28178356638E+02  0.25392201659E+01 -0.11934759979E+02  0.30706773156E+02  0.00000000000E+00 0.  1.
</event>
<event>
 7    1  0.4102844E-008  0.4614232E+02  0.7816164E-02  0.1320468E+00
        -11   -1    0    0    0    0  0.00000000000E+00  0.00000000000E+00  0.45593999997E+02  0.45594000000E+02  0.51100000000E-03 0. -1.
         11   -1    0    0    0    0 -0.00000000000E+00 -0.00000000000E+00 -0.45593999997E+02  0.45594000000E+02  0.51100000000E-03 0.  1.
    9900012    2    1    2    0    0  0.16962417595E+02 -0.78583050801E+01  0.40983375450E+02  0.46142316159E+02  0.99999853933E+01 0.  0.
        -12    1    1    2    0    0 -0.16962417595E+02  0.78583050801E+01 -0.40983375450E+02  0.45045683841E+02  0.00000000000E+00 0.  1.
         11    1    3    3    0    0  0.13164492531E+02 -0.89586005725E+01  0.35034493485E+02  0.38483452572E+02  0.51100000000E-03 0. -1.
        -11    1    3    3    0    0  0.25661663126E+01  0.11363380893E+01  0.57664534451E+01  0.64131473859E+01  0.51100000000E-03 0.  1.
        -12    1    3    3    0    0  0.12317587511E+01 -0.36042596911E-01  0.18242851953E+00  0.12457162014E+01  0.00000000000E+00 0.  1.
</event>
<event>
 7    1  0.4102844E-008  0.4614232E+02  0.7816164E-02  0.1320468E+00
        -11   -1    0    0    0    0  0.00000000000E+00  0.00000000000E+00  0.45593999997E+02  0.45594000000E+02  0.51100000000E-03 0.  1.
         11   -1    0    0    0    0 -0.00000000000E+00 -0.00000000000E+00 -0.45593999997E+02  0.45594000000E+02  0.51100000000E-03 0. -1.
    9900012    2    1    2    0    0  0.16040846361E+02  0.27781949842E+02 -0.31622270904E+02  0.46142317564E+02  0.99999982009E+01 0.  0.
        -12    1    1    2    0    0 -0.16040846361E+02 -0.27781949842E+02  0.31622270904E+02  0.45045682436E+02  0.00000000000E+00 0.  1.
         11    1    3    3    0    0  0.59880819019E+00  0.32716150159E+00 -0.28071577179E+01  0.28888995502E+01  0.51100000000E-03 0. -1.
        -11    1    3    3    0    0  0.40221134825E+01  0.13045844664E+02 -0.98130508655E+01  0.16812716242E+02  0.51100000000E-03 0.  1.
        -12    1    3    3    0    0  0.11419924689E+02  0.14408943676E+02 -0.19002062321E+02  0.26440701772E+02  0.00000000000E+00 0.  1.
</event>
<event>
 7    1  0.4102844E-008  0.4614232E+02  0.7816164E-02  0.1320468E+00
        -11   -1    0    0    0    0  0.00000000000E+00  0.00000000000E+00  0.45593999997E+02  0.45594000000E+02  0.51100000000E-03 0.  1.
         11   -1    0    0    0    0 -0.00000000000E+00 -0.00000000000E+00 -0.45593999997E+02  0.45594000000E+02  0.51100000000E-03 0. -1.
    9900012    2    1    2    0    0 -0.13629451829E+01 -0.39924571948E+02 -0.20815476612E+02  0.46142321723E+02  0.10000036126E+02 0.  0.
        -12    1    1    2    0    0  0.13629451829E+01  0.39924571948E+02  0.20815476612E+02  0.45045678277E+02  0.00000000000E+00 0.  1.
         11    1    3    3    0    0  0.14830364027E+01 -0.24538470774E+02 -0.10904662191E+02  0.26893263146E+02  0.51100000000E-03 0. -1.
        -11    1    3    3    0    0 -0.42840141323E+00 -0.11743497375E+02 -0.52876803030E+01  0.12886148440E+02  0.51100000000E-03 0.  1.
        -12    1    3    3    0    0 -0.24175801723E+01 -0.36426037995E+01 -0.46231341184E+01  0.63629101367E+01  0.00000000000E+00 0.  1.
</event>
<event>
 7    1  0.4102844E-008  0.4614232E+02  0.7816164E-02  0.1320468E+00
        -11   -1    0    0    0    0  0.00000000000E+00  0.00000000000E+00  0.45593999997E+02  0.45594000000E+02  0.51100000000E-03 0.  1.
         11   -1    0    0    0    0 -0.00000000000E+00 -0.00000000000E+00 -0.45593999997E+02  0.45594000000E+02  0.51100000000E-03 0. -1.
    9900012    2    1    2    0    0 -0.18921068977E+02  0.28212201692E+02 -0.29583412841E+02  0.46142317733E+02  0.99999997441E+01 0.  0.
        -12    1    1    2    0    0  0.18921068977E+02 -0.28212201692E+02  0.29583412841E+02  0.45045682267E+02  0.00000000000E+00 0.  1.
         11    1    3    3    0    0  0.71039184083E-02  0.23390886929E+01 -0.44612375418E+00  0.23812629095E+01  0.51100000000E-03 0. -1.
        -11    1    3    3    0    0 -0.38991908294E+01  0.28652842333E+01 -0.23313684203E+01  0.53711099257E+01  0.51100000000E-03 0.  1.
         12    1    3    3    0    0 -0.15028982066E+02  0.23007828766E+02 -0.26805920667E+02  0.38389944898E+02  0.00000000000E+00 0. -1.
</event>
<event>
 7    1  0.4102844E-008  0.4614232E+02  0.7816164E-02  0.1320468E+00
        -11   -1    0    0    0    0  0.00000000000E+00  0.00000000000E+00  0.45593999997E+02  0.45594000000E+02  0.51100000000E-03 0.  1.
         11   -1    0    0    0    0 -0.00000000000E+00 -0.00000000000E+00 -0.45593999997E+02  0.45594000000E+02  0.51100000000E-03 0. -1.
    9900012    2    1    2    0    0 -0.20659070535E+02 -0.33770502552E+02 -0.21491148054E+02  0.46142317825E+02  0.10000000579E+02 0.  0.
        -12    1    1    2    0    0  0.20659070535E+02  0.33770502552E+02  0.21491148054E+02  0.45045682175E+02  0.00000000000E+00 0.  1.
         11    1    3    3    0    0 -0.72601257455E+01 -0.90678852626E+01 -0.54126411945E+01  0.12815328866E+02  0.51100000000E-03 0. -1.
        -11    1    3    3    0    0 -0.82610752276E+01 -0.17918737792E+02 -0.14922767476E+02  0.24738947378E+02  0.51100000000E-03 0.  1.
        -12    1    3    3    0    0 -0.51378695621E+01 -0.67838794976E+01 -0.11557393835E+01  0.85880415810E+01  0.00000000000E+00 0.  1.
</event>
<event>
 7    1  0.4102844E-008  0.4614232E+02  0.7816164E-02  0.1320468E+00
        -11   -1    0    0    0    0  0.00000000000E+00  0.00000000000E+00  0.45593999997E+02  0.45594000000E+02  0.51100000000E-03 0. -1.
         11   -1    0    0    0    0 -0.00000000000E+00 -0.00000000000E+00 -0.45593999997E+02  0.45594000000E+02  0.51100000000E-03 0.  1.
    9900012    2    1    2    0    0  0.31945391069E+02  0.26415831946E+02 -0.17629782093E+02  0.46142318691E+02  0.10000008479E+02 0.  0.
        -12    1    1    2    0    0 -0.31945391069E+02 -0.26415831946E+02  0.17629782093E+02  0.45045681309E+02  0.00000000000E+00 0.  1.
         11    1    3    3    0    0  0.51353501997E+01  0.33522088371E+01 -0.42715517478E+01  0.74736390304E+01  0.51100000000E-03 0. -1.
        -11    1    3    3    0    0  0.11795200691E+02  0.65469764933E+01 -0.20465462256E+01  0.13644706382E+02  0.51100000000E-03 0.  1.
        -12    1    3    3    0    0  0.15014840178E+02  0.16516646616E+02 -0.11311684120E+02  0.25023973278E+02  0.00000000000E+00 0.  1.
</event>
<event>
 7    1  0.4102844E-008  0.4614232E+02  0.7816164E-02  0.1320468E+00
        -11   -1    0    0    0    0  0.00000000000E+00  0.00000000000E+00  0.45593999997E+02  0.45594000000E+02  0.51100000000E-03 0.  1.
         11   -1    0    0    0    0 -0.00000000000E+00 -0.00000000000E+00 -0.45593999997E+02  0.45594000000E+02  0.51100000000E-03 0. -1.
    9900012    2    1    2    0    0 -0.33960266856E+02 -0.28183875288E+02 -0.90268030105E+01  0.46142315149E+02  0.99999761768E+01 0.  0.
        -12    1    1    2    0    0  0.33960266856E+02  0.28183875288E+02  0.90268030105E+01  0.45045684851E+02  0.00000000000E+00 0.  1.
         11    1    3    3    0    0 -0.29141022315E+02 -0.24574347898E+02 -0.42584817589E+01  0.38356647707E+02  0.51100000000E-03 0. -1.
        -11    1    3    3    0    0 -0.33492784594E+01 -0.28924822199E+01 -0.28451652860E+01  0.52610916506E+01  0.51100000000E-03 0.  1.
         12    1    3    3    0    0 -0.14699660817E+01 -0.71704516987E+00 -0.19231559656E+01  0.25245757911E+01  0.00000000000E+00 0. -1.
</event>
<event>
 7    1  0.4102844E-008  0.4614232E+02  0.7816164E-02  0.1320468E+00
        -11   -1    0    0    0    0  0.00000000000E+00  0.00000000000E+00  0.45593999997E+02  0.45594000000E+02  0.51100000000E-03 0.  1.
         11   -1    0    0    0    0 -0.00000000000E+00 -0.00000000000E+00 -0.45593999997E+02  0.45594000000E+02  0.51100000000E-03 0. -1.
    9900012    2    1    2    0    0 -0.61054249809E+01  0.14964612385E+02 -0.42046375394E+02  0.46142317390E+02  0.99999966126E+01 0.  0.
        -12    1    1    2    0    0  0.61054249809E+01 -0.14964612385E+02  0.42046375394E+02  0.45045682610E+02  0.00000000000E+00 0.  1.
         11    1    3    3    0    0 -0.27551103605E+01  0.74499939644E+01 -0.15151557960E+02  0.17107388815E+02  0.51100000000E-03 0. -1.
        -11    1    3    3    0    0  0.21076981260E+01  0.15343049301E+01 -0.94458994373E+01  0.97990560489E+01  0.51100000000E-03 0.  1.
        -12    1    3    3    0    0 -0.54580127464E+01  0.59803134910E+01 -0.17448917997E+02  0.19235872526E+02  0.00000000000E+00 0.  1.
</event>
<event>
 7    1  0.4102844E-008  0.4614232E+02  0.7816164E-02  0.1320468E+00
        -11   -1    0    0    0    0  0.00000000000E+00  0.00000000000E+00  0.45593999997E+02  0.45594000000E+02  0.51100000000E-03 0.  1.
         11   -1    0    0    0    0 -0.00000000000E+00 -0.00000000000E+00 -0.45593999997E+02  0.45594000000E+02  0.51100000000E-03 0. -1.
    9900012    2    1    2    0    0  0.17873044756E+02  0.28067886271E+02 -0.30362174028E+02  0.46142316741E+02  0.99999906978E+01 0.  0.
        -12    1    1    2    0    0 -0.17873044756E+02 -0.28067886271E+02  0.30362174028E+02  0.45045683259E+02  0.00000000000E+00 0.  1.
         11    1    3    3    0    0  0.68666204869E+01  0.16975264678E+02 -0.14381995204E+02  0.23284155001E+02  0.51100000000E-03 0. -1.
        -11    1    3    3    0    0  0.32362955476E+01  0.64159188961E+01 -0.82589128111E+01  0.10947477574E+02  0.51100000000E-03 0.  1.
        -12    1    3    3    0    0  0.77701287212E+01  0.46767026970E+01 -0.77212660124E+01  0.11910684166E+02  0.00000000000E+00 0.  1.
</event>
<event>
 7    1  0.4102844E-008  0.4614232E+02  0.7816164E-02  0.1320468E+00
        -11   -1    0    0    0    0  0.00000000000E+00  0.00000000000E+00  0.45593999997E+02  0.45594000000E+02  0.51100000000E-03 0. -1.
         11   -1    0    0    0    0 -0.00000000000E+00 -0.00000000000E+00 -0.45593999997E+02  0.45594000000E+02  0.51100000000E-03 0.  1.
    9900012    2    1    2    0    0 -0.21827165211E+02  0.38803438236E+02 -0.68543038470E+01  0.46142318283E+02  0.10000004760E+02 0.  0.
        -12    1    1    2    0    0  0.21827165211E+02 -0.38803438236E+02  0.68543038470E+01  0.45045681717E+02  0.00000000000E+00 0.  1.
         11    1    3    3    0    0 -0.12930524899E+02  0.26181018500E+02 -0.22597568113E+01  0.29287381327E+02  0.51100000000E-03 0. -1.
        -11    1    3    3    0    0 -0.12183156264E+01  0.50020163020E+01 -0.12416782771E+00  0.51497454268E+01  0.51100000000E-03 0.  1.
        -12    1    3    3    0    0 -0.76783246860E+01  0.76204034339E+01 -0.44703792080E+01  0.11705191530E+02  0.00000000000E+00 0.  1.
</event>
<event>
 7    1  0.4102844E-008  0.4614232E+02  0.7816164E-02  0.1320468E+00
        -11   -1    0    0    0    0  0.00000000000E+00  0.00000000000E+00  0.45593999997E+02  0.45594000000E+02  0.51100000000E-03 0.  1.
         11   -1    0    0    0    0 -0.00000000000E+00 -0.00000000000E+00 -0.45593999997E+02  0.45594000000E+02  0.51100000000E-03 0. -1.
    9900012    2    1    2    0    0  0.48183577324E+01 -0.77463180021E+01 -0.44112258936E+02  0.46142318717E+02  0.10000008714E+02 0.  0.
        -12    1    1    2    0    0 -0.48183577324E+01  0.77463180021E+01  0.44112258936E+02  0.45045681283E+02  0.00000000000E+00 0.  1.
         11    1    3    3    0    0 -0.76968598708E+00 -0.70902007302E+00 -0.79019678143E+00  0.13113112511E+01  0.51100000000E-03 0.  1.
        -11    1    3    3    0    0  0.26798156183E+01 -0.25895274768E+01 -0.55379959616E+01  0.66750628336E+01  0.51100000000E-03 0. -1.
         12    1    3    3    0    0  0.29082281013E+01 -0.44477704523E+01 -0.37784066193E+02  0.38155944632E+02  0.00000000000E+00 0. -1.
</event>
<event>
 7    1  0.4102844E-008  0.4614232E+02  0.7816164E-02  0.1320468E+00
        -11   -1    0    0    0    0  0.00000000000E+00  0.00000000000E+00  0.45593999997E+02  0.45594000000E+02  0.51100000000E-03 0.  1.
         11   -1    0    0    0    0 -0.00000000000E+00 -0.00000000000E+00 -0.45593999997E+02  0.45594000000E+02  0.51100000000E-03 0. -1.
    9900012    2    1    2    0    0  0.16761345544E+02 -0.32312784939E+02 -0.26534030158E+02  0.46142317283E+02  0.99999956439E+01 0.  0.
        -12    1    1    2    0    0 -0.16761345544E+02  0.32312784939E+02  0.26534030158E+02  0.45045682717E+02  0.00000000000E+00 0.  1.
         11    1    3    3    0    0  0.78244012786E+01 -0.12911320170E+02 -0.86990382611E+01  0.17424026826E+02  0.51100000000E-03 0. -1.
        -11    1    3    3    0    0  0.61101261271E+01 -0.10016329519E+02 -0.54856703199E+01  0.12951952650E+02  0.51100000000E-03 0.  1.
        -12    1    3    3    0    0  0.28268181380E+01 -0.93851352506E+01 -0.12349321577E+02  0.15766337808E+02  0.00000000000E+00 0.  1.
</event>
<event>
 7    1  0.4102844E-008  0.4614232E+02  0.7816164E-02  0.1320468E+00
        -11   -1    0    0    0    0  0.00000000000E+00  0.00000000000E+00  0.45593999997E+02  0.45594000000E+02  0.51100000000E-03 0.  1.
         11   -1    0    0    0    0 -0.00000000000E+00 -0.00000000000E+00 -0.45593999997E+02  0.45594000000E+02  0.51100000000E-03 0. -1.
    9900012    2    1    2    0    0  0.13406284453E+02  0.36479958357E+02 -0.22772739804E+02  0.46142317602E+02  0.99999985447E+01 0.  0.
        -12    1    1    2    0    0 -0.13406284453E+02 -0.36479958357E+02  0.22772739804E+02  0.45045682398E+02  0.00000000000E+00 0.  1.
         11    1    3    3    0    0  0.69751312549E+01  0.26447880396E+02 -0.12011310657E+02  0.29873306101E+02  0.51100000000E-03 0. -1.
        -11    1    3    3    0    0  0.25524534081E+01  0.18774678154E+01 -0.29461078489E+01  0.43265986082E+01  0.51100000000E-03 0.  1.
         12    1    3    3    0    0  0.38786997903E+01  0.81546101459E+01 -0.78153212984E+01  0.11942412892E+02  0.00000000000E+00 0. -1.
</event>
<event>
 7    1  0.4102844E-008  0.4614232E+02  0.7816164E-02  0.1320468E+00
        -11   -1    0    0    0    0  0.00000000000E+00  0.00000000000E+00  0.45593999997E+02  0.45594000000E+02  0.51100000000E-03 0.  1.
         11   -1    0    0    0    0 -0.00000000000E+00 -0.00000000000E+00 -0.45593999997E+02  0.45594000000E+02  0.51100000000E-03 0. -1.
    9900012    2    1    2    0    0 -0.37749422736E+02 -0.95815697222E+01 -0.22633780957E+02  0.46142318347E+02  0.10000005341E+02 0.  0.
        -12    1    1    2    0    0  0.37749422736E+02  0.95815697222E+01  0.22633780957E+02  0.45045681653E+02  0.00000000000E+00 0.  1.
         11    1    3    3    0    0 -0.15702231197E+02 -0.22091814256E+01 -0.70703515174E+01  0.17361751582E+02  0.51100000000E-03 0. -1.
        -11    1    3    3    0    0 -0.13842453186E+02 -0.23560160800E+01 -0.61696502727E+01  0.15337174013E+02  0.51100000000E-03 0.  1.
        -12    1    3    3    0    0 -0.82047383529E+01 -0.50163722166E+01 -0.93937791665E+01  0.13443392752E+02  0.00000000000E+00 0.  1.
</event>
<event>
 7    1  0.4102844E-008  0.4614232E+02  0.7816164E-02  0.1320468E+00
        -11   -1    0    0    0    0  0.00000000000E+00  0.00000000000E+00  0.45593999997E+02  0.45594000000E+02  0.51100000000E-03 0. -1.
         11   -1    0    0    0    0 -0.00000000000E+00 -0.00000000000E+00 -0.45593999997E+02  0.45594000000E+02  0.51100000000E-03 0.  1.
    9900012    2    1    2    0    0  0.30971089816E+02 -0.14159650255E+02  0.29485748522E+02  0.46142318013E+02  0.10000002301E+02 0.  0.
        -12    1    1    2    0    0 -0.30971089816E+02  0.14159650255E+02 -0.29485748522E+02  0.45045681987E+02  0.00000000000E+00 0.  1.
         11    1    3    3    0    0  0.20450311756E+02 -0.82337222272E+01  0.18840825550E+02  0.28999761039E+02  0.51100000000E-03 0. -1.
        -11    1    3    3    0    0  0.11279120279E+02 -0.57156711743E+01  0.10131609587E+02  0.16202992450E+02  0.51100000000E-03 0.  1.
        -12    1    3    3    0    0 -0.75834221908E+00 -0.21025685367E+00  0.51331338445E+00  0.93956452487E+00  0.00000000000E+00 0.  1.
</event>
<event>
 7    1  0.4102844E-008  0.4614232E+02  0.7816164E-02  0.1320468E+00
        -11   -1    0    0    0    0  0.00000000000E+00  0.00000000000E+00  0.45593999997E+02  0.45594000000E+02  0.51100000000E-03 0.  1.
         11   -1    0    0    0    0 -0.00000000000E+00 -0.00000000000E+00 -0.45593999997E+02  0.45594000000E+02  0.51100000000E-03 0. -1.
    9900012    2    1    2    0    0 -0.44335589061E+02  0.53902818838E+01 -0.58663198422E+01  0.46142319800E+02  0.10000018596E+02 0.  0.
        -12    1    1    2    0    0  0.44335589061E+02 -0.53902818838E+01  0.58663198422E+01  0.45045680200E+02  0.00000000000E+00 0.  1.
         11    1    3    3    0    0 -0.28977795647E+02  0.46870980265E+01 -0.51932355210E+01  0.29810253671E+02  0.51100000000E-03 0. -1.
        -11    1    3    3    0    0 -0.10423887812E+02 -0.21129174290E+01 -0.53718063595E+00  0.10649432871E+02  0.51100000000E-03 0.  1.
        -12    1    3    3    0    0 -0.49339056023E+01  0.28161012863E+01 -0.13590368525E+00  0.56826332592E+01  0.00000000000E+00 0.  1.
</event>
<event>
 7    1  0.4102844E-008  0.4614231E+02  0.7816164E-02  0.1320468E+00
        -11   -1    0    0    0    0  0.00000000000E+00  0.00000000000E+00  0.45593999997E+02  0.45594000000E+02  0.51100000000E-03 0.  1.
         11   -1    0    0    0    0 -0.00000000000E+00 -0.00000000000E+00 -0.45593999997E+02  0.45594000000E+02  0.51100000000E-03 0. -1.
    9900012    2    1    2    0    0 -0.33947809166E+02  0.42725602508E+01 -0.29298556757E+02  0.46142312679E+02  0.99999536531E+01 0.  0.
        -12    1    1    2    0    0  0.33947809166E+02 -0.42725602508E+01  0.29298556757E+02  0.45045687321E+02  0.00000000000E+00 0.  1.
         11    1    3    3    0    0 -0.10323642273E+00 -0.41141166574E+00 -0.12801673825E+01  0.13486089522E+01  0.51100000000E-03 0. -1.
        -11    1    3    3    0    0 -0.42581141346E+00  0.12876907485E+01 -0.99573937953E+00  0.16825456893E+01  0.51100000000E-03 0.  1.
        -12    1    3    3    0    0 -0.33418761329E+02  0.33962811681E+01 -0.27022649995E+02  0.43111158037E+02  0.00000000000E+00 0.  1.
</event>
<event>
 7    1  0.4102844E-008  0.4614232E+02  0.7816164E-02  0.1320468E+00
        -11   -1    0    0    0    0  0.00000000000E+00  0.00000000000E+00  0.45593999997E+02  0.45594000000E+02  0.51100000000E-03 0. -1.
         11   -1    0    0    0    0 -0.00000000000E+00 -0.00000000000E+00 -0.45593999997E+02  0.45594000000E+02  0.51100000000E-03 0.  1.
    9900012    2    1    2    0    0 -0.32766871239E+02 -0.30647188148E+02  0.40243447170E+01  0.46142319379E+02  0.10000014757E+02 0.  0.
        -12    1    1    2    0    0  0.32766871239E+02  0.30647188148E+02 -0.40243447170E+01  0.45045680621E+02  0.00000000000E+00 0.  1.
         11    1    3    3    0    0 -0.24160743292E+01 -0.21633542426E+01 -0.18818697990E+01  0.37495267628E+01  0.51100000000E-03 0.  1.
        -11    1    3    3    0    0 -0.94860439402E+00 -0.59904224312E-03 -0.28598499074E+00  0.99077663035E+00  0.51100000000E-03 0. -1.
         12    1    3    3    0    0 -0.29402192516E+02 -0.28483234863E+02  0.61921995068E+01  0.41402015986E+02  0.00000000000E+00 0. -1.
</event>
<event>
 7    1  0.4102844E-008  0.4614232E+02  0.7816164E-02  0.1320468E+00
        -11   -1    0    0    0    0  0.00000000000E+00  0.00000000000E+00  0.45593999997E+02  0.45594000000E+02  0.51100000000E-03 0.  1.
         11   -1    0    0    0    0 -0.00000000000E+00 -0.00000000000E+00 -0.45593999997E+02  0.45594000000E+02  0.51100000000E-03 0. -1.
    9900012    2    1    2    0    0 -0.14158291590E+02 -0.14028836709E+02 -0.40396137717E+02  0.46142318491E+02  0.10000006656E+02 0.  0.
        -12    1    1    2    0    0  0.14158291590E+02  0.14028836709E+02  0.40396137717E+02  0.45045681509E+02  0.00000000000E+00 0.  1.
         11    1    3    3    0    0  0.21280015145E+00 -0.47469799469E+01 -0.64419670674E+01  0.80048761689E+01  0.51100000000E-03 0. -1.
        -11    1    3    3    0    0 -0.10522124452E+02 -0.79087185228E+01 -0.23910596344E+02  0.27294313500E+02  0.51100000000E-03 0.  1.
         12    1    3    3    0    0 -0.38489672897E+01 -0.13731382393E+01 -0.10043574306E+02  0.10843128822E+02  0.00000000000E+00 0. -1.
</event>
<event>
 7    1  0.4102844E-008  0.4614232E+02  0.7816164E-02  0.1320468E+00
        -11   -1    0    0    0    0  0.00000000000E+00  0.00000000000E+00  0.45593999997E+02  0.45594000000E+02  0.51100000000E-03 0. -1.
         11   -1    0    0    0    0 -0.00000000000E+00 -0.00000000000E+00 -0.45593999997E+02  0.45594000000E+02  0.51100000000E-03 0.  1.
    9900012    2    1    2    0    0  0.18064354919E+02 -0.16726937459E+02 -0.37722698418E+02  0.46142319504E+02  0.10000015890E+02 0.  0.
        -12    1    1    2    0    0 -0.18064354919E+02  0.16726937459E+02  0.37722698418E+02  0.45045680496E+02  0.00000000000E+00 0.  1.
         11    1    3    3    0    0  0.89858371203E+01 -0.10948145841E+02 -0.13785041413E+02  0.19764476546E+02  0.51100000000E-03 0. -1.
        -11    1    3    3    0    0  0.50561906216E+01 -0.45708314546E+01 -0.13394171596E+02  0.15028685797E+02  0.51100000000E-03 0.  1.
        -12    1    3    3    0    0  0.40223271773E+01 -0.12079601634E+01 -0.10543485409E+02  0.11349157161E+02  0.00000000000E+00 0.  1.
</event>
<event>
 7    1  0.4102844E-008  0.4614232E+02  0.7816164E-02  0.1320468E+00
        -11   -1    0    0    0    0  0.00000000000E+00  0.00000000000E+00  0.45593999997E+02  0.45594000000E+02  0.51100000000E-03 0.  1.
         11   -1    0    0    0    0 -0.00000000000E+00 -0.00000000000E+00 -0.45593999997E+02  0.45594000000E+02  0.51100000000E-03 0. -1.
    9900012    2    1    2    0    0  0.75483401970E+01 -0.26712477750E+02 -0.35476464590E+02  0.46142318219E+02  0.10000004178E+02 0.  0.
        -12    1    1    2    0    0 -0.75483401970E+01  0.26712477750E+02  0.35476464590E+02  0.45045681781E+02  0.00000000000E+00 0.  1.
         11    1    3    3    0    0 -0.84196394165E+00 -0.11683108002E+02 -0.16935725577E+02  0.20591811891E+02  0.51100000000E-03 0. -1.
        -11    1    3    3    0    0  0.13295608004E+01 -0.24642781835E+01 -0.13243959496E+01  0.30974866877E+01  0.51100000000E-03 0.  1.
         12    1    3    3    0    0  0.70607433382E+01 -0.12565091565E+02 -0.17216343063E+02  0.22453019640E+02  0.00000000000E+00 0. -1.
</event>
<event>
 7    1  0.4102844E-008  0.4614232E+02  0.7816164E-02  0.1320468E+00
        -11   -1    0    0    0    0  0.00000000000E+00  0.00000000000E+00  0.45593999997E+02  0.45594000000E+02  0.51100000000E-03 0. -1.
         11   -1    0    0    0    0 -0.00000000000E+00 -0.00000000000E+00 -0.45593999997E+02  0.45594000000E+02  0.51100000000E-03 0.  1.
    9900012    2    1    2    0    0 -0.39829764846E+02 -0.13541935887E+02  0.16103394883E+02  0.46142317387E+02  0.99999965900E+01 0.  0.
        -12    1    1    2    0    0  0.39829764846E+02  0.13541935887E+02 -0.16103394883E+02  0.45045682613E+02  0.00000000000E+00 0.  1.
         11    1    3    3    0    0 -0.81943902987E+01 -0.11200976752E+01  0.58382757438E+01  0.10123641395E+02  0.51100000000E-03 0. -1.
        -11    1    3    3    0    0 -0.23144762090E+00 -0.77433544375E-01  0.99634858288E+00  0.10258044232E+01  0.51100000000E-03 0.  1.
         12    1    3    3    0    0 -0.31403926927E+02 -0.12344404667E+02  0.92687705565E+01  0.34992871569E+02  0.00000000000E+00 0. -1.
</event>
<event>
 7    1  0.4102844E-008  0.4614232E+02  0.7816164E-02  0.1320468E+00
        -11   -1    0    0    0    0  0.00000000000E+00  0.00000000000E+00  0.45593999997E+02  0.45594000000E+02  0.51100000000E-03 0.  1.
         11   -1    0    0    0    0 -0.00000000000E+00 -0.00000000000E+00 -0.45593999997E+02  0.45594000000E+02  0.51100000000E-03 0. -1.
    9900012    2    1    2    0    0 -0.24624074706E+02 -0.23929687049E+02 -0.29157135001E+02  0.46142317645E+02  0.99999989402E+01 0.  0.
        -12    1    1    2    0    0  0.24624074706E+02  0.23929687049E+02  0.29157135001E+02  0.45045682355E+02  0.00000000000E+00 0.  1.
         11    1    3    3    0    0 -0.11992568807E+02 -0.13835702511E+02 -0.16240596603E+02  0.24474585775E+02  0.51100000000E-03 0. -1.
        -11    1    3    3    0    0 -0.48201805464E+01 -0.49257859421E+01 -0.94159764848E+01  0.11668681205E+02  0.51100000000E-03 0.  1.
         12    1    3    3    0    0 -0.78113253525E+01 -0.51681985961E+01 -0.35005619126E+01  0.99990506647E+01  0.00000000000E+00 0. -1.
</event>
<event>
 7    1  0.4102844E-008  0.4614232E+02  0.7816164E-02  0.1320468E+00
        -11   -1    0    0    0    0  0.00000000000E+00  0.00000000000E+00  0.45593999997E+02  0.45594000000E+02  0.51100000000E-03 0.  1.
         11   -1    0    0    0    0 -0.00000000000E+00 -0.00000000000E+00 -0.45593999997E+02  0.45594000000E+02  0.51100000000E-03 0. -1.
    9900012    2    1    2    0    0  0.40279773276E+02  0.45261239418E+01 -0.19651140106E+02  0.46142320511E+02  0.10000025078E+02 0.  0.
        -12    1    1    2    0    0 -0.40279773276E+02 -0.45261239418E+01  0.19651140106E+02  0.45045679489E+02  0.00000000000E+00 0.  1.
         11    1    3    3    0    0  0.35270819161E+02  0.55457305146E+01 -0.15272542338E+02  0.38833443846E+02  0.51100000000E-03 0. -1.
        -11    1    3    3    0    0  0.38508268686E+01 -0.14586874492E+01 -0.18936993115E+01  0.45324092919E+01  0.51100000000E-03 0.  1.
         12    1    3    3    0    0  0.11581272473E+01  0.43908087646E+00 -0.24848984567E+01  0.27764673737E+01  0.00000000000E+00 0. -1.
</event>
<event>
 7    1  0.4102844E-008  0.4614232E+02  0.7816164E-02  0.1320468E+00
        -11   -1    0    0    0    0  0.00000000000E+00  0.00000000000E+00  0.45593999997E+02  0.45594000000E+02  0.51100000000E-03 0. -1.
         11   -1    0    0    0    0 -0.00000000000E+00 -0.00000000000E+00 -0.45593999997E+02  0.45594000000E+02  0.51100000000E-03 0.  1.
    9900012    2    1    2    0    0  0.44088100712E+02  0.84291040455E+01 -0.37819369980E+01  0.46142318000E+02  0.10000002175E+02 0.  0.
        -12    1    1    2    0    0 -0.44088100712E+02 -0.84291040455E+01  0.37819369980E+01  0.45045682000E+02  0.00000000000E+00 0.  1.
         11    1    3    3    0    0  0.40742721272E+01  0.20435941857E+01 -0.84443638068E+00  0.46356276408E+01  0.51100000000E-03 0. -1.
        -11    1    3    3    0    0  0.10526336682E+02  0.16764157262E+01 -0.45779867949E+01  0.11600521410E+02  0.51100000000E-03 0.  1.
         12    1    3    3    0    0  0.29487491903E+02  0.47090941335E+01  0.16404861776E+01  0.29906168949E+02  0.00000000000E+00 0. -1.
</event>
<event>
 7    1  0.4102844E-008  0.4614232E+02  0.7816164E-02  0.1320468E+00
        -11   -1    0    0    0    0  0.00000000000E+00  0.00000000000E+00  0.45593999997E+02  0.45594000000E+02  0.51100000000E-03 0.  1.
         11   -1    0    0    0    0 -0.00000000000E+00 -0.00000000000E+00 -0.45593999997E+02  0.45594000000E+02  0.51100000000E-03 0. -1.
    9900012    2    1    2    0    0  0.26720988573E+02 -0.14383566978E+02 -0.33289866808E+02  0.46142318060E+02  0.10000002727E+02 0.  0.
        -12    1    1    2    0    0 -0.26720988573E+02  0.14383566978E+02  0.33289866808E+02  0.45045681940E+02  0.00000000000E+00 0.  1.
         11    1    3    3    0    0  0.16326745177E+02 -0.79373473075E+01 -0.14881088653E+02  0.23473621155E+02  0.51100000000E-03 0. -1.
        -11    1    3    3    0    0  0.34228981633E+01 -0.38135033506E+01 -0.42050066161E+01  0.66288098890E+01  0.51100000000E-03 0.  1.
        -12    1    3    3    0    0  0.69713452322E+01 -0.26327163203E+01 -0.14203771539E+02  0.16039887016E+02  0.00000000000E+00 0.  1.
</event>
<event>
 7    1  0.4102844E-008  0.4614232E+02  0.7816164E-02  0.1320468E+00
        -11   -1    0    0    0    0  0.00000000000E+00  0.00000000000E+00  0.45593999997E+02  0.45594000000E+02  0.51100000000E-03 0.  1.
         11   -1    0    0    0    0 -0.00000000000E+00 -0.00000000000E+00 -0.45593999997E+02  0.45594000000E+02  0.51100000000E-03 0. -1.
    9900012    2    1    2    0    0  0.34192191927E+02 -0.25769003453E+02  0.13998781948E+02  0.46142318479E+02  0.10000006543E+02 0.  0.
        -12    1    1    2    0    0 -0.34192191927E+02  0.25769003453E+02 -0.13998781948E+02  0.45045681521E+02  0.00000000000E+00 0.  1.
         11    1    3    3    0    0  0.71493048264E+01 -0.61284510288E+01  0.21997123614E+01  0.96700158349E+01  0.51100000000E-03 0. -1.
        -11    1    3    3    0    0  0.26890484574E+02 -0.17802737473E+02  0.12371880605E+02  0.34541265931E+02  0.51100000000E-03 0.  1.
         12    1    3    3    0    0  0.15240252625E+00 -0.18378149508E+01 -0.57281101814E+00  0.19310367128E+01  0.00000000000E+00 0. -1.
</event>
<event>
 7    1  0.4102844E-008  0.4614232E+02  0.7816164E-02  0.1320468E+00
        -11   -1    0    0    0    0  0.00000000000E+00  0.00000000000E+00  0.45593999997E+02  0.45594000000E+02  0.51100000000E-03 0.  1.
         11   -1    0    0    0    0 -0.00000000000E+00 -0.00000000000E+00 -0.45593999997E+02  0.45594000000E+02  0.51100000000E-03 0. -1.
    9900012    2    1    2    0    0  0.15725858431E+02 -0.14056888641E+02 -0.39802195068E+02  0.46142317922E+02  0.10000001468E+02 0.  0.
        -12    1    1    2    0    0 -0.15725858431E+02  0.14056888641E+02  0.39802195068E+02  0.45045682078E+02  0.00000000000E+00 0.  1.
         11    1    3    3    0    0  0.54847116460E+01 -0.61472452784E+01 -0.83083705815E+01  0.11700414879E+02  0.51100000000E-03 0. -1.
        -11    1    3    3    0    0  0.37399163736E+01 -0.58391426756E+01 -0.18666973603E+02  0.19913273599E+02  0.51100000000E-03 0.  1.
         12    1    3    3    0    0  0.65012304111E+01 -0.20705006871E+01 -0.12826850884E+02  0.14528629445E+02  0.00000000000E+00 0. -1.
</event>
<event>
 7    1  0.4102844E-008  0.4614232E+02  0.7816164E-02  0.1320468E+00
        -11   -1    0    0    0    0  0.00000000000E+00  0.00000000000E+00  0.45593999997E+02  0.45594000000E+02  0.51100000000E-03 0.  1.
         11   -1    0    0    0    0 -0.00000000000E+00 -0.00000000000E+00 -0.45593999997E+02  0.45594000000E+02  0.51100000000E-03 0. -1.
    9900012    2    1    2    0    0  0.42055317371E+01  0.12504879733E+02 -0.43070349325E+02  0.46142317574E+02  0.99999982896E+01 0.  0.
        -12    1    1    2    0    0 -0.42055317371E+01 -0.12504879733E+02  0.43070349325E+02  0.45045682426E+02  0.00000000000E+00 0.  1.
         11    1    3    3    0    0  0.11813530804E+01  0.25399872410E+01 -0.20484483399E+02  0.20675134599E+02  0.51100000000E-03 0. -1.
        -11    1    3    3    0    0  0.41012689860E-01  0.65204421984E+00  0.19027147002E+00  0.68047571506E+00  0.51100000000E-03 0.  1.
        -12    1    3    3    0    0  0.29831659669E+01  0.93128482722E+01 -0.22776137396E+02  0.24786707260E+02  0.00000000000E+00 0.  1.
</event>
<event>
 7    1  0.4102844E-008  0.4614232E+02  0.7816164E-02  0.1320468E+00
        -11   -1    0    0    0    0  0.00000000000E+00  0.00000000000E+00  0.45593999997E+02  0.45594000000E+02  0.51100000000E-03 0.  1.
         11   -1    0    0    0    0 -0.00000000000E+00 -0.00000000000E+00 -0.45593999997E+02  0.45594000000E+02  0.51100000000E-03 0. -1.
    9900012    2    1    2    0    0 -0.43166513433E+02 -0.12170213266E+02  0.42013695258E+01  0.46142317868E+02  0.10000000972E+02 0.  0.
        -12    1    1    2    0    0  0.43166513433E+02  0.12170213266E+02 -0.42013695258E+01  0.45045682132E+02  0.00000000000E+00 0.  1.
         11    1    3    3    0    0 -0.51158398272E+01 -0.33335531141E+00 -0.39087460877E+00  0.51415684496E+01  0.51100000000E-03 0. -1.
        -11    1    3    3    0    0 -0.85542072768E+01 -0.30085017170E+00 -0.16560136236E+01  0.87182196773E+01  0.51100000000E-03 0.  1.
        -12    1    3    3    0    0 -0.29496466329E+02 -0.11536007783E+02  0.62482577583E+01  0.32282529741E+02  0.00000000000E+00 0.  1.
</event>
<event>
 7    1  0.4102844E-008  0.4614232E+02  0.7816164E-02  0.1320468E+00
        -11   -1    0    0    0    0  0.00000000000E+00  0.00000000000E+00  0.45593999997E+02  0.45594000000E+02  0.51100000000E-03 0.  1.
         11   -1    0    0    0    0 -0.00000000000E+00 -0.00000000000E+00 -0.45593999997E+02  0.45594000000E+02  0.51100000000E-03 0. -1.
    9900012    2    1    2    0    0 -0.75593264096E+00  0.28303375327E+02 -0.35035141275E+02  0.46142316375E+02  0.99999873648E+01 0.  0.
        -12    1    1    2    0    0  0.75593264096E+00 -0.28303375327E+02  0.35035141275E+02  0.45045683625E+02  0.00000000000E+00 0.  1.
         11    1    3    3    0    0 -0.74788280113E+00  0.13174471031E+02 -0.18094554783E+02  0.22395064829E+02  0.51100000000E-03 0. -1.
        -11    1    3    3    0    0  0.22187669006E+01  0.12642958502E+01 -0.20022228349E+01  0.32450373030E+01  0.51100000000E-03 0.  1.
        -12    1    3    3    0    0 -0.22268167404E+01  0.13864608446E+02 -0.14938363657E+02  0.20502214244E+02  0.00000000000E+00 0.  1.
</event>
<event>
 7    1  0.4102844E-008  0.4614232E+02  0.7816164E-02  0.1320468E+00
        -11   -1    0    0    0    0  0.00000000000E+00  0.00000000000E+00  0.45593999997E+02  0.45594000000E+02  0.51100000000E-03 0.  1.
         11   -1    0    0    0    0 -0.00000000000E+00 -0.00000000000E+00 -0.45593999997E+02  0.45594000000E+02  0.51100000000E-03 0. -1.
    9900012    2    1    2    0    0  0.20279775823E+02 -0.21839588991E+02 -0.33776864003E+02  0.46142317669E+02  0.99999991638E+01 0.  0.
        -12    1    1    2    0    0 -0.20279775823E+02  0.21839588991E+02  0.33776864003E+02  0.45045682331E+02  0.00000000000E+00 0.  1.
         11    1    3    3    0    0  0.13000811311E+02 -0.14264090233E+02 -0.22053198824E+02  0.29305783449E+02  0.51100000000E-03 0. -1.
        -11    1    3    3    0    0  0.28562304849E+01 -0.45841743034E+01 -0.20307689678E+01  0.57703318352E+01  0.51100000000E-03 0.  1.
         12    1    3    3    0    0  0.44227340277E+01 -0.29913244548E+01 -0.96928962113E+01  0.11066202385E+02  0.00000000000E+00 0. -1.
</event>
<event>
 7    1  0.4102844E-008  0.4614232E+02  0.7816164E-02  0.1320468E+00
        -11   -1    0    0    0    0  0.00000000000E+00  0.00000000000E+00  0.45593999997E+02  0.45594000000E+02  0.51100000000E-03 0.  1.
         11   -1    0    0    0    0 -0.00000000000E+00 -0.00000000000E+00 -0.45593999997E+02  0.45594000000E+02  0.51100000000E-03 0. -1.
    9900012    2    1    2    0    0 -0.24770469861E+02 -0.23195830128E+02 -0.29622469871E+02  0.46142318367E+02  0.10000005528E+02 0.  0.
        -12    1    1    2    0    0  0.24770469861E+02  0.23195830128E+02  0.29622469871E+02  0.45045681633E+02  0.00000000000E+00 0.  1.
         11    1    3    3    0    0 -0.16017109646E+02 -0.18353929432E+02 -0.21430845747E+02  0.32445272024E+02  0.51100000000E-03 0. -1.
        -11    1    3    3    0    0 -0.21509499340E+01 -0.36632330546E+01 -0.27512788889E+01  0.50611656579E+01  0.51100000000E-03 0.  1.
        -12    1    3    3    0    0 -0.66024102815E+01 -0.11786676408E+01 -0.54403452358E+01  0.86358806857E+01  0.00000000000E+00 0.  1.
</event>
<event>
 7    1  0.4102844E-008  0.4614232E+02  0.7816164E-02  0.1320468E+00
        -11   -1    0    0    0    0  0.00000000000E+00  0.00000000000E+00  0.45593999997E+02  0.45594000000E+02  0.51100000000E-03 0. -1.
         11   -1    0    0    0    0 -0.00000000000E+00 -0.00000000000E+00 -0.45593999997E+02  0.45594000000E+02  0.51100000000E-03 0.  1.
    9900012    2    1    2    0    0 -0.44267445643E+02 -0.11281103441E+01 -0.82603876968E+01  0.46142318946E+02  0.10000010802E+02 0.  0.
        -12    1    1    2    0    0  0.44267445643E+02  0.11281103441E+01  0.82603876968E+01  0.45045681054E+02  0.00000000000E+00 0.  1.
         11    1    3    3    0    0 -0.99210884426E+01  0.80112774665E+00  0.40684693438E+00  0.99616929405E+01  0.51100000000E-03 0. -1.
        -11    1    3    3    0    0 -0.26196788763E+01  0.15324995385E+01 -0.18216693373E+01  0.35397389291E+01  0.51100000000E-03 0.  1.
         12    1    3    3    0    0 -0.31726678325E+02 -0.34617376293E+01 -0.68455652939E+01  0.32640887076E+02  0.00000000000E+00 0. -1.
</event>
<event>
 7    1  0.4102844E-008  0.4614232E+02  0.7816164E-02  0.1320468E+00
        -11   -1    0    0    0    0  0.00000000000E+00  0.00000000000E+00  0.45593999997E+02  0.45594000000E+02  0.51100000000E-03 0. -1.
         11   -1    0    0    0    0 -0.00000000000E+00 -0.00000000000E+00 -0.45593999997E+02  0.45594000000E+02  0.51100000000E-03 0.  1.
    9900012    2    1    2    0    0  0.31004184297E+02 -0.24370946752E+02  0.21769495220E+02  0.46142318613E+02  0.10000007770E+02 0.  0.
        -12    1    1    2    0    0 -0.31004184297E+02  0.24370946752E+02 -0.21769495220E+02  0.45045681387E+02  0.00000000000E+00 0.  1.
         11    1    3    3    0    0  0.21226120062E+02 -0.13158704140E+02  0.14456460615E+02  0.28856349757E+02  0.51100000000E-03 0. -1.
        -11    1    3    3    0    0  0.25375908426E+01 -0.16806568827E+01 -0.36469882961E+00  0.30654494514E+01  0.51100000000E-03 0.  1.
         12    1    3    3    0    0  0.72404733923E+01 -0.95315857289E+01  0.76777334343E+01  0.14220519405E+02  0.00000000000E+00 0. -1.
</event>
<event>
 7    1  0.4102844E-008  0.4614232E+02  0.7816164E-02  0.1320468E+00
        -11   -1    0    0    0    0  0.00000000000E+00  0.00000000000E+00  0.45593999997E+02  0.45594000000E+02  0.51100000000E-03 0.  1.
         11   -1    0    0    0    0 -0.00000000000E+00 -0.00000000000E+00 -0.45593999997E+02  0.45594000000E+02  0.51100000000E-03 0. -1.
    9900012    2    1    2    0    0 -0.13693369623E+02  0.19562774549E+02 -0.38195587455E+02  0.46142318512E+02  0.10000006851E+02 0.  0.
        -12    1    1    2    0    0  0.13693369623E+02 -0.19562774549E+02  0.38195587455E+02  0.45045681488E+02  0.00000000000E+00 0.  1.
         11    1    3    3    0    0 -0.65622831873E+01  0.10243185316E+02 -0.15383404227E+02  0.19612127164E+02  0.51100000000E-03 0. -1.
        -11    1    3    3    0    0 -0.54028528408E+01  0.90763224048E+01 -0.13950041717E+02  0.17497831619E+02  0.51100000000E-03 0.  1.
        -12    1    3    3    0    0 -0.17282335950E+01  0.24326682809E+00 -0.88621415113E+01  0.90323597290E+01  0.00000000000E+00 0.  1.
</event>
<event>
 7    1  0.4102844E-008  0.4614232E+02  0.7816164E-02  0.1320468E+00
        -11   -1    0    0    0    0  0.00000000000E+00  0.00000000000E+00  0.45593999997E+02  0.45594000000E+02  0.51100000000E-03 0.  1.
         11   -1    0    0    0    0 -0.00000000000E+00 -0.00000000000E+00 -0.45593999997E+02  0.45594000000E+02  0.51100000000E-03 0. -1.
    9900012    2    1    2    0    0 -0.24230646329E+02  0.74417238359E+00 -0.37966239725E+02  0.46142319043E+02  0.10000011687E+02 0.  0.
        -12    1    1    2    0    0  0.24230646329E+02 -0.74417238359E+00  0.37966239725E+02  0.45045680957E+02  0.00000000000E+00 0.  1.
         11    1    3    3    0    0 -0.81387963278E+01  0.22871638195E+01 -0.15540833562E+02  0.17691484733E+02  0.51100000000E-03 0. -1.
        -11    1    3    3    0    0 -0.69539007170E+01 -0.91926866954E+00 -0.15351040400E+02  0.16877684429E+02  0.51100000000E-03 0.  1.
        -12    1    3    3    0    0 -0.91379492837E+01 -0.62372276641E+00 -0.70743657634E+01  0.11573149880E+02  0.00000000000E+00 0.  1.
</event>
<event>
 7    1  0.4102844E-008  0.4614232E+02  0.7816164E-02  0.1320468E+00
        -11   -1    0    0    0    0  0.00000000000E+00  0.00000000000E+00  0.45593999997E+02  0.45594000000E+02  0.51100000000E-03 0.  1.
         11   -1    0    0    0    0 -0.00000000000E+00 -0.00000000000E+00 -0.45593999997E+02  0.45594000000E+02  0.51100000000E-03 0. -1.
    9900012    2    1    2    0    0  0.37407953938E+01  0.18557219344E-01 -0.44890083400E+02  0.46142317829E+02  0.10000000621E+02 0.  0.
        -12    1    1    2    0    0 -0.37407953938E+01 -0.18557219344E-01  0.44890083400E+02  0.45045682171E+02  0.00000000000E+00 0.  1.
         11    1    3    3    0    0  0.82978186249E+00  0.59477430869E+00 -0.13240748979E+02  0.13280050008E+02  0.51100000000E-03 0. -1.
        -11    1    3    3    0    0 -0.38196216863E+00 -0.57106611061E+00 -0.27749952901E+02  0.27758456331E+02  0.51100000000E-03 0.  1.
        -12    1    3    3    0    0  0.32929757000E+01 -0.51509787353E-02 -0.38993815198E+01  0.51038114904E+01  0.00000000000E+00 0.  1.
</event>
<event>
 7    1  0.4102844E-008  0.4614232E+02  0.7816164E-02  0.1320468E+00
        -11   -1    0    0    0    0  0.00000000000E+00  0.00000000000E+00  0.45593999997E+02  0.45594000000E+02  0.51100000000E-03 0. -1.
         11   -1    0    0    0    0 -0.00000000000E+00 -0.00000000000E+00 -0.45593999997E+02  0.45594000000E+02  0.51100000000E-03 0.  1.
    9900012    2    1    2    0    0 -0.33924830754E+02  0.11242267668E+02  0.27419531370E+02  0.46142318470E+02  0.10000006460E+02 0.  0.
        -12    1    1    2    0    0  0.33924830754E+02 -0.11242267668E+02 -0.27419531370E+02  0.45045681530E+02  0.00000000000E+00 0.  1.
         11    1    3    3    0    0 -0.17813993056E+02  0.16288933149E+01  0.13357335143E+02  0.22325098979E+02  0.51100000000E-03 0. -1.
        -11    1    3    3    0    0 -0.78134362710E+01  0.31242652060E+01  0.42748190209E+01  0.94384796107E+01  0.51100000000E-03 0.  1.
        -12    1    3    3    0    0 -0.82974014268E+01  0.64891091474E+01  0.97873772064E+01  0.14378739880E+02  0.00000000000E+00 0.  1.
</event>
<event>
 7    1  0.4102844E-008  0.4614232E+02  0.7816164E-02  0.1320468E+00
        -11   -1    0    0    0    0  0.00000000000E+00  0.00000000000E+00  0.45593999997E+02  0.45594000000E+02  0.51100000000E-03 0. -1.
         11   -1    0    0    0    0 -0.00000000000E+00 -0.00000000000E+00 -0.45593999997E+02  0.45594000000E+02  0.51100000000E-03 0.  1.
    9900012    2    1    2    0    0 -0.83898718202E+01 -0.68486699021E+01  0.43724354293E+02  0.46142318887E+02  0.10000010264E+02 0.  0.
        -12    1    1    2    0    0  0.83898718202E+01  0.68486699021E+01 -0.43724354293E+02  0.45045681113E+02  0.00000000000E+00 0.  1.
         11    1    3    3    0    0 -0.53439457410E+01 -0.75972437418E+01  0.22727278215E+02  0.24552088381E+02  0.51100000000E-03 0. -1.
        -11    1    3    3    0    0 -0.94590761242E+00 -0.16078015041E+01  0.73753922397E+01  0.76076394393E+01  0.51100000000E-03 0.  1.
        -12    1    3    3    0    0 -0.21000184668E+01  0.23563753438E+01  0.13621683839E+02  0.13982591067E+02  0.00000000000E+00 0.  1.
</event>
<event>
 7    1  0.4102844E-008  0.4614232E+02  0.7816164E-02  0.1320468E+00
        -11   -1    0    0    0    0  0.00000000000E+00  0.00000000000E+00  0.45593999997E+02  0.45594000000E+02  0.51100000000E-03 0. -1.
         11   -1    0    0    0    0 -0.00000000000E+00 -0.00000000000E+00 -0.45593999997E+02  0.45594000000E+02  0.51100000000E-03 0.  1.
    9900012    2    1    2    0    0 -0.37582796122E+02  0.17604552239E+02  0.17513613002E+02  0.46142318029E+02  0.10000002443E+02 0.  0.
        -12    1    1    2    0    0  0.37582796122E+02 -0.17604552239E+02 -0.17513613002E+02  0.45045681971E+02  0.00000000000E+00 0.  1.
         11    1    3    3    0    0 -0.31103622908E+01  0.26036747142E+01  0.21940431151E+01  0.46116484092E+01  0.51100000000E-03 0. -1.
        -11    1    3    3    0    0 -0.18807776402E+01  0.11143684445E+01  0.36074192233E+01  0.42181293574E+01  0.51100000000E-03 0.  1.
         12    1    3    3    0    0 -0.32591656190E+02  0.13886509080E+02  0.11712150664E+02  0.37312540262E+02  0.00000000000E+00 0. -1.
</event>
<event>
 7    1  0.4102844E-008  0.4614232E+02  0.7816164E-02  0.1320468E+00
        -11   -1    0    0    0    0  0.00000000000E+00  0.00000000000E+00  0.45593999997E+02  0.45594000000E+02  0.51100000000E-03 0.  1.
         11   -1    0    0    0    0 -0.00000000000E+00 -0.00000000000E+00 -0.45593999997E+02  0.45594000000E+02  0.51100000000E-03 0. -1.
    9900012    2    1    2    0    0 -0.21636248228E+02  0.39500097848E+02  0.85351964705E+00  0.46142318041E+02  0.10000002552E+02 0.  0.
        -12    1    1    2    0    0  0.21636248228E+02 -0.39500097848E+02 -0.85351964705E+00  0.45045681959E+02  0.00000000000E+00 0.  1.
         11    1    3    3    0    0 -0.86000270738E+00  0.73888288927E+01  0.40991808400E+00  0.74499953127E+01  0.51100000000E-03 0. -1.
        -11    1    3    3    0    0 -0.62051099492E+01  0.67658498327E+01  0.20729952506E+01  0.94115579481E+01  0.51100000000E-03 0.  1.
         12    1    3    3    0    0 -0.14571135571E+02  0.25345419122E+02 -0.16293936876E+01  0.29280764780E+02  0.00000000000E+00 0. -1.
</event>
<event>
 7    1  0.4102844E-008  0.4614232E+02  0.7816164E-02  0.1320468E+00
        -11   -1    0    0    0    0  0.00000000000E+00  0.00000000000E+00  0.45593999997E+02  0.45594000000E+02  0.51100000000E-03 0. -1.
         11   -1    0    0    0    0 -0.00000000000E+00 -0.00000000000E+00 -0.45593999997E+02  0.45594000000E+02  0.51100000000E-03 0.  1.
    9900012    2    1    2    0    0 -0.13598213772E+02  0.70644908424E+01  0.42359119867E+02  0.46142317803E+02  0.10000000383E+02 0.  0.
        -12    1    1    2    0    0  0.13598213772E+02 -0.70644908424E+01 -0.42359119867E+02  0.45045682197E+02  0.00000000000E+00 0.  1.
         11    1    3    3    0    0 -0.76003730559E+01  0.58764350946E+01  0.17276971875E+02  0.19768457639E+02  0.51100000000E-03 0. -1.
        -11    1    3    3    0    0 -0.24537155639E+01  0.41292823477E+00  0.25920906850E+01  0.35930716910E+01  0.51100000000E-03 0.  1.
        -12    1    3    3    0    0 -0.35441251521E+01  0.77512751299E+00  0.22490057307E+02  0.22780788473E+02  0.00000000000E+00 0.  1.
</event>
<event>
 7    1  0.4102844E-008  0.4614232E+02  0.7816164E-02  0.1320468E+00
        -11   -1    0    0    0    0  0.00000000000E+00  0.00000000000E+00  0.45593999997E+02  0.45594000000E+02  0.51100000000E-03 0.  1.
         11   -1    0    0    0    0 -0.00000000000E+00 -0.00000000000E+00 -0.45593999997E+02  0.45594000000E+02  0.51100000000E-03 0. -1.
    9900012    2    1    2    0    0 -0.27924949624E+02  0.71863128608E+01 -0.34607336350E+02  0.46142316153E+02  0.99999853345E+01 0.  0.
        -12    1    1    2    0    0  0.27924949624E+02 -0.71863128608E+01  0.34607336350E+02  0.45045683847E+02  0.00000000000E+00 0.  1.
         11    1    3    3    0    0 -0.15083409173E+01 -0.12323852361E+00 -0.65652762992E+00  0.16496390049E+01  0.51100000000E-03 0.  1.
        -11    1    3    3    0    0 -0.21803675569E+02  0.49035090030E+01 -0.31789414480E+02  0.38858866969E+02  0.51100000000E-03 0. -1.
         12    1    3    3    0    0 -0.46129331378E+01  0.24060423815E+01 -0.21613942399E+01  0.56338101792E+01  0.00000000000E+00 0. -1.
</event>
<event>
 7    1  0.4102844E-008  0.4614232E+02  0.7816164E-02  0.1320468E+00
        -11   -1    0    0    0    0  0.00000000000E+00  0.00000000000E+00  0.45593999997E+02  0.45594000000E+02  0.51100000000E-03 0.  1.
         11   -1    0    0    0    0 -0.00000000000E+00 -0.00000000000E+00 -0.45593999997E+02  0.45594000000E+02  0.51100000000E-03 0. -1.
    9900012    2    1    2    0    0 -0.32130229955E+02 -0.56274348453E+01 -0.31065958897E+02  0.46142317609E+02  0.99999986093E+01 0.  0.
        -12    1    1    2    0    0  0.32130229955E+02  0.56274348453E+01  0.31065958897E+02  0.45045682391E+02  0.00000000000E+00 0.  1.
         11    1    3    3    0    0 -0.43822444406E+01 -0.13851225382E+01 -0.96661329997E+01  0.10703119088E+02  0.51100000000E-03 0. -1.
        -11    1    3    3    0    0 -0.19057580891E+01 -0.20368213142E+00 -0.25903465403E+01  0.32223121768E+01  0.51100000000E-03 0.  1.
         12    1    3    3    0    0 -0.25842227425E+02 -0.40386301758E+01 -0.18809479357E+02  0.32216886344E+02  0.00000000000E+00 0. -1.
</event>
<event>
 7    1  0.4102844E-008  0.4614232E+02  0.7816164E-02  0.1320468E+00
        -11   -1    0    0    0    0  0.00000000000E+00  0.00000000000E+00  0.45593999997E+02  0.45594000000E+02  0.51100000000E-03 0.  1.
         11   -1    0    0    0    0 -0.00000000000E+00 -0.00000000000E+00 -0.45593999997E+02  0.45594000000E+02  0.51100000000E-03 0. -1.
    9900012    2    1    2    0    0 -0.32541951701E+02  0.28121964150E+02 -0.13389916601E+02  0.46142319244E+02  0.10000013522E+02 0.  0.
        -12    1    1    2    0    0  0.32541951701E+02 -0.28121964150E+02  0.13389916601E+02  0.45045680756E+02  0.00000000000E+00 0.  1.
         11    1    3    3    0    0 -0.45133933957E+01  0.44303147245E+01 -0.36682840387E+01  0.73112732511E+01  0.51100000000E-03 0. -1.
        -11    1    3    3    0    0 -0.15624684836E+02  0.12607702716E+02 -0.94607844472E+01  0.22194399893E+02  0.51100000000E-03 0.  1.
         12    1    3    3    0    0 -0.12403873470E+02  0.11083946710E+02 -0.26084811558E+00  0.16636646100E+02  0.00000000000E+00 0. -1.
</event>
<event>
 7    1  0.4102844E-008  0.4614232E+02  0.7816164E-02  0.1320468E+00
        -11   -1    0    0    0    0  0.00000000000E+00  0.00000000000E+00  0.45593999997E+02  0.45594000000E+02  0.51100000000E-03 0.  1.
         11   -1    0    0    0    0 -0.00000000000E+00 -0.00000000000E+00 -0.45593999997E+02  0.45594000000E+02  0.51100000000E-03 0. -1.
    9900012    2    1    2    0    0  0.11944754705E+02 -0.14440223923E+02 -0.40962376413E+02  0.46142317484E+02  0.99999974748E+01 0.  0.
        -12    1    1    2    0    0 -0.11944754705E+02  0.14440223923E+02  0.40962376413E+02  0.45045682516E+02  0.00000000000E+00 0.  1.
         11    1    3    3    0    0  0.34513319428E+00 -0.32445355663E+01 -0.42232570808E+01  0.53368556842E+01  0.51100000000E-03 0.  1.
        -11    1    3    3    0    0  0.33676138933E+01 -0.83363344763E+01 -0.17094198903E+02  0.19314422907E+02  0.51100000000E-03 0. -1.
         12    1    3    3    0    0  0.82320076175E+01 -0.28593538807E+01 -0.19644920429E+02  0.21491038893E+02  0.00000000000E+00 0. -1.
</event>
<event>
 7    1  0.4102844E-008  0.4614233E+02  0.7816164E-02  0.1320468E+00
        -11   -1    0    0    0    0  0.00000000000E+00  0.00000000000E+00  0.45593999997E+02  0.45594000000E+02  0.51100000000E-03 0.  1.
         11   -1    0    0    0    0 -0.00000000000E+00 -0.00000000000E+00 -0.45593999997E+02  0.45594000000E+02  0.51100000000E-03 0. -1.
    9900012    2    1    2    0    0  0.72444633113E+01 -0.17196841926E+02 -0.40998767442E+02  0.46142328147E+02  0.10000094705E+02 0.  0.
        -12    1    1    2    0    0 -0.72444633113E+01  0.17196841926E+02  0.40998767442E+02  0.45045671853E+02  0.00000000000E+00 0.  1.
         11    1    3    3    0    0  0.15116519777E+01 -0.40496853497E+01 -0.51730351446E+01  0.67413155987E+01  0.51100000000E-03 0. -1.
        -11    1    3    3    0    0  0.76725753988E+01 -0.93193576099E+01 -0.25223197913E+02  0.27962985405E+02  0.51100000000E-03 0.  1.
         12    1    3    3    0    0 -0.19397640652E+01 -0.38277989665E+01 -0.10602534385E+02  0.11438027143E+02  0.00000000000E+00 0. -1.
</event>
<event>
 7    1  0.4102844E-008  0.4614232E+02  0.7816164E-02  0.1320468E+00
        -11   -1    0    0    0    0  0.00000000000E+00  0.00000000000E+00  0.45593999997E+02  0.45594000000E+02  0.51100000000E-03 0.  1.
         11   -1    0    0    0    0 -0.00000000000E+00 -0.00000000000E+00 -0.45593999997E+02  0.45594000000E+02  0.51100000000E-03 0. -1.
    9900012    2    1    2    0    0  0.55290927817E+01  0.34203348388E+02 -0.28786690467E+02  0.46142318121E+02  0.10000003278E+02 0.  0.
        -12    1    1    2    0    0 -0.55290927817E+01 -0.34203348388E+02  0.28786690467E+02  0.45045681879E+02  0.00000000000E+00 0.  1.
         11    1    3    3    0    0  0.15784971780E+01  0.15513044165E+02 -0.13642540724E+02  0.20718714012E+02  0.51100000000E-03 0. -1.
        -11    1    3    3    0    0 -0.10641499622E+01  0.11568437453E+02 -0.74431042541E+01  0.13797135987E+02  0.51100000000E-03 0.  1.
        -12    1    3    3    0    0  0.50147455659E+01  0.71218667694E+01 -0.77010454885E+01  0.11626468122E+02  0.00000000000E+00 0.  1.
</event>
<event>
 7    1  0.4102844E-008  0.4614232E+02  0.7816164E-02  0.1320468E+00
        -11   -1    0    0    0    0  0.00000000000E+00  0.00000000000E+00  0.45593999997E+02  0.45594000000E+02  0.51100000000E-03 0. -1.
         11   -1    0    0    0    0 -0.00000000000E+00 -0.00000000000E+00 -0.45593999997E+02  0.45594000000E+02  0.51100000000E-03 0.  1.
    9900012    2    1    2    0    0  0.30043572874E+02  0.31841236822E+02  0.10612860317E+02  0.46142318325E+02  0.10000005146E+02 0.  0.
        -12    1    1    2    0    0 -0.30043572874E+02 -0.31841236822E+02 -0.10612860317E+02  0.45045681675E+02  0.00000000000E+00 0.  1.
         11    1    3    3    0    0  0.55210734785E+01  0.47920814627E+01  0.13602488303E+01  0.74361666362E+01  0.51100000000E-03 0. -1.
        -11    1    3    3    0    0  0.19772613099E+02  0.22482711014E+02  0.10987187771E+02  0.31892739278E+02  0.51100000000E-03 0.  1.
         12    1    3    3    0    0  0.47498862972E+01  0.45664443455E+01 -0.17345762844E+01  0.68134124111E+01  0.00000000000E+00 0. -1.
</event>
<event>
 7    1  0.4102844E-008  0.4614232E+02  0.7816164E-02  0.1320468E+00
        -11   -1    0    0    0    0  0.00000000000E+00  0.00000000000E+00  0.45593999997E+02  0.45594000000E+02  0.51100000000E-03 0.  1.
         11   -1    0    0    0    0 -0.00000000000E+00 -0.00000000000E+00 -0.45593999997E+02  0.45594000000E+02  0.51100000000E-03 0. -1.
    9900012    2    1    2    0    0  0.32422327175E+02 -0.10527679417E+02 -0.29446123113E+02  0.46142317635E+02  0.99999988493E+01 0.  0.
        -12    1    1    2    0    0 -0.32422327175E+02  0.10527679417E+02  0.29446123113E+02  0.45045682365E+02  0.00000000000E+00 0.  1.
         11    1    3    3    0    0  0.13360665752E+02 -0.56380669387E+01 -0.86121844364E+01  0.16866087548E+02  0.51100000000E-03 0. -1.
        -11    1    3    3    0    0  0.18054758658E+02 -0.38587283797E+01 -0.20831081621E+02  0.27835194569E+02  0.51100000000E-03 0.  1.
        -12    1    3    3    0    0  0.10069027644E+01 -0.10308840985E+01 -0.28570554781E-02  0.14410355180E+01  0.00000000000E+00 0.  1.
</event>
<event>
 7    1  0.4102844E-008  0.4614232E+02  0.7816164E-02  0.1320468E+00
        -11   -1    0    0    0    0  0.00000000000E+00  0.00000000000E+00  0.45593999997E+02  0.45594000000E+02  0.51100000000E-03 0.  1.
         11   -1    0    0    0    0 -0.00000000000E+00 -0.00000000000E+00 -0.45593999997E+02  0.45594000000E+02  0.51100000000E-03 0. -1.
    9900012    2    1    2    0    0  0.32863687845E+02 -0.30209117089E+02 -0.60415868764E+01  0.46142317565E+02  0.99999982092E+01 0.  0.
        -12    1    1    2    0    0 -0.32863687845E+02  0.30209117089E+02  0.60415868764E+01  0.45045682435E+02  0.00000000000E+00 0.  1.
         11    1    3    3    0    0  0.21014702546E+02 -0.24404917388E+02 -0.62520228894E+01  0.32807095365E+02  0.51100000000E-03 0. -1.
        -11    1    3    3    0    0  0.12095257843E+01 -0.71861566398E-03  0.12083824916E+00  0.12155473182E+01  0.51100000000E-03 0.  1.
        -12    1    3    3    0    0  0.10639459515E+02 -0.58034810854E+01  0.89597763851E-01  0.12119674882E+02  0.00000000000E+00 0.  1.
</event>
<event>
 7    1  0.4102844E-008  0.4614232E+02  0.7816164E-02  0.1320468E+00
        -11   -1    0    0    0    0  0.00000000000E+00  0.00000000000E+00  0.45593999997E+02  0.45594000000E+02  0.51100000000E-03 0.  1.
         11   -1    0    0    0    0 -0.00000000000E+00 -0.00000000000E+00 -0.45593999997E+02  0.45594000000E+02  0.51100000000E-03 0. -1.
    9900012    2    1    2    0    0 -0.38728368124E+02 -0.20025067240E+02 -0.11323595223E+02  0.46142316253E+02  0.99999862476E+01 0.  0.
        -12    1    1    2    0    0  0.38728368124E+02  0.20025067240E+02  0.11323595223E+02  0.45045683747E+02  0.00000000000E+00 0.  1.
         11    1    3    3    0    0 -0.17376737494E+02 -0.11715269615E+02 -0.39738278887E+01  0.21330491237E+02  0.51100000000E-03 0. -1.
        -11    1    3    3    0    0 -0.65654555185E+01 -0.19720287749E+01  0.57369077908E+00  0.68791878173E+01  0.51100000000E-03 0.  1.
         12    1    3    3    0    0 -0.14786175112E+02 -0.63377688500E+01 -0.79234581132E+01  0.17932637199E+02  0.00000000000E+00 0. -1.
</event>
<event>
 7    1  0.4102844E-008  0.4614232E+02  0.7816164E-02  0.1320468E+00
        -11   -1    0    0    0    0  0.00000000000E+00  0.00000000000E+00  0.45593999997E+02  0.45594000000E+02  0.51100000000E-03 0.  1.
         11   -1    0    0    0    0 -0.00000000000E+00 -0.00000000000E+00 -0.45593999997E+02  0.45594000000E+02  0.51100000000E-03 0. -1.
    9900012    2    1    2    0    0  0.18924139562E+02  0.10597107628E+02 -0.39480267308E+02  0.46142320352E+02  0.10000023625E+02 0.  0.
        -12    1    1    2    0    0 -0.18924139562E+02 -0.10597107628E+02  0.39480267308E+02  0.45045679648E+02  0.00000000000E+00 0.  1.
         11    1    3    3    0    0  0.61081629536E+01  0.28885759979E+01 -0.12484237888E+02  0.14195412001E+02  0.51100000000E-03 0. -1.
        -11    1    3    3    0    0  0.97605164450E+01  0.50372355428E+01 -0.25236992964E+02  0.27523576027E+02  0.51100000000E-03 0.  1.
        -12    1    3    3    0    0  0.30554601635E+01  0.26712960869E+01 -0.17590364555E+01  0.44233323237E+01  0.00000000000E+00 0.  1.
</event>
<event>
 7    1  0.4102844E-008  0.4614232E+02  0.7816164E-02  0.1320468E+00
        -11   -1    0    0    0    0  0.00000000000E+00  0.00000000000E+00  0.45593999997E+02  0.45594000000E+02  0.51100000000E-03 0.  1.
         11   -1    0    0    0    0 -0.00000000000E+00 -0.00000000000E+00 -0.45593999997E+02  0.45594000000E+02  0.51100000000E-03 0. -1.
    9900012    2    1    2    0    0  0.30086003699E+02 -0.27888894107E+02 -0.18605253141E+02  0.46142317882E+02  0.10000001098E+02 0.  0.
        -12    1    1    2    0    0 -0.30086003699E+02  0.27888894107E+02  0.18605253141E+02  0.45045682118E+02  0.00000000000E+00 0.  1.
         11    1    3    3    0    0  0.21756475807E+01 -0.37482299848E+01 -0.40365144674E+01  0.59225095796E+01  0.51100000000E-03 0. -1.
        -11    1    3    3    0    0  0.14406417425E+02 -0.13386561251E+02 -0.42892809420E+01  0.20128159787E+02  0.51100000000E-03 0.  1.
         12    1    3    3    0    0  0.13503938694E+02 -0.10754102871E+02 -0.10279457732E+02  0.20091648515E+02  0.00000000000E+00 0. -1.
</event>
<event>
 7    1  0.4102844E-008  0.4614232E+02  0.7816164E-02  0.1320468E+00
        -11   -1    0    0    0    0  0.00000000000E+00  0.00000000000E+00  0.45593999997E+02  0.45594000000E+02  0.51100000000E-03 0. -1.
         11   -1    0    0    0    0 -0.00000000000E+00 -0.00000000000E+00 -0.45593999997E+02  0.45594000000E+02  0.51100000000E-03 0.  1.
    9900012    2    1    2    0    0  0.22020409374E+02 -0.13680383469E+02  0.36838324176E+02  0.46142318198E+02  0.10000003986E+02 0.  0.
        -12    1    1    2    0    0 -0.22020409374E+02  0.13680383469E+02 -0.36838324176E+02  0.45045681802E+02  0.00000000000E+00 0.  1.
         11    1    3    3    0    0  0.38773115885E+01 -0.27437511180E+01  0.93355386170E+01  0.10474444944E+02  0.51100000000E-03 0. -1.
        -11    1    3    3    0    0  0.40071397638E+01 -0.13889420762E+01  0.11582976269E+02  0.12334977450E+02  0.51100000000E-03 0.  1.
         12    1    3    3    0    0  0.14135958022E+02 -0.95476902749E+01  0.15919809290E+02  0.23332895804E+02  0.00000000000E+00 0. -1.
</event>
<event>
 7    1  0.4102844E-008  0.4614232E+02  0.7816164E-02  0.1320468E+00
        -11   -1    0    0    0    0  0.00000000000E+00  0.00000000000E+00  0.45593999997E+02  0.45594000000E+02  0.51100000000E-03 0. -1.
         11   -1    0    0    0    0 -0.00000000000E+00 -0.00000000000E+00 -0.45593999997E+02  0.45594000000E+02  0.51100000000E-03 0.  1.
    9900012    2    1    2    0    0 -0.25507614246E+02 -0.22489385852E+02  0.29541539864E+02  0.46142318320E+02  0.10000005094E+02 0.  0.
        -12    1    1    2    0    0  0.25507614246E+02  0.22489385852E+02 -0.29541539864E+02  0.45045681680E+02  0.00000000000E+00 0.  1.
         11    1    3    3    0    0 -0.19751508995E+02 -0.20360650278E+02  0.26298173371E+02  0.38681676673E+02  0.51100000000E-03 0. -1.
        -11    1    3    3    0    0 -0.27705489792E+01 -0.15477037261E+01  0.23436157278E+00  0.31821775686E+01  0.51100000000E-03 0.  1.
        -12    1    3    3    0    0 -0.29855562716E+01 -0.58103184775E+00  0.30090049196E+01  0.42784640778E+01  0.00000000000E+00 0.  1.
</event>
<event>
 7    1  0.4102844E-008  0.4614232E+02  0.7816164E-02  0.1320468E+00
        -11   -1    0    0    0    0  0.00000000000E+00  0.00000000000E+00  0.45593999997E+02  0.45594000000E+02  0.51100000000E-03 0.  1.
         11   -1    0    0    0    0 -0.00000000000E+00 -0.00000000000E+00 -0.45593999997E+02  0.45594000000E+02  0.51100000000E-03 0. -1.
    9900012    2    1    2    0    0  0.24978257305E+02  0.10758183519E+02 -0.35909073781E+02  0.46142318404E+02  0.10000005861E+02 0.  0.
        -12    1    1    2    0    0 -0.24978257305E+02 -0.10758183519E+02  0.35909073781E+02  0.45045681596E+02  0.00000000000E+00 0.  1.
         11    1    3    3    0    0  0.46189465991E+01  0.65227284999E+00 -0.80069524485E+01  0.92666830814E+01  0.51100000000E-03 0. -1.
        -11    1    3    3    0    0  0.36748120006E+00 -0.87140315653E+00 -0.28206620410E+01  0.29749824376E+01  0.51100000000E-03 0.  1.
         12    1    3    3    0    0  0.19991829506E+02  0.10977313826E+02 -0.25081459292E+02  0.33900652885E+02  0.00000000000E+00 0. -1.
</event>
<event>
 7    1  0.4102844E-008  0.4614232E+02  0.7816164E-02  0.1320468E+00
        -11   -1    0    0    0    0  0.00000000000E+00  0.00000000000E+00  0.45593999997E+02  0.45594000000E+02  0.51100000000E-03 0.  1.
         11   -1    0    0    0    0 -0.00000000000E+00 -0.00000000000E+00 -0.45593999997E+02  0.45594000000E+02  0.51100000000E-03 0. -1.
    9900012    2    1    2    0    0 -0.10008021948E+02 -0.38036892248E+02 -0.21957863182E+02  0.46142318401E+02  0.10000005837E+02 0.  0.
        -12    1    1    2    0    0  0.10008021948E+02  0.38036892248E+02  0.21957863182E+02  0.45045681599E+02  0.00000000000E+00 0.  1.
         11    1    3    3    0    0 -0.36556819706E+01 -0.14490380203E+02 -0.99119080792E+01  0.17932681092E+02  0.51100000000E-03 0. -1.
        -11    1    3    3    0    0 -0.32798438896E+01 -0.12279069338E+02 -0.10385885724E+02  0.16413395208E+02  0.51100000000E-03 0.  1.
        -12    1    3    3    0    0 -0.30724960878E+01 -0.11267442707E+02 -0.16600693787E+01  0.11796242101E+02  0.00000000000E+00 0.  1.
</event>
<event>
 7    1  0.4102844E-008  0.4614232E+02  0.7816164E-02  0.1320468E+00
        -11   -1    0    0    0    0  0.00000000000E+00  0.00000000000E+00  0.45593999997E+02  0.45594000000E+02  0.51100000000E-03 0.  1.
         11   -1    0    0    0    0 -0.00000000000E+00 -0.00000000000E+00 -0.45593999997E+02  0.45594000000E+02  0.51100000000E-03 0. -1.
    9900012    2    1    2    0    0 -0.42116595322E+02  0.16275223642E+01 -0.15895189917E+02  0.46142317709E+02  0.99999995249E+01 0.  0.
        -12    1    1    2    0    0  0.42116595322E+02 -0.16275223642E+01  0.15895189917E+02  0.45045682291E+02  0.00000000000E+00 0.  1.
         11    1    3    3    0    0 -0.39273435156E+02  0.17443552389E+01 -0.16271251842E+02  0.42546434879E+02  0.51100000000E-03 0. -1.
        -11    1    3    3    0    0  0.10280292987E+00  0.28761471654E+00  0.53716026823E+00  0.61792562857E+00  0.51100000000E-03 0.  1.
         12    1    3    3    0    0 -0.29459630958E+01 -0.40444759133E+00 -0.16109834286E+00  0.29779572011E+01  0.00000000000E+00 0. -1.
</event>
<event>
 7    1  0.4102844E-008  0.4614232E+02  0.7816164E-02  0.1320468E+00
        -11   -1    0    0    0    0  0.00000000000E+00  0.00000000000E+00  0.45593999997E+02  0.45594000000E+02  0.51100000000E-03 0.  1.
         11   -1    0    0    0    0 -0.00000000000E+00 -0.00000000000E+00 -0.45593999997E+02  0.45594000000E+02  0.51100000000E-03 0. -1.
    9900012    2    1    2    0    0  0.88668364127E+01  0.24653507272E+02 -0.36642833830E+02  0.46142317856E+02  0.10000000862E+02 0.  0.
        -12    1    1    2    0    0 -0.88668364127E+01 -0.24653507272E+02  0.36642833830E+02  0.45045682144E+02  0.00000000000E+00 0.  1.
         11    1    3    3    0    0  0.74352876671E+01  0.16885220753E+02 -0.25472799698E+02  0.31452467428E+02  0.51100000000E-03 0. -1.
        -11    1    3    3    0    0 -0.19825799410E+01  0.38412780794E+01 -0.46713628773E+01  0.63645637634E+01  0.51100000000E-03 0.  1.
        -12    1    3    3    0    0  0.34141286867E+01  0.39270084390E+01 -0.64986712543E+01  0.83252866641E+01  0.00000000000E+00 0.  1.
</event>
<event>
 7    1  0.4102844E-008  0.4614232E+02  0.7816164E-02  0.1320468E+00
        -11   -1    0    0    0    0  0.00000000000E+00  0.00000000000E+00  0.45593999997E+02  0.45594000000E+02  0.51100000000E-03 0. -1.
         11   -1    0    0    0    0 -0.00000000000E+00 -0.00000000000E+00 -0.45593999997E+02  0.45594000000E+02  0.51100000000E-03 0.  1.
    9900012    2    1    2    0    0 -0.25520547996E+02 -0.31530229227E+02  0.19587233819E+02  0.46142318145E+02  0.10000003502E+02 0.  0.
        -12    1    1    2    0    0  0.25520547996E+02  0.31530229227E+02 -0.19587233819E+02  0.45045681855E+02  0.00000000000E+00 0.  1.
         11    1    3    3    0    0 -0.47886036450E+00 -0.47891595601E+01  0.27191901857E+01  0.55280513807E+01  0.51100000000E-03 0.  1.
        -11    1    3    3    0    0 -0.13304054396E+02 -0.15661994758E+02  0.70673316185E+01  0.21731155507E+02  0.51100000000E-03 0. -1.
        -12    1    3    3    0    0 -0.11737633235E+02 -0.11079074909E+02  0.98007120146E+01  0.18883111258E+02  0.00000000000E+00 0.  1.
</event>
<event>
 7    1  0.4102844E-008  0.4614232E+02  0.7816164E-02  0.1320468E+00
        -11   -1    0    0    0    0  0.00000000000E+00  0.00000000000E+00  0.45593999997E+02  0.45594000000E+02  0.51100000000E-03 0.  1.
         11   -1    0    0    0    0 -0.00000000000E+00 -0.00000000000E+00 -0.45593999997E+02  0.45594000000E+02  0.51100000000E-03 0. -1.
    9900012    2    1    2    0    0 -0.30682081648E+01 -0.19619195062E+02 -0.40432496499E+02  0.46142317750E+02  0.99999999004E+01 0.  0.
        -12    1    1    2    0    0  0.30682081648E+01  0.19619195062E+02  0.40432496499E+02  0.45045682250E+02  0.00000000000E+00 0.  1.
         11    1    3    3    0    0 -0.75152562373E+00 -0.35511889281E+01 -0.77914080181E+01  0.85954506997E+01  0.51100000000E-03 0. -1.
        -11    1    3    3    0    0 -0.29751786306E+01 -0.64707405033E+01 -0.22360915805E+02  0.23467695380E+02  0.51100000000E-03 0.  1.
         12    1    3    3    0    0  0.65849608949E+00 -0.95972656306E+01 -0.10280172676E+02  0.14079171670E+02  0.00000000000E+00 0. -1.
</event>
<event>
 7    1  0.4102844E-008  0.4614232E+02  0.7816164E-02  0.1320468E+00
        -11   -1    0    0    0    0  0.00000000000E+00  0.00000000000E+00  0.45593999997E+02  0.45594000000E+02  0.51100000000E-03 0.  1.
         11   -1    0    0    0    0 -0.00000000000E+00 -0.00000000000E+00 -0.45593999997E+02  0.45594000000E+02  0.51100000000E-03 0. -1.
    9900012    2    1    2    0    0  0.20733199605E+02 -0.36061765741E+02 -0.17285743969E+02  0.46142318090E+02  0.10000002996E+02 0.  0.
        -12    1    1    2    0    0 -0.20733199605E+02  0.36061765741E+02  0.17285743969E+02  0.45045681910E+02  0.00000000000E+00 0.  1.
         11    1    3    3    0    0  0.87567557796E+01 -0.10185263922E+02 -0.58405901549E+01  0.14646940519E+02  0.51100000000E-03 0. -1.
        -11    1    3    3    0    0  0.41856229387E+01 -0.14894158892E+02 -0.87129991802E+01  0.17755893766E+02  0.51100000000E-03 0.  1.
        -12    1    3    3    0    0  0.77908208869E+01 -0.10982342927E+02 -0.27321546334E+01  0.13739483804E+02  0.00000000000E+00 0.  1.
</event>
<event>
 7    1  0.4102844E-008  0.4614232E+02  0.7816164E-02  0.1320468E+00
        -11   -1    0    0    0    0  0.00000000000E+00  0.00000000000E+00  0.45593999997E+02  0.45594000000E+02  0.51100000000E-03 0.  1.
         11   -1    0    0    0    0 -0.00000000000E+00 -0.00000000000E+00 -0.45593999997E+02  0.45594000000E+02  0.51100000000E-03 0. -1.
    9900012    2    1    2    0    0 -0.40663630447E+02 -0.14846996336E+02 -0.12455904893E+02  0.46142315323E+02  0.99999777672E+01 0.  0.
        -12    1    1    2    0    0  0.40663630447E+02  0.14846996336E+02  0.12455904893E+02  0.45045684677E+02  0.00000000000E+00 0.  1.
         11    1    3    3    0    0 -0.14680901887E+02 -0.62508338062E+01 -0.31051222114E+01  0.16255570974E+02  0.51100000000E-03 0. -1.
        -11    1    3    3    0    0 -0.60517765904E+01  0.74725743529E+00 -0.38016606759E+01  0.71857510206E+01  0.51100000000E-03 0.  1.
        -12    1    3    3    0    0 -0.19930951970E+02 -0.93434199648E+01 -0.55491220054E+01  0.22700993329E+02  0.00000000000E+00 0.  1.
</event>
<event>
 7    1  0.4102844E-008  0.4614232E+02  0.7816164E-02  0.1320468E+00
        -11   -1    0    0    0    0  0.00000000000E+00  0.00000000000E+00  0.45593999997E+02  0.45594000000E+02  0.51100000000E-03 0. -1.
         11   -1    0    0    0    0 -0.00000000000E+00 -0.00000000000E+00 -0.45593999997E+02  0.45594000000E+02  0.51100000000E-03 0.  1.
    9900012    2    1    2    0    0 -0.11294329551E+01  0.83278848359E+00  0.45023819620E+02  0.46142317758E+02  0.99999999761E+01 0.  0.
        -12    1    1    2    0    0  0.11294329551E+01 -0.83278848359E+00 -0.45023819620E+02  0.45045682242E+02  0.00000000000E+00 0.  1.
         11    1    3    3    0    0 -0.12771612112E+01  0.28813544083E+01  0.19806276272E+02  0.20055471174E+02  0.51100000000E-03 0. -1.
        -11    1    3    3    0    0  0.58265883050E+00 -0.13712631397E+01  0.25237728273E+02  0.25281668903E+02  0.51100000000E-03 0.  1.
        -12    1    3    3    0    0 -0.43493057439E+00 -0.67730278504E+00 -0.20184924956E-01  0.80517768124E+00  0.00000000000E+00 0.  1.
</event>
<event>
 7    1  0.4102844E-008  0.4614232E+02  0.7816164E-02  0.1320468E+00
        -11   -1    0    0    0    0  0.00000000000E+00  0.00000000000E+00  0.45593999997E+02  0.45594000000E+02  0.51100000000E-03 0. -1.
         11   -1    0    0    0    0 -0.00000000000E+00 -0.00000000000E+00 -0.45593999997E+02  0.45594000000E+02  0.51100000000E-03 0.  1.
    9900012    2    1    2    0    0  0.24269209400E+02 -0.37375115493E+02 -0.65741701085E+01  0.46142317680E+02  0.99999992605E+01 0.  0.
        -12    1    1    2    0    0 -0.24269209400E+02  0.37375115493E+02  0.65741701085E+01  0.45045682320E+02  0.00000000000E+00 0.  1.
         11    1    3    3    0    0  0.20634184851E+02 -0.33580341704E+02 -0.80437577125E+01  0.40225750109E+02  0.51100000000E-03 0. -1.
        -11    1    3    3    0    0  0.29474821317E+01 -0.40193477444E+01  0.14582177893E+01  0.51931884801E+01  0.51100000000E-03 0.  1.
        -12    1    3    3    0    0  0.68754241722E+00  0.22457395487E+00  0.11369814611E-01  0.72337909105E+00  0.00000000000E+00 0.  1.
</event>
<event>
 7    1  0.4102844E-008  0.4614232E+02  0.7816164E-02  0.1320468E+00
        -11   -1    0    0    0    0  0.00000000000E+00  0.00000000000E+00  0.45593999997E+02  0.45594000000E+02  0.51100000000E-03 0.  1.
         11   -1    0    0    0    0 -0.00000000000E+00 -0.00000000000E+00 -0.45593999997E+02  0.45594000000E+02  0.51100000000E-03 0. -1.
    9900012    2    1    2    0    0 -0.14832879479E+02 -0.26621705510E+02 -0.33172036987E+02  0.46142317013E+02  0.99999931796E+01 0.  0.
        -12    1    1    2    0    0  0.14832879479E+02  0.26621705510E+02  0.33172036987E+02  0.45045682987E+02  0.00000000000E+00 0.  1.
         11    1    3    3    0    0  0.31319364288E+00 -0.57503151358E+01 -0.80966313926E+01  0.99357764964E+01  0.51100000000E-03 0. -1.
        -11    1    3    3    0    0 -0.11310075899E+01 -0.10022212299E+01 -0.30290841981E+01  0.33851110621E+01  0.51100000000E-03 0.  1.
         12    1    3    3    0    0 -0.14015065532E+02 -0.19869169144E+02 -0.22046321396E+02  0.32821429455E+02  0.00000000000E+00 0. -1.
</event>
<event>
 7    1  0.4102844E-008  0.4614232E+02  0.7816164E-02  0.1320468E+00
        -11   -1    0    0    0    0  0.00000000000E+00  0.00000000000E+00  0.45593999997E+02  0.45594000000E+02  0.51100000000E-03 0.  1.
         11   -1    0    0    0    0 -0.00000000000E+00 -0.00000000000E+00 -0.45593999997E+02  0.45594000000E+02  0.51100000000E-03 0. -1.
    9900012    2    1    2    0    0  0.42155349325E+02 -0.13349675945E+02 -0.85922137638E+01  0.46142318055E+02  0.10000002676E+02 0.  0.
        -12    1    1    2    0    0 -0.42155349325E+02  0.13349675945E+02  0.85922137638E+01  0.45045681945E+02  0.00000000000E+00 0.  1.
         11    1    3    3    0    0  0.77915873778E+01 -0.60628471028E+01 -0.15197856152E+01  0.99888286318E+01  0.51100000000E-03 0.  1.
        -11    1    3    3    0    0  0.11717598175E+02 -0.21545596062E+00 -0.19179597489E+01  0.11875483069E+02  0.51100000000E-03 0. -1.
         12    1    3    3    0    0  0.22646163772E+02 -0.70713728819E+01 -0.51544683998E+01  0.24278006354E+02  0.00000000000E+00 0. -1.
</event>
<event>
 7    1  0.4102844E-008  0.4614232E+02  0.7816164E-02  0.1320468E+00
        -11   -1    0    0    0    0  0.00000000000E+00  0.00000000000E+00  0.45593999997E+02  0.45594000000E+02  0.51100000000E-03 0.  1.
         11   -1    0    0    0    0 -0.00000000000E+00 -0.00000000000E+00 -0.45593999997E+02  0.45594000000E+02  0.51100000000E-03 0. -1.
    9900012    2    1    2    0    0  0.33757235130E+02  0.29801511247E+02  0.11968483652E+01  0.46142318273E+02  0.10000004671E+02 0.  0.
        -12    1    1    2    0    0 -0.33757235130E+02 -0.29801511247E+02 -0.11968483652E+01  0.45045681727E+02  0.00000000000E+00 0.  1.
         11    1    3    3    0    0  0.99171253659E+01  0.13337783372E+02  0.12421129321E+01  0.16666993898E+02  0.51100000000E-03 0. -1.
        -11    1    3    3    0    0  0.28446933862E+00  0.15591149757E+01 -0.21807807884E+00  0.15997876802E+01  0.51100000000E-03 0.  1.
         12    1    3    3    0    0  0.23555640425E+02  0.14904612899E+02  0.17281351202E+00  0.27875536695E+02  0.00000000000E+00 0. -1.
</event>
<event>
 7    1  0.4102844E-008  0.4614232E+02  0.7816164E-02  0.1320468E+00
        -11   -1    0    0    0    0  0.00000000000E+00  0.00000000000E+00  0.45593999997E+02  0.45594000000E+02  0.51100000000E-03 0.  1.
         11   -1    0    0    0    0 -0.00000000000E+00 -0.00000000000E+00 -0.45593999997E+02  0.45594000000E+02  0.51100000000E-03 0. -1.
    9900012    2    1    2    0    0 -0.21665094868E+02 -0.55472891677E+00 -0.39489608225E+02  0.46142320766E+02  0.10000027405E+02 0.  0.
        -12    1    1    2    0    0  0.21665094868E+02  0.55472891677E+00  0.39489608225E+02  0.45045679234E+02  0.00000000000E+00 0.  1.
         11    1    3    3    0    0 -0.26348430655E+01 -0.21703538331E+01 -0.85649775653E+01  0.92201775848E+01  0.51100000000E-03 0. -1.
        -11    1    3    3    0    0 -0.95499320751E+01  0.46915917351E+00 -0.21380027175E+02  0.23420650615E+02  0.51100000000E-03 0.  1.
        -12    1    3    3    0    0 -0.94803197275E+01  0.11464657428E+01 -0.95446034855E+01  0.13501492567E+02  0.00000000000E+00 0.  1.
</event>
<event>
 7    1  0.4102844E-008  0.4614232E+02  0.7816164E-02  0.1320468E+00
        -11   -1    0    0    0    0  0.00000000000E+00  0.00000000000E+00  0.45593999997E+02  0.45594000000E+02  0.51100000000E-03 0.  1.
         11   -1    0    0    0    0 -0.00000000000E+00 -0.00000000000E+00 -0.45593999997E+02  0.45594000000E+02  0.51100000000E-03 0. -1.
    9900012    2    1    2    0    0 -0.34236530263E+02 -0.13774345827E+02 -0.25831006195E+02  0.46142317760E+02  0.99999999924E+01 0.  0.
        -12    1    1    2    0    0  0.34236530263E+02  0.13774345827E+02  0.25831006195E+02  0.45045682240E+02  0.00000000000E+00 0.  1.
         11    1    3    3    0    0 -0.14395562911E+02 -0.40465301664E+01 -0.12793328645E+02  0.19679326614E+02  0.51100000000E-03 0. -1.
        -11    1    3    3    0    0 -0.53760349048E+01 -0.44570070383E+01 -0.71101388429E+01  0.99659790118E+01  0.51100000000E-03 0.  1.
         12    1    3    3    0    0 -0.14464932447E+02 -0.52708086222E+01 -0.59275387070E+01  0.16497012134E+02  0.00000000000E+00 0. -1.
</event>
<event>
 7    1  0.4102844E-008  0.4614232E+02  0.7816164E-02  0.1320468E+00
        -11   -1    0    0    0    0  0.00000000000E+00  0.00000000000E+00  0.45593999997E+02  0.45594000000E+02  0.51100000000E-03 0. -1.
         11   -1    0    0    0    0 -0.00000000000E+00 -0.00000000000E+00 -0.45593999997E+02  0.45594000000E+02  0.51100000000E-03 0.  1.
    9900012    2    1    2    0    0  0.98086308650E+01 -0.37386038504E+02  0.23134139279E+02  0.46142317470E+02  0.99999973443E+01 0.  0.
        -12    1    1    2    0    0 -0.98086308650E+01  0.37386038504E+02 -0.23134139279E+02  0.45045682530E+02  0.00000000000E+00 0.  1.
         11    1    3    3    0    0  0.80329974358E+01 -0.23767408796E+02  0.14074483528E+02  0.28766471030E+02  0.51100000000E-03 0. -1.
        -11    1    3    3    0    0 -0.12677753042E+01 -0.56902513371E+01  0.15327354288E+01  0.60278928870E+01  0.51100000000E-03 0.  1.
         12    1    3    3    0    0  0.30434087335E+01 -0.79283783701E+01  0.75269203218E+01  0.11347953553E+02  0.00000000000E+00 0. -1.
</event>
<event>
 7    1  0.4102844E-008  0.4614232E+02  0.7816164E-02  0.1320468E+00
        -11   -1    0    0    0    0  0.00000000000E+00  0.00000000000E+00  0.45593999997E+02  0.45594000000E+02  0.51100000000E-03 0.  1.
         11   -1    0    0    0    0 -0.00000000000E+00 -0.00000000000E+00 -0.45593999997E+02  0.45594000000E+02  0.51100000000E-03 0. -1.
    9900012    2    1    2    0    0 -0.26333715131E+02  0.84435762300E+01 -0.35557768960E+02  0.46142318015E+02  0.10000002312E+02 0.  0.
        -12    1    1    2    0    0  0.26333715131E+02 -0.84435762300E+01  0.35557768960E+02  0.45045681985E+02  0.00000000000E+00 0.  1.
         11    1    3    3    0    0 -0.38117358700E+01  0.22129010170E+00 -0.92827080713E+01  0.10037278966E+02  0.51100000000E-03 0. -1.
        -11    1    3    3    0    0 -0.56997996959E+01  0.21730595837E+01 -0.11057158014E+02  0.12628168835E+02  0.51100000000E-03 0.  1.
        -12    1    3    3    0    0 -0.16822179565E+02  0.60492265447E+01 -0.15217902875E+02  0.23476870213E+02  0.00000000000E+00 0.  1.
</event>
<event>
 7    1  0.4102844E-008  0.4614232E+02  0.7816164E-02  0.1320468E+00
        -11   -1    0    0    0    0  0.00000000000E+00  0.00000000000E+00  0.45593999997E+02  0.45594000000E+02  0.51100000000E-03 0.  1.
         11   -1    0    0    0    0 -0.00000000000E+00 -0.00000000000E+00 -0.45593999997E+02  0.45594000000E+02  0.51100000000E-03 0. -1.
    9900012    2    1    2    0    0  0.32797957306E+02  0.30877143285E+02 -0.97340228790E-01  0.46142318120E+02  0.10000003274E+02 0.  0.
        -12    1    1    2    0    0 -0.32797957306E+02 -0.30877143285E+02  0.97340228790E-01  0.45045681880E+02  0.00000000000E+00 0.  1.
         11    1    3    3    0    0  0.11009641709E+02  0.71331404916E+01 -0.14888278361E+01  0.13202670654E+02  0.51100000000E-03 0. -1.
        -11    1    3    3    0    0  0.12950966676E+02  0.15843925820E+02  0.38784897254E+01  0.20827870896E+02  0.51100000000E-03 0.  1.
        -12    1    3    3    0    0  0.88373489214E+01  0.79000769733E+01 -0.24870021181E+01  0.12111776570E+02  0.00000000000E+00 0.  1.
</event>
<event>
 7    1  0.4102844E-008  0.4614232E+02  0.7816164E-02  0.1320468E+00
        -11   -1    0    0    0    0  0.00000000000E+00  0.00000000000E+00  0.45593999997E+02  0.45594000000E+02  0.51100000000E-03 0.  1.
         11   -1    0    0    0    0 -0.00000000000E+00 -0.00000000000E+00 -0.45593999997E+02  0.45594000000E+02  0.51100000000E-03 0. -1.
    9900012    2    1    2    0    0 -0.12246750545E+02 -0.28752710788E+02 -0.32440904388E+02  0.46142317032E+02  0.99999933513E+01 0.  0.
        -12    1    1    2    0    0  0.12246750545E+02  0.28752710788E+02  0.32440904388E+02  0.45045682968E+02  0.00000000000E+00 0.  1.
         11    1    3    3    0    0 -0.22268577342E+01 -0.13359314651E+02 -0.12575767932E+02  0.18481886339E+02  0.51100000000E-03 0. -1.
        -11    1    3    3    0    0 -0.55328509434E+01 -0.44710393120E+01 -0.50926263411E+01  0.87485699061E+01  0.51100000000E-03 0.  1.
         12    1    3    3    0    0 -0.44870418670E+01 -0.10922356825E+02 -0.14772510115E+02  0.18911860787E+02  0.00000000000E+00 0. -1.
</event>
<event>
 7    1  0.4102844E-008  0.4614232E+02  0.7816164E-02  0.1320468E+00
        -11   -1    0    0    0    0  0.00000000000E+00  0.00000000000E+00  0.45593999997E+02  0.45594000000E+02  0.51100000000E-03 0.  1.
         11   -1    0    0    0    0 -0.00000000000E+00 -0.00000000000E+00 -0.45593999997E+02  0.45594000000E+02  0.51100000000E-03 0. -1.
    9900012    2    1    2    0    0 -0.97492193458E+01  0.36638000170E+01 -0.43825138241E+02  0.46142318184E+02  0.10000003857E+02 0.  0.
        -12    1    1    2    0    0  0.97492193458E+01 -0.36638000170E+01  0.43825138241E+02  0.45045681816E+02  0.00000000000E+00 0.  1.
         11    1    3    3    0    0 -0.11286452342E+00 -0.95251574755E+00 -0.12443190649E+01  0.15710998843E+01  0.51100000000E-03 0. -1.
        -11    1    3    3    0    0 -0.56491414592E+01  0.53547837224E+01 -0.17341981238E+02  0.19008703834E+02  0.51100000000E-03 0.  1.
         12    1    3    3    0    0 -0.39872133632E+01 -0.73846795788E+00 -0.25238837938E+02  0.25562514465E+02  0.00000000000E+00 0. -1.
</event>
<event>
 7    1  0.4102844E-008  0.4614232E+02  0.7816164E-02  0.1320468E+00
        -11   -1    0    0    0    0  0.00000000000E+00  0.00000000000E+00  0.45593999997E+02  0.45594000000E+02  0.51100000000E-03 0. -1.
         11   -1    0    0    0    0 -0.00000000000E+00 -0.00000000000E+00 -0.45593999997E+02  0.45594000000E+02  0.51100000000E-03 0.  1.
    9900012    2    1    2    0    0 -0.28897385543E+02 -0.25865585136E+02 -0.22913446999E+02  0.46142318309E+02  0.10000004996E+02 0.  0.
        -12    1    1    2    0    0  0.28897385543E+02  0.25865585136E+02  0.22913446999E+02  0.45045681691E+02  0.00000000000E+00 0.  1.
         11    1    3    3    0    0 -0.14570677075E+02 -0.10082487732E+02 -0.87793792118E+01  0.19774698199E+02  0.51100000000E-03 0. -1.
        -11    1    3    3    0    0  0.18064613658E-01 -0.96753331780E+00 -0.25211379888E+01  0.27004784893E+01  0.51100000000E-03 0.  1.
         12    1    3    3    0    0 -0.14344773082E+02 -0.14815564087E+02 -0.11612929798E+02  0.23667141620E+02  0.00000000000E+00 0. -1.
</event>
<event>
 7    1  0.4102844E-008  0.4614232E+02  0.7816164E-02  0.1320468E+00
        -11   -1    0    0    0    0  0.00000000000E+00  0.00000000000E+00  0.45593999997E+02  0.45594000000E+02  0.51100000000E-03 0. -1.
         11   -1    0    0    0    0 -0.00000000000E+00 -0.00000000000E+00 -0.45593999997E+02  0.45594000000E+02  0.51100000000E-03 0.  1.
    9900012    2    1    2    0    0 -0.11051976463E+02  0.31027978758E+02  0.30728355311E+02  0.46142317969E+02  0.10000001892E+02 0.  0.
        -12    1    1    2    0    0  0.11051976463E+02 -0.31027978758E+02 -0.30728355311E+02  0.45045682031E+02  0.00000000000E+00 0.  1.
         11    1    3    3    0    0 -0.31088321792E+01  0.21393804269E+02  0.19265326235E+02  0.28957080202E+02  0.51100000000E-03 0. -1.
        -11    1    3    3    0    0 -0.38383375832E+01  0.35897652070E+01  0.64709680557E+01  0.83362268133E+01  0.51100000000E-03 0.  1.
        -12    1    3    3    0    0 -0.41048067010E+01  0.60444092814E+01  0.49920610209E+01  0.88490109532E+01  0.00000000000E+00 0.  1.
</event>
<event>
 7    1  0.4102844E-008  0.4614232E+02  0.7816164E-02  0.1320468E+00
        -11   -1    0    0    0    0  0.00000000000E+00  0.00000000000E+00  0.45593999997E+02  0.45594000000E+02  0.51100000000E-03 0.  1.
         11   -1    0    0    0    0 -0.00000000000E+00 -0.00000000000E+00 -0.45593999997E+02  0.45594000000E+02  0.51100000000E-03 0. -1.
    9900012    2    1    2    0    0  0.25576555530E+02  0.21037692447E+02 -0.30534714607E+02  0.46142317716E+02  0.99999995900E+01 0.  0.
        -12    1    1    2    0    0 -0.25576555530E+02 -0.21037692447E+02  0.30534714607E+02  0.45045682284E+02  0.00000000000E+00 0.  1.
         11    1    3    3    0    0  0.74096698473E+01  0.61751963218E+01 -0.89292653791E+01  0.13144125583E+02  0.51100000000E-03 0. -1.
        -11    1    3    3    0    0 -0.47473828313E-01 -0.57691795330E+00 -0.20638458957E+01  0.21434897321E+01  0.51100000000E-03 0.  1.
        -12    1    3    3    0    0  0.18214359511E+02  0.15439414078E+02 -0.19541603332E+02  0.30854702402E+02  0.00000000000E+00 0.  1.
</event>
<event>
 7    1  0.4102844E-008  0.4614232E+02  0.7816164E-02  0.1320468E+00
        -11   -1    0    0    0    0  0.00000000000E+00  0.00000000000E+00  0.45593999997E+02  0.45594000000E+02  0.51100000000E-03 0. -1.
         11   -1    0    0    0    0 -0.00000000000E+00 -0.00000000000E+00 -0.45593999997E+02  0.45594000000E+02  0.51100000000E-03 0.  1.
    9900012    2    1    2    0    0  0.42201852244E+01 -0.44455828583E+02  0.59146300725E+01  0.46142317551E+02  0.99999980883E+01 0.  0.
        -12    1    1    2    0    0 -0.42201852244E+01  0.44455828583E+02 -0.59146300725E+01  0.45045682449E+02  0.00000000000E+00 0.  1.
         11    1    3    3    0    0  0.55659117024E+01 -0.36196561072E+02  0.49092552282E+01  0.36949576367E+02  0.51100000000E-03 0. -1.
        -11    1    3    3    0    0 -0.25136621253E+01 -0.53178096776E+01  0.12677395065E+01  0.60170392025E+01  0.51100000000E-03 0.  1.
         12    1    3    3    0    0  0.11679356473E+01 -0.29414578333E+01 -0.26236466224E+00  0.31757019818E+01  0.00000000000E+00 0. -1.
</event>
<event>
 7    1  0.4102844E-008  0.4614232E+02  0.7816164E-02  0.1320468E+00
        -11   -1    0    0    0    0  0.00000000000E+00  0.00000000000E+00  0.45593999997E+02  0.45594000000E+02  0.51100000000E-03 0. -1.
         11   -1    0    0    0    0 -0.00000000000E+00 -0.00000000000E+00 -0.45593999997E+02  0.45594000000E+02  0.51100000000E-03 0.  1.
    9900012    2    1    2    0    0  0.27104344491E+02 -0.35772844020E+02 -0.38433747134E+01  0.46142318867E+02  0.10000010081E+02 0.  0.
        -12    1    1    2    0    0 -0.27104344491E+02  0.35772844020E+02  0.38433747134E+01  0.45045681133E+02  0.00000000000E+00 0.  1.
         11    1    3    3    0    0  0.48658198021E+01 -0.10603169040E+02 -0.13987325388E+01  0.11749887192E+02  0.51100000000E-03 0.  1.
        -11    1    3    3    0    0  0.15217031714E+01 -0.44244811339E+01  0.12487644638E+01  0.48426260225E+01  0.51100000000E-03 0. -1.
        -12    1    3    3    0    0  0.20716821517E+02 -0.20745193846E+02 -0.36934066384E+01  0.29549805653E+02  0.00000000000E+00 0.  1.
</event>
<event>
 7    1  0.4102844E-008  0.4614232E+02  0.7816164E-02  0.1320468E+00
        -11   -1    0    0    0    0  0.00000000000E+00  0.00000000000E+00  0.45593999997E+02  0.45594000000E+02  0.51100000000E-03 0.  1.
         11   -1    0    0    0    0 -0.00000000000E+00 -0.00000000000E+00 -0.45593999997E+02  0.45594000000E+02  0.51100000000E-03 0. -1.
    9900012    2    1    2    0    0 -0.25198528547E+01 -0.19170450622E+02 -0.40684858019E+02  0.46142317549E+02  0.99999980633E+01 0.  0.
        -12    1    1    2    0    0  0.25198528547E+01  0.19170450622E+02  0.40684858019E+02  0.45045682451E+02  0.00000000000E+00 0.  1.
         11    1    3    3    0    0 -0.12084812313E+01 -0.63744252101E+01 -0.22845693856E+02  0.23749093702E+02  0.51100000000E-03 0. -1.
        -11    1    3    3    0    0  0.11210453317E+01 -0.16249432957E+01 -0.38489344466E+01  0.43256768240E+01  0.51100000000E-03 0.  1.
        -12    1    3    3    0    0 -0.24324169552E+01 -0.11171082117E+02 -0.13990229716E+02  0.18067547022E+02  0.00000000000E+00 0.  1.
</event>
<event>
 7    1  0.4102844E-008  0.4614232E+02  0.7816164E-02  0.1320468E+00
        -11   -1    0    0    0    0  0.00000000000E+00  0.00000000000E+00  0.45593999997E+02  0.45594000000E+02  0.51100000000E-03 0. -1.
         11   -1    0    0    0    0 -0.00000000000E+00 -0.00000000000E+00 -0.45593999997E+02  0.45594000000E+02  0.51100000000E-03 0.  1.
    9900012    2    1    2    0    0 -0.10246951073E+02 -0.32849335662E+02  0.29069480916E+02  0.46142316739E+02  0.99999906805E+01 0.  0.
        -12    1    1    2    0    0  0.10246951073E+02  0.32849335662E+02 -0.29069480916E+02  0.45045683261E+02  0.00000000000E+00 0.  1.
         11    1    3    3    0    0  0.77517775583E+00 -0.52090890263E+01  0.35807378621E+01  0.63684529468E+01  0.51100000000E-03 0. -1.
        -11    1    3    3    0    0 -0.55076251640E+01 -0.18084786913E+02  0.19743856486E+02  0.27335202978E+02  0.51100000000E-03 0.  1.
         12    1    3    3    0    0 -0.55145036645E+01 -0.95554597232E+01  0.57448865674E+01  0.12438660815E+02  0.00000000000E+00 0. -1.
</event>
<event>
 7    1  0.4102844E-008  0.4614232E+02  0.7816164E-02  0.1320468E+00
        -11   -1    0    0    0    0  0.00000000000E+00  0.00000000000E+00  0.45593999997E+02  0.45594000000E+02  0.51100000000E-03 0.  1.
         11   -1    0    0    0    0 -0.00000000000E+00 -0.00000000000E+00 -0.45593999997E+02  0.45594000000E+02  0.51100000000E-03 0. -1.
    9900012    2    1    2    0    0 -0.29228452685E+02  0.27413605869E+02 -0.20574382237E+02  0.46142318325E+02  0.10000005143E+02 0.  0.
        -12    1    1    2    0    0  0.29228452685E+02 -0.27413605869E+02  0.20574382237E+02  0.45045681675E+02  0.00000000000E+00 0.  1.
         11    1    3    3    0    0 -0.96143161204E+01  0.87333877524E+01 -0.40235691656E+01  0.13597655871E+02  0.51100000000E-03 0. -1.
        -11    1    3    3    0    0 -0.16498809556E+02  0.17723081743E+02 -0.16470301299E+02  0.29284623412E+02  0.51100000000E-03 0.  1.
        -12    1    3    3    0    0 -0.31153270091E+01  0.95713637391E+00 -0.80511772379E-01  0.32600390423E+01  0.00000000000E+00 0.  1.
</event>
<event>
 7    1  0.4102844E-008  0.4614232E+02  0.7816164E-02  0.1320468E+00
        -11   -1    0    0    0    0  0.00000000000E+00  0.00000000000E+00  0.45593999997E+02  0.45594000000E+02  0.51100000000E-03 0.  1.
         11   -1    0    0    0    0 -0.00000000000E+00 -0.00000000000E+00 -0.45593999997E+02  0.45594000000E+02  0.51100000000E-03 0. -1.
    9900012    2    1    2    0    0 -0.44086896574E+02  0.92395236682E+01  0.30037887915E+00  0.46142317914E+02  0.10000001396E+02 0.  0.
        -12    1    1    2    0    0  0.44086896574E+02 -0.92395236682E+01 -0.30037887915E+00  0.45045682086E+02  0.00000000000E+00 0.  1.
         11    1    3    3    0    0 -0.16505372878E+02 -0.54267750752E+00  0.24454377408E+01  0.16694370270E+02  0.51100000000E-03 0.  1.
        -11    1    3    3    0    0 -0.17804741766E+02  0.60374654962E+01 -0.21285902834E+00  0.18801732054E+02  0.51100000000E-03 0. -1.
        -12    1    3    3    0    0 -0.97767819296E+01  0.37447356794E+01 -0.19321998333E+01  0.10646215591E+02  0.00000000000E+00 0.  1.
</event>
<event>
 7    1  0.4102844E-008  0.4614232E+02  0.7816164E-02  0.1320468E+00
        -11   -1    0    0    0    0  0.00000000000E+00  0.00000000000E+00  0.45593999997E+02  0.45594000000E+02  0.51100000000E-03 0.  1.
         11   -1    0    0    0    0 -0.00000000000E+00 -0.00000000000E+00 -0.45593999997E+02  0.45594000000E+02  0.51100000000E-03 0. -1.
    9900012    2    1    2    0    0  0.70993281028E+01 -0.39314213759E+02  0.20811187942E+02  0.46142318669E+02  0.10000008278E+02 0.  0.
        -12    1    1    2    0    0 -0.70993281028E+01  0.39314213759E+02 -0.20811187942E+02  0.45045681331E+02  0.00000000000E+00 0.  1.
         11    1    3    3    0    0 -0.10352460299E+01 -0.96958059703E+01  0.36242956474E+01  0.10402687487E+02  0.51100000000E-03 0. -1.
        -11    1    3    3    0    0  0.24951860501E+01 -0.14898902246E+02  0.11487659340E+02  0.18978133706E+02  0.51100000000E-03 0.  1.
         12    1    3    3    0    0  0.56393880826E+01 -0.14719505543E+02  0.56992329545E+01  0.16761497476E+02  0.00000000000E+00 0. -1.
</event>
<event>
 7    1  0.4102844E-008  0.4614232E+02  0.7816164E-02  0.1320468E+00
        -11   -1    0    0    0    0  0.00000000000E+00  0.00000000000E+00  0.45593999997E+02  0.45594000000E+02  0.51100000000E-03 0.  1.
         11   -1    0    0    0    0 -0.00000000000E+00 -0.00000000000E+00 -0.45593999997E+02  0.45594000000E+02  0.51100000000E-03 0. -1.
    9900012    2    1    2    0    0  0.17065180786E+02 -0.19266466928E+02 -0.36968855489E+02  0.46142318528E+02  0.10000006994E+02 0.  0.
        -12    1    1    2    0    0 -0.17065180786E+02  0.19266466928E+02  0.36968855489E+02  0.45045681472E+02  0.00000000000E+00 0.  1.
         11    1    3    3    0    0  0.12679187447E+02 -0.11999434117E+02 -0.26998738176E+02  0.32150895428E+02  0.51100000000E-03 0. -1.
        -11    1    3    3    0    0  0.35431749188E+01 -0.13786322178E+01 -0.31132355634E+01  0.49139547445E+01  0.51100000000E-03 0.  1.
         12    1    3    3    0    0  0.84281842060E+00 -0.58884005929E+01 -0.68568817489E+01  0.90774683558E+01  0.00000000000E+00 0. -1.
</event>
<event>
 7    1  0.4102844E-008  0.4614232E+02  0.7816164E-02  0.1320468E+00
        -11   -1    0    0    0    0  0.00000000000E+00  0.00000000000E+00  0.45593999997E+02  0.45594000000E+02  0.51100000000E-03 0.  1.
         11   -1    0    0    0    0 -0.00000000000E+00 -0.00000000000E+00 -0.45593999997E+02  0.45594000000E+02  0.51100000000E-03 0. -1.
    9900012    2    1    2    0    0 -0.27972327532E+02 -0.30886361970E+02 -0.17108331943E+02  0.46142317796E+02  0.10000000323E+02 0.  0.
        -12    1    1    2    0    0  0.27972327532E+02  0.30886361970E+02  0.17108331943E+02  0.45045682204E+02  0.00000000000E+00 0.  1.
         11    1    3    3    0    0 -0.64301894380E+01 -0.74062922738E+01 -0.59151853312E+01  0.11453816797E+02  0.51100000000E-03 0. -1.
        -11    1    3    3    0    0 -0.16351642381E+02 -0.21240449950E+02 -0.71632565419E+01  0.27746083817E+02  0.51100000000E-03 0.  1.
        -12    1    3    3    0    0 -0.51904957135E+01 -0.22396197455E+01 -0.40298900702E+01  0.69424171824E+01  0.00000000000E+00 0.  1.
</event>
<event>
 7    1  0.4102844E-008  0.4614232E+02  0.7816164E-02  0.1320468E+00
        -11   -1    0    0    0    0  0.00000000000E+00  0.00000000000E+00  0.45593999997E+02  0.45594000000E+02  0.51100000000E-03 0.  1.
         11   -1    0    0    0    0 -0.00000000000E+00 -0.00000000000E+00 -0.45593999997E+02  0.45594000000E+02  0.51100000000E-03 0. -1.
    9900012    2    1    2    0    0  0.35750105873E+02  0.22247004994E+02 -0.16003568559E+02  0.46142317546E+02  0.99999980344E+01 0.  0.
        -12    1    1    2    0    0 -0.35750105873E+02 -0.22247004994E+02  0.16003568559E+02  0.45045682454E+02  0.00000000000E+00 0.  1.
         11    1    3    3    0    0  0.14192193718E+02  0.96200518037E+01 -0.68126183695E+01  0.18449269051E+02  0.51100000000E-03 0. -1.
        -11    1    3    3    0    0  0.41979946862E+01  0.40500926475E+01  0.82764304868E+00  0.58916384067E+01  0.51100000000E-03 0.  1.
        -12    1    3    3    0    0  0.17359917470E+02  0.85768605426E+01 -0.10018593239E+02  0.21801410087E+02  0.00000000000E+00 0.  1.
</event>
<event>
 7    1  0.4102844E-008  0.4614232E+02  0.7816164E-02  0.1320468E+00
        -11   -1    0    0    0    0  0.00000000000E+00  0.00000000000E+00  0.45593999997E+02  0.45594000000E+02  0.51100000000E-03 0.  1.
         11   -1    0    0    0    0 -0.00000000000E+00 -0.00000000000E+00 -0.45593999997E+02  0.45594000000E+02  0.51100000000E-03 0. -1.
    9900012    2    1    2    0    0  0.39614626409E+02  0.25547490990E+01 -0.21290093954E+02  0.46142317975E+02  0.10000001953E+02 0.  0.
        -12    1    1    2    0    0 -0.39614626409E+02 -0.25547490990E+01  0.21290093954E+02  0.45045682025E+02  0.00000000000E+00 0.  1.
         11    1    3    3    0    0  0.23365672013E+02 -0.31253831305E+01 -0.12358236367E+02  0.26616698794E+02  0.51100000000E-03 0. -1.
        -11    1    3    3    0    0  0.46548505601E+01  0.11273894798E+01 -0.35249784293E+01  0.59467734078E+01  0.51100000000E-03 0.  1.
         12    1    3    3    0    0  0.11594103836E+02  0.45527427498E+01 -0.54068791580E+01  0.13578845773E+02  0.00000000000E+00 0. -1.
</event>
<event>
 7    1  0.4102844E-008  0.4614232E+02  0.7816164E-02  0.1320468E+00
        -11   -1    0    0    0    0  0.00000000000E+00  0.00000000000E+00  0.45593999997E+02  0.45594000000E+02  0.51100000000E-03 0.  1.
         11   -1    0    0    0    0 -0.00000000000E+00 -0.00000000000E+00 -0.45593999997E+02  0.45594000000E+02  0.51100000000E-03 0. -1.
    9900012    2    1    2    0    0  0.28931149590E+02 -0.13715598145E+02 -0.31685714819E+02  0.46142316826E+02  0.99999914685E+01 0.  0.
        -12    1    1    2    0    0 -0.28931149590E+02  0.13715598145E+02  0.31685714819E+02  0.45045683174E+02  0.00000000000E+00 0.  1.
         11    1    3    3    0    0  0.36225868778E+01 -0.15777997359E+01 -0.22380774992E+01  0.45410988590E+01  0.51100000000E-03 0. -1.
        -11    1    3    3    0    0  0.11580308472E+02 -0.10071126276E+02 -0.13320020644E+02  0.20321271589E+02  0.51100000000E-03 0.  1.
        -12    1    3    3    0    0  0.13728254241E+02 -0.20666721328E+01 -0.16127616676E+02  0.21279946378E+02  0.00000000000E+00 0.  1.
</event>
<event>
 7    1  0.4102844E-008  0.4614232E+02  0.7816164E-02  0.1320468E+00
        -11   -1    0    0    0    0  0.00000000000E+00  0.00000000000E+00  0.45593999997E+02  0.45594000000E+02  0.51100000000E-03 0. -1.
         11   -1    0    0    0    0 -0.00000000000E+00 -0.00000000000E+00 -0.45593999997E+02  0.45594000000E+02  0.51100000000E-03 0.  1.
    9900012    2    1    2    0    0  0.15271332634E+02 -0.16136370145E+02  0.39185677908E+02  0.46142318797E+02  0.10000009448E+02 0.  0.
        -12    1    1    2    0    0 -0.15271332634E+02  0.16136370145E+02 -0.39185677908E+02  0.45045681203E+02  0.00000000000E+00 0.  1.
         11    1    3    3    0    0  0.26605237014E+01 -0.18627153511E+01  0.14912184003E+01  0.35737693579E+01  0.51100000000E-03 0.  1.
        -11    1    3    3    0    0  0.86626791528E+01 -0.62579421317E+01  0.17836038583E+02  0.20792501591E+02  0.51100000000E-03 0. -1.
         12    1    3    3    0    0  0.39481297801E+01 -0.80157126620E+01  0.19858420926E+02  0.21776047849E+02  0.00000000000E+00 0. -1.
</event>
<event>
 7    1  0.4102844E-008  0.4614232E+02  0.7816164E-02  0.1320468E+00
        -11   -1    0    0    0    0  0.00000000000E+00  0.00000000000E+00  0.45593999997E+02  0.45594000000E+02  0.51100000000E-03 0. -1.
         11   -1    0    0    0    0 -0.00000000000E+00 -0.00000000000E+00 -0.45593999997E+02  0.45594000000E+02  0.51100000000E-03 0.  1.
    9900012    2    1    2    0    0 -0.67220041401E+01 -0.26525139592E+01  0.44462256525E+02  0.46142318461E+02  0.10000006384E+02 0.  0.
        -12    1    1    2    0    0  0.67220041401E+01  0.26525139592E+01 -0.44462256525E+02  0.45045681539E+02  0.00000000000E+00 0.  1.
         11    1    3    3    0    0 -0.44922283085E+01 -0.11815871881E+01  0.23059555910E+02  0.23522741815E+02  0.51100000000E-03 0. -1.
        -11    1    3    3    0    0  0.35094029356E+00  0.22036729554E+01  0.11925047051E+02  0.12132027078E+02  0.51100000000E-03 0.  1.
         12    1    3    3    0    0 -0.25807161252E+01 -0.36745997265E+01  0.94776535647E+01  0.10487549569E+02  0.00000000000E+00 0. -1.
</event>
<event>
 7    1  0.4102844E-008  0.4614232E+02  0.7816164E-02  0.1320468E+00
        -11   -1    0    0    0    0  0.00000000000E+00  0.00000000000E+00  0.45593999997E+02  0.45594000000E+02  0.51100000000E-03 0.  1.
         11   -1    0    0    0    0 -0.00000000000E+00 -0.00000000000E+00 -0.45593999997E+02  0.45594000000E+02  0.51100000000E-03 0. -1.
    9900012    2    1    2    0    0  0.13824768755E+02 -0.38820973036E+02  0.18191239120E+02  0.46142319194E+02  0.10000013063E+02 0.  0.
        -12    1    1    2    0    0 -0.13824768755E+02  0.38820973036E+02 -0.18191239120E+02  0.45045680806E+02  0.00000000000E+00 0.  1.
         11    1    3    3    0    0  0.62353973903E+01 -0.22887039830E+02  0.95298046409E+01  0.25563918900E+02  0.51100000000E-03 0. -1.
        -11    1    3    3    0    0  0.16315053701E+01 -0.32884925851E+01  0.48626851289E+01  0.60927580108E+01  0.51100000000E-03 0.  1.
        -12    1    3    3    0    0  0.59578659951E+01 -0.12645440621E+02  0.37987493498E+01  0.14485642283E+02  0.00000000000E+00 0.  1.
</event>
<event>
 7    1  0.4102844E-008  0.4614232E+02  0.7816164E-02  0.1320468E+00
        -11   -1    0    0    0    0  0.00000000000E+00  0.00000000000E+00  0.45593999997E+02  0.45594000000E+02  0.51100000000E-03 0.  1.
         11   -1    0    0    0    0 -0.00000000000E+00 -0.00000000000E+00 -0.45593999997E+02  0.45594000000E+02  0.51100000000E-03 0. -1.
    9900012    2    1    2    0    0 -0.21295526961E+01  0.42587235731E+02 -0.14522588114E+02  0.46142320879E+02  0.10000028434E+02 0.  0.
        -12    1    1    2    0    0  0.21295526961E+01 -0.42587235731E+02  0.14522588114E+02  0.45045679121E+02  0.00000000000E+00 0.  1.
         11    1    3    3    0    0 -0.11255703710E+01  0.28581256533E+02 -0.78776116923E+01  0.29668365306E+02  0.51100000000E-03 0. -1.
        -11    1    3    3    0    0  0.83352005082E+00  0.10139035720E+02 -0.24160662269E+01  0.10456202814E+02  0.51100000000E-03 0.  1.
        -12    1    3    3    0    0 -0.18375023760E+01  0.38669434781E+01 -0.42289101946E+01  0.60177527599E+01  0.00000000000E+00 0.  1.
</event>
<event>
 7    1  0.4102844E-008  0.4614232E+02  0.7816164E-02  0.1320468E+00
        -11   -1    0    0    0    0  0.00000000000E+00  0.00000000000E+00  0.45593999997E+02  0.45594000000E+02  0.51100000000E-03 0.  1.
         11   -1    0    0    0    0 -0.00000000000E+00 -0.00000000000E+00 -0.45593999997E+02  0.45594000000E+02  0.51100000000E-03 0. -1.
    9900012    2    1    2    0    0 -0.26158501195E+02 -0.45834783202E+01 -0.36384584714E+02  0.46142318042E+02  0.10000002557E+02 0.  0.
        -12    1    1    2    0    0  0.26158501195E+02  0.45834783202E+01  0.36384584714E+02  0.45045681958E+02  0.00000000000E+00 0.  1.
         11    1    3    3    0    0 -0.11798168599E+02 -0.63394526506E+01 -0.20514744557E+02  0.24499799728E+02  0.51100000000E-03 0. -1.
        -11    1    3    3    0    0 -0.43833977611E+01  0.17936348081E+01 -0.49285911573E+01  0.68353721782E+01  0.51100000000E-03 0.  1.
        -12    1    3    3    0    0 -0.99769348341E+01 -0.37660477682E-01 -0.10941249000E+02  0.14807146136E+02  0.00000000000E+00 0.  1.
</event>
<event>
 7    1  0.4102844E-008  0.4614232E+02  0.7816164E-02  0.1320468E+00
        -11   -1    0    0    0    0  0.00000000000E+00  0.00000000000E+00  0.45593999997E+02  0.45594000000E+02  0.51100000000E-03 0.  1.
         11   -1    0    0    0    0 -0.00000000000E+00 -0.00000000000E+00 -0.45593999997E+02  0.45594000000E+02  0.51100000000E-03 0. -1.
    9900012    2    1    2    0    0  0.19005984349E+01 -0.13821386475E+02 -0.42830715244E+02  0.46142321331E+02  0.10000032550E+02 0.  0.
        -12    1    1    2    0    0 -0.19005984349E+01  0.13821386475E+02  0.42830715244E+02  0.45045678669E+02  0.00000000000E+00 0.  1.
         11    1    3    3    0    0 -0.29459825828E+00 -0.21321930004E+01 -0.63486397985E+01  0.67036007247E+01  0.51100000000E-03 0. -1.
        -11    1    3    3    0    0  0.37710298511E+01 -0.93051560277E+01 -0.34574400370E+02  0.36002718732E+02  0.51100000000E-03 0.  1.
        -12    1    3    3    0    0 -0.15758331579E+01 -0.23840374467E+01 -0.19076750748E+01  0.34360018742E+01  0.00000000000E+00 0.  1.
</event>
<event>
 7    1  0.4102844E-008  0.4614232E+02  0.7816164E-02  0.1320468E+00
        -11   -1    0    0    0    0  0.00000000000E+00  0.00000000000E+00  0.45593999997E+02  0.45594000000E+02  0.51100000000E-03 0.  1.
         11   -1    0    0    0    0 -0.00000000000E+00 -0.00000000000E+00 -0.45593999997E+02  0.45594000000E+02  0.51100000000E-03 0. -1.
    9900012    2    1    2    0    0 -0.50540836073E+01 -0.85196562993E+01 -0.43942977094E+02  0.46142317183E+02  0.99999947239E+01 0.  0.
        -12    1    1    2    0    0  0.50540836073E+01  0.85196562993E+01  0.43942977094E+02  0.45045682817E+02  0.00000000000E+00 0.  1.
         11    1    3    3    0    0 -0.33015128281E+01 -0.43603901439E+01 -0.16838008350E+02  0.17703997136E+02  0.51100000000E-03 0. -1.
        -11    1    3    3    0    0 -0.27297566989E+01  0.13727855000E+00 -0.35791032506E+01  0.45033762195E+01  0.51100000000E-03 0.  1.
         12    1    3    3    0    0  0.97718591970E+00 -0.42965447054E+01 -0.23525865494E+02  0.23934943827E+02  0.00000000000E+00 0. -1.
</event>
<event>
 7    1  0.4102844E-008  0.4614232E+02  0.7816164E-02  0.1320468E+00
        -11   -1    0    0    0    0  0.00000000000E+00  0.00000000000E+00  0.45593999997E+02  0.45594000000E+02  0.51100000000E-03 0. -1.
         11   -1    0    0    0    0 -0.00000000000E+00 -0.00000000000E+00 -0.45593999997E+02  0.45594000000E+02  0.51100000000E-03 0.  1.
    9900012    2    1    2    0    0  0.41273858223E+02 -0.15574050085E+02 -0.91121415699E+01  0.46142317269E+02  0.99999955154E+01 0.  0.
        -12    1    1    2    0    0 -0.41273858223E+02  0.15574050085E+02  0.91121415699E+01  0.45045682731E+02  0.00000000000E+00 0.  1.
         11    1    3    3    0    0  0.88302166017E+01 -0.64012070922E+01 -0.21839709703E+01  0.11122855161E+02  0.51100000000E-03 0. -1.
        -11    1    3    3    0    0  0.23252358545E+01 -0.84886084307E-01 -0.22080097528E+01  0.32076837058E+01  0.51100000000E-03 0.  1.
         12    1    3    3    0    0  0.30118405767E+02 -0.90879569081E+01 -0.47201608468E+01  0.31811778403E+02  0.00000000000E+00 0. -1.
</event>
<event>
 7    1  0.4102844E-008  0.4614232E+02  0.7816164E-02  0.1320468E+00
        -11   -1    0    0    0    0  0.00000000000E+00  0.00000000000E+00  0.45593999997E+02  0.45594000000E+02  0.51100000000E-03 0. -1.
         11   -1    0    0    0    0 -0.00000000000E+00 -0.00000000000E+00 -0.45593999997E+02  0.45594000000E+02  0.51100000000E-03 0.  1.
    9900012    2    1    2    0    0  0.10211113322E+02  0.67789502686E+01  0.43346193079E+02  0.46142318115E+02  0.10000003231E+02 0.  0.
        -12    1    1    2    0    0 -0.10211113322E+02 -0.67789502686E+01 -0.43346193079E+02  0.45045681885E+02  0.00000000000E+00 0.  1.
         11    1    3    3    0    0  0.64753735720E+01  0.47814513302E+00  0.13885838560E+02  0.15328913805E+02  0.51100000000E-03 0. -1.
        -11    1    3    3    0    0  0.21452466984E+01  0.16871131547E+01  0.19832060210E+02  0.20018967172E+02  0.51100000000E-03 0.  1.
         12    1    3    3    0    0  0.15904930515E+01  0.46136919809E+01  0.96282943090E+01  0.10794437139E+02  0.00000000000E+00 0. -1.
</event>
<event>
 7    1  0.4102844E-008  0.4614232E+02  0.7816164E-02  0.1320468E+00
        -11   -1    0    0    0    0  0.00000000000E+00  0.00000000000E+00  0.45593999997E+02  0.45594000000E+02  0.51100000000E-03 0. -1.
         11   -1    0    0    0    0 -0.00000000000E+00 -0.00000000000E+00 -0.45593999997E+02  0.45594000000E+02  0.51100000000E-03 0.  1.
    9900012    2    1    2    0    0 -0.39935255496E+02 -0.37495447048E+01  0.20499506610E+02  0.46142317762E+02  0.10000000013E+02 0.  0.
        -12    1    1    2    0    0  0.39935255496E+02  0.37495447048E+01 -0.20499506610E+02  0.45045682238E+02  0.00000000000E+00 0.  1.
         11    1    3    3    0    0 -0.32745790425E+01 -0.19037747548E+01  0.11763513206E+00  0.37895995182E+01  0.51100000000E-03 0. -1.
        -11    1    3    3    0    0 -0.11556636534E+02 -0.66672050946E-01  0.36037239917E+01  0.12105664790E+02  0.51100000000E-03 0.  1.
         12    1    3    3    0    0 -0.25104039919E+02 -0.17790978990E+01  0.16778147486E+02  0.30247053454E+02  0.00000000000E+00 0. -1.
</event>
<event>
 7    1  0.4102844E-008  0.4614232E+02  0.7816164E-02  0.1320468E+00
        -11   -1    0    0    0    0  0.00000000000E+00  0.00000000000E+00  0.45593999997E+02  0.45594000000E+02  0.51100000000E-03 0.  1.
         11   -1    0    0    0    0 -0.00000000000E+00 -0.00000000000E+00 -0.45593999997E+02  0.45594000000E+02  0.51100000000E-03 0. -1.
    9900012    2    1    2    0    0  0.16966880294E+02  0.23575124591E+02 -0.34430391006E+02  0.46142319284E+02  0.10000013885E+02 0.  0.
        -12    1    1    2    0    0 -0.16966880294E+02 -0.23575124591E+02  0.34430391006E+02  0.45045680716E+02  0.00000000000E+00 0.  1.
         11    1    3    3    0    0  0.55209252955E+01  0.15816756532E+02 -0.18360471061E+02  0.24854723920E+02  0.51100000000E-03 0. -1.
        -11    1    3    3    0    0  0.66630286453E+00  0.25501749652E+00 -0.15648452321E+01  0.17198064694E+01  0.51100000000E-03 0.  1.
         12    1    3    3    0    0  0.10779652133E+02  0.75033505627E+01 -0.14505074712E+02  0.19567788894E+02  0.00000000000E+00 0. -1.
</event>
<event>
 7    1  0.4102844E-008  0.4614232E+02  0.7816164E-02  0.1320468E+00
        -11   -1    0    0    0    0  0.00000000000E+00  0.00000000000E+00  0.45593999997E+02  0.45594000000E+02  0.51100000000E-03 0.  1.
         11   -1    0    0    0    0 -0.00000000000E+00 -0.00000000000E+00 -0.45593999997E+02  0.45594000000E+02  0.51100000000E-03 0. -1.
    9900012    2    1    2    0    0  0.10168572729E+02 -0.43023946962E+02 -0.86402250893E+01  0.46142319040E+02  0.10000011665E+02 0.  0.
        -12    1    1    2    0    0 -0.10168572729E+02  0.43023946962E+02  0.86402250893E+01  0.45045680960E+02  0.00000000000E+00 0.  1.
         11    1    3    3    0    0  0.27394366997E+01 -0.35274696050E+01  0.73841844247E+00  0.45268993034E+01  0.51100000000E-03 0. -1.
        -11    1    3    3    0    0  0.16871895415E+01 -0.23281926142E+02 -0.52829657924E+01  0.23933332849E+02  0.51100000000E-03 0.  1.
         12    1    3    3    0    0  0.57419464879E+01 -0.16214551215E+02 -0.40956777394E+01  0.17682086888E+02  0.00000000000E+00 0. -1.
</event>
<event>
 7    1  0.4102844E-008  0.4614232E+02  0.7816164E-02  0.1320468E+00
        -11   -1    0    0    0    0  0.00000000000E+00  0.00000000000E+00  0.45593999997E+02  0.45594000000E+02  0.51100000000E-03 0.  1.
         11   -1    0    0    0    0 -0.00000000000E+00 -0.00000000000E+00 -0.45593999997E+02  0.45594000000E+02  0.51100000000E-03 0. -1.
    9900012    2    1    2    0    0 -0.18197405327E+02 -0.74949204128E+01 -0.40519057655E+02  0.46142318455E+02  0.10000006329E+02 0.  0.
        -12    1    1    2    0    0  0.18197405327E+02  0.74949204128E+01  0.40519057655E+02  0.45045681545E+02  0.00000000000E+00 0.  1.
         11    1    3    3    0    0 -0.75079871455E+00 -0.11416396814E+01 -0.21648005453E+01  0.25599612368E+01  0.51100000000E-03 0. -1.
        -11    1    3    3    0    0 -0.53292586763E+01 -0.38827596784E+01 -0.58858098214E+01  0.88385280604E+01  0.51100000000E-03 0.  1.
         12    1    3    3    0    0 -0.12117347936E+02 -0.24705210529E+01 -0.32468447288E+02  0.34743829158E+02  0.00000000000E+00 0. -1.
</event>
<event>
 7    1  0.4102844E-008  0.4614232E+02  0.7816164E-02  0.1320468E+00
        -11   -1    0    0    0    0  0.00000000000E+00  0.00000000000E+00  0.45593999997E+02  0.45594000000E+02  0.51100000000E-03 0. -1.
         11   -1    0    0    0    0 -0.00000000000E+00 -0.00000000000E+00 -0.45593999997E+02  0.45594000000E+02  0.51100000000E-03 0.  1.
    9900012    2    1    2    0    0  0.30809693476E+02  0.18546583474E+02  0.27127486331E+02  0.46142317796E+02  0.10000000314E+02 0.  0.
        -12    1    1    2    0    0 -0.30809693476E+02 -0.18546583474E+02 -0.27127486331E+02  0.45045682204E+02  0.00000000000E+00 0.  1.
         11    1    3    3    0    0  0.64992149450E+01  0.36250977088E+01  0.77362518932E+01  0.10734557369E+02  0.51100000000E-03 0. -1.
        -11    1    3    3    0    0  0.15784347722E+02  0.12288210083E+02  0.96915075889E+01  0.22227709276E+02  0.51100000000E-03 0.  1.
        -12    1    3    3    0    0  0.85261308085E+01  0.26332756830E+01  0.96997268484E+01  0.13180051150E+02  0.00000000000E+00 0.  1.
</event>
<event>
 7    1  0.4102844E-008  0.4614232E+02  0.7816164E-02  0.1320468E+00
        -11   -1    0    0    0    0  0.00000000000E+00  0.00000000000E+00  0.45593999997E+02  0.45594000000E+02  0.51100000000E-03 0. -1.
         11   -1    0    0    0    0 -0.00000000000E+00 -0.00000000000E+00 -0.45593999997E+02  0.45594000000E+02  0.51100000000E-03 0.  1.
    9900012    2    1    2    0    0 -0.29148371549E-01 -0.22641659253E+02  0.38941853678E+02  0.46142317063E+02  0.99999936335E+01 0.  0.
        -12    1    1    2    0    0  0.29148371549E-01  0.22641659253E+02 -0.38941853678E+02  0.45045682937E+02  0.00000000000E+00 0.  1.
         11    1    3    3    0    0  0.22196481826E+01 -0.12466691116E+02  0.21313293765E+02  0.24791162071E+02  0.51100000000E-03 0. -1.
        -11    1    3    3    0    0  0.98790194413E+00 -0.14676770251E+01  0.45590561090E+00  0.18269855742E+01  0.51100000000E-03 0.  1.
        -12    1    3    3    0    0 -0.32366984982E+01 -0.87072911124E+01  0.17172654302E+02  0.19524169418E+02  0.00000000000E+00 0.  1.
</event>
<event>
 7    1  0.4102844E-008  0.4614232E+02  0.7816164E-02  0.1320468E+00
        -11   -1    0    0    0    0  0.00000000000E+00  0.00000000000E+00  0.45593999997E+02  0.45594000000E+02  0.51100000000E-03 0.  1.
         11   -1    0    0    0    0 -0.00000000000E+00 -0.00000000000E+00 -0.45593999997E+02  0.45594000000E+02  0.51100000000E-03 0. -1.
    9900012    2    1    2    0    0  0.35536317100E+02  0.25828322932E+02  0.99589696202E+01  0.46142321246E+02  0.10000031781E+02 0.  0.
        -12    1    1    2    0    0 -0.35536317100E+02 -0.25828322932E+02 -0.99589696202E+01  0.45045678754E+02  0.00000000000E+00 0.  1.
         11    1    3    3    0    0  0.33252562282E+02  0.25852897590E+02  0.10343517787E+02  0.43371575629E+02  0.51100000000E-03 0. -1.
        -11    1    3    3    0    0  0.16046609676E+01  0.17328831538E+00  0.45117999257E+00  0.16758667333E+01  0.51100000000E-03 0.  1.
         12    1    3    3    0    0  0.67909385027E+00 -0.19786297312E+00 -0.83572815947E+00  0.10948788838E+01  0.00000000000E+00 0. -1.
</event>
<event>
 7    1  0.4102844E-008  0.4614232E+02  0.7816164E-02  0.1320468E+00
        -11   -1    0    0    0    0  0.00000000000E+00  0.00000000000E+00  0.45593999997E+02  0.45594000000E+02  0.51100000000E-03 0.  1.
         11   -1    0    0    0    0 -0.00000000000E+00 -0.00000000000E+00 -0.45593999997E+02  0.45594000000E+02  0.51100000000E-03 0. -1.
    9900012    2    1    2    0    0  0.54011456985E+01  0.41185616744E+02 -0.17426593067E+02  0.46142317107E+02  0.99999940313E+01 0.  0.
        -12    1    1    2    0    0 -0.54011456985E+01 -0.41185616744E+02  0.17426593067E+02  0.45045682893E+02  0.00000000000E+00 0.  1.
         11    1    3    3    0    0 -0.17987031240E+01  0.16097698108E+02 -0.78637048733E+01  0.18005806616E+02  0.51100000000E-03 0. -1.
        -11    1    3    3    0    0  0.33909860178E+00  0.13277259814E+01 -0.17046560583E+01  0.21871663589E+01  0.51100000000E-03 0.  1.
        -12    1    3    3    0    0  0.68607502207E+01  0.23760192654E+02 -0.78582321354E+01  0.25949344131E+02  0.00000000000E+00 0.  1.
</event>
<event>
 7    1  0.4102844E-008  0.4614232E+02  0.7816164E-02  0.1320468E+00
        -11   -1    0    0    0    0  0.00000000000E+00  0.00000000000E+00  0.45593999997E+02  0.45594000000E+02  0.51100000000E-03 0.  1.
         11   -1    0    0    0    0 -0.00000000000E+00 -0.00000000000E+00 -0.45593999997E+02  0.45594000000E+02  0.51100000000E-03 0. -1.
    9900012    2    1    2    0    0 -0.27751232103E+02 -0.30209664384E+02 -0.18610717984E+02  0.46142317307E+02  0.99999958563E+01 0.  0.
        -12    1    1    2    0    0  0.27751232103E+02  0.30209664384E+02  0.18610717984E+02  0.45045682693E+02  0.00000000000E+00 0.  1.
         11    1    3    3    0    0 -0.61509526429E+01 -0.33219306278E+01 -0.40386587585E+01  0.80734259357E+01  0.51100000000E-03 0. -1.
        -11    1    3    3    0    0 -0.14698142895E+02 -0.14464301080E+02 -0.60207528904E+01  0.21482571446E+02  0.51100000000E-03 0.  1.
        -12    1    3    3    0    0 -0.69021365649E+01 -0.12423432676E+02 -0.85513063353E+01  0.16586319925E+02  0.00000000000E+00 0.  1.
</event>
<event>
 7    1  0.4102844E-008  0.4614231E+02  0.7816164E-02  0.1320468E+00
        -11   -1    0    0    0    0  0.00000000000E+00  0.00000000000E+00  0.45593999997E+02  0.45594000000E+02  0.51100000000E-03 0. -1.
         11   -1    0    0    0    0 -0.00000000000E+00 -0.00000000000E+00 -0.45593999997E+02  0.45594000000E+02  0.51100000000E-03 0.  1.
    9900012    2    1    2    0    0  0.36852000135E+02  0.23784352307E+02  0.10263943424E+02  0.46142313601E+02  0.99999620634E+01 0.  0.
        -12    1    1    2    0    0 -0.36852000135E+02 -0.23784352307E+02 -0.10263943424E+02  0.45045686399E+02  0.00000000000E+00 0.  1.
         11    1    3    3    0    0  0.32511204603E+01  0.33274186590E+01  0.16390617313E+01  0.49323445540E+01  0.51100000000E-03 0. -1.
        -11    1    3    3    0    0  0.31803473395E+02  0.17577907877E+02  0.58077310770E+01  0.36799096536E+02  0.51100000000E-03 0.  1.
        -12    1    3    3    0    0  0.17974062795E+01  0.28790257702E+01  0.28171506154E+01  0.44108725111E+01  0.00000000000E+00 0.  1.
</event>
<event>
 7    1  0.4102844E-008  0.4614231E+02  0.7816164E-02  0.1320468E+00
        -11   -1    0    0    0    0  0.00000000000E+00  0.00000000000E+00  0.45593999997E+02  0.45594000000E+02  0.51100000000E-03 0.  1.
         11   -1    0    0    0    0 -0.00000000000E+00 -0.00000000000E+00 -0.45593999997E+02  0.45594000000E+02  0.51100000000E-03 0. -1.
    9900012    2    1    2    0    0 -0.16435982852E+02 -0.39211082264E+02 -0.14881642274E+02  0.46142314509E+02  0.99999703416E+01 0.  0.
        -12    1    1    2    0    0  0.16435982852E+02  0.39211082264E+02  0.14881642274E+02  0.45045685491E+02  0.00000000000E+00 0.  1.
         11    1    3    3    0    0 -0.12468198733E+01 -0.55224830002E+01 -0.12532740274E+01  0.57985407071E+01  0.51100000000E-03 0.  1.
        -11    1    3    3    0    0 -0.23115894409E+00  0.18480713183E+00 -0.12743434681E+01  0.13082582578E+01  0.51100000000E-03 0. -1.
         12    1    3    3    0    0 -0.14958004035E+02 -0.33873406396E+02 -0.12354024778E+02  0.39035515544E+02  0.00000000000E+00 0. -1.
</event>
<event>
 7    1  0.4102844E-008  0.4614232E+02  0.7816164E-02  0.1320468E+00
        -11   -1    0    0    0    0  0.00000000000E+00  0.00000000000E+00  0.45593999997E+02  0.45594000000E+02  0.51100000000E-03 0. -1.
         11   -1    0    0    0    0 -0.00000000000E+00 -0.00000000000E+00 -0.45593999997E+02  0.45594000000E+02  0.51100000000E-03 0.  1.
    9900012    2    1    2    0    0 -0.43199211696E+02  0.83480837714E+01  0.96566636781E+01  0.46142317108E+02  0.99999940422E+01 0.  0.
        -12    1    1    2    0    0  0.43199211696E+02 -0.83480837714E+01 -0.96566636781E+01  0.45045682892E+02  0.00000000000E+00 0.  1.
         11    1    3    3    0    0 -0.13407848213E+01  0.93640488460E+00  0.11737655860E+01  0.20130285534E+01  0.51100000000E-03 0. -1.
        -11    1    3    3    0    0 -0.23906402825E+02  0.47359382111E+01  0.89782817206E+01  0.25972191853E+02  0.51100000000E-03 0.  1.
        -12    1    3    3    0    0 -0.17952024050E+02  0.26757406757E+01 -0.49538362840E+00  0.18157096701E+02  0.00000000000E+00 0.  1.
</event>
<event>
 7    1  0.4102844E-008  0.4614232E+02  0.7816164E-02  0.1320468E+00
        -11   -1    0    0    0    0  0.00000000000E+00  0.00000000000E+00  0.45593999997E+02  0.45594000000E+02  0.51100000000E-03 0. -1.
         11   -1    0    0    0    0 -0.00000000000E+00 -0.00000000000E+00 -0.45593999997E+02  0.45594000000E+02  0.51100000000E-03 0.  1.
    9900012    2    1    2    0    0  0.39924384801E+02 -0.19632124477E+02  0.70524301538E+01  0.46142316696E+02  0.99999902919E+01 0.  0.
        -12    1    1    2    0    0 -0.39924384801E+02  0.19632124477E+02 -0.70524301538E+01  0.45045683304E+02  0.00000000000E+00 0.  1.
         11    1    3    3    0    0  0.32563764535E+01 -0.33351972748E+01 -0.18800687221E+01  0.50261503290E+01  0.51100000000E-03 0.  1.
        -11    1    3    3    0    0  0.18115208295E+02 -0.76479254288E+01  0.42377416677E+01  0.20114919578E+02  0.51100000000E-03 0. -1.
        -12    1    3    3    0    0  0.18552800052E+02 -0.86490017733E+01  0.46947572081E+01  0.21001246789E+02  0.00000000000E+00 0.  1.
</event>
<event>
 7    1  0.4102844E-008  0.4614232E+02  0.7816164E-02  0.1320468E+00
        -11   -1    0    0    0    0  0.00000000000E+00  0.00000000000E+00  0.45593999997E+02  0.45594000000E+02  0.51100000000E-03 0.  1.
         11   -1    0    0    0    0 -0.00000000000E+00 -0.00000000000E+00 -0.45593999997E+02  0.45594000000E+02  0.51100000000E-03 0. -1.
    9900012    2    1    2    0    0 -0.42485311794E+01 -0.91230022071E+01 -0.43907110460E+02  0.46142317239E+02  0.99999952429E+01 0.  0.
        -12    1    1    2    0    0  0.42485311794E+01  0.91230022071E+01  0.43907110460E+02  0.45045682761E+02  0.00000000000E+00 0.  1.
         11    1    3    3    0    0 -0.62304456486E+01 -0.54691733722E+01 -0.35502986909E+02  0.36458090872E+02  0.51100000000E-03 0. -1.
        -11    1    3    3    0    0 -0.34071932302E+00  0.56631746958E-01 -0.24002169144E+00  0.42060371530E+00  0.51100000000E-03 0.  1.
         12    1    3    3    0    0  0.23226337922E+01 -0.37104605818E+01 -0.81641018594E+01  0.92636226517E+01  0.00000000000E+00 0. -1.
</event>
<event>
 7    1  0.4102844E-008  0.4614232E+02  0.7816164E-02  0.1320468E+00
        -11   -1    0    0    0    0  0.00000000000E+00  0.00000000000E+00  0.45593999997E+02  0.45594000000E+02  0.51100000000E-03 0.  1.
         11   -1    0    0    0    0 -0.00000000000E+00 -0.00000000000E+00 -0.45593999997E+02  0.45594000000E+02  0.51100000000E-03 0. -1.
    9900012    2    1    2    0    0  0.43351263659E+02 -0.11942180306E+02 -0.26769044032E+01  0.46142317094E+02  0.99999939153E+01 0.  0.
        -12    1    1    2    0    0 -0.43351263659E+02  0.11942180306E+02  0.26769044032E+01  0.45045682906E+02  0.00000000000E+00 0.  1.
         11    1    3    3    0    0  0.30965378547E+02 -0.11626955275E+02 -0.43646111912E+01  0.33363012284E+02  0.51100000000E-03 0. -1.
        -11    1    3    3    0    0  0.16088893514E+00 -0.25758694450E+00 -0.26024159089E+00  0.39995278494E+00  0.51100000000E-03 0.  1.
        -12    1    3    3    0    0  0.12224996177E+02 -0.57638086140E-01  0.19479483789E+01  0.12379352025E+02  0.00000000000E+00 0.  1.
</event>
<event>
 7    1  0.4102844E-008  0.4614232E+02  0.7816164E-02  0.1320468E+00
        -11   -1    0    0    0    0  0.00000000000E+00  0.00000000000E+00  0.45593999997E+02  0.45594000000E+02  0.51100000000E-03 0.  1.
         11   -1    0    0    0    0 -0.00000000000E+00 -0.00000000000E+00 -0.45593999997E+02  0.45594000000E+02  0.51100000000E-03 0. -1.
    9900012    2    1    2    0    0 -0.26189934102E+01 -0.42886978325E+02 -0.13526324048E+02  0.46142317869E+02  0.10000000987E+02 0.  0.
        -12    1    1    2    0    0  0.26189934102E+01  0.42886978325E+02  0.13526324048E+02  0.45045682131E+02  0.00000000000E+00 0.  1.
         11    1    3    3    0    0 -0.28104152863E+01 -0.47695020824E+01 -0.19388998948E+01  0.58656557399E+01  0.51100000000E-03 0. -1.
        -11    1    3    3    0    0  0.22861200042E+01 -0.19096233674E+02 -0.37345886798E+01  0.19591825798E+02  0.51100000000E-03 0.  1.
         12    1    3    3    0    0 -0.20946981280E+01 -0.19021242569E+02 -0.78528354733E+01  0.20684836332E+02  0.00000000000E+00 0. -1.
</event>
<event>
 7    1  0.4102844E-008  0.4614232E+02  0.7816164E-02  0.1320468E+00
        -11   -1    0    0    0    0  0.00000000000E+00  0.00000000000E+00  0.45593999997E+02  0.45594000000E+02  0.51100000000E-03 0.  1.
         11   -1    0    0    0    0 -0.00000000000E+00 -0.00000000000E+00 -0.45593999997E+02  0.45594000000E+02  0.51100000000E-03 0. -1.
    9900012    2    1    2    0    0  0.12496753163E+02  0.31299343894E+02 -0.29888053836E+02  0.46142317300E+02  0.99999957909E+01 0.  0.
        -12    1    1    2    0    0 -0.12496753163E+02 -0.31299343894E+02  0.29888053836E+02  0.45045682700E+02  0.00000000000E+00 0.  1.
         11    1    3    3    0    0  0.53978467186E+01  0.10821426028E+02 -0.71757712111E+01  0.14061710537E+02  0.51100000000E-03 0. -1.
        -11    1    3    3    0    0  0.31315855246E+01  0.24760668223E+01 -0.59495668981E+01  0.71648504062E+01  0.51100000000E-03 0.  1.
        -12    1    3    3    0    0  0.39673209202E+01  0.18001851044E+02 -0.16762715727E+02  0.24915756357E+02  0.00000000000E+00 0.  1.
</event>
<event>
 7    1  0.4102844E-008  0.4614232E+02  0.7816164E-02  0.1320468E+00
        -11   -1    0    0    0    0  0.00000000000E+00  0.00000000000E+00  0.45593999997E+02  0.45594000000E+02  0.51100000000E-03 0.  1.
         11   -1    0    0    0    0 -0.00000000000E+00 -0.00000000000E+00 -0.45593999997E+02  0.45594000000E+02  0.51100000000E-03 0. -1.
    9900012    2    1    2    0    0 -0.19876285010E+02  0.14101460399E+02 -0.37883975027E+02  0.46142318131E+02  0.10000003373E+02 0.  0.
        -12    1    1    2    0    0  0.19876285010E+02 -0.14101460399E+02  0.37883975027E+02  0.45045681869E+02  0.00000000000E+00 0.  1.
         11    1    3    3    0    0 -0.93070959510E+01  0.10278553819E+02 -0.17460636726E+02  0.22296738299E+02  0.51100000000E-03 0. -1.
        -11    1    3    3    0    0 -0.14885899807E+01  0.62026103263E+00 -0.45288461280E+00  0.16750309289E+01  0.51100000000E-03 0.  1.
         12    1    3    3    0    0 -0.90805990780E+01  0.32026455467E+01 -0.19970453689E+02  0.22170548903E+02  0.00000000000E+00 0. -1.
</event>
<event>
 7    1  0.4102844E-008  0.4614232E+02  0.7816164E-02  0.1320468E+00
        -11   -1    0    0    0    0  0.00000000000E+00  0.00000000000E+00  0.45593999997E+02  0.45594000000E+02  0.51100000000E-03 0. -1.
         11   -1    0    0    0    0 -0.00000000000E+00 -0.00000000000E+00 -0.45593999997E+02  0.45594000000E+02  0.51100000000E-03 0.  1.
    9900012    2    1    2    0    0 -0.44160292898E+02  0.58917421526E+01 -0.66535198659E+01  0.46142318508E+02  0.10000006811E+02 0.  0.
        -12    1    1    2    0    0  0.44160292898E+02 -0.58917421526E+01  0.66535198659E+01  0.45045681492E+02  0.00000000000E+00 0.  1.
         11    1    3    3    0    0 -0.64984207984E+01  0.16169086538E+01 -0.16596814401E+01  0.68991600367E+01  0.51100000000E-03 0. -1.
        -11    1    3    3    0    0 -0.85339283119E+01 -0.15121366238E+01 -0.39579752422E+01  0.95278569406E+01  0.51100000000E-03 0.  1.
        -12    1    3    3    0    0 -0.29127943788E+02  0.57869701226E+01 -0.10358631835E+01  0.29715301531E+02  0.00000000000E+00 0.  1.
</event>
<event>
 7    1  0.4102844E-008  0.4614232E+02  0.7816164E-02  0.1320468E+00
        -11   -1    0    0    0    0  0.00000000000E+00  0.00000000000E+00  0.45593999997E+02  0.45594000000E+02  0.51100000000E-03 0.  1.
         11   -1    0    0    0    0 -0.00000000000E+00 -0.00000000000E+00 -0.45593999997E+02  0.45594000000E+02  0.51100000000E-03 0. -1.
    9900012    2    1    2    0    0  0.21320313843E+02 -0.34604070384E+02 -0.19419477969E+02  0.46142316588E+02  0.99999893005E+01 0.  0.
        -12    1    1    2    0    0 -0.21320313843E+02  0.34604070384E+02  0.19419477969E+02  0.45045683412E+02  0.00000000000E+00 0.  1.
         11    1    3    3    0    0 -0.14820681960E+00 -0.31278297363E+01 -0.30059982034E+01  0.43406577359E+01  0.51100000000E-03 0. -1.
        -11    1    3    3    0    0  0.41916970654E+01 -0.10255609290E+02 -0.48680451226E+01  0.12101475521E+02  0.51100000000E-03 0.  1.
         12    1    3    3    0    0  0.17276823597E+02 -0.21220631358E+02 -0.11545434643E+02  0.29700183331E+02  0.00000000000E+00 0. -1.
</event>
<event>
 7    1  0.4102844E-008  0.4614232E+02  0.7816164E-02  0.1320468E+00
        -11   -1    0    0    0    0  0.00000000000E+00  0.00000000000E+00  0.45593999997E+02  0.45594000000E+02  0.51100000000E-03 0.  1.
         11   -1    0    0    0    0 -0.00000000000E+00 -0.00000000000E+00 -0.45593999997E+02  0.45594000000E+02  0.51100000000E-03 0. -1.
    9900012    2    1    2    0    0 -0.86752839186E+01 -0.10011733549E+01 -0.44191069395E+02  0.46142317483E+02  0.99999974614E+01 0.  0.
        -12    1    1    2    0    0  0.86752839186E+01  0.10011733549E+01  0.44191069395E+02  0.45045682517E+02  0.00000000000E+00 0.  1.
         11    1    3    3    0    0 -0.37835412355E+01 -0.41673781153E+01 -0.13206293090E+02  0.14355779396E+02  0.51100000000E-03 0.  1.
        -11    1    3    3    0    0 -0.11901858822E+01 -0.20853377962E+00 -0.17554019470E+01  0.21310713334E+01  0.51100000000E-03 0. -1.
        -12    1    3    3    0    0 -0.37015568009E+01  0.33747385400E+01 -0.29229374358E+02  0.29655466753E+02  0.00000000000E+00 0.  1.
</event>
<event>
 7    1  0.4102844E-008  0.4614232E+02  0.7816164E-02  0.1320468E+00
        -11   -1    0    0    0    0  0.00000000000E+00  0.00000000000E+00  0.45593999997E+02  0.45594000000E+02  0.51100000000E-03 0. -1.
         11   -1    0    0    0    0 -0.00000000000E+00 -0.00000000000E+00 -0.45593999997E+02  0.45594000000E+02  0.51100000000E-03 0.  1.
    9900012    2    1    2    0    0 -0.28227248392E+02  0.32321901876E+02  0.13697834522E+02  0.46142316930E+02  0.99999924172E+01 0.  0.
        -12    1    1    2    0    0  0.28227248392E+02 -0.32321901876E+02 -0.13697834522E+02  0.45045683070E+02  0.00000000000E+00 0.  1.
         11    1    3    3    0    0 -0.13201636636E+02  0.17989421086E+02  0.55629766028E+01  0.22996721284E+02  0.51100000000E-03 0. -1.
        -11    1    3    3    0    0 -0.29373941279E+01  0.40950194942E+01 -0.56812333732E+00  0.50715119351E+01  0.51100000000E-03 0.  1.
        -12    1    3    3    0    0 -0.12088217628E+02  0.10237461296E+02  0.87029812564E+01  0.18074083711E+02  0.00000000000E+00 0.  1.
</event>
<event>
 7    1  0.4102844E-008  0.4614232E+02  0.7816164E-02  0.1320468E+00
        -11   -1    0    0    0    0  0.00000000000E+00  0.00000000000E+00  0.45593999997E+02  0.45594000000E+02  0.51100000000E-03 0.  1.
         11   -1    0    0    0    0 -0.00000000000E+00 -0.00000000000E+00 -0.45593999997E+02  0.45594000000E+02  0.51100000000E-03 0. -1.
    9900012    2    1    2    0    0  0.31045744929E+02  0.23561071666E+02 -0.22586526137E+02  0.46142317197E+02  0.99999948549E+01 0.  0.
        -12    1    1    2    0    0 -0.31045744929E+02 -0.23561071666E+02  0.22586526137E+02  0.45045682803E+02  0.00000000000E+00 0.  1.
         11    1    3    3    0    0  0.22391973382E+02  0.14064646048E+02 -0.10683630137E+02  0.28519374003E+02  0.51100000000E-03 0. -1.
        -11    1    3    3    0    0  0.45825846574E+01  0.38563167739E+01 -0.47364601772E+01  0.76357918040E+01  0.51100000000E-03 0.  1.
         12    1    3    3    0    0  0.40711868900E+01  0.56401088443E+01 -0.71664358235E+01  0.99871513897E+01  0.00000000000E+00 0. -1.
</event>
<event>
 7    1  0.4102844E-008  0.4614233E+02  0.7816164E-02  0.1320468E+00
        -11   -1    0    0    0    0  0.00000000000E+00  0.00000000000E+00  0.45593999997E+02  0.45594000000E+02  0.51100000000E-03 0.  1.
         11   -1    0    0    0    0 -0.00000000000E+00 -0.00000000000E+00 -0.45593999997E+02  0.45594000000E+02  0.51100000000E-03 0. -1.
    9900012    2    1    2    0    0  0.13810215215E+02  0.13810160973E+02 -0.40591495151E+02  0.46142333516E+02  0.10000143668E+02 0.  0.
        -12    1    1    2    0    0 -0.13810215215E+02 -0.13810160973E+02  0.40591495151E+02  0.45045666484E+02  0.00000000000E+00 0.  1.
         11    1    3    3    0    0  0.43774289297E+01  0.31423577547E+01 -0.15710083199E+02  0.16608522230E+02  0.51100000000E-03 0. -1.
        -11    1    3    3    0    0  0.35721789849E+01  0.33285674327E+01 -0.30221035023E+01  0.57422063437E+01  0.51100000000E-03 0.  1.
         12    1    3    3    0    0  0.58606073001E+01  0.73392357858E+01 -0.21859308450E+02  0.23791604943E+02  0.00000000000E+00 0. -1.
</event>
<event>
 7    1  0.4102844E-008  0.4614232E+02  0.7816164E-02  0.1320468E+00
        -11   -1    0    0    0    0  0.00000000000E+00  0.00000000000E+00  0.45593999997E+02  0.45594000000E+02  0.51100000000E-03 0.  1.
         11   -1    0    0    0    0 -0.00000000000E+00 -0.00000000000E+00 -0.45593999997E+02  0.45594000000E+02  0.51100000000E-03 0. -1.
    9900012    2    1    2    0    0  0.29367139712E+02  0.69401266289E+01 -0.33444266578E+02  0.46142320746E+02  0.10000027218E+02 0.  0.
        -12    1    1    2    0    0 -0.29367139712E+02 -0.69401266289E+01  0.33444266578E+02  0.45045679254E+02  0.00000000000E+00 0.  1.
         11    1    3    3    0    0  0.22702261692E+01 -0.12166744788E+01 -0.11298138708E+01  0.28125972500E+01  0.51100000000E-03 0. -1.
        -11    1    3    3    0    0  0.17781139421E+01  0.96498656980E+00 -0.58806685890E+00  0.21068249008E+01  0.51100000000E-03 0.  1.
         12    1    3    3    0    0  0.25318799601E+02  0.71918145379E+01 -0.31726385849E+02  0.41222898595E+02  0.00000000000E+00 0. -1.
</event>
<event>
 7    1  0.4102844E-008  0.4614232E+02  0.7816164E-02  0.1320468E+00
        -11   -1    0    0    0    0  0.00000000000E+00  0.00000000000E+00  0.45593999997E+02  0.45594000000E+02  0.51100000000E-03 0.  1.
         11   -1    0    0    0    0 -0.00000000000E+00 -0.00000000000E+00 -0.45593999997E+02  0.45594000000E+02  0.51100000000E-03 0. -1.
    9900012    2    1    2    0    0  0.31288321050E+02 -0.32056676968E+02 -0.47459324835E+01  0.46142318215E+02  0.10000004137E+02 0.  0.
        -12    1    1    2    0    0 -0.31288321050E+02  0.32056676968E+02  0.47459324835E+01  0.45045681785E+02  0.00000000000E+00 0.  1.
         11    1    3    3    0    0  0.15317551695E+02 -0.12856942744E+02 -0.54016929094E+00  0.20005502988E+02  0.51100000000E-03 0. -1.
        -11    1    3    3    0    0  0.95641940204E+01 -0.10054166072E+02  0.80044704875E+00  0.13899668284E+02  0.51100000000E-03 0.  1.
        -12    1    3    3    0    0  0.64065753349E+01 -0.91455681511E+01 -0.50062102413E+01  0.12237146943E+02  0.00000000000E+00 0.  1.
</event>
<event>
 7    1  0.4102844E-008  0.4614232E+02  0.7816164E-02  0.1320468E+00
        -11   -1    0    0    0    0  0.00000000000E+00  0.00000000000E+00  0.45593999997E+02  0.45594000000E+02  0.51100000000E-03 0. -1.
         11   -1    0    0    0    0 -0.00000000000E+00 -0.00000000000E+00 -0.45593999997E+02  0.45594000000E+02  0.51100000000E-03 0.  1.
    9900012    2    1    2    0    0  0.23744405303E+02  0.38028025190E+02  0.43801678498E+01  0.46142319259E+02  0.10000013656E+02 0.  0.
        -12    1    1    2    0    0 -0.23744405303E+02 -0.38028025190E+02 -0.43801678498E+01  0.45045680741E+02  0.00000000000E+00 0.  1.
         11    1    3    3    0    0  0.13313150659E+02  0.15105701345E+02  0.91774866904E+00  0.20156002989E+02  0.51100000000E-03 0. -1.
        -11    1    3    3    0    0  0.30967296104E+01  0.22989249358E+01  0.76511590757E+00  0.39319451615E+01  0.51100000000E-03 0.  1.
        -12    1    3    3    0    0  0.73345250337E+01  0.20623398909E+02  0.26973032731E+01  0.22054371108E+02  0.00000000000E+00 0.  1.
</event>
<event>
 7    1  0.4102844E-008  0.4614232E+02  0.7816164E-02  0.1320468E+00
        -11   -1    0    0    0    0  0.00000000000E+00  0.00000000000E+00  0.45593999997E+02  0.45594000000E+02  0.51100000000E-03 0.  1.
         11   -1    0    0    0    0 -0.00000000000E+00 -0.00000000000E+00 -0.45593999997E+02  0.45594000000E+02  0.51100000000E-03 0. -1.
    9900012    2    1    2    0    0 -0.39830065869E+02  0.20450267631E+02 -0.49462789701E+01  0.46142320196E+02  0.10000022206E+02 0.  0.
        -12    1    1    2    0    0  0.39830065869E+02 -0.20450267631E+02  0.49462789701E+01  0.45045679804E+02  0.00000000000E+00 0.  1.
         11    1    3    3    0    0 -0.71568659864E+01  0.34022640509E+01 -0.40766800105E+01  0.89115347494E+01  0.51100000000E-03 0. -1.
        -11    1    3    3    0    0 -0.36774475151E+01  0.17552311142E+01 -0.17565965968E+01  0.44373515023E+01  0.51100000000E-03 0.  1.
         12    1    3    3    0    0 -0.28995752368E+02  0.15292772466E+02  0.88699763725E+00  0.32793433945E+02  0.00000000000E+00 0. -1.
</event>
<event>
 7    1  0.4102844E-008  0.4614232E+02  0.7816164E-02  0.1320468E+00
        -11   -1    0    0    0    0  0.00000000000E+00  0.00000000000E+00  0.45593999997E+02  0.45594000000E+02  0.51100000000E-03 0.  1.
         11   -1    0    0    0    0 -0.00000000000E+00 -0.00000000000E+00 -0.45593999997E+02  0.45594000000E+02  0.51100000000E-03 0. -1.
    9900012    2    1    2    0    0 -0.17005651494E+01 -0.22905340975E+02 -0.38750058682E+02  0.46142316358E+02  0.99999872008E+01 0.  0.
        -12    1    1    2    0    0  0.17005651494E+01  0.22905340975E+02  0.38750058682E+02  0.45045683642E+02  0.00000000000E+00 0.  1.
         11    1    3    3    0    0 -0.20266213798E+01 -0.65601613557E+01 -0.90974136582E+01  0.11397624610E+02  0.51100000000E-03 0. -1.
        -11    1    3    3    0    0 -0.26826251564E+01 -0.64707203743E+01 -0.72655160717E+01  0.10092295276E+02  0.51100000000E-03 0.  1.
         12    1    3    3    0    0  0.30086813868E+01 -0.98744592447E+01 -0.22387128952E+02  0.24652396471E+02  0.00000000000E+00 0. -1.
</event>
<event>
 7    1  0.4102844E-008  0.4614231E+02  0.7816164E-02  0.1320468E+00
        -11   -1    0    0    0    0  0.00000000000E+00  0.00000000000E+00  0.45593999997E+02  0.45594000000E+02  0.51100000000E-03 0.  1.
         11   -1    0    0    0    0 -0.00000000000E+00 -0.00000000000E+00 -0.45593999997E+02  0.45594000000E+02  0.51100000000E-03 0. -1.
    9900012    2    1    2    0    0  0.55855730243E+01  0.15826678588E+01 -0.44670016940E+02  0.46142313448E+02  0.99999606697E+01 0.  0.
        -12    1    1    2    0    0 -0.55855730243E+01 -0.15826678588E+01  0.44670016940E+02  0.45045686552E+02  0.00000000000E+00 0.  1.
         11    1    3    3    0    0  0.50377690641E+01 -0.19549132578E+01 -0.14938429202E+02  0.15885763131E+02  0.51100000000E-03 0. -1.
        -11    1    3    3    0    0 -0.18824905937E+01  0.13072697924E+01 -0.10914532110E+02  0.11152566368E+02  0.51100000000E-03 0.  1.
         12    1    3    3    0    0  0.24302945538E+01  0.22303113242E+01 -0.18817055627E+02  0.19103983949E+02  0.00000000000E+00 0. -1.
</event>
<event>
 7    1  0.4102844E-008  0.4614232E+02  0.7816164E-02  0.1320468E+00
        -11   -1    0    0    0    0  0.00000000000E+00  0.00000000000E+00  0.45593999997E+02  0.45594000000E+02  0.51100000000E-03 0.  1.
         11   -1    0    0    0    0 -0.00000000000E+00 -0.00000000000E+00 -0.45593999997E+02  0.45594000000E+02  0.51100000000E-03 0. -1.
    9900012    2    1    2    0    0 -0.20153901576E+02  0.14934738612E+02 -0.37415067046E+02  0.46142318651E+02  0.10000008116E+02 0.  0.
        -12    1    1    2    0    0  0.20153901576E+02 -0.14934738612E+02  0.37415067046E+02  0.45045681349E+02  0.00000000000E+00 0.  1.
         11    1    3    3    0    0 -0.14113170554E+02  0.79162503365E+01 -0.26068175519E+02  0.30682215983E+02  0.51100000000E-03 0. -1.
        -11    1    3    3    0    0 -0.22569999529E+01  0.14218017106E+01 -0.68328320652E+01  0.73350639523E+01  0.51100000000E-03 0.  1.
        -12    1    3    3    0    0 -0.37837310693E+01  0.55966865651E+01 -0.45140594613E+01  0.81250387158E+01  0.00000000000E+00 0.  1.
</event>
<event>
 7    1  0.4102844E-008  0.4614232E+02  0.7816164E-02  0.1320468E+00
        -11   -1    0    0    0    0  0.00000000000E+00  0.00000000000E+00  0.45593999997E+02  0.45594000000E+02  0.51100000000E-03 0. -1.
         11   -1    0    0    0    0 -0.00000000000E+00 -0.00000000000E+00 -0.45593999997E+02  0.45594000000E+02  0.51100000000E-03 0.  1.
    9900012    2    1    2    0    0 -0.30423968446E+02 -0.23790290928E+02 -0.23184427250E+02  0.46142318016E+02  0.10000002326E+02 0.  0.
        -12    1    1    2    0    0  0.30423968446E+02  0.23790290928E+02  0.23184427250E+02  0.45045681984E+02  0.00000000000E+00 0.  1.
         11    1    3    3    0    0 -0.19907548005E+02 -0.16235012947E+02 -0.13906037153E+02  0.29210682678E+02  0.51100000000E-03 0. -1.
        -11    1    3    3    0    0 -0.26061014943E+01 -0.53397124866E+01 -0.36406177915E+01  0.69683852220E+01  0.51100000000E-03 0.  1.
        -12    1    3    3    0    0 -0.79103189471E+01 -0.22155654944E+01 -0.56377723051E+01  0.99632501158E+01  0.00000000000E+00 0.  1.
</event>
<event>
 7    1  0.4102844E-008  0.4614232E+02  0.7816164E-02  0.1320468E+00
        -11   -1    0    0    0    0  0.00000000000E+00  0.00000000000E+00  0.45593999997E+02  0.45594000000E+02  0.51100000000E-03 0.  1.
         11   -1    0    0    0    0 -0.00000000000E+00 -0.00000000000E+00 -0.45593999997E+02  0.45594000000E+02  0.51100000000E-03 0. -1.
    9900012    2    1    2    0    0  0.31684882818E+01  0.30123445813E+02 -0.33341449639E+02  0.46142316858E+02  0.99999917651E+01 0.  0.
        -12    1    1    2    0    0 -0.31684882818E+01 -0.30123445813E+02  0.33341449639E+02  0.45045683142E+02  0.00000000000E+00 0.  1.
         11    1    3    3    0    0  0.59416167125E+01  0.12228176809E+02 -0.15829975704E+02  0.20866701903E+02  0.51100000000E-03 0. -1.
        -11    1    3    3    0    0 -0.14449486696E+01  0.49775538596E+01 -0.41117055826E+01  0.66158931477E+01  0.51100000000E-03 0.  1.
         12    1    3    3    0    0 -0.13281797611E+01  0.12917715145E+02 -0.13399768352E+02  0.18659721808E+02  0.00000000000E+00 0. -1.
</event>
<event>
 7    1  0.4102844E-008  0.4614232E+02  0.7816164E-02  0.1320468E+00
        -11   -1    0    0    0    0  0.00000000000E+00  0.00000000000E+00  0.45593999997E+02  0.45594000000E+02  0.51100000000E-03 0.  1.
         11   -1    0    0    0    0 -0.00000000000E+00 -0.00000000000E+00 -0.45593999997E+02  0.45594000000E+02  0.51100000000E-03 0. -1.
    9900012    2    1    2    0    0 -0.16527319821E+02 -0.34802851309E+02 -0.23339294379E+02  0.46142318500E+02  0.10000006734E+02 0.  0.
        -12    1    1    2    0    0  0.16527319821E+02  0.34802851309E+02  0.23339294379E+02  0.45045681500E+02  0.00000000000E+00 0.  1.
         11    1    3    3    0    0 -0.90022314610E+00 -0.25429662408E+01 -0.19959309726E+01  0.33557144877E+01  0.51100000000E-03 0. -1.
        -11    1    3    3    0    0 -0.13319270899E+02 -0.17254977191E+02 -0.14146392022E+02  0.25985719591E+02  0.51100000000E-03 0.  1.
        -12    1    3    3    0    0 -0.23078257758E+01 -0.15004907877E+02 -0.71969713844E+01  0.16800884421E+02  0.00000000000E+00 0.  1.
</event>
<event>
 7    1  0.4102844E-008  0.4614231E+02  0.7816164E-02  0.1320468E+00
        -11   -1    0    0    0    0  0.00000000000E+00  0.00000000000E+00  0.45593999997E+02  0.45594000000E+02  0.51100000000E-03 0.  1.
         11   -1    0    0    0    0 -0.00000000000E+00 -0.00000000000E+00 -0.45593999997E+02  0.45594000000E+02  0.51100000000E-03 0. -1.
    9900012    2    1    2    0    0  0.38858559736E+02  0.14789656656E+02 -0.17331834464E+02  0.46142311031E+02  0.99999386338E+01 0.  0.
        -12    1    1    2    0    0 -0.38858559736E+02 -0.14789656656E+02  0.17331834464E+02  0.45045688969E+02  0.00000000000E+00 0.  1.
         11    1    3    3    0    0  0.14549135986E+01 -0.15493455215E+00 -0.12902896552E+01  0.19508013611E+01  0.51100000000E-03 0. -1.
        -11    1    3    3    0    0  0.14001616918E+02  0.16472186969E+01 -0.73998512671E+01  0.15922198491E+02  0.51100000000E-03 0.  1.
         12    1    3    3    0    0  0.23402029220E+02  0.13297372511E+02 -0.86416935418E+01  0.28269311180E+02  0.00000000000E+00 0. -1.
</event>
<event>
 7    1  0.4102844E-008  0.4614232E+02  0.7816164E-02  0.1320468E+00
        -11   -1    0    0    0    0  0.00000000000E+00  0.00000000000E+00  0.45593999997E+02  0.45594000000E+02  0.51100000000E-03 0.  1.
         11   -1    0    0    0    0 -0.00000000000E+00 -0.00000000000E+00 -0.45593999997E+02  0.45594000000E+02  0.51100000000E-03 0. -1.
    9900012    2    1    2    0    0 -0.96327615213E+01 -0.21849007722E+01 -0.43949396934E+02  0.46142319000E+02  0.10000011294E+02 0.  0.
        -12    1    1    2    0    0  0.96327615213E+01  0.21849007722E+01  0.43949396934E+02  0.45045681000E+02  0.00000000000E+00 0.  1.
         11    1    3    3    0    0 -0.39742804894E+01  0.11562759358E+01 -0.17589195925E+02  0.18069634557E+02  0.51100000000E-03 0. -1.
        -11    1    3    3    0    0 -0.38795433554E+01 -0.15798563760E+01 -0.24736911007E+02  0.25089072706E+02  0.51100000000E-03 0.  1.
        -12    1    3    3    0    0 -0.17789376766E+01 -0.17613203320E+01 -0.16232900020E+01  0.29836117374E+01  0.00000000000E+00 0.  1.
</event>
<event>
 7    1  0.4102844E-008  0.4614232E+02  0.7816164E-02  0.1320468E+00
        -11   -1    0    0    0    0  0.00000000000E+00  0.00000000000E+00  0.45593999997E+02  0.45594000000E+02  0.51100000000E-03 0. -1.
         11   -1    0    0    0    0 -0.00000000000E+00 -0.00000000000E+00 -0.45593999997E+02  0.45594000000E+02  0.51100000000E-03 0.  1.
    9900012    2    1    2    0    0  0.32548715539E+02 -0.72864857237E+01  0.30275431504E+02  0.46142317519E+02  0.99999977927E+01 0.  0.
        -12    1    1    2    0    0 -0.32548715539E+02  0.72864857237E+01 -0.30275431504E+02  0.45045682481E+02  0.00000000000E+00 0.  1.
         11    1    3    3    0    0  0.15449788834E+02 -0.69787667479E+00  0.17300923834E+02  0.23205709915E+02  0.51100000000E-03 0. -1.
        -11    1    3    3    0    0  0.61874457491E+01 -0.65968604561E+00  0.25568380704E+01  0.67273391290E+01  0.51100000000E-03 0.  1.
         12    1    3    3    0    0  0.10911480955E+02 -0.59289230033E+01  0.10417669599E+02  0.16209268475E+02  0.00000000000E+00 0. -1.
</event>
<event>
 7    1  0.4102844E-008  0.4614232E+02  0.7816164E-02  0.1320468E+00
        -11   -1    0    0    0    0  0.00000000000E+00  0.00000000000E+00  0.45593999997E+02  0.45594000000E+02  0.51100000000E-03 0.  1.
         11   -1    0    0    0    0 -0.00000000000E+00 -0.00000000000E+00 -0.45593999997E+02  0.45594000000E+02  0.51100000000E-03 0. -1.
    9900012    2    1    2    0    0  0.19699497221E+02  0.14501006998E+02 -0.37825442832E+02  0.46142317408E+02  0.99999967808E+01 0.  0.
        -12    1    1    2    0    0 -0.19699497221E+02 -0.14501006998E+02  0.37825442832E+02  0.45045682592E+02  0.00000000000E+00 0.  1.
         11    1    3    3    0    0  0.11569677580E+02  0.96626415469E+01 -0.19966303120E+02  0.25017540677E+02  0.51100000000E-03 0. -1.
        -11    1    3    3    0    0  0.32533791760E+01  0.41590534423E+01 -0.46793929770E+01  0.70554178114E+01  0.51100000000E-03 0.  1.
         12    1    3    3    0    0  0.48764404651E+01  0.67931200873E+00 -0.13179746735E+02  0.14069358920E+02  0.00000000000E+00 0. -1.
</event>
<event>
 7    1  0.4102844E-008  0.4614232E+02  0.7816164E-02  0.1320468E+00
        -11   -1    0    0    0    0  0.00000000000E+00  0.00000000000E+00  0.45593999997E+02  0.45594000000E+02  0.51100000000E-03 0.  1.
         11   -1    0    0    0    0 -0.00000000000E+00 -0.00000000000E+00 -0.45593999997E+02  0.45594000000E+02  0.51100000000E-03 0. -1.
    9900012    2    1    2    0    0 -0.38234171668E+02  0.11472255872E+02 -0.20872204564E+02  0.46142318062E+02  0.10000002740E+02 0.  0.
        -12    1    1    2    0    0  0.38234171668E+02 -0.11472255872E+02  0.20872204564E+02  0.45045681938E+02  0.00000000000E+00 0.  1.
         11    1    3    3    0    0 -0.19170127824E+02  0.10304641602E+02 -0.12743846152E+02  0.25220726681E+02  0.51100000000E-03 0. -1.
        -11    1    3    3    0    0 -0.82824256640E+01  0.18077702527E+01 -0.35874095005E+01  0.92052221783E+01  0.51100000000E-03 0.  1.
        -12    1    3    3    0    0 -0.10781618180E+02 -0.64015598251E+00 -0.45409489123E+01  0.11716369203E+02  0.00000000000E+00 0.  1.
</event>
<event>
 7    1  0.4102844E-008  0.4614232E+02  0.7816164E-02  0.1320468E+00
        -11   -1    0    0    0    0  0.00000000000E+00  0.00000000000E+00  0.45593999997E+02  0.45594000000E+02  0.51100000000E-03 0.  1.
         11   -1    0    0    0    0 -0.00000000000E+00 -0.00000000000E+00 -0.45593999997E+02  0.45594000000E+02  0.51100000000E-03 0. -1.
    9900012    2    1    2    0    0 -0.95328884562E+01 -0.20451773509E+02 -0.38986696233E+02  0.46142317797E+02  0.10000000329E+02 0.  0.
        -12    1    1    2    0    0  0.95328884562E+01  0.20451773509E+02  0.38986696233E+02  0.45045682203E+02  0.00000000000E+00 0.  1.
         11    1    3    3    0    0 -0.39391164133E+01 -0.79092549675E+01 -0.12751303329E+02  0.15513500221E+02  0.51100000000E-03 0. -1.
        -11    1    3    3    0    0 -0.18716666257E+01 -0.53950786716E+01 -0.39834134856E+01  0.69625852302E+01  0.51100000000E-03 0.  1.
        -12    1    3    3    0    0 -0.37221054173E+01 -0.71474398699E+01 -0.22251979418E+02  0.23666232346E+02  0.00000000000E+00 0.  1.
</event>
<event>
 7    1  0.4102844E-008  0.4614232E+02  0.7816164E-02  0.1320468E+00
        -11   -1    0    0    0    0  0.00000000000E+00  0.00000000000E+00  0.45593999997E+02  0.45594000000E+02  0.51100000000E-03 0. -1.
         11   -1    0    0    0    0 -0.00000000000E+00 -0.00000000000E+00 -0.45593999997E+02  0.45594000000E+02  0.51100000000E-03 0.  1.
    9900012    2    1    2    0    0 -0.34756493739E+02  0.11444836118E+02  0.26270046517E+02  0.46142317912E+02  0.10000001375E+02 0.  0.
        -12    1    1    2    0    0  0.34756493739E+02 -0.11444836118E+02 -0.26270046517E+02  0.45045682088E+02  0.00000000000E+00 0.  1.
         11    1    3    3    0    0 -0.68296834154E+01 -0.89468317882E+00  0.31323544734E+01  0.75668142804E+01  0.51100000000E-03 0.  1.
        -11    1    3    3    0    0 -0.51314112514E+01  0.37735394801E+01  0.33436462621E+01  0.71938134690E+01  0.51100000000E-03 0. -1.
        -12    1    3    3    0    0 -0.22795399072E+02  0.85659798162E+01  0.19794045781E+02  0.31381690163E+02  0.00000000000E+00 0.  1.
</event>
<event>
 7    1  0.4102844E-008  0.4614231E+02  0.7816164E-02  0.1320468E+00
        -11   -1    0    0    0    0  0.00000000000E+00  0.00000000000E+00  0.45593999997E+02  0.45594000000E+02  0.51100000000E-03 0.  1.
         11   -1    0    0    0    0 -0.00000000000E+00 -0.00000000000E+00 -0.45593999997E+02  0.45594000000E+02  0.51100000000E-03 0. -1.
    9900012    2    1    2    0    0  0.11215295466E+02  0.47950747261E+01 -0.43362867477E+02  0.46142313526E+02  0.99999613845E+01 0.  0.
        -12    1    1    2    0    0 -0.11215295466E+02 -0.47950747261E+01  0.43362867477E+02  0.45045686474E+02  0.00000000000E+00 0.  1.
         11    1    3    3    0    0  0.68024878600E+01  0.66765696494E+01 -0.25075604893E+02  0.26826039297E+02  0.51100000000E-03 0. -1.
        -11    1    3    3    0    0  0.82374563958E+00 -0.19486554686E+01 -0.34173989657E+01  0.40192575142E+01  0.51100000000E-03 0.  1.
         12    1    3    3    0    0  0.35890619667E+01  0.67160545273E-01 -0.14869863619E+02  0.15297016715E+02  0.00000000000E+00 0. -1.
</event>
<event>
 7    1  0.4102844E-008  0.4614232E+02  0.7816164E-02  0.1320468E+00
        -11   -1    0    0    0    0  0.00000000000E+00  0.00000000000E+00  0.45593999997E+02  0.45594000000E+02  0.51100000000E-03 0.  1.
         11   -1    0    0    0    0 -0.00000000000E+00 -0.00000000000E+00 -0.45593999997E+02  0.45594000000E+02  0.51100000000E-03 0. -1.
    9900012    2    1    2    0    0 -0.41632660754E+02  0.10021824592E+01 -0.17170639778E+02  0.46142315617E+02  0.99999804466E+01 0.  0.
        -12    1    1    2    0    0  0.41632660754E+02 -0.10021824592E+01  0.17170639778E+02  0.45045684383E+02  0.00000000000E+00 0.  1.
         11    1    3    3    0    0 -0.23560566277E+02  0.18942721780E+01 -0.11695906679E+02  0.26372007578E+02  0.51100000000E-03 0. -1.
        -11    1    3    3    0    0 -0.50969998487E+01 -0.28027604985E+01 -0.24458445587E+01  0.63100736712E+01  0.51100000000E-03 0.  1.
         12    1    3    3    0    0 -0.12975094628E+02  0.19106707797E+01 -0.30288885403E+01  0.13460234368E+02  0.00000000000E+00 0. -1.
</event>
<event>
 7    1  0.4102844E-008  0.4614232E+02  0.7816164E-02  0.1320468E+00
        -11   -1    0    0    0    0  0.00000000000E+00  0.00000000000E+00  0.45593999997E+02  0.45594000000E+02  0.51100000000E-03 0.  1.
         11   -1    0    0    0    0 -0.00000000000E+00 -0.00000000000E+00 -0.45593999997E+02  0.45594000000E+02  0.51100000000E-03 0. -1.
    9900012    2    1    2    0    0  0.52486357400E+01 -0.31574216214E+02 -0.31695965800E+02  0.46142317026E+02  0.99999932944E+01 0.  0.
        -12    1    1    2    0    0 -0.52486357400E+01  0.31574216214E+02  0.31695965800E+02  0.45045682974E+02  0.00000000000E+00 0.  1.
         11    1    3    3    0    0 -0.85122507489E-01 -0.22981761712E-01 -0.80364803451E+00  0.80847042441E+00  0.51100000000E-03 0. -1.
        -11    1    3    3    0    0  0.81008787109E+00 -0.14469769267E+02 -0.84714660477E+01  0.16786786538E+02  0.51100000000E-03 0.  1.
        -12    1    3    3    0    0  0.45236703764E+01 -0.17081465185E+02 -0.22420851718E+02  0.28547060063E+02  0.00000000000E+00 0.  1.
</event>
<event>
 7    1  0.4102844E-008  0.4614232E+02  0.7816164E-02  0.1320468E+00
        -11   -1    0    0    0    0  0.00000000000E+00  0.00000000000E+00  0.45593999997E+02  0.45594000000E+02  0.51100000000E-03 0.  1.
         11   -1    0    0    0    0 -0.00000000000E+00 -0.00000000000E+00 -0.45593999997E+02  0.45594000000E+02  0.51100000000E-03 0. -1.
    9900012    2    1    2    0    0 -0.60279503881E+01  0.42166294761E+02  0.14655405803E+02  0.46142317421E+02  0.99999968953E+01 0.  0.
        -12    1    1    2    0    0  0.60279503881E+01 -0.42166294761E+02 -0.14655405803E+02  0.45045682579E+02  0.00000000000E+00 0.  1.
         11    1    3    3    0    0 -0.35543421996E+01  0.64093236882E+01  0.24877204120E+01  0.77396079824E+01  0.51100000000E-03 0. -1.
        -11    1    3    3    0    0  0.19465673714E+01  0.10353216751E+02  0.48608799753E+01  0.11601998794E+02  0.51100000000E-03 0.  1.
         12    1    3    3    0    0 -0.44201755598E+01  0.25403754322E+02  0.73068054161E+01  0.26800710644E+02  0.00000000000E+00 0. -1.
</event>
<event>
 7    1  0.4102844E-008  0.4614231E+02  0.7816164E-02  0.1320468E+00
        -11   -1    0    0    0    0  0.00000000000E+00  0.00000000000E+00  0.45593999997E+02  0.45594000000E+02  0.51100000000E-03 0.  1.
         11   -1    0    0    0    0 -0.00000000000E+00 -0.00000000000E+00 -0.45593999997E+02  0.45594000000E+02  0.51100000000E-03 0. -1.
    9900012    2    1    2    0    0  0.20926592230E+02  0.37963976243E+02  0.12244509989E+02  0.46142314530E+02  0.99999705374E+01 0.  0.
        -12    1    1    2    0    0 -0.20926592230E+02 -0.37963976243E+02 -0.12244509989E+02  0.45045685470E+02  0.00000000000E+00 0.  1.
         11    1    3    3    0    0  0.10546783659E+02  0.22272757692E+02  0.62195108316E+01  0.25416386368E+02  0.51100000000E-03 0. -1.
        -11    1    3    3    0    0  0.37586578809E+01  0.23859383777E+01 -0.52886315873E+00  0.44832920393E+01  0.51100000000E-03 0.  1.
         12    1    3    3    0    0  0.66211506902E+01  0.13305280174E+02  0.65538623162E+01  0.16242636123E+02  0.00000000000E+00 0. -1.
</event>
<event>
 7    1  0.4102844E-008  0.4614232E+02  0.7816164E-02  0.1320468E+00
        -11   -1    0    0    0    0  0.00000000000E+00  0.00000000000E+00  0.45593999997E+02  0.45594000000E+02  0.51100000000E-03 0. -1.
         11   -1    0    0    0    0 -0.00000000000E+00 -0.00000000000E+00 -0.45593999997E+02  0.45594000000E+02  0.51100000000E-03 0.  1.
    9900012    2    1    2    0    0 -0.18822152148E+02  0.32285953560E+02  0.25148705334E+02  0.46142316647E+02  0.99999898436E+01 0.  0.
        -12    1    1    2    0    0  0.18822152148E+02 -0.32285953560E+02 -0.25148705334E+02  0.45045683353E+02  0.00000000000E+00 0.  1.
         11    1    3    3    0    0 -0.87089257018E-01 -0.23184175242E-01  0.56305664434E+00  0.57022371971E+00  0.51100000000E-03 0. -1.
        -11    1    3    3    0    0 -0.17095076151E+02  0.22270441143E+02  0.16388058549E+02  0.32508193438E+02  0.51100000000E-03 0.  1.
         12    1    3    3    0    0 -0.16399867398E+01  0.10038696592E+02  0.81975901397E+01  0.13063899490E+02  0.00000000000E+00 0. -1.
</event>
<event>
 7    1  0.4102844E-008  0.4614232E+02  0.7816164E-02  0.1320468E+00
        -11   -1    0    0    0    0  0.00000000000E+00  0.00000000000E+00  0.45593999997E+02  0.45594000000E+02  0.51100000000E-03 0.  1.
         11   -1    0    0    0    0 -0.00000000000E+00 -0.00000000000E+00 -0.45593999997E+02  0.45594000000E+02  0.51100000000E-03 0. -1.
    9900012    2    1    2    0    0 -0.24373031975E+02  0.22470809714E+02 -0.30498058280E+02  0.46142317235E+02  0.99999952057E+01 0.  0.
        -12    1    1    2    0    0  0.24373031975E+02 -0.22470809714E+02  0.30498058280E+02  0.45045682765E+02  0.00000000000E+00 0.  1.
         11    1    3    3    0    0 -0.11919353666E+02  0.65980803161E+01 -0.14127514492E+02  0.19626317068E+02  0.51100000000E-03 0. -1.
        -11    1    3    3    0    0 -0.24405916639E+01  0.70837798039E+01 -0.67238293786E+01  0.10067090233E+02  0.51100000000E-03 0.  1.
         12    1    3    3    0    0 -0.10013086646E+02  0.87889495942E+01 -0.96467144093E+01  0.16448909935E+02  0.00000000000E+00 0. -1.
</event>
<event>
 7    1  0.4102844E-008  0.4614232E+02  0.7816164E-02  0.1320468E+00
        -11   -1    0    0    0    0  0.00000000000E+00  0.00000000000E+00  0.45593999997E+02  0.45594000000E+02  0.51100000000E-03 0.  1.
         11   -1    0    0    0    0 -0.00000000000E+00 -0.00000000000E+00 -0.45593999997E+02  0.45594000000E+02  0.51100000000E-03 0. -1.
    9900012    2    1    2    0    0  0.32417601755E+02 -0.65614160087E+01 -0.30580392740E+02  0.46142317591E+02  0.99999984477E+01 0.  0.
        -12    1    1    2    0    0 -0.32417601755E+02  0.65614160087E+01  0.30580392740E+02  0.45045682409E+02  0.00000000000E+00 0.  1.
         11    1    3    3    0    0  0.28772668966E+01  0.10093285323E+01 -0.20583440643E+01  0.36788842641E+01  0.51100000000E-03 0. -1.
        -11    1    3    3    0    0  0.48836979438E+01 -0.28125474535E+00 -0.13935546435E+01  0.50864137310E+01  0.51100000000E-03 0.  1.
         12    1    3    3    0    0  0.24656636915E+02 -0.72894897956E+01 -0.27128494032E+02  0.37377019596E+02  0.00000000000E+00 0. -1.
</event>
<event>
 7    1  0.4102844E-008  0.4614232E+02  0.7816164E-02  0.1320468E+00
        -11   -1    0    0    0    0  0.00000000000E+00  0.00000000000E+00  0.45593999997E+02  0.45594000000E+02  0.51100000000E-03 0.  1.
         11   -1    0    0    0    0 -0.00000000000E+00 -0.00000000000E+00 -0.45593999997E+02  0.45594000000E+02  0.51100000000E-03 0. -1.
    9900012    2    1    2    0    0 -0.98962828872E+01  0.74640143427E+01 -0.43306646438E+02  0.46142317068E+02  0.99999936775E+01 0.  0.
        -12    1    1    2    0    0  0.98962828872E+01 -0.74640143427E+01  0.43306646438E+02  0.45045682932E+02  0.00000000000E+00 0.  1.
         11    1    3    3    0    0 -0.35208938019E+01  0.20411283168E+01 -0.79262597133E+01  0.89100219569E+01  0.51100000000E-03 0. -1.
        -11    1    3    3    0    0 -0.58774513356E+01  0.94522226097E+00 -0.27661477109E+02  0.28294790959E+02  0.51100000000E-03 0.  1.
        -12    1    3    3    0    0 -0.49793774974E+00  0.44776637649E+01 -0.77189096162E+01  0.89375041515E+01  0.00000000000E+00 0.  1.
</event>
<event>
 7    1  0.4102844E-008  0.4614232E+02  0.7816164E-02  0.1320468E+00
        -11   -1    0    0    0    0  0.00000000000E+00  0.00000000000E+00  0.45593999997E+02  0.45594000000E+02  0.51100000000E-03 0.  1.
         11   -1    0    0    0    0 -0.00000000000E+00 -0.00000000000E+00 -0.45593999997E+02  0.45594000000E+02  0.51100000000E-03 0. -1.
    9900012    2    1    2    0    0 -0.37388894241E+02 -0.78564659176E+01 -0.23863360523E+02  0.46142318245E+02  0.10000004413E+02 0.  0.
        -12    1    1    2    0    0  0.37388894241E+02  0.78564659176E+01  0.23863360523E+02  0.45045681755E+02  0.00000000000E+00 0.  1.
         11    1    3    3    0    0 -0.21761736892E+02 -0.37430031203E+01 -0.12871070521E+02  0.25558711265E+02  0.51100000000E-03 0. -1.
        -11    1    3    3    0    0 -0.13125832384E+02 -0.23040882059E+01 -0.11311659122E+02  0.17479986573E+02  0.51100000000E-03 0.  1.
        -12    1    3    3    0    0 -0.25013249655E+01 -0.18093745913E+01  0.31936912026E+00  0.31036204069E+01  0.00000000000E+00 0.  1.
</event>
<event>
 7    1  0.4102844E-008  0.4614231E+02  0.7816164E-02  0.1320468E+00
        -11   -1    0    0    0    0  0.00000000000E+00  0.00000000000E+00  0.45593999997E+02  0.45594000000E+02  0.51100000000E-03 0.  1.
         11   -1    0    0    0    0 -0.00000000000E+00 -0.00000000000E+00 -0.45593999997E+02  0.45594000000E+02  0.51100000000E-03 0. -1.
    9900012    2    1    2    0    0 -0.15956725588E+02 -0.40459836369E+02  0.11725981716E+02  0.46142310998E+02  0.99999383263E+01 0.  0.
        -12    1    1    2    0    0  0.15956725588E+02  0.40459836369E+02 -0.11725981716E+02  0.45045689002E+02  0.00000000000E+00 0.  1.
         11    1    3    3    0    0 -0.65047679898E+01 -0.10463109822E+02  0.28250916694E+01  0.12640008581E+02  0.51100000000E-03 0. -1.
        -11    1    3    3    0    0 -0.97800766914E+01 -0.23892953855E+02  0.51351699989E+01  0.26322862974E+02  0.51100000000E-03 0.  1.
        -12    1    3    3    0    0  0.32811909348E+00 -0.61037726931E+01  0.37657200472E+01  0.71794394421E+01  0.00000000000E+00 0.  1.
</event>
<event>
 7    1  0.4102844E-008  0.4614232E+02  0.7816164E-02  0.1320468E+00
        -11   -1    0    0    0    0  0.00000000000E+00  0.00000000000E+00  0.45593999997E+02  0.45594000000E+02  0.51100000000E-03 0.  1.
         11   -1    0    0    0    0 -0.00000000000E+00 -0.00000000000E+00 -0.45593999997E+02  0.45594000000E+02  0.51100000000E-03 0. -1.
    9900012    2    1    2    0    0 -0.38410548609E+02  0.19100986853E+02  0.13743930427E+02  0.46142316890E+02  0.99999920609E+01 0.  0.
        -12    1    1    2    0    0  0.38410548609E+02 -0.19100986853E+02 -0.13743930427E+02  0.45045683110E+02  0.00000000000E+00 0.  1.
         11    1    3    3    0    0 -0.51217230212E+01  0.45456699771E+01  0.12796526582E+01  0.69665395594E+01  0.51100000000E-03 0. -1.
        -11    1    3    3    0    0 -0.32120007828E+02  0.14360114087E+02  0.13416949740E+02  0.37655309321E+02  0.51100000000E-03 0.  1.
        -12    1    3    3    0    0 -0.11688177598E+01  0.19520278974E+00 -0.95267197152E+00  0.15204680102E+01  0.00000000000E+00 0.  1.
</event>
<event>
 7    1  0.4102844E-008  0.4614232E+02  0.7816164E-02  0.1320468E+00
        -11   -1    0    0    0    0  0.00000000000E+00  0.00000000000E+00  0.45593999997E+02  0.45594000000E+02  0.51100000000E-03 0.  1.
         11   -1    0    0    0    0 -0.00000000000E+00 -0.00000000000E+00 -0.45593999997E+02  0.45594000000E+02  0.51100000000E-03 0. -1.
    9900012    2    1    2    0    0  0.58984548500E+01  0.13346059917E+02 -0.42616949348E+02  0.46142318113E+02  0.10000003212E+02 0.  0.
        -12    1    1    2    0    0 -0.58984548500E+01 -0.13346059917E+02  0.42616949348E+02  0.45045681887E+02  0.00000000000E+00 0.  1.
         11    1    3    3    0    0  0.32638895057E+00  0.70179889292E+01 -0.16213288598E+02  0.17670014878E+02  0.51100000000E-03 0. -1.
        -11    1    3    3    0    0  0.28815156013E+01 -0.67647702317E+00 -0.52446977439E+01  0.60222593775E+01  0.51100000000E-03 0.  1.
        -12    1    3    3    0    0  0.26905502981E+01  0.70045480114E+01 -0.21158963005E+02  0.22450043858E+02  0.00000000000E+00 0.  1.
</event>
<event>
 7    1  0.4102844E-008  0.4614232E+02  0.7816164E-02  0.1320468E+00
        -11   -1    0    0    0    0  0.00000000000E+00  0.00000000000E+00  0.45593999997E+02  0.45594000000E+02  0.51100000000E-03 0.  1.
         11   -1    0    0    0    0 -0.00000000000E+00 -0.00000000000E+00 -0.45593999997E+02  0.45594000000E+02  0.51100000000E-03 0. -1.
    9900012    2    1    2    0    0  0.24488900219E+02  0.36640485593E+02 -0.93210559227E+01  0.46142317610E+02  0.99999986224E+01 0.  0.
        -12    1    1    2    0    0 -0.24488900219E+02 -0.36640485593E+02  0.93210559227E+01  0.45045682390E+02  0.00000000000E+00 0.  1.
         11    1    3    3    0    0  0.14714558210E+02  0.24552019842E+02 -0.56609539581E+01  0.29178181945E+02  0.51100000000E-03 0. -1.
        -11    1    3    3    0    0  0.59280864289E+01  0.89468374319E+01  0.10323216604E+00  0.10733068801E+02  0.51100000000E-03 0.  1.
        -12    1    3    3    0    0  0.38462555802E+01  0.31416283190E+01 -0.37633341307E+01  0.62310668639E+01  0.00000000000E+00 0.  1.
</event>
<event>
 7    1  0.4102844E-008  0.4614232E+02  0.7816164E-02  0.1320468E+00
        -11   -1    0    0    0    0  0.00000000000E+00  0.00000000000E+00  0.45593999997E+02  0.45594000000E+02  0.51100000000E-03 0.  1.
         11   -1    0    0    0    0 -0.00000000000E+00 -0.00000000000E+00 -0.45593999997E+02  0.45594000000E+02  0.51100000000E-03 0. -1.
    9900012    2    1    2    0    0 -0.39461078791E+02  0.88413255179E+01 -0.19843580373E+02  0.46142318095E+02  0.10000003045E+02 0.  0.
        -12    1    1    2    0    0  0.39461078791E+02 -0.88413255179E+01  0.19843580373E+02  0.45045681905E+02  0.00000000000E+00 0.  1.
         11    1    3    3    0    0 -0.33218742133E+02  0.60458405337E+01 -0.18454091702E+02  0.38478442243E+02  0.51100000000E-03 0. -1.
        -11    1    3    3    0    0 -0.16325624246E+01 -0.42496212230E+00  0.45249119351E+00  0.17465970964E+01  0.51100000000E-03 0.  1.
        -12    1    3    3    0    0 -0.46097742339E+01  0.32204471066E+01 -0.18419798644E+01  0.59172787559E+01  0.00000000000E+00 0.  1.
</event>
<event>
 7    1  0.4102844E-008  0.4614232E+02  0.7816164E-02  0.1320468E+00
        -11   -1    0    0    0    0  0.00000000000E+00  0.00000000000E+00  0.45593999997E+02  0.45594000000E+02  0.51100000000E-03 0.  1.
         11   -1    0    0    0    0 -0.00000000000E+00 -0.00000000000E+00 -0.45593999997E+02  0.45594000000E+02  0.51100000000E-03 0. -1.
    9900012    2    1    2    0    0  0.74121773510E+01  0.17002553804E+02 -0.41049803043E+02  0.46142317201E+02  0.99999948951E+01 0.  0.
        -12    1    1    2    0    0 -0.74121773510E+01 -0.17002553804E+02  0.41049803043E+02  0.45045682799E+02  0.00000000000E+00 0.  1.
         11    1    3    3    0    0 -0.26263035815E+00  0.59444217269E+00 -0.61676726556E+01  0.62018160606E+01  0.51100000000E-03 0. -1.
        -11    1    3    3    0    0  0.37857135819E+01  0.13172928962E+02 -0.29639489142E+02  0.32655122135E+02  0.51100000000E-03 0.  1.
         12    1    3    3    0    0  0.38890941272E+01  0.32351826697E+01 -0.52426412449E+01  0.72853790059E+01  0.00000000000E+00 0. -1.
</event>
<event>
 7    1  0.4102844E-008  0.4614232E+02  0.7816164E-02  0.1320468E+00
        -11   -1    0    0    0    0  0.00000000000E+00  0.00000000000E+00  0.45593999997E+02  0.45594000000E+02  0.51100000000E-03 0.  1.
         11   -1    0    0    0    0 -0.00000000000E+00 -0.00000000000E+00 -0.45593999997E+02  0.45594000000E+02  0.51100000000E-03 0. -1.
    9900012    2    1    2    0    0  0.22518868840E+02 -0.29616279399E+02  0.25394684482E+02  0.46142318085E+02  0.10000002953E+02 0.  0.
        -12    1    1    2    0    0 -0.22518868840E+02  0.29616279399E+02 -0.25394684482E+02  0.45045681915E+02  0.00000000000E+00 0.  1.
         11    1    3    3    0    0  0.13135906000E+02 -0.17738765595E+02  0.12103494202E+02  0.25173605293E+02  0.51100000000E-03 0. -1.
        -11    1    3    3    0    0  0.31453112183E+01 -0.34885436136E+01  0.94504284986E+00  0.47912446664E+01  0.51100000000E-03 0.  1.
        -12    1    3    3    0    0  0.62376516218E+01 -0.83889701903E+01  0.12346147430E+02  0.16177468126E+02  0.00000000000E+00 0.  1.
</event>
<event>
 7    1  0.4102844E-008  0.4614232E+02  0.7816164E-02  0.1320468E+00
        -11   -1    0    0    0    0  0.00000000000E+00  0.00000000000E+00  0.45593999997E+02  0.45594000000E+02  0.51100000000E-03 0.  1.
         11   -1    0    0    0    0 -0.00000000000E+00 -0.00000000000E+00 -0.45593999997E+02  0.45594000000E+02  0.51100000000E-03 0. -1.
    9900012    2    1    2    0    0  0.27216321566E+01 -0.32926224118E+02 -0.30619763602E+02  0.46142318306E+02  0.10000004967E+02 0.  0.
        -12    1    1    2    0    0 -0.27216321566E+01  0.32926224118E+02  0.30619763602E+02  0.45045681694E+02  0.00000000000E+00 0.  1.
         11    1    3    3    0    0  0.20751023024E+01 -0.13599744990E+02 -0.10444060261E+02  0.17272449403E+02  0.51100000000E-03 0. -1.
        -11    1    3    3    0    0 -0.41812066414E+00 -0.12659084461E+02 -0.80993272804E+01  0.15034172639E+02  0.51100000000E-03 0.  1.
         12    1    3    3    0    0  0.10646505184E+01 -0.66673946669E+01 -0.12076376060E+02  0.13835696264E+02  0.00000000000E+00 0. -1.
</event>
<event>
 7    1  0.4102844E-008  0.4614232E+02  0.7816164E-02  0.1320468E+00
        -11   -1    0    0    0    0  0.00000000000E+00  0.00000000000E+00  0.45593999997E+02  0.45594000000E+02  0.51100000000E-03 0.  1.
         11   -1    0    0    0    0 -0.00000000000E+00 -0.00000000000E+00 -0.45593999997E+02  0.45594000000E+02  0.51100000000E-03 0. -1.
    9900012    2    1    2    0    0  0.57941687946E+01  0.41930480046E+01 -0.44474257958E+02  0.46142315806E+02  0.99999821705E+01 0.  0.
        -12    1    1    2    0    0 -0.57941687946E+01 -0.41930480046E+01  0.44474257958E+02  0.45045684194E+02  0.00000000000E+00 0.  1.
         11    1    3    3    0    0  0.29244769270E+01  0.14568328555E+01 -0.12491098344E+02  0.12911330890E+02  0.51100000000E-03 0. -1.
        -11    1    3    3    0    0  0.39983035126E+01  0.49094908317E+01 -0.26130379892E+02  0.26886544678E+02  0.51100000000E-03 0.  1.
        -12    1    3    3    0    0 -0.11286116450E+01 -0.21732756826E+01 -0.58527797227E+01  0.63444402370E+01  0.00000000000E+00 0.  1.
</event>
<event>
 7    1  0.4102844E-008  0.4614232E+02  0.7816164E-02  0.1320468E+00
        -11   -1    0    0    0    0  0.00000000000E+00  0.00000000000E+00  0.45593999997E+02  0.45594000000E+02  0.51100000000E-03 0. -1.
         11   -1    0    0    0    0 -0.00000000000E+00 -0.00000000000E+00 -0.45593999997E+02  0.45594000000E+02  0.51100000000E-03 0.  1.
    9900012    2    1    2    0    0 -0.40147151063E+02  0.15248059697E+02  0.13594719410E+02  0.46142318089E+02  0.10000002987E+02 0.  0.
        -12    1    1    2    0    0  0.40147151063E+02 -0.15248059697E+02 -0.13594719410E+02  0.45045681911E+02  0.00000000000E+00 0.  1.
         11    1    3    3    0    0 -0.17954997294E+02  0.10325097189E+02  0.82443376691E+01  0.22292569696E+02  0.51100000000E-03 0. -1.
        -11    1    3    3    0    0 -0.29012677388E+01  0.21791013358E+01  0.17750889852E+01  0.40394032097E+01  0.51100000000E-03 0.  1.
        -12    1    3    3    0    0 -0.19290886031E+02  0.27438611717E+01  0.35752927553E+01  0.19810345183E+02  0.00000000000E+00 0.  1.
</event>
<event>
 7    1  0.4102844E-008  0.4614232E+02  0.7816164E-02  0.1320468E+00
        -11   -1    0    0    0    0  0.00000000000E+00  0.00000000000E+00  0.45593999997E+02  0.45594000000E+02  0.51100000000E-03 0.  1.
         11   -1    0    0    0    0 -0.00000000000E+00 -0.00000000000E+00 -0.45593999997E+02  0.45594000000E+02  0.51100000000E-03 0. -1.
    9900012    2    1    2    0    0  0.28108646122E+02  0.27675523405E+02 -0.21750470158E+02  0.46142317247E+02  0.99999953121E+01 0.  0.
        -12    1    1    2    0    0 -0.28108646122E+02 -0.27675523405E+02  0.21750470158E+02  0.45045682753E+02  0.00000000000E+00 0.  1.
         11    1    3    3    0    0  0.23846620904E+01  0.30565911336E+00 -0.13180645390E+01  0.27417759152E+01  0.51100000000E-03 0.  1.
        -11    1    3    3    0    0  0.11152370540E+02  0.11181817761E+02 -0.45203036793E+01  0.16426854925E+02  0.51100000000E-03 0. -1.
        -12    1    3    3    0    0  0.14571613491E+02  0.16188046531E+02 -0.15912101940E+02  0.26973686407E+02  0.00000000000E+00 0.  1.
</event>
<event>
 7    1  0.4102844E-008  0.4614232E+02  0.7816164E-02  0.1320468E+00
        -11   -1    0    0    0    0  0.00000000000E+00  0.00000000000E+00  0.45593999997E+02  0.45594000000E+02  0.51100000000E-03 0.  1.
         11   -1    0    0    0    0 -0.00000000000E+00 -0.00000000000E+00 -0.45593999997E+02  0.45594000000E+02  0.51100000000E-03 0. -1.
    9900012    2    1    2    0    0 -0.30814130027E+02  0.32606074070E+02 -0.40554726516E+01  0.46142317255E+02  0.99999953840E+01 0.  0.
        -12    1    1    2    0    0  0.30814130027E+02 -0.32606074070E+02  0.40554726516E+01  0.45045682745E+02  0.00000000000E+00 0.  1.
         11    1    3    3    0    0 -0.13713703255E+02  0.11753953654E+02  0.46038189891E+00  0.18067457907E+02  0.51100000000E-03 0. -1.
        -11    1    3    3    0    0 -0.51704298520E+01  0.53676154789E+01  0.15415313287E+01  0.76105820988E+01  0.51100000000E-03 0.  1.
        -12    1    3    3    0    0 -0.11929996920E+02  0.15484504936E+02 -0.60573858792E+01  0.20464277249E+02  0.00000000000E+00 0.  1.
</event>
<event>
 7    1  0.4102844E-008  0.4614232E+02  0.7816164E-02  0.1320468E+00
        -11   -1    0    0    0    0  0.00000000000E+00  0.00000000000E+00  0.45593999997E+02  0.45594000000E+02  0.51100000000E-03 0.  1.
         11   -1    0    0    0    0 -0.00000000000E+00 -0.00000000000E+00 -0.45593999997E+02  0.45594000000E+02  0.51100000000E-03 0. -1.
    9900012    2    1    2    0    0  0.17686101244E+02 -0.24146172487E+02 -0.33664189239E+02  0.46142318075E+02  0.10000002864E+02 0.  0.
        -12    1    1    2    0    0 -0.17686101244E+02  0.24146172487E+02  0.33664189239E+02  0.45045681925E+02  0.00000000000E+00 0.  1.
         11    1    3    3    0    0  0.10247721258E+02 -0.15490026955E+02 -0.16464122442E+02  0.24819831871E+02  0.51100000000E-03 0. -1.
        -11    1    3    3    0    0  0.11202122966E+01 -0.27226147147E+01 -0.86917036962E+01  0.91767761157E+01  0.51100000000E-03 0.  1.
        -12    1    3    3    0    0  0.63181676895E+01 -0.59335308169E+01 -0.85083631005E+01  0.12145710089E+02  0.00000000000E+00 0.  1.
</event>
<event>
 7    1  0.4102844E-008  0.4614231E+02  0.7816164E-02  0.1320468E+00
        -11   -1    0    0    0    0  0.00000000000E+00  0.00000000000E+00  0.45593999997E+02  0.45594000000E+02  0.51100000000E-03 0.  1.
         11   -1    0    0    0    0 -0.00000000000E+00 -0.00000000000E+00 -0.45593999997E+02  0.45594000000E+02  0.51100000000E-03 0. -1.
    9900012    2    1    2    0    0  0.44866084249E+02  0.34758013312E+00 -0.40034637532E+01  0.46142311529E+02  0.99999431681E+01 0.  0.
        -12    1    1    2    0    0 -0.44866084249E+02 -0.34758013312E+00  0.40034637532E+01  0.45045688471E+02  0.00000000000E+00 0.  1.
         11    1    3    3    0    0  0.25015341862E+02 -0.34148761006E+01 -0.15634714486E+00  0.25247834599E+02  0.51100000000E-03 0. -1.
        -11    1    3    3    0    0  0.21581640913E+01 -0.48738822399E+00 -0.11697888129E+01  0.25027236471E+01  0.51100000000E-03 0.  1.
         12    1    3    3    0    0  0.17692578296E+02  0.42498444577E+01 -0.26773277955E+01  0.18391753282E+02  0.00000000000E+00 0. -1.
</event>
<event>
 7    1  0.4102844E-008  0.4614232E+02  0.7816164E-02  0.1320468E+00
        -11   -1    0    0    0    0  0.00000000000E+00  0.00000000000E+00  0.45593999997E+02  0.45594000000E+02  0.51100000000E-03 0.  1.
         11   -1    0    0    0    0 -0.00000000000E+00 -0.00000000000E+00 -0.45593999997E+02  0.45594000000E+02  0.51100000000E-03 0. -1.
    9900012    2    1    2    0    0 -0.19203095044E+02  0.37379548312E+02 -0.16221097479E+02  0.46142317691E+02  0.99999993574E+01 0.  0.
        -12    1    1    2    0    0  0.19203095044E+02 -0.37379548312E+02  0.16221097479E+02  0.45045682309E+02  0.00000000000E+00 0.  1.
         11    1    3    3    0    0 -0.13752027852E+01  0.45814601417E+01 -0.20616677499E+01  0.52087843017E+01  0.51100000000E-03 0. -1.
        -11    1    3    3    0    0 -0.11597194114E+02  0.13979101464E+02 -0.97910281599E+01  0.20634302066E+02  0.51100000000E-03 0.  1.
        -12    1    3    3    0    0 -0.62306981454E+01  0.18818986707E+02 -0.43684015690E+01  0.20299231323E+02  0.00000000000E+00 0.  1.
</event>
<event>
 7    1  0.4102844E-008  0.4614232E+02  0.7816164E-02  0.1320468E+00
        -11   -1    0    0    0    0  0.00000000000E+00  0.00000000000E+00  0.45593999997E+02  0.45594000000E+02  0.51100000000E-03 0.  1.
         11   -1    0    0    0    0 -0.00000000000E+00 -0.00000000000E+00 -0.45593999997E+02  0.45594000000E+02  0.51100000000E-03 0. -1.
    9900012    2    1    2    0    0  0.25088186509E+02 -0.22256587603E+02 -0.30072259695E+02  0.46142316553E+02  0.99999889819E+01 0.  0.
        -12    1    1    2    0    0 -0.25088186509E+02  0.22256587603E+02  0.30072259695E+02  0.45045683447E+02  0.00000000000E+00 0.  1.
         11    1    3    3    0    0  0.20084249137E+01 -0.44272874417E+01 -0.43858388313E+01  0.65475359671E+01  0.51100000000E-03 0. -1.
        -11    1    3    3    0    0  0.12237015320E+02 -0.49287542154E+01 -0.97872851348E+01  0.16426445526E+02  0.51100000000E-03 0.  1.
         12    1    3    3    0    0  0.10842746276E+02 -0.12900545946E+02 -0.15899135729E+02  0.23168335060E+02  0.00000000000E+00 0. -1.
</event>
<event>
 7    1  0.4102844E-008  0.4614232E+02  0.7816164E-02  0.1320468E+00
        -11   -1    0    0    0    0  0.00000000000E+00  0.00000000000E+00  0.45593999997E+02  0.45594000000E+02  0.51100000000E-03 0.  1.
         11   -1    0    0    0    0 -0.00000000000E+00 -0.00000000000E+00 -0.45593999997E+02  0.45594000000E+02  0.51100000000E-03 0. -1.
    9900012    2    1    2    0    0 -0.32138421544E+02  0.31315288826E+02 -0.39481631816E+01  0.46142318230E+02  0.10000004275E+02 0.  0.
        -12    1    1    2    0    0  0.32138421544E+02 -0.31315288826E+02  0.39481631816E+01  0.45045681770E+02  0.00000000000E+00 0.  1.
         11    1    3    3    0    0 -0.24180230220E+02  0.22577763226E+02  0.94000735716E+00  0.33095657417E+02  0.51100000000E-03 0. -1.
        -11    1    3    3    0    0 -0.62509232328E+01  0.75513844860E+01 -0.30357814561E+01  0.10262232614E+02  0.51100000000E-03 0.  1.
         12    1    3    3    0    0 -0.17072680917E+01  0.11861411139E+01 -0.18523890827E+01  0.27844281985E+01  0.00000000000E+00 0. -1.
</event>
<event>
 7    1  0.4102844E-008  0.4614232E+02  0.7816164E-02  0.1320468E+00
        -11   -1    0    0    0    0  0.00000000000E+00  0.00000000000E+00  0.45593999997E+02  0.45594000000E+02  0.51100000000E-03 0. -1.
         11   -1    0    0    0    0 -0.00000000000E+00 -0.00000000000E+00 -0.45593999997E+02  0.45594000000E+02  0.51100000000E-03 0.  1.
    9900012    2    1    2    0    0 -0.14760891478E+02 -0.41762329056E+02 -0.81937462374E+01  0.46142317379E+02  0.99999965165E+01 0.  0.
        -12    1    1    2    0    0  0.14760891478E+02  0.41762329056E+02  0.81937462374E+01  0.45045682621E+02  0.00000000000E+00 0.  1.
         11    1    3    3    0    0 -0.32228573416E+01 -0.19586449564E+02 -0.60902952262E+01  0.20763128670E+02  0.51100000000E-03 0. -1.
        -11    1    3    3    0    0 -0.44727504879E+01 -0.56618344845E+01  0.48504446236E+00  0.72316758118E+01  0.51100000000E-03 0.  1.
         12    1    3    3    0    0 -0.70652836487E+01 -0.16514045007E+02 -0.25884954736E+01  0.18147512897E+02  0.00000000000E+00 0. -1.
</event>
<event>
 7    1  0.4102844E-008  0.4614232E+02  0.7816164E-02  0.1320468E+00
        -11   -1    0    0    0    0  0.00000000000E+00  0.00000000000E+00  0.45593999997E+02  0.45594000000E+02  0.51100000000E-03 0.  1.
         11   -1    0    0    0    0 -0.00000000000E+00 -0.00000000000E+00 -0.45593999997E+02  0.45594000000E+02  0.51100000000E-03 0. -1.
    9900012    2    1    2    0    0 -0.28582647353E+02  0.24074084186E+02 -0.25151224731E+02  0.46142319135E+02  0.10000012528E+02 0.  0.
        -12    1    1    2    0    0  0.28582647353E+02 -0.24074084186E+02  0.25151224731E+02  0.45045680865E+02  0.00000000000E+00 0.  1.
         11    1    3    3    0    0 -0.11361888464E+02  0.12935568605E+02 -0.13579721359E+02  0.21927842508E+02  0.51100000000E-03 0. -1.
        -11    1    3    3    0    0 -0.24346246784E+01 -0.27172239927E+00 -0.49214234707E+00  0.24986866026E+01  0.51100000000E-03 0.  1.
        -12    1    3    3    0    0 -0.14786134211E+02  0.11410237981E+02 -0.11079361025E+02  0.21715790024E+02  0.00000000000E+00 0.  1.
</event>
<event>
 7    1  0.4102844E-008  0.4614232E+02  0.7816164E-02  0.1320468E+00
        -11   -1    0    0    0    0  0.00000000000E+00  0.00000000000E+00  0.45593999997E+02  0.45594000000E+02  0.51100000000E-03 0.  1.
         11   -1    0    0    0    0 -0.00000000000E+00 -0.00000000000E+00 -0.45593999997E+02  0.45594000000E+02  0.51100000000E-03 0. -1.
    9900012    2    1    2    0    0 -0.39350755395E+02  0.19361126597E+02 -0.10284855992E+02  0.46142318342E+02  0.10000005300E+02 0.  0.
        -12    1    1    2    0    0  0.39350755395E+02 -0.19361126597E+02  0.10284855992E+02  0.45045681658E+02  0.00000000000E+00 0.  1.
         11    1    3    3    0    0 -0.12239011591E+02  0.38731991953E+01 -0.51464747863E+01  0.13830447560E+02  0.51100000000E-03 0. -1.
        -11    1    3    3    0    0 -0.45960865240E+01  0.41513487905E+01  0.12231519127E+01  0.63129873261E+01  0.51100000000E-03 0.  1.
        -12    1    3    3    0    0 -0.22515657280E+02  0.11336578611E+02 -0.63615331189E+01  0.25998883456E+02  0.00000000000E+00 0.  1.
</event>
<event>
 7    1  0.4102844E-008  0.4614232E+02  0.7816164E-02  0.1320468E+00
        -11   -1    0    0    0    0  0.00000000000E+00  0.00000000000E+00  0.45593999997E+02  0.45594000000E+02  0.51100000000E-03 0.  1.
         11   -1    0    0    0    0 -0.00000000000E+00 -0.00000000000E+00 -0.45593999997E+02  0.45594000000E+02  0.51100000000E-03 0. -1.
    9900012    2    1    2    0    0 -0.69345593437E+01  0.35271151889E+02 -0.27147214249E+02  0.46142317517E+02  0.99999977709E+01 0.  0.
        -12    1    1    2    0    0  0.69345593437E+01 -0.35271151889E+02  0.27147214249E+02  0.45045682483E+02  0.00000000000E+00 0.  1.
         11    1    3    3    0    0 -0.52302053021E+01  0.27341778071E+02 -0.22945285981E+02  0.36075116418E+02  0.51100000000E-03 0. -1.
        -11    1    3    3    0    0 -0.12623156243E+00  0.33861601670E+01 -0.40153990348E+01  0.52540883846E+01  0.51100000000E-03 0.  1.
        -12    1    3    3    0    0 -0.15781224792E+01  0.45432136510E+01 -0.18652923367E+00  0.48131127136E+01  0.00000000000E+00 0.  1.
</event>
<event>
 7    1  0.4102844E-008  0.4614232E+02  0.7816164E-02  0.1320468E+00
        -11   -1    0    0    0    0  0.00000000000E+00  0.00000000000E+00  0.45593999997E+02  0.45594000000E+02  0.51100000000E-03 0.  1.
         11   -1    0    0    0    0 -0.00000000000E+00 -0.00000000000E+00 -0.45593999997E+02  0.45594000000E+02  0.51100000000E-03 0. -1.
    9900012    2    1    2    0    0  0.24349836574E+02  0.15139246836E+02 -0.34741936566E+02  0.46142317717E+02  0.99999996000E+01 0.  0.
        -12    1    1    2    0    0 -0.24349836574E+02 -0.15139246836E+02  0.34741936566E+02  0.45045682283E+02  0.00000000000E+00 0.  1.
         11    1    3    3    0    0  0.13897987407E+02  0.10703328801E+02 -0.17108914740E+02  0.24503678606E+02  0.51100000000E-03 0. -1.
        -11    1    3    3    0    0  0.72754829944E+01  0.13552349841E+01 -0.72867829818E+01  0.10385880856E+02  0.51100000000E-03 0.  1.
        -12    1    3    3    0    0  0.31763661720E+01  0.30806830511E+01 -0.10346238845E+02  0.11252758255E+02  0.00000000000E+00 0.  1.
</event>
<event>
 7    1  0.4102844E-008  0.4614232E+02  0.7816164E-02  0.1320468E+00
        -11   -1    0    0    0    0  0.00000000000E+00  0.00000000000E+00  0.45593999997E+02  0.45594000000E+02  0.51100000000E-03 0.  1.
         11   -1    0    0    0    0 -0.00000000000E+00 -0.00000000000E+00 -0.45593999997E+02  0.45594000000E+02  0.51100000000E-03 0. -1.
    9900012    2    1    2    0    0 -0.36980023791E+02  0.33287355523E+01 -0.25505113290E+02  0.46142318255E+02  0.10000004500E+02 0.  0.
        -12    1    1    2    0    0  0.36980023791E+02 -0.33287355523E+01  0.25505113290E+02  0.45045681745E+02  0.00000000000E+00 0.  1.
         11    1    3    3    0    0 -0.23441518739E+02  0.47038237011E+01 -0.15781125223E+02  0.28647419985E+02  0.51100000000E-03 0. -1.
        -11    1    3    3    0    0 -0.99719142808E+01  0.45697587183E+00 -0.46073067836E+01  0.10994324783E+02  0.51100000000E-03 0.  1.
        -12    1    3    3    0    0 -0.35665907710E+01 -0.18320640206E+01 -0.51166812838E+01  0.65005734873E+01  0.00000000000E+00 0.  1.
</event>
<event>
 7    1  0.4102844E-008  0.4614232E+02  0.7816164E-02  0.1320468E+00
        -11   -1    0    0    0    0  0.00000000000E+00  0.00000000000E+00  0.45593999997E+02  0.45594000000E+02  0.51100000000E-03 0.  1.
         11   -1    0    0    0    0 -0.00000000000E+00 -0.00000000000E+00 -0.45593999997E+02  0.45594000000E+02  0.51100000000E-03 0. -1.
    9900012    2    1    2    0    0  0.34554469534E+02 -0.27637299186E+01 -0.28765672445E+02  0.46142317865E+02  0.10000000947E+02 0.  0.
        -12    1    1    2    0    0 -0.34554469534E+02  0.27637299186E+01  0.28765672445E+02  0.45045682135E+02  0.00000000000E+00 0.  1.
         11    1    3    3    0    0  0.10831656838E+02  0.16419918916E+00 -0.11313947982E+02  0.15663881078E+02  0.51100000000E-03 0. -1.
        -11    1    3    3    0    0  0.19788665413E+01 -0.24937644945E+01 -0.29376714170E+01  0.43318226831E+01  0.51100000000E-03 0.  1.
        -12    1    3    3    0    0  0.21743946154E+02 -0.43416461319E+00 -0.14514053045E+02  0.26146614104E+02  0.00000000000E+00 0.  1.
</event>
<event>
 7    1  0.4102844E-008  0.4614232E+02  0.7816164E-02  0.1320468E+00
        -11   -1    0    0    0    0  0.00000000000E+00  0.00000000000E+00  0.45593999997E+02  0.45594000000E+02  0.51100000000E-03 0.  1.
         11   -1    0    0    0    0 -0.00000000000E+00 -0.00000000000E+00 -0.45593999997E+02  0.45594000000E+02  0.51100000000E-03 0. -1.
    9900012    2    1    2    0    0  0.43858623032E+02 -0.10058388529E+02 -0.20889324257E+01  0.46142316158E+02  0.99999853837E+01 0.  0.
        -12    1    1    2    0    0 -0.43858623032E+02  0.10058388529E+02  0.20889324257E+01  0.45045683842E+02  0.00000000000E+00 0.  1.
         11    1    3    3    0    0  0.21924162466E+02 -0.38093745355E+01 -0.50548148359E+01  0.22819539598E+02  0.51100000000E-03 0. -1.
        -11    1    3    3    0    0  0.11994650306E+02 -0.15579944792E+01  0.81256110536E+00  0.12122674563E+02  0.51100000000E-03 0.  1.
        -12    1    3    3    0    0  0.99398102611E+01 -0.46910195139E+01  0.21533213048E+01  0.11200101997E+02  0.00000000000E+00 0.  1.
</event>
<event>
 7    1  0.4102844E-008  0.4614232E+02  0.7816164E-02  0.1320468E+00
        -11   -1    0    0    0    0  0.00000000000E+00  0.00000000000E+00  0.45593999997E+02  0.45594000000E+02  0.51100000000E-03 0. -1.
         11   -1    0    0    0    0 -0.00000000000E+00 -0.00000000000E+00 -0.45593999997E+02  0.45594000000E+02  0.51100000000E-03 0.  1.
    9900012    2    1    2    0    0  0.14321368560E+02 -0.34619864931E+01  0.42567904684E+02  0.46142318108E+02  0.10000003166E+02 0.  0.
        -12    1    1    2    0    0 -0.14321368560E+02  0.34619864931E+01 -0.42567904684E+02  0.45045681892E+02  0.00000000000E+00 0.  1.
         11    1    3    3    0    0  0.57098082723E+01 -0.23145264733E+01  0.15065250360E+02  0.16276385102E+02  0.51100000000E-03 0. -1.
        -11    1    3    3    0    0  0.17771902412E+01  0.22804288769E+01  0.28693345289E+01  0.40733084729E+01  0.51100000000E-03 0.  1.
        -12    1    3    3    0    0  0.68343700464E+01 -0.34278888967E+01  0.24633319795E+02  0.25792624534E+02  0.00000000000E+00 0.  1.
</event>
<event>
 7    1  0.4102844E-008  0.4614232E+02  0.7816164E-02  0.1320468E+00
        -11   -1    0    0    0    0  0.00000000000E+00  0.00000000000E+00  0.45593999997E+02  0.45594000000E+02  0.51100000000E-03 0.  1.
         11   -1    0    0    0    0 -0.00000000000E+00 -0.00000000000E+00 -0.45593999997E+02  0.45594000000E+02  0.51100000000E-03 0. -1.
    9900012    2    1    2    0    0  0.11586614518E+02  0.11030319726E+02 -0.42109332595E+02  0.46142317845E+02  0.10000000764E+02 0.  0.
        -12    1    1    2    0    0 -0.11586614518E+02 -0.11030319726E+02  0.42109332595E+02  0.45045682155E+02  0.00000000000E+00 0.  1.
         11    1    3    3    0    0  0.11324628425E+01 -0.28511056490E+00 -0.22726320710E+01  0.25551158320E+01  0.51100000000E-03 0.  1.
        -11    1    3    3    0    0  0.88958957930E+01  0.99076480904E+01 -0.22659808900E+02  0.26282416028E+02  0.51100000000E-03 0. -1.
         12    1    3    3    0    0  0.15582558827E+01  0.14077822007E+01 -0.17176891624E+02  0.17304785985E+02  0.00000000000E+00 0. -1.
</event>
<event>
 7    1  0.4102844E-008  0.4614232E+02  0.7816164E-02  0.1320468E+00
        -11   -1    0    0    0    0  0.00000000000E+00  0.00000000000E+00  0.45593999997E+02  0.45594000000E+02  0.51100000000E-03 0.  1.
         11   -1    0    0    0    0 -0.00000000000E+00 -0.00000000000E+00 -0.45593999997E+02  0.45594000000E+02  0.51100000000E-03 0. -1.
    9900012    2    1    2    0    0  0.21314092864E+01  0.43710122845E+02 -0.10676888829E+02  0.46142315415E+02  0.99999786092E+01 0.  0.
        -12    1    1    2    0    0 -0.21314092864E+01 -0.43710122845E+02  0.10676888829E+02  0.45045684585E+02  0.00000000000E+00 0.  1.
         11    1    3    3    0    0 -0.48522209572E+00  0.16860018811E+02 -0.69869167735E+01  0.18256852989E+02  0.51100000000E-03 0. -1.
        -11    1    3    3    0    0  0.27177133618E+01  0.79654127777E+01  0.86003880289E+00  0.84601083704E+01  0.51100000000E-03 0.  1.
        -12    1    3    3    0    0 -0.10108197969E+00  0.18884691256E+02 -0.45500108582E+01  0.19425354056E+02  0.00000000000E+00 0.  1.
</event>
<event>
 7    1  0.4102844E-008  0.4614232E+02  0.7816164E-02  0.1320468E+00
        -11   -1    0    0    0    0  0.00000000000E+00  0.00000000000E+00  0.45593999997E+02  0.45594000000E+02  0.51100000000E-03 0. -1.
         11   -1    0    0    0    0 -0.00000000000E+00 -0.00000000000E+00 -0.45593999997E+02  0.45594000000E+02  0.51100000000E-03 0.  1.
    9900012    2    1    2    0    0 -0.20448164388E+02 -0.30077903937E+02 -0.26576413717E+02  0.46142317653E+02  0.99999990144E+01 0.  0.
        -12    1    1    2    0    0  0.20448164388E+02  0.30077903937E+02  0.26576413717E+02  0.45045682347E+02  0.00000000000E+00 0.  1.
         11    1    3    3    0    0 -0.10955374153E+02 -0.91531038348E+01 -0.80822020420E+01  0.16404923735E+02  0.51100000000E-03 0. -1.
        -11    1    3    3    0    0 -0.65728406430E+01 -0.11648952196E+02 -0.12541928036E+02  0.18335765065E+02  0.51100000000E-03 0.  1.
         12    1    3    3    0    0 -0.29199495917E+01 -0.92758479061E+01 -0.59522836383E+01  0.11401628853E+02  0.00000000000E+00 0. -1.
</event>
<event>
 7    1  0.4102844E-008  0.4614232E+02  0.7816164E-02  0.1320468E+00
        -11   -1    0    0    0    0  0.00000000000E+00  0.00000000000E+00  0.45593999997E+02  0.45594000000E+02  0.51100000000E-03 0.  1.
         11   -1    0    0    0    0 -0.00000000000E+00 -0.00000000000E+00 -0.45593999997E+02  0.45594000000E+02  0.51100000000E-03 0. -1.
    9900012    2    1    2    0    0  0.20339225942E+02  0.36704994235E+02 -0.16375985117E+02  0.46142316497E+02  0.99999884717E+01 0.  0.
        -12    1    1    2    0    0 -0.20339225942E+02 -0.36704994235E+02  0.16375985117E+02  0.45045683503E+02  0.00000000000E+00 0.  1.
         11    1    3    3    0    0  0.14876035784E+01  0.86661783283E+01 -0.41531693377E+01  0.97244242520E+01  0.51100000000E-03 0. -1.
        -11    1    3    3    0    0  0.15712524991E+02  0.23682540458E+02 -0.12484526158E+02  0.31042061107E+02  0.51100000000E-03 0.  1.
         12    1    3    3    0    0  0.31390973724E+01  0.43562754485E+01  0.26171037823E+00  0.53758311375E+01  0.00000000000E+00 0. -1.
</event>
<event>
 7    1  0.4102844E-008  0.4614232E+02  0.7816164E-02  0.1320468E+00
        -11   -1    0    0    0    0  0.00000000000E+00  0.00000000000E+00  0.45593999997E+02  0.45594000000E+02  0.51100000000E-03 0.  1.
         11   -1    0    0    0    0 -0.00000000000E+00 -0.00000000000E+00 -0.45593999997E+02  0.45594000000E+02  0.51100000000E-03 0. -1.
    9900012    2    1    2    0    0  0.36268271982E+02  0.20237971163E+02 -0.17439910937E+02  0.46142317378E+02  0.99999965097E+01 0.  0.
        -12    1    1    2    0    0 -0.36268271982E+02 -0.20237971163E+02  0.17439910937E+02  0.45045682622E+02  0.00000000000E+00 0.  1.
         11    1    3    3    0    0  0.18745433978E+02  0.85980239631E+01 -0.75230234108E+01  0.21952521327E+02  0.51100000000E-03 0. -1.
        -11    1    3    3    0    0  0.16905132819E+02  0.86456938564E+01 -0.81919216969E+01  0.20679437111E+02  0.51100000000E-03 0.  1.
        -12    1    3    3    0    0  0.61770518545E+00  0.29942533436E+01 -0.17249658295E+01  0.35103589410E+01  0.00000000000E+00 0.  1.
</event>
<event>
 7    1  0.4102844E-008  0.4614232E+02  0.7816164E-02  0.1320468E+00
        -11   -1    0    0    0    0  0.00000000000E+00  0.00000000000E+00  0.45593999997E+02  0.45594000000E+02  0.51100000000E-03 0.  1.
         11   -1    0    0    0    0 -0.00000000000E+00 -0.00000000000E+00 -0.45593999997E+02  0.45594000000E+02  0.51100000000E-03 0. -1.
    9900012    2    1    2    0    0 -0.38255314747E+02 -0.18713234239E+02 -0.14678530712E+02  0.46142317566E+02  0.99999982227E+01 0.  0.
        -12    1    1    2    0    0  0.38255314747E+02  0.18713234239E+02  0.14678530712E+02  0.45045682434E+02  0.00000000000E+00 0.  1.
         11    1    3    3    0    0 -0.19014465542E+02 -0.91219055742E+01 -0.76639870022E+01  0.22438711153E+02  0.51100000000E-03 0. -1.
        -11    1    3    3    0    0 -0.79617523656E+00 -0.29196241750E+01 -0.84578375246E+00  0.31422047590E+01  0.51100000000E-03 0.  1.
         12    1    3    3    0    0 -0.18444673968E+02 -0.66717044900E+01 -0.61687599569E+01  0.20561401655E+02  0.00000000000E+00 0. -1.
</event>
<event>
 7    1  0.4102844E-008  0.4614232E+02  0.7816164E-02  0.1320468E+00
        -11   -1    0    0    0    0  0.00000000000E+00  0.00000000000E+00  0.45593999997E+02  0.45594000000E+02  0.51100000000E-03 0. -1.
         11   -1    0    0    0    0 -0.00000000000E+00 -0.00000000000E+00 -0.45593999997E+02  0.45594000000E+02  0.51100000000E-03 0.  1.
    9900012    2    1    2    0    0 -0.29734270905E+02 -0.10949032037E+02  0.32017265547E+02  0.46142318055E+02  0.10000002681E+02 0.  0.
        -12    1    1    2    0    0  0.29734270905E+02  0.10949032037E+02 -0.32017265547E+02  0.45045681945E+02  0.00000000000E+00 0.  1.
         11    1    3    3    0    0 -0.96394516430E+01 -0.36065872793E+01  0.76909448981E+01  0.12848234644E+02  0.51100000000E-03 0. -1.
        -11    1    3    3    0    0 -0.90818309168E+00 -0.79924543324E+00  0.54907621855E+01  0.56224602649E+01  0.51100000000E-03 0.  1.
        -12    1    3    3    0    0 -0.19186636170E+02 -0.65431993243E+01  0.18835558463E+02  0.27671623146E+02  0.00000000000E+00 0.  1.
</event>
<event>
 7    1  0.4102844E-008  0.4614232E+02  0.7816164E-02  0.1320468E+00
        -11   -1    0    0    0    0  0.00000000000E+00  0.00000000000E+00  0.45593999997E+02  0.45594000000E+02  0.51100000000E-03 0. -1.
         11   -1    0    0    0    0 -0.00000000000E+00 -0.00000000000E+00 -0.45593999997E+02  0.45594000000E+02  0.51100000000E-03 0.  1.
    9900012    2    1    2    0    0 -0.17305164959E+02  0.39316361732E+02 -0.13559811234E+02  0.46142317468E+02  0.99999973232E+01 0.  0.
        -12    1    1    2    0    0  0.17305164959E+02 -0.39316361732E+02  0.13559811234E+02  0.45045682532E+02  0.00000000000E+00 0.  1.
         11    1    3    3    0    0 -0.11784000729E+01  0.24733935118E+01 -0.32860134647E+01  0.42783392744E+01  0.51100000000E-03 0. -1.
        -11    1    3    3    0    0 -0.17420858202E+01  0.40708096520E+01  0.57651443830E+00  0.44652797658E+01  0.51100000000E-03 0.  1.
         12    1    3    3    0    0 -0.14384679066E+02  0.32772158568E+02 -0.10850312208E+02  0.37398698427E+02  0.00000000000E+00 0. -1.
</event>
<event>
 7    1  0.4102844E-008  0.4614232E+02  0.7816164E-02  0.1320468E+00
        -11   -1    0    0    0    0  0.00000000000E+00  0.00000000000E+00  0.45593999997E+02  0.45594000000E+02  0.51100000000E-03 0.  1.
         11   -1    0    0    0    0 -0.00000000000E+00 -0.00000000000E+00 -0.45593999997E+02  0.45594000000E+02  0.51100000000E-03 0. -1.
    9900012    2    1    2    0    0  0.26123524956E+02  0.13297536965E+02 -0.34203076277E+02  0.46142317940E+02  0.10000001627E+02 0.  0.
        -12    1    1    2    0    0 -0.26123524956E+02 -0.13297536965E+02  0.34203076277E+02  0.45045682060E+02  0.00000000000E+00 0.  1.
         11    1    3    3    0    0  0.12410288744E+01  0.35286629982E+01 -0.62664942384E+01  0.72979836615E+01  0.51100000000E-03 0.  1.
        -11    1    3    3    0    0  0.17768278291E+02  0.85499058948E+01 -0.21505470920E+02  0.29177009510E+02  0.51100000000E-03 0. -1.
        -12    1    3    3    0    0  0.71142177911E+01  0.12189680721E+01 -0.64311111189E+01  0.96673247677E+01  0.00000000000E+00 0.  1.
</event>
<event>
 7    1  0.4102844E-008  0.4614232E+02  0.7816164E-02  0.1320468E+00
        -11   -1    0    0    0    0  0.00000000000E+00  0.00000000000E+00  0.45593999997E+02  0.45594000000E+02  0.51100000000E-03 0.  1.
         11   -1    0    0    0    0 -0.00000000000E+00 -0.00000000000E+00 -0.45593999997E+02  0.45594000000E+02  0.51100000000E-03 0. -1.
    9900012    2    1    2    0    0  0.19547040058E+02  0.21106841070E+02 -0.34663061046E+02  0.46142319674E+02  0.10000017444E+02 0.  0.
        -12    1    1    2    0    0 -0.19547040058E+02 -0.21106841070E+02  0.34663061046E+02  0.45045680326E+02  0.00000000000E+00 0.  1.
         11    1    3    3    0    0  0.16260898177E+02  0.13718674156E+02 -0.23086716030E+02  0.31394510467E+02  0.51100000000E-03 0. -1.
        -11    1    3    3    0    0  0.27963212215E-01  0.69246235876E+00 -0.42340643468E+01  0.42904064159E+01  0.51100000000E-03 0.  1.
        -12    1    3    3    0    0  0.32581786684E+01  0.66957045556E+01 -0.73422806682E+01  0.10457402791E+02  0.00000000000E+00 0.  1.
</event>
<event>
 7    1  0.4102844E-008  0.4614232E+02  0.7816164E-02  0.1320468E+00
        -11   -1    0    0    0    0  0.00000000000E+00  0.00000000000E+00  0.45593999997E+02  0.45594000000E+02  0.51100000000E-03 0. -1.
         11   -1    0    0    0    0 -0.00000000000E+00 -0.00000000000E+00 -0.45593999997E+02  0.45594000000E+02  0.51100000000E-03 0.  1.
    9900012    2    1    2    0    0  0.19702615839E+02 -0.10679997291E+02  0.39075031645E+02  0.46142317509E+02  0.99999977010E+01 0.  0.
        -12    1    1    2    0    0 -0.19702615839E+02  0.10679997291E+02 -0.39075031645E+02  0.45045682491E+02  0.00000000000E+00 0.  1.
         11    1    3    3    0    0  0.32313197264E+01  0.18407336779E+01  0.57466783320E+01  0.68450010781E+01  0.51100000000E-03 0. -1.
        -11    1    3    3    0    0  0.21467213682E+01 -0.25240969956E+01  0.44722462456E+01  0.55660097932E+01  0.51100000000E-03 0.  1.
         12    1    3    3    0    0  0.14324574744E+02 -0.99966339733E+01  0.28856107067E+02  0.33731306638E+02  0.00000000000E+00 0. -1.
</event>
<event>
 7    1  0.4102844E-008  0.4614232E+02  0.7816164E-02  0.1320468E+00
        -11   -1    0    0    0    0  0.00000000000E+00  0.00000000000E+00  0.45593999997E+02  0.45594000000E+02  0.51100000000E-03 0. -1.
         11   -1    0    0    0    0 -0.00000000000E+00 -0.00000000000E+00 -0.45593999997E+02  0.45594000000E+02  0.51100000000E-03 0.  1.
    9900012    2    1    2    0    0  0.35109156653E+02  0.21947268462E+02  0.17741984712E+02  0.46142317684E+02  0.99999992938E+01 0.  0.
        -12    1    1    2    0    0 -0.35109156653E+02 -0.21947268462E+02 -0.17741984712E+02  0.45045682316E+02  0.00000000000E+00 0.  1.
         11    1    3    3    0    0  0.13800943136E+01  0.21455628148E+01  0.78703046967E+00  0.26697410601E+01  0.51100000000E-03 0. -1.
        -11    1    3    3    0    0  0.66992304004E+01  0.36138970644E+01  0.72329188892E+01  0.10500240753E+02  0.51100000000E-03 0.  1.
        -12    1    3    3    0    0  0.27029831939E+02  0.16187808582E+02  0.97220353532E+01  0.32972335871E+02  0.00000000000E+00 0.  1.
</event>
<event>
 7    1  0.4102844E-008  0.4614232E+02  0.7816164E-02  0.1320468E+00
        -11   -1    0    0    0    0  0.00000000000E+00  0.00000000000E+00  0.45593999997E+02  0.45594000000E+02  0.51100000000E-03 0. -1.
         11   -1    0    0    0    0 -0.00000000000E+00 -0.00000000000E+00 -0.45593999997E+02  0.45594000000E+02  0.51100000000E-03 0.  1.
    9900012    2    1    2    0    0  0.79978981472E+01 -0.37821589091E+02  0.23123029903E+02  0.46142317765E+02  0.10000000034E+02 0.  0.
        -12    1    1    2    0    0 -0.79978981472E+01  0.37821589091E+02 -0.23123029903E+02  0.45045682235E+02  0.00000000000E+00 0.  1.
         11    1    3    3    0    0  0.92728372581E+01 -0.26804032119E+02  0.19351387431E+02  0.34335373079E+02  0.51100000000E-03 0. -1.
        -11    1    3    3    0    0 -0.80529616785E+00 -0.43694243897E+01  0.22073495948E+01  0.49611252665E+01  0.51100000000E-03 0.  1.
         12    1    3    3    0    0 -0.46964294306E+00 -0.66481325820E+01  0.15642928765E+01  0.68458194196E+01  0.00000000000E+00 0. -1.
</event>
<event>
 7    1  0.4102844E-008  0.4614232E+02  0.7816164E-02  0.1320468E+00
        -11   -1    0    0    0    0  0.00000000000E+00  0.00000000000E+00  0.45593999997E+02  0.45594000000E+02  0.51100000000E-03 0.  1.
         11   -1    0    0    0    0 -0.00000000000E+00 -0.00000000000E+00 -0.45593999997E+02  0.45594000000E+02  0.51100000000E-03 0. -1.
    9900012    2    1    2    0    0  0.10107127914E+02 -0.13446746641E+02 -0.41786890951E+02  0.46142320016E+02  0.10000020558E+02 0.  0.
        -12    1    1    2    0    0 -0.10107127914E+02  0.13446746641E+02  0.41786890951E+02  0.45045679984E+02  0.00000000000E+00 0.  1.
         11    1    3    3    0    0  0.63322820059E+01 -0.58781948824E+01 -0.21133252054E+02  0.22831235471E+02  0.51100000000E-03 0.  1.
        -11    1    3    3    0    0  0.20580971979E+01 -0.81239353848E+01 -0.19344521305E+02  0.21081854638E+02  0.51100000000E-03 0. -1.
        -12    1    3    3    0    0  0.17167487103E+01  0.55538362604E+00 -0.13091175923E+01  0.22292299067E+01  0.00000000000E+00 0.  1.
</event>
<event>
 7    1  0.4102844E-008  0.4614232E+02  0.7816164E-02  0.1320468E+00
        -11   -1    0    0    0    0  0.00000000000E+00  0.00000000000E+00  0.45593999997E+02  0.45594000000E+02  0.51100000000E-03 0. -1.
         11   -1    0    0    0    0 -0.00000000000E+00 -0.00000000000E+00 -0.45593999997E+02  0.45594000000E+02  0.51100000000E-03 0.  1.
    9900012    2    1    2    0    0  0.24627662583E+02  0.32045508012E+01  0.37580880923E+02  0.46142317397E+02  0.99999966841E+01 0.  0.
        -12    1    1    2    0    0 -0.24627662583E+02 -0.32045508012E+01 -0.37580880923E+02  0.45045682603E+02  0.00000000000E+00 0.  1.
         11    1    3    3    0    0  0.13227022516E+02  0.43714409870E+00  0.16743864754E+02  0.21342498138E+02  0.51100000000E-03 0. -1.
        -11    1    3    3    0    0  0.49258000133E+01 -0.84825764685E+00  0.13379445057E+02  0.14282597701E+02  0.51100000000E-03 0.  1.
         12    1    3    3    0    0  0.64748400540E+01  0.36156643493E+01  0.74575711130E+01  0.10517221559E+02  0.00000000000E+00 0. -1.
</event>
<event>
 7    1  0.4102844E-008  0.4614232E+02  0.7816164E-02  0.1320468E+00
        -11   -1    0    0    0    0  0.00000000000E+00  0.00000000000E+00  0.45593999997E+02  0.45594000000E+02  0.51100000000E-03 0.  1.
         11   -1    0    0    0    0 -0.00000000000E+00 -0.00000000000E+00 -0.45593999997E+02  0.45594000000E+02  0.51100000000E-03 0. -1.
    9900012    2    1    2    0    0 -0.11623155298E+02 -0.38050899382E+02 -0.21122141315E+02  0.46142317226E+02  0.99999951176E+01 0.  0.
        -12    1    1    2    0    0  0.11623155298E+02  0.38050899382E+02  0.21122141315E+02  0.45045682774E+02  0.00000000000E+00 0.  1.
         11    1    3    3    0    0 -0.35443212752E+01 -0.12056558334E+02 -0.66860357035E+01  0.14234671961E+02  0.51100000000E-03 0. -1.
        -11    1    3    3    0    0 -0.86778750361E+01 -0.23749507614E+02 -0.15150621598E+02  0.29476871647E+02  0.51100000000E-03 0.  1.
        -12    1    3    3    0    0  0.59904101340E+00 -0.22448334343E+01  0.71451598596E+00  0.24307736171E+01  0.00000000000E+00 0.  1.
</event>
<event>
 7    1  0.4102844E-008  0.4614232E+02  0.7816164E-02  0.1320468E+00
        -11   -1    0    0    0    0  0.00000000000E+00  0.00000000000E+00  0.45593999997E+02  0.45594000000E+02  0.51100000000E-03 0. -1.
         11   -1    0    0    0    0 -0.00000000000E+00 -0.00000000000E+00 -0.45593999997E+02  0.45594000000E+02  0.51100000000E-03 0.  1.
    9900012    2    1    2    0    0 -0.15389299084E+00 -0.21498035992E+02  0.39584393981E+02  0.46142317838E+02  0.10000000701E+02 0.  0.
        -12    1    1    2    0    0  0.15389299084E+00  0.21498035992E+02 -0.39584393981E+02  0.45045682162E+02  0.00000000000E+00 0.  1.
         11    1    3    3    0    0  0.72475141371E+00 -0.65939080039E+01  0.11426208523E+02  0.13212234060E+02  0.51100000000E-03 0. -1.
        -11    1    3    3    0    0 -0.33560821902E+01 -0.95650570163E+01  0.11860243200E+02  0.15601890027E+02  0.51100000000E-03 0.  1.
         12    1    3    3    0    0  0.24774377856E+01 -0.53390709721E+01  0.16297942258E+02  0.17328193751E+02  0.00000000000E+00 0. -1.
</event>
<event>
 7    1  0.4102844E-008  0.4614232E+02  0.7816164E-02  0.1320468E+00
        -11   -1    0    0    0    0  0.00000000000E+00  0.00000000000E+00  0.45593999997E+02  0.45594000000E+02  0.51100000000E-03 0.  1.
         11   -1    0    0    0    0 -0.00000000000E+00 -0.00000000000E+00 -0.45593999997E+02  0.45594000000E+02  0.51100000000E-03 0. -1.
    9900012    2    1    2    0    0 -0.21346817623E+02  0.24120055626E+02 -0.31490471240E+02  0.46142317799E+02  0.10000000342E+02 0.  0.
        -12    1    1    2    0    0  0.21346817623E+02 -0.24120055626E+02  0.31490471240E+02  0.45045682201E+02  0.00000000000E+00 0.  1.
         11    1    3    3    0    0 -0.11685863853E+02  0.96819172076E+01 -0.12168762125E+02  0.19451933239E+02  0.51100000000E-03 0. -1.
        -11    1    3    3    0    0 -0.79885159881E+01  0.65193040998E+01 -0.11230929032E+02  0.15246359593E+02  0.51100000000E-03 0.  1.
        -12    1    3    3    0    0 -0.16724377822E+01  0.79188343189E+01 -0.80907800824E+01  0.11444024967E+02  0.00000000000E+00 0.  1.
</event>
<event>
 7    1  0.4102844E-008  0.4614232E+02  0.7816164E-02  0.1320468E+00
        -11   -1    0    0    0    0  0.00000000000E+00  0.00000000000E+00  0.45593999997E+02  0.45594000000E+02  0.51100000000E-03 0. -1.
         11   -1    0    0    0    0 -0.00000000000E+00 -0.00000000000E+00 -0.45593999997E+02  0.45594000000E+02  0.51100000000E-03 0.  1.
    9900012    2    1    2    0    0  0.29562326359E+02 -0.16356039968E+02  0.29793662516E+02  0.46142317529E+02  0.99999978807E+01 0.  0.
        -12    1    1    2    0    0 -0.29562326359E+02  0.16356039968E+02 -0.29793662516E+02  0.45045682471E+02  0.00000000000E+00 0.  1.
         11    1    3    3    0    0  0.49691421450E+01 -0.69361162924E+01  0.52073930685E+01  0.99959504656E+01  0.51100000000E-03 0.  1.
        -11    1    3    3    0    0  0.22940875371E+02 -0.92047096902E+01  0.22125396198E+02  0.33174441976E+02  0.51100000000E-03 0. -1.
        -12    1    3    3    0    0  0.16523088435E+01 -0.21521398563E+00  0.24608732492E+01  0.29719250870E+01  0.00000000000E+00 0.  1.
</event>
<event>
 7    1  0.4102844E-008  0.4614232E+02  0.7816164E-02  0.1320468E+00
        -11   -1    0    0    0    0  0.00000000000E+00  0.00000000000E+00  0.45593999997E+02  0.45594000000E+02  0.51100000000E-03 0.  1.
         11   -1    0    0    0    0 -0.00000000000E+00 -0.00000000000E+00 -0.45593999997E+02  0.45594000000E+02  0.51100000000E-03 0. -1.
    9900012    2    1    2    0    0 -0.30217518595E+02 -0.20554277616E+02 -0.26335086147E+02  0.46142317402E+02  0.99999967262E+01 0.  0.
        -12    1    1    2    0    0  0.30217518595E+02  0.20554277616E+02  0.26335086147E+02  0.45045682598E+02  0.00000000000E+00 0.  1.
         11    1    3    3    0    0 -0.33116066799E-01  0.38399284464E-01 -0.28504295375E+00  0.28951843729E+00  0.51100000000E-03 0. -1.
        -11    1    3    3    0    0 -0.74100005205E+01 -0.61823421442E+00 -0.48181281853E+01  0.88602867182E+01  0.51100000000E-03 0.  1.
         12    1    3    3    0    0 -0.22774402008E+02 -0.19974442686E+02 -0.21231915007E+02  0.36992512247E+02  0.00000000000E+00 0. -1.
</event>
<event>
 7    1  0.4102844E-008  0.4614232E+02  0.7816164E-02  0.1320468E+00
        -11   -1    0    0    0    0  0.00000000000E+00  0.00000000000E+00  0.45593999997E+02  0.45594000000E+02  0.51100000000E-03 0.  1.
         11   -1    0    0    0    0 -0.00000000000E+00 -0.00000000000E+00 -0.45593999997E+02  0.45594000000E+02  0.51100000000E-03 0. -1.
    9900012    2    1    2    0    0 -0.77157982805E+01 -0.24550630110E+02 -0.36970888205E+02  0.46142317004E+02  0.99999930949E+01 0.  0.
        -12    1    1    2    0    0  0.77157982805E+01  0.24550630110E+02  0.36970888205E+02  0.45045682996E+02  0.00000000000E+00 0.  1.
         11    1    3    3    0    0 -0.75677279844E+01 -0.15594100713E+02 -0.25601435493E+02  0.30917308800E+02  0.51100000000E-03 0. -1.
        -11    1    3    3    0    0 -0.55182121884E+00 -0.28570765665E+01 -0.73606488486E+01  0.79149570370E+01  0.51100000000E-03 0.  1.
         12    1    3    3    0    0  0.40375092267E+00 -0.60994528307E+01 -0.40088038638E+01  0.73100511667E+01  0.00000000000E+00 0. -1.
</event>
<event>
 7    1  0.4102844E-008  0.4614232E+02  0.7816164E-02  0.1320468E+00
        -11   -1    0    0    0    0  0.00000000000E+00  0.00000000000E+00  0.45593999997E+02  0.45594000000E+02  0.51100000000E-03 0.  1.
         11   -1    0    0    0    0 -0.00000000000E+00 -0.00000000000E+00 -0.45593999997E+02  0.45594000000E+02  0.51100000000E-03 0. -1.
    9900012    2    1    2    0    0 -0.32919856719E+02 -0.28176311615E+02 -0.12308194819E+02  0.46142321380E+02  0.10000033002E+02 0.  0.
        -12    1    1    2    0    0  0.32919856719E+02  0.28176311615E+02  0.12308194819E+02  0.45045678620E+02  0.00000000000E+00 0.  1.
         11    1    3    3    0    0 -0.49372450122E+01 -0.28599347493E+01  0.58868619334E+00  0.57360410368E+01  0.51100000000E-03 0. -1.
        -11    1    3    3    0    0 -0.10459895858E+02 -0.62637593323E+01 -0.21564617080E+01  0.12381212771E+02  0.51100000000E-03 0.  1.
        -12    1    3    3    0    0 -0.17522715849E+02 -0.19052617534E+02 -0.10740419304E+02  0.28025067572E+02  0.00000000000E+00 0.  1.
</event>
<event>
 7    1  0.4102844E-008  0.4614232E+02  0.7816164E-02  0.1320468E+00
        -11   -1    0    0    0    0  0.00000000000E+00  0.00000000000E+00  0.45593999997E+02  0.45594000000E+02  0.51100000000E-03 0. -1.
         11   -1    0    0    0    0 -0.00000000000E+00 -0.00000000000E+00 -0.45593999997E+02  0.45594000000E+02  0.51100000000E-03 0.  1.
    9900012    2    1    2    0    0  0.34211866041E+02 -0.44290473011E+01  0.28966277762E+02  0.46142317795E+02  0.10000000306E+02 0.  0.
        -12    1    1    2    0    0 -0.34211866041E+02  0.44290473011E+01 -0.28966277762E+02  0.45045682205E+02  0.00000000000E+00 0.  1.
         11    1    3    3    0    0  0.12117101917E+02 -0.44547389314E+01  0.10671323671E+02  0.16749507663E+02  0.51100000000E-03 0. -1.
        -11    1    3    3    0    0  0.21580227638E+02  0.12652694602E+01  0.17630613138E+02  0.27895262171E+02  0.51100000000E-03 0.  1.
        -12    1    3    3    0    0  0.51453648587E+00 -0.12395778299E+01  0.66434095284E+00  0.14975479603E+01  0.00000000000E+00 0.  1.
</event>
<event>
 7    1  0.4102844E-008  0.4614232E+02  0.7816164E-02  0.1320468E+00
        -11   -1    0    0    0    0  0.00000000000E+00  0.00000000000E+00  0.45593999997E+02  0.45594000000E+02  0.51100000000E-03 0.  1.
         11   -1    0    0    0    0 -0.00000000000E+00 -0.00000000000E+00 -0.45593999997E+02  0.45594000000E+02  0.51100000000E-03 0. -1.
    9900012    2    1    2    0    0 -0.29080265632E+02 -0.36271429015E+01 -0.34209580655E+02  0.46142318482E+02  0.10000006572E+02 0.  0.
        -12    1    1    2    0    0  0.29080265632E+02  0.36271429015E+01  0.34209580655E+02  0.45045681518E+02  0.00000000000E+00 0.  1.
         11    1    3    3    0    0 -0.11619372579E+02 -0.35422474382E+01 -0.81400939061E+01  0.14622532787E+02  0.51100000000E-03 0. -1.
        -11    1    3    3    0    0 -0.28628779592E+01 -0.11242812729E+01 -0.42240901285E+01  0.52252288242E+01  0.51100000000E-03 0.  1.
        -12    1    3    3    0    0 -0.14598015095E+02  0.10393858096E+01 -0.21845396620E+02  0.26294556871E+02  0.00000000000E+00 0.  1.
</event>
<event>
 7    1  0.4102844E-008  0.4614232E+02  0.7816164E-02  0.1320468E+00
        -11   -1    0    0    0    0  0.00000000000E+00  0.00000000000E+00  0.45593999997E+02  0.45594000000E+02  0.51100000000E-03 0. -1.
         11   -1    0    0    0    0 -0.00000000000E+00 -0.00000000000E+00 -0.45593999997E+02  0.45594000000E+02  0.51100000000E-03 0.  1.
    9900012    2    1    2    0    0  0.35698750566E+02  0.98841707682E+01  0.25632324947E+02  0.46142315346E+02  0.99999779810E+01 0.  0.
        -12    1    1    2    0    0 -0.35698750566E+02 -0.98841707682E+01 -0.25632324947E+02  0.45045684654E+02  0.00000000000E+00 0.  1.
         11    1    3    3    0    0  0.68450875956E+01 -0.11103932023E+01  0.69901134211E+01  0.98463131758E+01  0.51100000000E-03 0. -1.
        -11    1    3    3    0    0  0.54260384722E+01  0.36660169768E+01  0.47570644393E+01  0.80939011803E+01  0.51100000000E-03 0.  1.
         12    1    3    3    0    0  0.23427624498E+02  0.73285469936E+01  0.13885147086E+02  0.28202100990E+02  0.00000000000E+00 0. -1.
</event>
<event>
 7    1  0.4102844E-008  0.4614232E+02  0.7816164E-02  0.1320468E+00
        -11   -1    0    0    0    0  0.00000000000E+00  0.00000000000E+00  0.45593999997E+02  0.45594000000E+02  0.51100000000E-03 0.  1.
         11   -1    0    0    0    0 -0.00000000000E+00 -0.00000000000E+00 -0.45593999997E+02  0.45594000000E+02  0.51100000000E-03 0. -1.
    9900012    2    1    2    0    0  0.76368621472E-01 -0.10256796585E+02 -0.43862349851E+02  0.46142318267E+02  0.10000004610E+02 0.  0.
        -12    1    1    2    0    0 -0.76368621472E-01  0.10256796585E+02  0.43862349851E+02  0.45045681733E+02  0.00000000000E+00 0.  1.
         11    1    3    3    0    0  0.37159625198E+00 -0.53475058403E+00 -0.11906144337E+02  0.11923938745E+02  0.51100000000E-03 0. -1.
        -11    1    3    3    0    0 -0.12779146545E+01 -0.98881909998E+01 -0.31638489847E+02  0.33172329239E+02  0.51100000000E-03 0.  1.
        -12    1    3    3    0    0  0.98268702402E+00  0.16614499831E+00 -0.31771566704E+00  0.10460502821E+01  0.00000000000E+00 0.  1.
</event>
<event>
 7    1  0.4102844E-008  0.4614231E+02  0.7816164E-02  0.1320468E+00
        -11   -1    0    0    0    0  0.00000000000E+00  0.00000000000E+00  0.45593999997E+02  0.45594000000E+02  0.51100000000E-03 0. -1.
         11   -1    0    0    0    0 -0.00000000000E+00 -0.00000000000E+00 -0.45593999997E+02  0.45594000000E+02  0.51100000000E-03 0.  1.
    9900012    2    1    2    0    0 -0.37903777531E+00  0.41631478977E+02  0.17198551908E+02  0.46142313201E+02  0.99999584198E+01 0.  0.
        -12    1    1    2    0    0  0.37903777531E+00 -0.41631478977E+02 -0.17198551908E+02  0.45045686799E+02  0.00000000000E+00 0.  1.
         11    1    3    3    0    0 -0.23235738556E+00  0.23522412640E+02  0.74927217376E+01  0.24688028793E+02  0.51100000000E-03 0. -1.
        -11    1    3    3    0    0  0.14858731929E+01  0.12636336856E+02  0.92393986386E+01  0.15724227032E+02  0.51100000000E-03 0.  1.
        -12    1    3    3    0    0 -0.16325535826E+01  0.54727294806E+01  0.46643153223E+00  0.57300573768E+01  0.00000000000E+00 0.  1.
</event>
<event>
 7    1  0.4102844E-008  0.4614232E+02  0.7816164E-02  0.1320468E+00
        -11   -1    0    0    0    0  0.00000000000E+00  0.00000000000E+00  0.45593999997E+02  0.45594000000E+02  0.51100000000E-03 0. -1.
         11   -1    0    0    0    0 -0.00000000000E+00 -0.00000000000E+00 -0.45593999997E+02  0.45594000000E+02  0.51100000000E-03 0.  1.
    9900012    2    1    2    0    0  0.10712224635E+02  0.42063664807E+02  0.12042002926E+02  0.46142317765E+02  0.10000000031E+02 0.  0.
        -12    1    1    2    0    0 -0.10712224635E+02 -0.42063664807E+02 -0.12042002926E+02  0.45045682235E+02  0.00000000000E+00 0.  1.
         11    1    3    3    0    0  0.30404429038E+01  0.15747437939E+02  0.76943405589E+00  0.16056715844E+02  0.51100000000E-03 0.  1.
        -11    1    3    3    0    0  0.32184729188E+01  0.13488358998E+02  0.30083894672E+01  0.14189601962E+02  0.51100000000E-03 0. -1.
        -12    1    3    3    0    0  0.44533088127E+01  0.12827867870E+02  0.82641794027E+01  0.15895999958E+02  0.00000000000E+00 0.  1.
</event>
<event>
 7    1  0.4102844E-008  0.4614232E+02  0.7816164E-02  0.1320468E+00
        -11   -1    0    0    0    0  0.00000000000E+00  0.00000000000E+00  0.45593999997E+02  0.45594000000E+02  0.51100000000E-03 0. -1.
         11   -1    0    0    0    0 -0.00000000000E+00 -0.00000000000E+00 -0.45593999997E+02  0.45594000000E+02  0.51100000000E-03 0.  1.
    9900012    2    1    2    0    0 -0.24976852276E+02  0.25422067482E+02  0.27549751654E+02  0.46142317844E+02  0.10000000758E+02 0.  0.
        -12    1    1    2    0    0  0.24976852276E+02 -0.25422067482E+02 -0.27549751654E+02  0.45045682156E+02  0.00000000000E+00 0.  1.
         11    1    3    3    0    0 -0.63905482232E+01  0.48638133967E+01  0.55190302180E+01  0.97445103602E+01  0.51100000000E-03 0. -1.
        -11    1    3    3    0    0 -0.11162505963E+02  0.11407326589E+02  0.17726292362E+02  0.23852674492E+02  0.51100000000E-03 0.  1.
        -12    1    3    3    0    0 -0.74237980897E+01  0.91509274967E+01  0.43044290739E+01  0.12545132992E+02  0.00000000000E+00 0.  1.
</event>
<event>
 7    1  0.4102844E-008  0.4614232E+02  0.7816164E-02  0.1320468E+00
        -11   -1    0    0    0    0  0.00000000000E+00  0.00000000000E+00  0.45593999997E+02  0.45594000000E+02  0.51100000000E-03 0.  1.
         11   -1    0    0    0    0 -0.00000000000E+00 -0.00000000000E+00 -0.45593999997E+02  0.45594000000E+02  0.51100000000E-03 0. -1.
    9900012    2    1    2    0    0 -0.20047679702E+02  0.20643051203E+02 -0.34656433716E+02  0.46142318494E+02  0.10000006685E+02 0.  0.
        -12    1    1    2    0    0  0.20047679702E+02 -0.20643051203E+02  0.34656433716E+02  0.45045681506E+02  0.00000000000E+00 0.  1.
         11    1    3    3    0    0 -0.14316768392E+02  0.14983476725E+02 -0.27784756245E+02  0.34662185617E+02  0.51100000000E-03 0. -1.
        -11    1    3    3    0    0 -0.47051862163E+00 -0.61783839634E+00 -0.14896630041E+01  0.16799429110E+01  0.51100000000E-03 0.  1.
         12    1    3    3    0    0 -0.52603926885E+01  0.62774128748E+01 -0.53820144674E+01  0.98001899658E+01  0.00000000000E+00 0. -1.
</event>
<event>
 7    1  0.4102844E-008  0.4614232E+02  0.7816164E-02  0.1320468E+00
        -11   -1    0    0    0    0  0.00000000000E+00  0.00000000000E+00  0.45593999997E+02  0.45594000000E+02  0.51100000000E-03 0.  1.
         11   -1    0    0    0    0 -0.00000000000E+00 -0.00000000000E+00 -0.45593999997E+02  0.45594000000E+02  0.51100000000E-03 0. -1.
    9900012    2    1    2    0    0  0.72588108361E+00 -0.28543398235E+02 -0.34840508941E+02  0.46142317083E+02  0.99999938196E+01 0.  0.
        -12    1    1    2    0    0 -0.72588108361E+00  0.28543398235E+02  0.34840508941E+02  0.45045682917E+02  0.00000000000E+00 0.  1.
         11    1    3    3    0    0  0.27725942880E+01 -0.37402733377E+01 -0.47493522277E+01  0.66508097680E+01  0.51100000000E-03 0. -1.
        -11    1    3    3    0    0 -0.19275991248E+01 -0.50713967990E+01 -0.97135693158E+01  0.11126011549E+02  0.51100000000E-03 0.  1.
        -12    1    3    3    0    0 -0.11911407956E+00 -0.19731728098E+02 -0.20377587398E+02  0.28365495766E+02  0.00000000000E+00 0.  1.
</event>
<event>
 7    1  0.4102844E-008  0.4614232E+02  0.7816164E-02  0.1320468E+00
        -11   -1    0    0    0    0  0.00000000000E+00  0.00000000000E+00  0.45593999997E+02  0.45594000000E+02  0.51100000000E-03 0.  1.
         11   -1    0    0    0    0 -0.00000000000E+00 -0.00000000000E+00 -0.45593999997E+02  0.45594000000E+02  0.51100000000E-03 0. -1.
    9900012    2    1    2    0    0 -0.32075836240E+02  0.10201883919E+02 -0.29936193852E+02  0.46142318649E+02  0.10000008099E+02 0.  0.
        -12    1    1    2    0    0  0.32075836240E+02 -0.10201883919E+02  0.29936193852E+02  0.45045681351E+02  0.00000000000E+00 0.  1.
         11    1    3    3    0    0 -0.10079862079E+02  0.56670073471E+01 -0.97305302904E+01  0.15112968332E+02  0.51100000000E-03 0. -1.
        -11    1    3    3    0    0 -0.31548911792E+01 -0.11185384736E+01 -0.56180269381E+01  0.65396248828E+01  0.51100000000E-03 0.  1.
         12    1    3    3    0    0 -0.18841082982E+02  0.56534150451E+01 -0.14587636624E+02  0.24489725435E+02  0.00000000000E+00 0. -1.
</event>
<event>
 7    1  0.4102844E-008  0.4614232E+02  0.7816164E-02  0.1320468E+00
        -11   -1    0    0    0    0  0.00000000000E+00  0.00000000000E+00  0.45593999997E+02  0.45594000000E+02  0.51100000000E-03 0.  1.
         11   -1    0    0    0    0 -0.00000000000E+00 -0.00000000000E+00 -0.45593999997E+02  0.45594000000E+02  0.51100000000E-03 0. -1.
    9900012    2    1    2    0    0 -0.40785643262E+02  0.49286512753E+01 -0.18475747183E+02  0.46142317259E+02  0.99999954191E+01 0.  0.
        -12    1    1    2    0    0  0.40785643262E+02 -0.49286512753E+01  0.18475747183E+02  0.45045682741E+02  0.00000000000E+00 0.  1.
         11    1    3    3    0    0 -0.93214011307E+01  0.53082894670E+00 -0.21885449097E+01  0.95895791093E+01  0.51100000000E-03 0. -1.
        -11    1    3    3    0    0 -0.31544362674E+02  0.35238830460E+01 -0.16286515682E+02  0.35675133658E+02  0.51100000000E-03 0.  1.
        -12    1    3    3    0    0  0.80120543155E-01  0.87393928263E+00 -0.68659130909E-03  0.87760449097E+00  0.00000000000E+00 0.  1.
</event>
<event>
 7    1  0.4102844E-008  0.4614232E+02  0.7816164E-02  0.1320468E+00
        -11   -1    0    0    0    0  0.00000000000E+00  0.00000000000E+00  0.45593999997E+02  0.45594000000E+02  0.51100000000E-03 0. -1.
         11   -1    0    0    0    0 -0.00000000000E+00 -0.00000000000E+00 -0.45593999997E+02  0.45594000000E+02  0.51100000000E-03 0.  1.
    9900012    2    1    2    0    0  0.33204366416E+02  0.22366636178E+02 -0.20647449887E+02  0.46142317079E+02  0.99999937830E+01 0.  0.
        -12    1    1    2    0    0 -0.33204366416E+02 -0.22366636178E+02  0.20647449887E+02  0.45045682921E+02  0.00000000000E+00 0.  1.
         11    1    3    3    0    0  0.16703756131E+02  0.11157012137E+02 -0.10169577630E+02  0.22514766225E+02  0.51100000000E-03 0. -1.
        -11    1    3    3    0    0  0.44112987312E+01 -0.35614692393E+00 -0.26240560945E+01  0.51451013377E+01  0.51100000000E-03 0.  1.
         12    1    3    3    0    0  0.12089311553E+02  0.11565770965E+02 -0.78538161622E+01  0.18482449517E+02  0.00000000000E+00 0. -1.
</event>
<event>
 7    1  0.4102844E-008  0.4614232E+02  0.7816164E-02  0.1320468E+00
        -11   -1    0    0    0    0  0.00000000000E+00  0.00000000000E+00  0.45593999997E+02  0.45594000000E+02  0.51100000000E-03 0. -1.
         11   -1    0    0    0    0 -0.00000000000E+00 -0.00000000000E+00 -0.45593999997E+02  0.45594000000E+02  0.51100000000E-03 0.  1.
    9900012    2    1    2    0    0  0.17123926696E+02 -0.37383439389E+02 -0.18394639729E+02  0.46142321219E+02  0.10000031536E+02 0.  0.
        -12    1    1    2    0    0 -0.17123926696E+02  0.37383439389E+02  0.18394639729E+02  0.45045678781E+02  0.00000000000E+00 0.  1.
         11    1    3    3    0    0  0.11591337438E+01 -0.36166209564E+01 -0.44500339047E+01  0.58503282123E+01  0.51100000000E-03 0.  1.
        -11    1    3    3    0    0  0.13777334730E+02 -0.24476503373E+02 -0.87138350439E+01  0.29408248691E+02  0.51100000000E-03 0. -1.
         12    1    3    3    0    0  0.21874582219E+01 -0.92903150592E+01 -0.52307707806E+01  0.10883744316E+02  0.00000000000E+00 0. -1.
</event>
<event>
 7    1  0.4102844E-008  0.4614232E+02  0.7816164E-02  0.1320468E+00
        -11   -1    0    0    0    0  0.00000000000E+00  0.00000000000E+00  0.45593999997E+02  0.45594000000E+02  0.51100000000E-03 0.  1.
         11   -1    0    0    0    0 -0.00000000000E+00 -0.00000000000E+00 -0.45593999997E+02  0.45594000000E+02  0.51100000000E-03 0. -1.
    9900012    2    1    2    0    0  0.40242997139E+01  0.12740148430E+02 -0.43018683567E+02  0.46142317564E+02  0.99999982065E+01 0.  0.
        -12    1    1    2    0    0 -0.40242997139E+01 -0.12740148430E+02  0.43018683567E+02  0.45045682436E+02  0.00000000000E+00 0.  1.
         11    1    3    3    0    0  0.58921309818E+01  0.64111343385E+01 -0.20177882615E+02  0.21976505594E+02  0.51100000000E-03 0. -1.
        -11    1    3    3    0    0 -0.56424370457E+00 -0.42194624931E+00 -0.74692767422E+00  0.10267963805E+01  0.51100000000E-03 0.  1.
         12    1    3    3    0    0 -0.13035875633E+01  0.67509603411E+01 -0.22093873278E+02  0.23139015590E+02  0.00000000000E+00 0. -1.
</event>
<event>
 7    1  0.4102844E-008  0.4614232E+02  0.7816164E-02  0.1320468E+00
        -11   -1    0    0    0    0  0.00000000000E+00  0.00000000000E+00  0.45593999997E+02  0.45594000000E+02  0.51100000000E-03 0. -1.
         11   -1    0    0    0    0 -0.00000000000E+00 -0.00000000000E+00 -0.45593999997E+02  0.45594000000E+02  0.51100000000E-03 0.  1.
    9900012    2    1    2    0    0 -0.12379930305E+02  0.47035870265E+01  0.43054932141E+02  0.46142316667E+02  0.99999900201E+01 0.  0.
        -12    1    1    2    0    0  0.12379930305E+02 -0.47035870265E+01 -0.43054932141E+02  0.45045683333E+02  0.00000000000E+00 0.  1.
         11    1    3    3    0    0 -0.57971900380E+01  0.70352076120E+01  0.27588951529E+02  0.29056011516E+02  0.51100000000E-03 0. -1.
        -11    1    3    3    0    0  0.82340483458E-01  0.98022361442E-01  0.61170633829E+00  0.62495859381E+00  0.51100000000E-03 0.  1.
        -12    1    3    3    0    0 -0.66650807509E+01 -0.24296429469E+01  0.14854274274E+02  0.16461346557E+02  0.00000000000E+00 0.  1.
</event>
<event>
 7    1  0.4102844E-008  0.4614232E+02  0.7816164E-02  0.1320468E+00
        -11   -1    0    0    0    0  0.00000000000E+00  0.00000000000E+00  0.45593999997E+02  0.45594000000E+02  0.51100000000E-03 0.  1.
         11   -1    0    0    0    0 -0.00000000000E+00 -0.00000000000E+00 -0.45593999997E+02  0.45594000000E+02  0.51100000000E-03 0. -1.
    9900012    2    1    2    0    0  0.29629742437E+02  0.10244177090E+02 -0.32345768715E+02  0.46142317022E+02  0.99999932624E+01 0.  0.
        -12    1    1    2    0    0 -0.29629742437E+02 -0.10244177090E+02  0.32345768715E+02  0.45045682978E+02  0.00000000000E+00 0.  1.
         11    1    3    3    0    0  0.58188819213E+01  0.23743739818E+01 -0.33018718121E+01  0.70992532244E+01  0.51100000000E-03 0. -1.
        -11    1    3    3    0    0  0.18552355659E+02  0.28847649881E+01 -0.22214401684E+02  0.29085931514E+02  0.51100000000E-03 0.  1.
         12    1    3    3    0    0  0.52585048566E+01  0.49850381201E+01 -0.68294952187E+01  0.99571322843E+01  0.00000000000E+00 0. -1.
</event>
<event>
 7    1  0.4102844E-008  0.4614232E+02  0.7816164E-02  0.1320468E+00
        -11   -1    0    0    0    0  0.00000000000E+00  0.00000000000E+00  0.45593999997E+02  0.45594000000E+02  0.51100000000E-03 0.  1.
         11   -1    0    0    0    0 -0.00000000000E+00 -0.00000000000E+00 -0.45593999997E+02  0.45594000000E+02  0.51100000000E-03 0. -1.
    9900012    2    1    2    0    0 -0.31158234039E+02  0.93800017121E+01 -0.31149535275E+02  0.46142317317E+02  0.99999959471E+01 0.  0.
        -12    1    1    2    0    0  0.31158234039E+02 -0.93800017121E+01  0.31149535275E+02  0.45045682683E+02  0.00000000000E+00 0.  1.
         11    1    3    3    0    0 -0.86867696348E+01 -0.50098366851E+00 -0.87178261869E+01  0.12317119997E+02  0.51100000000E-03 0. -1.
        -11    1    3    3    0    0 -0.42259424201E+01 -0.60000119465E+00 -0.40910278636E+01  0.59122838239E+01  0.51100000000E-03 0.  1.
        -12    1    3    3    0    0 -0.18245521984E+02  0.10480986575E+02 -0.18340681225E+02  0.27912913496E+02  0.00000000000E+00 0.  1.
</event>
<event>
 7    1  0.4102844E-008  0.4614232E+02  0.7816164E-02  0.1320468E+00
        -11   -1    0    0    0    0  0.00000000000E+00  0.00000000000E+00  0.45593999997E+02  0.45594000000E+02  0.51100000000E-03 0.  1.
         11   -1    0    0    0    0 -0.00000000000E+00 -0.00000000000E+00 -0.45593999997E+02  0.45594000000E+02  0.51100000000E-03 0. -1.
    9900012    2    1    2    0    0 -0.43652295723E+02 -0.41829542112E+01 -0.10300169583E+02  0.46142317396E+02  0.99999966706E+01 0.  0.
        -12    1    1    2    0    0  0.43652295723E+02  0.41829542112E+01  0.10300169583E+02  0.45045682604E+02  0.00000000000E+00 0.  1.
         11    1    3    3    0    0 -0.39254794137E+02 -0.51915947550E+01 -0.85685474869E+01  0.40513103129E+02  0.51100000000E-03 0. -1.
        -11    1    3    3    0    0 -0.24713365656E+01 -0.80815065364E+00 -0.14214827098E+01  0.29633132225E+01  0.51100000000E-03 0.  1.
         12    1    3    3    0    0 -0.19261650207E+01  0.18167911974E+01 -0.31013938630E+00  0.26659010449E+01  0.00000000000E+00 0. -1.
</event>
<event>
 7    1  0.4102844E-008  0.4614232E+02  0.7816164E-02  0.1320468E+00
        -11   -1    0    0    0    0  0.00000000000E+00  0.00000000000E+00  0.45593999997E+02  0.45594000000E+02  0.51100000000E-03 0.  1.
         11   -1    0    0    0    0 -0.00000000000E+00 -0.00000000000E+00 -0.45593999997E+02  0.45594000000E+02  0.51100000000E-03 0. -1.
    9900012    2    1    2    0    0 -0.39829751063E+02  0.12447382050E+02 -0.16963702441E+02  0.46142316631E+02  0.99999896977E+01 0.  0.
        -12    1    1    2    0    0  0.39829751063E+02 -0.12447382050E+02  0.16963702441E+02  0.45045683369E+02  0.00000000000E+00 0.  1.
         11    1    3    3    0    0 -0.61840223732E+01  0.24272596447E+01 -0.85209987253E+00  0.66977456318E+01  0.51100000000E-03 0.  1.
        -11    1    3    3    0    0 -0.10695690706E+02  0.55895846812E+01 -0.22700320691E+01  0.12279833161E+02  0.51100000000E-03 0. -1.
         12    1    3    3    0    0 -0.22950037984E+02  0.44305377240E+01 -0.13841570499E+02  0.27164737839E+02  0.00000000000E+00 0. -1.
</event>
<event>
 7    1  0.4102844E-008  0.4614232E+02  0.7816164E-02  0.1320468E+00
        -11   -1    0    0    0    0  0.00000000000E+00  0.00000000000E+00  0.45593999997E+02  0.45594000000E+02  0.51100000000E-03 0.  1.
         11   -1    0    0    0    0 -0.00000000000E+00 -0.00000000000E+00 -0.45593999997E+02  0.45594000000E+02  0.51100000000E-03 0. -1.
    9900012    2    1    2    0    0  0.21198594517E+02 -0.25226023356E+02 -0.30714505196E+02  0.46142317706E+02  0.99999995020E+01 0.  0.
        -12    1    1    2    0    0 -0.21198594517E+02  0.25226023356E+02  0.30714505196E+02  0.45045682294E+02  0.00000000000E+00 0.  1.
         11    1    3    3    0    0  0.17196659080E+02 -0.14389015873E+02 -0.19444298749E+02  0.29679110758E+02  0.51100000000E-03 0. -1.
        -11    1    3    3    0    0  0.12205829771E+01 -0.34704175270E+01 -0.16514624097E+01  0.40324866978E+01  0.51100000000E-03 0.  1.
         12    1    3    3    0    0  0.27813524597E+01 -0.73665899555E+01 -0.96187440377E+01  0.12430720250E+02  0.00000000000E+00 0. -1.
</event>
<event>
 7    1  0.4102844E-008  0.4614232E+02  0.7816164E-02  0.1320468E+00
        -11   -1    0    0    0    0  0.00000000000E+00  0.00000000000E+00  0.45593999997E+02  0.45594000000E+02  0.51100000000E-03 0.  1.
         11   -1    0    0    0    0 -0.00000000000E+00 -0.00000000000E+00 -0.45593999997E+02  0.45594000000E+02  0.51100000000E-03 0. -1.
    9900012    2    1    2    0    0  0.38300064514E+02 -0.17208748147E+02 -0.16311882435E+02  0.46142318041E+02  0.10000002554E+02 0.  0.
        -12    1    1    2    0    0 -0.38300064514E+02  0.17208748147E+02  0.16311882435E+02  0.45045681959E+02  0.00000000000E+00 0.  1.
         11    1    3    3    0    0  0.99858855172E+01 -0.24006239521E+01 -0.35930351936E+01  0.10880753976E+02  0.51100000000E-03 0. -1.
        -11    1    3    3    0    0  0.13382011259E+02 -0.38325044321E+01 -0.83120313085E+01  0.16212839983E+02  0.51100000000E-03 0.  1.
        -12    1    3    3    0    0  0.14932167737E+02 -0.10975619762E+02 -0.44068159333E+01  0.19048724083E+02  0.00000000000E+00 0.  1.
</event>
<event>
 7    1  0.4102844E-008  0.4614232E+02  0.7816164E-02  0.1320468E+00
        -11   -1    0    0    0    0  0.00000000000E+00  0.00000000000E+00  0.45593999997E+02  0.45594000000E+02  0.51100000000E-03 0.  1.
         11   -1    0    0    0    0 -0.00000000000E+00 -0.00000000000E+00 -0.45593999997E+02  0.45594000000E+02  0.51100000000E-03 0. -1.
    9900012    2    1    2    0    0  0.44779554770E+02  0.42346552753E-01  0.48890887190E+01  0.46142317553E+02  0.99999981023E+01 0.  0.
        -12    1    1    2    0    0 -0.44779554770E+02 -0.42346552753E-01 -0.48890887190E+01  0.45045682447E+02  0.00000000000E+00 0.  1.
         11    1    3    3    0    0  0.44944623483E+01  0.24876851463E+00 -0.14535008933E+01  0.47301947827E+01  0.51100000000E-03 0. -1.
        -11    1    3    3    0    0  0.34237742074E+00  0.66885776391E+00  0.76511934820E+00  0.10723809420E+01  0.51100000000E-03 0.  1.
        -12    1    3    3    0    0  0.39942715001E+02 -0.87527972578E+00  0.55774702641E+01  0.40339741828E+02  0.00000000000E+00 0.  1.
</event>
<event>
 7    1  0.4102844E-008  0.4614232E+02  0.7816164E-02  0.1320468E+00
        -11   -1    0    0    0    0  0.00000000000E+00  0.00000000000E+00  0.45593999997E+02  0.45594000000E+02  0.51100000000E-03 0.  1.
         11   -1    0    0    0    0 -0.00000000000E+00 -0.00000000000E+00 -0.45593999997E+02  0.45594000000E+02  0.51100000000E-03 0. -1.
    9900012    2    1    2    0    0  0.25276270865E+01  0.37093774978E+02 -0.25431796265E+02  0.46142319829E+02  0.10000018858E+02 0.  0.
        -12    1    1    2    0    0 -0.25276270865E+01 -0.37093774978E+02  0.25431796265E+02  0.45045680171E+02  0.00000000000E+00 0.  1.
         11    1    3    3    0    0  0.66401194972E-01  0.10976758810E+02 -0.95378008717E+01  0.14541777361E+02  0.51100000000E-03 0. -1.
        -11    1    3    3    0    0 -0.66520493134E+00  0.28128632454E+01 -0.47969716591E+01  0.56005030664E+01  0.51100000000E-03 0.  1.
         12    1    3    3    0    0  0.31264308229E+01  0.23304152923E+02 -0.11097023734E+02  0.26000039402E+02  0.00000000000E+00 0. -1.
</event>
<event>
 7    1  0.4102844E-008  0.4614232E+02  0.7816164E-02  0.1320468E+00
        -11   -1    0    0    0    0  0.00000000000E+00  0.00000000000E+00  0.45593999997E+02  0.45594000000E+02  0.51100000000E-03 0. -1.
         11   -1    0    0    0    0 -0.00000000000E+00 -0.00000000000E+00 -0.45593999997E+02  0.45594000000E+02  0.51100000000E-03 0.  1.
    9900012    2    1    2    0    0  0.40976374171E+02 -0.43739353408E+01 -0.18191175387E+02  0.46142318603E+02  0.10000007673E+02 0.  0.
        -12    1    1    2    0    0 -0.40976374171E+02  0.43739353408E+01  0.18191175387E+02  0.45045681397E+02  0.00000000000E+00 0.  1.
         11    1    3    3    0    0  0.49973940064E+00  0.21443623147E-01  0.45601757258E+00  0.67686895715E+00  0.51100000000E-03 0. -1.
        -11    1    3    3    0    0  0.36703881847E+00 -0.25073954151E+00  0.63020796763E+00  0.77120046391E+00  0.51100000000E-03 0.  1.
         12    1    3    3    0    0  0.40109595952E+02 -0.41446394224E+01 -0.19277400927E+02  0.44694249182E+02  0.00000000000E+00 0. -1.
</event>
<event>
 7    1  0.4102844E-008  0.4614230E+02  0.7816164E-02  0.1320468E+00
        -11   -1    0    0    0    0  0.00000000000E+00  0.00000000000E+00  0.45593999997E+02  0.45594000000E+02  0.51100000000E-03 0.  1.
         11   -1    0    0    0    0 -0.00000000000E+00 -0.00000000000E+00 -0.45593999997E+02  0.45594000000E+02  0.51100000000E-03 0. -1.
    9900012    2    1    2    0    0 -0.29649686918E+02  0.33887637062E+02  0.12801910249E+01  0.46142303546E+02  0.99998703766E+01 0.  0.
        -12    1    1    2    0    0  0.29649686918E+02 -0.33887637062E+02 -0.12801910249E+01  0.45045696454E+02  0.00000000000E+00 0.  1.
         11    1    3    3    0    0 -0.47601819952E+01  0.64712548764E+01 -0.10339068645E+01  0.80997182648E+01  0.51100000000E-03 0. -1.
        -11    1    3    3    0    0  0.62858600902E+00  0.98175226595E+00  0.46244657370E+00  0.12541192037E+01  0.51100000000E-03 0.  1.
         12    1    3    3    0    0 -0.25518090932E+02  0.26434629919E+02  0.18516513156E+01  0.36788466078E+02  0.00000000000E+00 0. -1.
</event>
<event>
 7    1  0.4102844E-008  0.4614232E+02  0.7816164E-02  0.1320468E+00
        -11   -1    0    0    0    0  0.00000000000E+00  0.00000000000E+00  0.45593999997E+02  0.45594000000E+02  0.51100000000E-03 0.  1.
         11   -1    0    0    0    0 -0.00000000000E+00 -0.00000000000E+00 -0.45593999997E+02  0.45594000000E+02  0.51100000000E-03 0. -1.
    9900012    2    1    2    0    0  0.22990119995E+02  0.11412868968E+02 -0.37017754814E+02  0.46142319109E+02  0.10000012292E+02 0.  0.
        -12    1    1    2    0    0 -0.22990119995E+02 -0.11412868968E+02  0.37017754814E+02  0.45045680891E+02  0.00000000000E+00 0.  1.
         11    1    3    3    0    0  0.81711327882E+01  0.18670935073E+01 -0.64332486119E+01  0.10565989645E+02  0.51100000000E-03 0. -1.
        -11    1    3    3    0    0  0.66563824612E+01  0.43627829878E+01 -0.18201877885E+02  0.19865791242E+02  0.51100000000E-03 0.  1.
        -12    1    3    3    0    0  0.81626047452E+01  0.51829924726E+01 -0.12382628317E+02  0.15710538222E+02  0.00000000000E+00 0.  1.
</event>
<event>
 7    1  0.4102844E-008  0.4614232E+02  0.7816164E-02  0.1320468E+00
        -11   -1    0    0    0    0  0.00000000000E+00  0.00000000000E+00  0.45593999997E+02  0.45594000000E+02  0.51100000000E-03 0.  1.
         11   -1    0    0    0    0 -0.00000000000E+00 -0.00000000000E+00 -0.45593999997E+02  0.45594000000E+02  0.51100000000E-03 0. -1.
    9900012    2    1    2    0    0 -0.23988811419E+02 -0.35803564266E+02  0.13105544582E+02  0.46142316675E+02  0.99999900920E+01 0.  0.
        -12    1    1    2    0    0  0.23988811419E+02  0.35803564266E+02 -0.13105544582E+02  0.45045683325E+02  0.00000000000E+00 0.  1.
         11    1    3    3    0    0 -0.42682976269E+01 -0.79462006824E+01  0.16826066362E+01  0.91755999951E+01  0.51100000000E-03 0. -1.
        -11    1    3    3    0    0 -0.13902661829E+02 -0.23003331088E+02  0.57115035058E+01  0.27478328181E+02  0.51100000000E-03 0.  1.
         12    1    3    3    0    0 -0.58178519637E+01 -0.48540324964E+01  0.57114344397E+01  0.94883884989E+01  0.00000000000E+00 0. -1.
</event>
<event>
 7    1  0.4102844E-008  0.4614232E+02  0.7816164E-02  0.1320468E+00
        -11   -1    0    0    0    0  0.00000000000E+00  0.00000000000E+00  0.45593999997E+02  0.45594000000E+02  0.51100000000E-03 0. -1.
         11   -1    0    0    0    0 -0.00000000000E+00 -0.00000000000E+00 -0.45593999997E+02  0.45594000000E+02  0.51100000000E-03 0.  1.
    9900012    2    1    2    0    0 -0.30625360569E+01 -0.35843280591E+02  0.27110766600E+02  0.46142317007E+02  0.99999931236E+01 0.  0.
        -12    1    1    2    0    0  0.30625360569E+01  0.35843280591E+02 -0.27110766600E+02  0.45045682993E+02  0.00000000000E+00 0.  1.
         11    1    3    3    0    0 -0.29187638546E+01 -0.14846925244E+02  0.75484236406E+01  0.16909437346E+02  0.51100000000E-03 0. -1.
        -11    1    3    3    0    0  0.26398739480E+01 -0.91241826593E+01  0.78050355255E+01  0.12293828674E+02  0.51100000000E-03 0.  1.
         12    1    3    3    0    0 -0.27836461503E+01 -0.11872172688E+02  0.11757307434E+02  0.16939050987E+02  0.00000000000E+00 0. -1.
</event>
<event>
 7    1  0.4102844E-008  0.4614231E+02  0.7816164E-02  0.1320468E+00
        -11   -1    0    0    0    0  0.00000000000E+00  0.00000000000E+00  0.45593999997E+02  0.45594000000E+02  0.51100000000E-03 0.  1.
         11   -1    0    0    0    0 -0.00000000000E+00 -0.00000000000E+00 -0.45593999997E+02  0.45594000000E+02  0.51100000000E-03 0. -1.
    9900012    2    1    2    0    0 -0.15969021828E+02 -0.36771560057E+02 -0.20541579906E+02  0.46142314389E+02  0.99999692494E+01 0.  0.
        -12    1    1    2    0    0  0.15969021828E+02  0.36771560057E+02  0.20541579906E+02  0.45045685611E+02  0.00000000000E+00 0.  1.
         11    1    3    3    0    0 -0.89493208264E+01 -0.26759434284E+02 -0.16105082224E+02  0.32488941814E+02  0.51100000000E-03 0. -1.
        -11    1    3    3    0    0 -0.46345753164E+01 -0.90184783477E+01 -0.25535342800E+01  0.10456231523E+02  0.51100000000E-03 0.  1.
         12    1    3    3    0    0 -0.23851256851E+01 -0.99364742468E+00 -0.18829634016E+01  0.31971410526E+01  0.00000000000E+00 0. -1.
</event>
<event>
 7    1  0.4102844E-008  0.4614232E+02  0.7816164E-02  0.1320468E+00
        -11   -1    0    0    0    0  0.00000000000E+00  0.00000000000E+00  0.45593999997E+02  0.45594000000E+02  0.51100000000E-03 0.  1.
         11   -1    0    0    0    0 -0.00000000000E+00 -0.00000000000E+00 -0.45593999997E+02  0.45594000000E+02  0.51100000000E-03 0. -1.
    9900012    2    1    2    0    0  0.30697770019E+02  0.21667135178E+02 -0.24845423410E+02  0.46142324342E+02  0.10000060014E+02 0.  0.
        -12    1    1    2    0    0 -0.30697770019E+02 -0.21667135178E+02  0.24845423410E+02  0.45045675658E+02  0.00000000000E+00 0.  1.
         11    1    3    3    0    0  0.18173066836E+02  0.95039744894E+01 -0.14308207552E+02  0.25006213087E+02  0.51100000000E-03 0. -1.
        -11    1    3    3    0    0  0.11388294652E+02  0.95206524857E+01 -0.10631142976E+02  0.18258074380E+02  0.51100000000E-03 0.  1.
        -12    1    3    3    0    0  0.11364085316E+01  0.26425082031E+01  0.93927117852E-01  0.28780368757E+01  0.00000000000E+00 0.  1.
</event>
<event>
 7    1  0.4102844E-008  0.4614232E+02  0.7816164E-02  0.1320468E+00
        -11   -1    0    0    0    0  0.00000000000E+00  0.00000000000E+00  0.45593999997E+02  0.45594000000E+02  0.51100000000E-03 0.  1.
         11   -1    0    0    0    0 -0.00000000000E+00 -0.00000000000E+00 -0.45593999997E+02  0.45594000000E+02  0.51100000000E-03 0. -1.
    9900012    2    1    2    0    0  0.21163692424E+02  0.18748960800E+02 -0.35066906584E+02  0.46142319348E+02  0.10000014470E+02 0.  0.
        -12    1    1    2    0    0 -0.21163692424E+02 -0.18748960800E+02  0.35066906584E+02  0.45045680652E+02  0.00000000000E+00 0.  1.
         11    1    3    3    0    0  0.98525109885E+01  0.35306659465E+01 -0.11886157488E+02  0.15837244549E+02  0.51100000000E-03 0. -1.
        -11    1    3    3    0    0  0.99153970782E+01  0.10016454744E+02 -0.17623716485E+02  0.22566343254E+02  0.51100000000E-03 0.  1.
        -12    1    3    3    0    0  0.13957843570E+01  0.52018401092E+01 -0.55570326109E+01  0.77387315454E+01  0.00000000000E+00 0.  1.
</event>
<event>
 7    1  0.4102844E-008  0.4614232E+02  0.7816164E-02  0.1320468E+00
        -11   -1    0    0    0    0  0.00000000000E+00  0.00000000000E+00  0.45593999997E+02  0.45594000000E+02  0.51100000000E-03 0.  1.
         11   -1    0    0    0    0 -0.00000000000E+00 -0.00000000000E+00 -0.45593999997E+02  0.45594000000E+02  0.51100000000E-03 0. -1.
    9900012    2    1    2    0    0  0.44658492005E+02  0.57061368935E+01 -0.14740029423E+01  0.46142316621E+02  0.99999896072E+01 0.  0.
        -12    1    1    2    0    0 -0.44658492005E+02 -0.57061368935E+01  0.14740029423E+01  0.45045683379E+02  0.00000000000E+00 0.  1.
         11    1    3    3    0    0  0.33170998732E+02  0.46303287798E+01 -0.35782685593E+01  0.33683217003E+02  0.51100000000E-03 0. -1.
        -11    1    3    3    0    0  0.15526916242E+01  0.12116505386E+01  0.15529109711E+01  0.25080831432E+01  0.51100000000E-03 0.  1.
         12    1    3    3    0    0  0.99348016482E+01 -0.13584242487E+00  0.55135464599E+00  0.99510164756E+01  0.00000000000E+00 0. -1.
</event>
<event>
 7    1  0.4102844E-008  0.4614231E+02  0.7816164E-02  0.1320468E+00
        -11   -1    0    0    0    0  0.00000000000E+00  0.00000000000E+00  0.45593999997E+02  0.45594000000E+02  0.51100000000E-03 0.  1.
         11   -1    0    0    0    0 -0.00000000000E+00 -0.00000000000E+00 -0.45593999997E+02  0.45594000000E+02  0.51100000000E-03 0. -1.
    9900012    2    1    2    0    0  0.42332835143E+02 -0.89681772428E+01 -0.12514656590E+02  0.46142314703E+02  0.99999721172E+01 0.  0.
        -12    1    1    2    0    0 -0.42332835143E+02  0.89681772428E+01  0.12514656590E+02  0.45045685297E+02  0.00000000000E+00 0.  1.
         11    1    3    3    0    0  0.23775890506E+02 -0.50935509283E+01 -0.51720953723E+01  0.24859360435E+02  0.51100000000E-03 0. -1.
        -11    1    3    3    0    0  0.25559083974E+01 -0.88794785221E+00  0.11303565960E+01  0.29323753885E+01  0.51100000000E-03 0.  1.
        -12    1    3    3    0    0  0.16001036239E+02 -0.29866784623E+01 -0.84729178133E+01  0.18350578880E+02  0.00000000000E+00 0.  1.
</event>
<event>
 7    1  0.4102844E-008  0.4614232E+02  0.7816164E-02  0.1320468E+00
        -11   -1    0    0    0    0  0.00000000000E+00  0.00000000000E+00  0.45593999997E+02  0.45594000000E+02  0.51100000000E-03 0. -1.
         11   -1    0    0    0    0 -0.00000000000E+00 -0.00000000000E+00 -0.45593999997E+02  0.45594000000E+02  0.51100000000E-03 0.  1.
    9900012    2    1    2    0    0  0.44105491530E+02  0.43342857158E+01  0.80643072480E+01  0.46142317996E+02  0.10000002145E+02 0.  0.
        -12    1    1    2    0    0 -0.44105491530E+02 -0.43342857158E+01 -0.80643072480E+01  0.45045682004E+02  0.00000000000E+00 0.  1.
         11    1    3    3    0    0  0.36623495282E+02  0.96769702783E+00  0.51920374437E+01  0.37002352591E+02  0.51100000000E-03 0. -1.
        -11    1    3    3    0    0  0.20286061325E+00 -0.37508211322E+00 -0.90124417000E-01  0.43584594954E+00  0.51100000000E-03 0.  1.
         12    1    3    3    0    0  0.72791356354E+01  0.37416708012E+01  0.29623942213E+01  0.87041194560E+01  0.00000000000E+00 0. -1.
</event>
<event>
 7    1  0.4102844E-008  0.4614232E+02  0.7816164E-02  0.1320468E+00
        -11   -1    0    0    0    0  0.00000000000E+00  0.00000000000E+00  0.45593999997E+02  0.45594000000E+02  0.51100000000E-03 0.  1.
         11   -1    0    0    0    0 -0.00000000000E+00 -0.00000000000E+00 -0.45593999997E+02  0.45594000000E+02  0.51100000000E-03 0. -1.
    9900012    2    1    2    0    0 -0.42362635220E+01  0.13397311705E+02 -0.42798125013E+02  0.46142318807E+02  0.10000009533E+02 0.  0.
        -12    1    1    2    0    0  0.42362635220E+01 -0.13397311705E+02  0.42798125013E+02  0.45045681193E+02  0.00000000000E+00 0.  1.
         11    1    3    3    0    0 -0.13834866842E+01  0.36332670051E+01 -0.17947703213E+02  0.18363951520E+02  0.51100000000E-03 0. -1.
        -11    1    3    3    0    0 -0.15003835697E+01 -0.53005483919E+00 -0.65238593392E+01  0.67151209913E+01  0.51100000000E-03 0.  1.
        -12    1    3    3    0    0 -0.13523932681E+01  0.10294099539E+02 -0.18326562461E+02  0.21063246295E+02  0.00000000000E+00 0.  1.
</event>
<event>
 7    1  0.4102844E-008  0.4614232E+02  0.7816164E-02  0.1320468E+00
        -11   -1    0    0    0    0  0.00000000000E+00  0.00000000000E+00  0.45593999997E+02  0.45594000000E+02  0.51100000000E-03 0. -1.
         11   -1    0    0    0    0 -0.00000000000E+00 -0.00000000000E+00 -0.45593999997E+02  0.45594000000E+02  0.51100000000E-03 0.  1.
    9900012    2    1    2    0    0 -0.40740624427E+01  0.44576796370E+02  0.50423000600E+01  0.46142317085E+02  0.99999938339E+01 0.  0.
        -12    1    1    2    0    0  0.40740624427E+01 -0.44576796370E+02 -0.50423000600E+01  0.45045682915E+02  0.00000000000E+00 0.  1.
         11    1    3    3    0    0 -0.16190801723E+01  0.19598073094E+02  0.44890907748E+01  0.20170717038E+02  0.51100000000E-03 0. -1.
        -11    1    3    3    0    0 -0.41924462379E+01  0.97942985477E+01  0.82411492123E+00  0.10685693949E+02  0.51100000000E-03 0.  1.
         12    1    3    3    0    0  0.17374639675E+01  0.15184424728E+02 -0.27090563607E+00  0.15285906098E+02  0.00000000000E+00 0. -1.
</event>
<event>
 7    1  0.4102844E-008  0.4614232E+02  0.7816164E-02  0.1320468E+00
        -11   -1    0    0    0    0  0.00000000000E+00  0.00000000000E+00  0.45593999997E+02  0.45594000000E+02  0.51100000000E-03 0.  1.
         11   -1    0    0    0    0 -0.00000000000E+00 -0.00000000000E+00 -0.45593999997E+02  0.45594000000E+02  0.51100000000E-03 0. -1.
    9900012    2    1    2    0    0  0.34343502049E+02 -0.94097983538E+00 -0.29133347367E+02  0.46142317578E+02  0.99999983346E+01 0.  0.
        -12    1    1    2    0    0 -0.34343502049E+02  0.94097983538E+00  0.29133347367E+02  0.45045682422E+02  0.00000000000E+00 0.  1.
         11    1    3    3    0    0  0.66874607998E+01 -0.12936402992E+01 -0.74903278172E+01  0.10124260380E+02  0.51100000000E-03 0. -1.
        -11    1    3    3    0    0  0.19685541210E+01  0.33288623529E-01 -0.50898160984E+01  0.54573383290E+01  0.51100000000E-03 0.  1.
         12    1    3    3    0    0  0.25687487128E+02  0.31937184026E+00 -0.16553203451E+02  0.30560718869E+02  0.00000000000E+00 0. -1.
</event>
<event>
 7    1  0.4102844E-008  0.4614232E+02  0.7816164E-02  0.1320468E+00
        -11   -1    0    0    0    0  0.00000000000E+00  0.00000000000E+00  0.45593999997E+02  0.45594000000E+02  0.51100000000E-03 0.  1.
         11   -1    0    0    0    0 -0.00000000000E+00 -0.00000000000E+00 -0.45593999997E+02  0.45594000000E+02  0.51100000000E-03 0. -1.
    9900012    2    1    2    0    0  0.18474875348E+02 -0.40620001191E+02 -0.61488201939E+01  0.46142317569E+02  0.99999982464E+01 0.  0.
        -12    1    1    2    0    0 -0.18474875348E+02  0.40620001191E+02  0.61488201939E+01  0.45045682431E+02  0.00000000000E+00 0.  1.
         11    1    3    3    0    0  0.15271078821E+02 -0.35832994387E+02 -0.57472301882E+01  0.39373087131E+02  0.51100000000E-03 0. -1.
        -11    1    3    3    0    0  0.21548716820E+01 -0.23640156726E+01 -0.19128036040E+01  0.37270443994E+01  0.51100000000E-03 0.  1.
        -12    1    3    3    0    0  0.10489248454E+01 -0.24229911315E+01  0.15112135983E+01  0.30421860387E+01  0.00000000000E+00 0.  1.
</event>
<event>
 7    1  0.4102844E-008  0.4614232E+02  0.7816164E-02  0.1320468E+00
        -11   -1    0    0    0    0  0.00000000000E+00  0.00000000000E+00  0.45593999997E+02  0.45594000000E+02  0.51100000000E-03 0. -1.
         11   -1    0    0    0    0 -0.00000000000E+00 -0.00000000000E+00 -0.45593999997E+02  0.45594000000E+02  0.51100000000E-03 0.  1.
    9900012    2    1    2    0    0  0.44363230599E+02 -0.77654456849E+01  0.84571485317E+00  0.46142316416E+02  0.99999877380E+01 0.  0.
        -12    1    1    2    0    0 -0.44363230599E+02  0.77654456849E+01 -0.84571485317E+00  0.45045683584E+02  0.00000000000E+00 0.  1.
         11    1    3    3    0    0  0.70457071601E+01 -0.46563955643E+01  0.27222911100E+00  0.84497407053E+01  0.51100000000E-03 0. -1.
        -11    1    3    3    0    0  0.16053059165E+02  0.60265791968E+00 -0.59078732718E+00  0.16075227372E+02  0.51100000000E-03 0.  1.
        -12    1    3    3    0    0  0.21264464274E+02 -0.37117080402E+01  0.11642730694E+01  0.21617348340E+02  0.00000000000E+00 0.  1.
</event>
<event>
 7    1  0.4102844E-008  0.4614232E+02  0.7816164E-02  0.1320468E+00
        -11   -1    0    0    0    0  0.00000000000E+00  0.00000000000E+00  0.45593999997E+02  0.45594000000E+02  0.51100000000E-03 0.  1.
         11   -1    0    0    0    0 -0.00000000000E+00 -0.00000000000E+00 -0.45593999997E+02  0.45594000000E+02  0.51100000000E-03 0. -1.
    9900012    2    1    2    0    0 -0.21765127586E+02  0.46380137044E+01 -0.39164798115E+02  0.46142319171E+02  0.10000012855E+02 0.  0.
        -12    1    1    2    0    0  0.21765127586E+02 -0.46380137044E+01  0.39164798115E+02  0.45045680829E+02  0.00000000000E+00 0.  1.
         11    1    3    3    0    0 -0.11125840587E+02 -0.30756535752E+00 -0.19226647260E+02  0.22215825223E+02  0.51100000000E-03 0. -1.
        -11    1    3    3    0    0 -0.26159696951E+01 -0.10064431494E+01 -0.72809619282E+01  0.78018351764E+01  0.51100000000E-03 0.  1.
         12    1    3    3    0    0 -0.80233173033E+01  0.59520222114E+01 -0.12657188927E+02  0.16124658771E+02  0.00000000000E+00 0. -1.
</event>
<event>
 7    1  0.4102844E-008  0.4614232E+02  0.7816164E-02  0.1320468E+00
        -11   -1    0    0    0    0  0.00000000000E+00  0.00000000000E+00  0.45593999997E+02  0.45594000000E+02  0.51100000000E-03 0.  1.
         11   -1    0    0    0    0 -0.00000000000E+00 -0.00000000000E+00 -0.45593999997E+02  0.45594000000E+02  0.51100000000E-03 0. -1.
    9900012    2    1    2    0    0 -0.99058143369E+01 -0.27986527675E+02 -0.33878352303E+02  0.46142316037E+02  0.99999842782E+01 0.  0.
        -12    1    1    2    0    0  0.99058143369E+01  0.27986527675E+02  0.33878352303E+02  0.45045683963E+02  0.00000000000E+00 0.  1.
         11    1    3    3    0    0 -0.83210384694E+01 -0.18119748583E+02 -0.23972445953E+02  0.31180813574E+02  0.51100000000E-03 0. -1.
        -11    1    3    3    0    0 -0.20471441843E+01 -0.15033700628E+01 -0.98398375806E+00  0.27238107780E+01  0.51100000000E-03 0.  1.
         12    1    3    3    0    0  0.46236831685E+00 -0.83634090284E+01 -0.89219225916E+01  0.12237691685E+02  0.00000000000E+00 0. -1.
</event>
<event>
 7    1  0.4102844E-008  0.4614232E+02  0.7816164E-02  0.1320468E+00
        -11   -1    0    0    0    0  0.00000000000E+00  0.00000000000E+00  0.45593999997E+02  0.45594000000E+02  0.51100000000E-03 0.  1.
         11   -1    0    0    0    0 -0.00000000000E+00 -0.00000000000E+00 -0.45593999997E+02  0.45594000000E+02  0.51100000000E-03 0. -1.
    9900012    2    1    2    0    0  0.26050807401E+02  0.36713073006E+02 -0.16183722532E+01  0.46142318470E+02  0.10000006464E+02 0.  0.
        -12    1    1    2    0    0 -0.26050807401E+02 -0.36713073006E+02  0.16183722532E+01  0.45045681530E+02  0.00000000000E+00 0.  1.
         11    1    3    3    0    0  0.18861019240E+02  0.25374188808E+02 -0.71265683481E+00  0.31624284726E+02  0.51100000000E-03 0.  1.
        -11    1    3    3    0    0  0.69994909056E+01  0.11301921431E+02  0.29960871759E+00  0.13297220259E+02  0.51100000000E-03 0. -1.
        -12    1    3    3    0    0  0.19029725515E+00  0.36962766842E-01 -0.12053241360E+01  0.12208134846E+01  0.00000000000E+00 0.  1.
</event>
<event>
 7    1  0.4102844E-008  0.4614232E+02  0.7816164E-02  0.1320468E+00
        -11   -1    0    0    0    0  0.00000000000E+00  0.00000000000E+00  0.45593999997E+02  0.45594000000E+02  0.51100000000E-03 0.  1.
         11   -1    0    0    0    0 -0.00000000000E+00 -0.00000000000E+00 -0.45593999997E+02  0.45594000000E+02  0.51100000000E-03 0. -1.
    9900012    2    1    2    0    0  0.35695169235E+01  0.98373087910E+01 -0.43813233486E+02  0.46142317368E+02  0.99999964141E+01 0.  0.
        -12    1    1    2    0    0 -0.35695169235E+01 -0.98373087910E+01  0.43813233486E+02  0.45045682632E+02  0.00000000000E+00 0.  1.
         11    1    3    3    0    0  0.19394419879E+01  0.54176267333E+01 -0.92685941765E+01  0.10909580785E+02  0.51100000000E-03 0. -1.
        -11    1    3    3    0    0  0.21217815967E+01  0.31491603708E+01 -0.32800594523E+02  0.33019663376E+02  0.51100000000E-03 0.  1.
        -12    1    3    3    0    0 -0.49170666108E+00  0.12705216869E+01 -0.17440447865E+01  0.22130732060E+01  0.00000000000E+00 0.  1.
</event>
<event>
 7    1  0.4102844E-008  0.4614232E+02  0.7816164E-02  0.1320468E+00
        -11   -1    0    0    0    0  0.00000000000E+00  0.00000000000E+00  0.45593999997E+02  0.45594000000E+02  0.51100000000E-03 0. -1.
         11   -1    0    0    0    0 -0.00000000000E+00 -0.00000000000E+00 -0.45593999997E+02  0.45594000000E+02  0.51100000000E-03 0.  1.
    9900012    2    1    2    0    0 -0.31420109012E+02 -0.21164218310E+02  0.24371419513E+02  0.46142317898E+02  0.10000001245E+02 0.  0.
        -12    1    1    2    0    0  0.31420109012E+02  0.21164218310E+02 -0.24371419513E+02  0.45045682102E+02  0.00000000000E+00 0.  1.
         11    1    3    3    0    0 -0.16703652445E+02 -0.78098150410E+01  0.13587615404E+02  0.22904770434E+02  0.51100000000E-03 0. -1.
        -11    1    3    3    0    0 -0.11630659451E+01  0.43865103089E+00  0.75004578415E+00  0.14517940828E+01  0.51100000000E-03 0.  1.
         12    1    3    3    0    0 -0.13553390621E+02 -0.13793054300E+02  0.10033758324E+02  0.21785753381E+02  0.00000000000E+00 0. -1.
</event>
<event>
 7    1  0.4102844E-008  0.4614232E+02  0.7816164E-02  0.1320468E+00
        -11   -1    0    0    0    0  0.00000000000E+00  0.00000000000E+00  0.45593999997E+02  0.45594000000E+02  0.51100000000E-03 0.  1.
         11   -1    0    0    0    0 -0.00000000000E+00 -0.00000000000E+00 -0.45593999997E+02  0.45594000000E+02  0.51100000000E-03 0. -1.
    9900012    2    1    2    0    0  0.11392480362E+02 -0.43528078787E+02  0.21520477355E+01  0.46142316954E+02  0.99999926359E+01 0.  0.
        -12    1    1    2    0    0 -0.11392480362E+02  0.43528078787E+02 -0.21520477355E+01  0.45045683046E+02  0.00000000000E+00 0.  1.
         11    1    3    3    0    0  0.66520330091E+01 -0.10664329622E+02 -0.41591725055E+00  0.12575788518E+02  0.51100000000E-03 0. -1.
        -11    1    3    3    0    0  0.10177810284E+01 -0.74213752378E+01  0.23552154414E+01  0.78523708954E+01  0.51100000000E-03 0.  1.
         12    1    3    3    0    0  0.37226663244E+01 -0.25442373927E+02  0.21274954470E+00  0.25714157540E+02  0.00000000000E+00 0. -1.
</event>
<event>
 7    1  0.4102844E-008  0.4614232E+02  0.7816164E-02  0.1320468E+00
        -11   -1    0    0    0    0  0.00000000000E+00  0.00000000000E+00  0.45593999997E+02  0.45594000000E+02  0.51100000000E-03 0.  1.
         11   -1    0    0    0    0 -0.00000000000E+00 -0.00000000000E+00 -0.45593999997E+02  0.45594000000E+02  0.51100000000E-03 0. -1.
    9900012    2    1    2    0    0  0.34750558788E+02  0.28632520839E+02  0.13002759392E+01  0.46142319817E+02  0.10000018748E+02 0.  0.
        -12    1    1    2    0    0 -0.34750558788E+02 -0.28632520839E+02 -0.13002759392E+01  0.45045680183E+02  0.00000000000E+00 0.  1.
         11    1    3    3    0    0  0.11721525029E+02  0.81902026794E+01  0.13469435050E+01  0.14362723489E+02  0.51100000000E-03 0. -1.
        -11    1    3    3    0    0  0.53702591745E+01  0.60880286515E+01 -0.33538188290E+01  0.87836141457E+01  0.51100000000E-03 0.  1.
        -12    1    3    3    0    0  0.17658774584E+02  0.14354289508E+02  0.33071512631E+01  0.22995982183E+02  0.00000000000E+00 0.  1.
</event>
<event>
 7    1  0.4102844E-008  0.4614232E+02  0.7816164E-02  0.1320468E+00
        -11   -1    0    0    0    0  0.00000000000E+00  0.00000000000E+00  0.45593999997E+02  0.45594000000E+02  0.51100000000E-03 0. -1.
         11   -1    0    0    0    0 -0.00000000000E+00 -0.00000000000E+00 -0.45593999997E+02  0.45594000000E+02  0.51100000000E-03 0.  1.
    9900012    2    1    2    0    0 -0.30497130921E+02  0.31120458294E+02  0.11426091661E+02  0.46142317749E+02  0.99999998851E+01 0.  0.
        -12    1    1    2    0    0  0.30497130921E+02 -0.31120458294E+02 -0.11426091661E+02  0.45045682251E+02  0.00000000000E+00 0.  1.
         11    1    3    3    0    0 -0.22227294242E+02  0.19620611261E+02  0.82770256843E+01  0.30781977682E+02  0.51100000000E-03 0. -1.
        -11    1    3    3    0    0 -0.60064441419E+01  0.54198634489E+01 -0.12962799164E+00  0.80912974678E+01  0.51100000000E-03 0.  1.
        -12    1    3    3    0    0 -0.22633925368E+01  0.60799835838E+01  0.32786939686E+01  0.72690425982E+01  0.00000000000E+00 0.  1.
</event>
<event>
 7    1  0.4102844E-008  0.4614232E+02  0.7816164E-02  0.1320468E+00
        -11   -1    0    0    0    0  0.00000000000E+00  0.00000000000E+00  0.45593999997E+02  0.45594000000E+02  0.51100000000E-03 0.  1.
         11   -1    0    0    0    0 -0.00000000000E+00 -0.00000000000E+00 -0.45593999997E+02  0.45594000000E+02  0.51100000000E-03 0. -1.
    9900012    2    1    2    0    0  0.23500665489E+02 -0.17339739242E+02 -0.34295271756E+02  0.46142317630E+02  0.99999988034E+01 0.  0.
        -12    1    1    2    0    0 -0.23500665489E+02  0.17339739242E+02  0.34295271756E+02  0.45045682370E+02  0.00000000000E+00 0.  1.
         11    1    3    3    0    0  0.69953289166E+01 -0.19330450511E+01 -0.96625340007E+01  0.12084529507E+02  0.51100000000E-03 0. -1.
        -11    1    3    3    0    0  0.47390157780E+01 -0.23654587795E+01 -0.26589193533E+01  0.59265097798E+01  0.51100000000E-03 0.  1.
         12    1    3    3    0    0  0.11766320794E+02 -0.13041235411E+02 -0.21973818402E+02  0.28131278343E+02  0.00000000000E+00 0. -1.
</event>
<event>
 7    1  0.4102844E-008  0.4614232E+02  0.7816164E-02  0.1320468E+00
        -11   -1    0    0    0    0  0.00000000000E+00  0.00000000000E+00  0.45593999997E+02  0.45594000000E+02  0.51100000000E-03 0. -1.
         11   -1    0    0    0    0 -0.00000000000E+00 -0.00000000000E+00 -0.45593999997E+02  0.45594000000E+02  0.51100000000E-03 0.  1.
    9900012    2    1    2    0    0 -0.22979492541E+02 -0.37770974274E+02  0.86261293483E+01  0.46142315606E+02  0.99999803451E+01 0.  0.
        -12    1    1    2    0    0  0.22979492541E+02  0.37770974274E+02 -0.86261293483E+01  0.45045684394E+02  0.00000000000E+00 0.  1.
         11    1    3    3    0    0 -0.11529035851E+02 -0.23409859223E+02  0.50978891286E+01  0.26588129877E+02  0.51100000000E-03 0. -1.
        -11    1    3    3    0    0 -0.13576872881E+01 -0.19037557267E+01  0.25967408729E+01  0.34943760618E+01  0.51100000000E-03 0.  1.
         12    1    3    3    0    0 -0.10092769401E+02 -0.12457359324E+02  0.93149934679E+00  0.16059809667E+02  0.00000000000E+00 0. -1.
</event>
<event>
 7    1  0.4102844E-008  0.4614232E+02  0.7816164E-02  0.1320468E+00
        -11   -1    0    0    0    0  0.00000000000E+00  0.00000000000E+00  0.45593999997E+02  0.45594000000E+02  0.51100000000E-03 0. -1.
         11   -1    0    0    0    0 -0.00000000000E+00 -0.00000000000E+00 -0.45593999997E+02  0.45594000000E+02  0.51100000000E-03 0.  1.
    9900012    2    1    2    0    0  0.33128452744E+02 -0.27145867357E+02  0.13954244165E+02  0.46142318453E+02  0.10000006311E+02 0.  0.
        -12    1    1    2    0    0 -0.33128452744E+02  0.27145867357E+02 -0.13954244165E+02  0.45045681547E+02  0.00000000000E+00 0.  1.
         11    1    3    3    0    0  0.21754482943E+02 -0.20940780712E+02  0.10038373701E+02  0.31820477240E+02  0.51100000000E-03 0. -1.
        -11    1    3    3    0    0  0.73038691813E+01 -0.51645766137E+01  0.59198455355E+00  0.89649206683E+01  0.51100000000E-03 0.  1.
         12    1    3    3    0    0  0.40701006198E+01 -0.10405100317E+01  0.33238859104E+01  0.53569205452E+01  0.00000000000E+00 0. -1.
</event>
<event>
 7    1  0.4102844E-008  0.4614232E+02  0.7816164E-02  0.1320468E+00
        -11   -1    0    0    0    0  0.00000000000E+00  0.00000000000E+00  0.45593999997E+02  0.45594000000E+02  0.51100000000E-03 0. -1.
         11   -1    0    0    0    0 -0.00000000000E+00 -0.00000000000E+00 -0.45593999997E+02  0.45594000000E+02  0.51100000000E-03 0.  1.
    9900012    2    1    2    0    0 -0.17458456208E+02 -0.15687566379E+01  0.41495238333E+02  0.46142317688E+02  0.99999993371E+01 0.  0.
        -12    1    1    2    0    0  0.17458456208E+02  0.15687566379E+01 -0.41495238333E+02  0.45045682312E+02  0.00000000000E+00 0.  1.
         11    1    3    3    0    0  0.13254739200E+00 -0.32959417942E+00  0.18702989611E+00  0.40147425496E+00  0.51100000000E-03 0. -1.
        -11    1    3    3    0    0 -0.13688643947E+02 -0.36310937627E+01  0.24281838668E+02  0.28109989405E+02  0.51100000000E-03 0.  1.
         12    1    3    3    0    0 -0.39023596532E+01  0.23919313043E+01  0.17026369770E+02  0.17630854028E+02  0.00000000000E+00 0. -1.
</event>
<event>
 7    1  0.4102844E-008  0.4614232E+02  0.7816164E-02  0.1320468E+00
        -11   -1    0    0    0    0  0.00000000000E+00  0.00000000000E+00  0.45593999997E+02  0.45594000000E+02  0.51100000000E-03 0.  1.
         11   -1    0    0    0    0 -0.00000000000E+00 -0.00000000000E+00 -0.45593999997E+02  0.45594000000E+02  0.51100000000E-03 0. -1.
    9900012    2    1    2    0    0  0.32613984392E+02 -0.87796298685E+01 -0.29805362045E+02  0.46142317796E+02  0.10000000321E+02 0.  0.
        -12    1    1    2    0    0 -0.32613984392E+02  0.87796298685E+01  0.29805362045E+02  0.45045682204E+02  0.00000000000E+00 0.  1.
         11    1    3    3    0    0  0.92908490365E+01  0.28173801746E+00 -0.74674792687E+01  0.11923191646E+02  0.51100000000E-03 0. -1.
        -11    1    3    3    0    0  0.54346849145E+01 -0.22038713566E+01 -0.94770513555E+01  0.11144835204E+02  0.51100000000E-03 0.  1.
        -12    1    3    3    0    0  0.17888450441E+02 -0.68574965294E+01 -0.12860831421E+02  0.23074290946E+02  0.00000000000E+00 0.  1.
</event>
<event>
 7    1  0.4102844E-008  0.4614232E+02  0.7816164E-02  0.1320468E+00
        -11   -1    0    0    0    0  0.00000000000E+00  0.00000000000E+00  0.45593999997E+02  0.45594000000E+02  0.51100000000E-03 0. -1.
         11   -1    0    0    0    0 -0.00000000000E+00 -0.00000000000E+00 -0.45593999997E+02  0.45594000000E+02  0.51100000000E-03 0.  1.
    9900012    2    1    2    0    0 -0.12856034585E+02  0.43007508931E+02  0.37669729948E+01  0.46142317240E+02  0.99999952514E+01 0.  0.
        -12    1    1    2    0    0  0.12856034585E+02 -0.43007508931E+02 -0.37669729948E+01  0.45045682760E+02  0.00000000000E+00 0.  1.
         11    1    3    3    0    0 -0.94709435470E+01  0.18509974879E+02  0.62652894593E+00  0.20801694173E+02  0.51100000000E-03 0. -1.
        -11    1    3    3    0    0 -0.36831867370E+01  0.21591858483E+02  0.14178629272E+01  0.21949591177E+02  0.51100000000E-03 0.  1.
         12    1    3    3    0    0  0.29809569916E+00  0.29056755696E+01  0.17225811216E+01  0.33910318904E+01  0.00000000000E+00 0. -1.
</event>
<event>
 7    1  0.4102844E-008  0.4614232E+02  0.7816164E-02  0.1320468E+00
        -11   -1    0    0    0    0  0.00000000000E+00  0.00000000000E+00  0.45593999997E+02  0.45594000000E+02  0.51100000000E-03 0. -1.
         11   -1    0    0    0    0 -0.00000000000E+00 -0.00000000000E+00 -0.45593999997E+02  0.45594000000E+02  0.51100000000E-03 0.  1.
    9900012    2    1    2    0    0 -0.38083716345E+02 -0.12638543386E+02  0.20469764109E+02  0.46142317940E+02  0.10000001633E+02 0.  0.
        -12    1    1    2    0    0  0.38083716345E+02  0.12638543386E+02 -0.20469764109E+02  0.45045682060E+02  0.00000000000E+00 0.  1.
         11    1    3    3    0    0 -0.19910813033E+02 -0.40916510866E+01  0.78690808791E+01  0.21796892402E+02  0.51100000000E-03 0. -1.
        -11    1    3    3    0    0 -0.82624473267E+01 -0.69132975512E+01  0.69573247311E+01  0.12824433186E+02  0.51100000000E-03 0.  1.
         12    1    3    3    0    0 -0.99104559851E+01 -0.16335947477E+01  0.56433584985E+01  0.11520992352E+02  0.00000000000E+00 0. -1.
</event>
<event>
 7    1  0.4102844E-008  0.4614232E+02  0.7816164E-02  0.1320468E+00
        -11   -1    0    0    0    0  0.00000000000E+00  0.00000000000E+00  0.45593999997E+02  0.45594000000E+02  0.51100000000E-03 0. -1.
         11   -1    0    0    0    0 -0.00000000000E+00 -0.00000000000E+00 -0.45593999997E+02  0.45594000000E+02  0.51100000000E-03 0.  1.
    9900012    2    1    2    0    0  0.42004107018E+02 -0.71201836112E+01  0.14631181120E+02  0.46142317831E+02  0.10000000642E+02 0.  0.
        -12    1    1    2    0    0 -0.42004107018E+02  0.71201836112E+01 -0.14631181120E+02  0.45045682169E+02  0.00000000000E+00 0.  1.
         11    1    3    3    0    0  0.23490278390E+02 -0.70223794997E+01  0.11122865825E+02  0.26922576718E+02  0.51100000000E-03 0. -1.
        -11    1    3    3    0    0  0.93056878466E+01 -0.15287735109E+01  0.56516476451E+00  0.94473481051E+01  0.51100000000E-03 0.  1.
        -12    1    3    3    0    0  0.92081407817E+01  0.14309693994E+01  0.29431505296E+01  0.97723930088E+01  0.00000000000E+00 0.  1.
</event>
<event>
 7    1  0.4102844E-008  0.4614231E+02  0.7816164E-02  0.1320468E+00
        -11   -1    0    0    0    0  0.00000000000E+00  0.00000000000E+00  0.45593999997E+02  0.45594000000E+02  0.51100000000E-03 0.  1.
         11   -1    0    0    0    0 -0.00000000000E+00 -0.00000000000E+00 -0.45593999997E+02  0.45594000000E+02  0.51100000000E-03 0. -1.
    9900012    2    1    2    0    0 -0.21533556928E+02 -0.69716223198E+01 -0.38946324499E+02  0.46142314483E+02  0.99999701033E+01 0.  0.
        -12    1    1    2    0    0  0.21533556928E+02  0.69716223198E+01  0.38946324499E+02  0.45045685517E+02  0.00000000000E+00 0.  1.
         11    1    3    3    0    0 -0.86530718545E+01  0.21555648291E+01 -0.14947991145E+02  0.17405876932E+02  0.51100000000E-03 0. -1.
        -11    1    3    3    0    0 -0.30043353426E+01 -0.24980933580E+01 -0.56216478512E+01  0.68461248966E+01  0.51100000000E-03 0.  1.
         12    1    3    3    0    0 -0.98761497306E+01 -0.66290937909E+01 -0.18376685503E+02  0.21890312654E+02  0.00000000000E+00 0. -1.
</event>
<event>
 7    1  0.4102844E-008  0.4614231E+02  0.7816164E-02  0.1320468E+00
        -11   -1    0    0    0    0  0.00000000000E+00  0.00000000000E+00  0.45593999997E+02  0.45594000000E+02  0.51100000000E-03 0.  1.
         11   -1    0    0    0    0 -0.00000000000E+00 -0.00000000000E+00 -0.45593999997E+02  0.45594000000E+02  0.51100000000E-03 0. -1.
    9900012    2    1    2    0    0 -0.78635100293E+01 -0.21142318509E+02 -0.38990790832E+02  0.46142309955E+02  0.99999288210E+01 0.  0.
        -12    1    1    2    0    0  0.78635100293E+01  0.21142318509E+02  0.38990790832E+02  0.45045690045E+02  0.00000000000E+00 0.  1.
         11    1    3    3    0    0 -0.11576400855E+01 -0.39766163737E+01 -0.31407778511E+01  0.51978932388E+01  0.51100000000E-03 0. -1.
        -11    1    3    3    0    0 -0.37712733494E+01 -0.87879005035E+01 -0.11103414477E+02  0.14653856532E+02  0.51100000000E-03 0.  1.
         12    1    3    3    0    0 -0.29345965945E+01 -0.83778016316E+01 -0.24746598503E+02  0.26290560185E+02  0.00000000000E+00 0. -1.
</event>
<event>
 7    1  0.4102844E-008  0.4614232E+02  0.7816164E-02  0.1320468E+00
        -11   -1    0    0    0    0  0.00000000000E+00  0.00000000000E+00  0.45593999997E+02  0.45594000000E+02  0.51100000000E-03 0. -1.
         11   -1    0    0    0    0 -0.00000000000E+00 -0.00000000000E+00 -0.45593999997E+02  0.45594000000E+02  0.51100000000E-03 0.  1.
    9900012    2    1    2    0    0 -0.62935264180E+01 -0.12761170052E+01  0.44585608831E+02  0.46142318029E+02  0.10000002442E+02 0.  0.
        -12    1    1    2    0    0  0.62935264180E+01  0.12761170052E+01 -0.44585608831E+02  0.45045681971E+02  0.00000000000E+00 0.  1.
         11    1    3    3    0    0 -0.97053660524E+00 -0.13833487152E+00  0.50233299432E+00  0.11015518767E+01  0.51100000000E-03 0. -1.
        -11    1    3    3    0    0 -0.77495428898E+00 -0.38164323481E+01  0.16122815820E+02  0.16586467383E+02  0.51100000000E-03 0.  1.
         12    1    3    3    0    0 -0.45480355237E+01  0.26786502144E+01  0.27960460017E+02  0.28454298769E+02  0.00000000000E+00 0. -1.
</event>
<event>
 7    1  0.4102844E-008  0.4614232E+02  0.7816164E-02  0.1320468E+00
        -11   -1    0    0    0    0  0.00000000000E+00  0.00000000000E+00  0.45593999997E+02  0.45594000000E+02  0.51100000000E-03 0. -1.
         11   -1    0    0    0    0 -0.00000000000E+00 -0.00000000000E+00 -0.45593999997E+02  0.45594000000E+02  0.51100000000E-03 0.  1.
    9900012    2    1    2    0    0 -0.26675119410E+02 -0.35454682679E+02  0.77792612583E+01  0.46142318463E+02  0.10000006401E+02 0.  0.
        -12    1    1    2    0    0  0.26675119410E+02  0.35454682679E+02 -0.77792612583E+01  0.45045681537E+02  0.00000000000E+00 0.  1.
         11    1    3    3    0    0 -0.51146339263E+01 -0.68198592996E+01  0.37081414266E+00  0.85327290158E+01  0.51100000000E-03 0. -1.
        -11    1    3    3    0    0 -0.21503823760E+02 -0.25760150326E+02  0.51401359658E+01  0.33947323593E+02  0.51100000000E-03 0.  1.
         12    1    3    3    0    0 -0.56661723414E-01 -0.28746730531E+01  0.22683111498E+01  0.36622658540E+01  0.00000000000E+00 0. -1.
</event>
<event>
 7    1  0.4102844E-008  0.4614232E+02  0.7816164E-02  0.1320468E+00
        -11   -1    0    0    0    0  0.00000000000E+00  0.00000000000E+00  0.45593999997E+02  0.45594000000E+02  0.51100000000E-03 0.  1.
         11   -1    0    0    0    0 -0.00000000000E+00 -0.00000000000E+00 -0.45593999997E+02  0.45594000000E+02  0.51100000000E-03 0. -1.
    9900012    2    1    2    0    0 -0.40250795013E+02  0.89362058042E+01 -0.18141974895E+02  0.46142317339E+02  0.99999961491E+01 0.  0.
        -12    1    1    2    0    0  0.40250795013E+02 -0.89362058042E+01  0.18141974895E+02  0.45045682661E+02  0.00000000000E+00 0.  1.
         11    1    3    3    0    0 -0.26715771764E+02  0.65416004178E+01 -0.77499712462E+01  0.28575987324E+02  0.51100000000E-03 0. -1.
        -11    1    3    3    0    0 -0.11543983628E+01  0.10870699201E+01 -0.49162647130E+00  0.16601365726E+01  0.51100000000E-03 0.  1.
         12    1    3    3    0    0 -0.12380624886E+02  0.13075354663E+01 -0.99003771774E+01  0.15906193442E+02  0.00000000000E+00 0. -1.
</event>
<event>
 7    1  0.4102844E-008  0.4614232E+02  0.7816164E-02  0.1320468E+00
        -11   -1    0    0    0    0  0.00000000000E+00  0.00000000000E+00  0.45593999997E+02  0.45594000000E+02  0.51100000000E-03 0.  1.
         11   -1    0    0    0    0 -0.00000000000E+00 -0.00000000000E+00 -0.45593999997E+02  0.45594000000E+02  0.51100000000E-03 0. -1.
    9900012    2    1    2    0    0 -0.19774939879E+02  0.35939312994E+02 -0.18612659389E+02  0.46142317019E+02  0.99999932314E+01 0.  0.
        -12    1    1    2    0    0  0.19774939879E+02 -0.35939312994E+02  0.18612659389E+02  0.45045682981E+02  0.00000000000E+00 0.  1.
         11    1    3    3    0    0 -0.22069910541E+01  0.21238415266E+01 -0.18852641578E+01  0.35966280804E+01  0.51100000000E-03 0. -1.
        -11    1    3    3    0    0 -0.89760370232E+01  0.84169403827E+01 -0.50645389696E+01  0.13306527770E+02  0.51100000000E-03 0.  1.
        -12    1    3    3    0    0 -0.85919118015E+01  0.25398531085E+02 -0.11662856262E+02  0.29239161169E+02  0.00000000000E+00 0.  1.
</event>
<event>
 7    1  0.4102844E-008  0.4614232E+02  0.7816164E-02  0.1320468E+00
        -11   -1    0    0    0    0  0.00000000000E+00  0.00000000000E+00  0.45593999997E+02  0.45594000000E+02  0.51100000000E-03 0.  1.
         11   -1    0    0    0    0 -0.00000000000E+00 -0.00000000000E+00 -0.45593999997E+02  0.45594000000E+02  0.51100000000E-03 0. -1.
    9900012    2    1    2    0    0 -0.34287703518E+01  0.42271290503E+01 -0.44715639297E+02  0.46142317811E+02  0.10000000451E+02 0.  0.
        -12    1    1    2    0    0  0.34287703518E+01 -0.42271290503E+01  0.44715639297E+02  0.45045682189E+02  0.00000000000E+00 0.  1.
         11    1    3    3    0    0 -0.12846813358E+01  0.24146489252E+01 -0.33808813339E+02  0.33919268790E+02  0.51100000000E-03 0. -1.
        -11    1    3    3    0    0  0.90544490637E+00 -0.10073880985E+01 -0.30031721214E+01  0.32944960633E+01  0.51100000000E-03 0.  1.
        -12    1    3    3    0    0 -0.30495339224E+01  0.28198682236E+01 -0.79036538371E+01  0.89285529577E+01  0.00000000000E+00 0.  1.
</event>
<event>
 7    1  0.4102844E-008  0.4614232E+02  0.7816164E-02  0.1320468E+00
        -11   -1    0    0    0    0  0.00000000000E+00  0.00000000000E+00  0.45593999997E+02  0.45594000000E+02  0.51100000000E-03 0.  1.
         11   -1    0    0    0    0 -0.00000000000E+00 -0.00000000000E+00 -0.45593999997E+02  0.45594000000E+02  0.51100000000E-03 0. -1.
    9900012    2    1    2    0    0  0.20942438237E+02 -0.64014222887E+01 -0.39364318442E+02  0.46142317710E+02  0.99999995304E+01 0.  0.
        -12    1    1    2    0    0 -0.20942438237E+02  0.64014222887E+01  0.39364318442E+02  0.45045682290E+02  0.00000000000E+00 0.  1.
         11    1    3    3    0    0 -0.11283763345E+00 -0.64901419389E+00 -0.16321729084E+01  0.17600967074E+01  0.51100000000E-03 0. -1.
        -11    1    3    3    0    0  0.71597603291E+01  0.98015223825E+00 -0.17483434381E+02  0.18918069256E+02  0.51100000000E-03 0.  1.
         12    1    3    3    0    0  0.13895515541E+02 -0.67325603331E+01 -0.20248711153E+02  0.25464151746E+02  0.00000000000E+00 0. -1.
</event>
<event>
 7    1  0.4102844E-008  0.4614232E+02  0.7816164E-02  0.1320468E+00
        -11   -1    0    0    0    0  0.00000000000E+00  0.00000000000E+00  0.45593999997E+02  0.45594000000E+02  0.51100000000E-03 0. -1.
         11   -1    0    0    0    0 -0.00000000000E+00 -0.00000000000E+00 -0.45593999997E+02  0.45594000000E+02  0.51100000000E-03 0.  1.
    9900012    2    1    2    0    0  0.19343167357E+02  0.38700100859E+02  0.12540237557E+02  0.46142317767E+02  0.10000000054E+02 0.  0.
        -12    1    1    2    0    0 -0.19343167357E+02 -0.38700100859E+02 -0.12540237557E+02  0.45045682233E+02  0.00000000000E+00 0.  1.
         11    1    3    3    0    0  0.13482369839E+02  0.22793215281E+02  0.49786316643E+01  0.26946089380E+02  0.51100000000E-03 0. -1.
        -11    1    3    3    0    0  0.61021218877E+01  0.15186843427E+02  0.59504122839E+01  0.17415036934E+02  0.51100000000E-03 0.  1.
        -12    1    3    3    0    0 -0.24132437027E+00  0.72004215078E+00  0.16111936086E+01  0.17811914538E+01  0.00000000000E+00 0.  1.
</event>
<event>
 7    1  0.4102844E-008  0.4614232E+02  0.7816164E-02  0.1320468E+00
        -11   -1    0    0    0    0  0.00000000000E+00  0.00000000000E+00  0.45593999997E+02  0.45594000000E+02  0.51100000000E-03 0.  1.
         11   -1    0    0    0    0 -0.00000000000E+00 -0.00000000000E+00 -0.45593999997E+02  0.45594000000E+02  0.51100000000E-03 0. -1.
    9900012    2    1    2    0    0  0.43797342232E+02 -0.68774084765E+01  0.79754348094E+01  0.46142317695E+02  0.99999993971E+01 0.  0.
        -12    1    1    2    0    0 -0.43797342232E+02  0.68774084765E+01 -0.79754348094E+01  0.45045682305E+02  0.00000000000E+00 0.  1.
         11    1    3    3    0    0  0.27300086888E+01 -0.82675985516E+00  0.12243226205E+01  0.31041013900E+01  0.51100000000E-03 0. -1.
        -11    1    3    3    0    0  0.13529755100E+02 -0.16626943907E+01  0.66175455584E+01  0.15152911773E+02  0.51100000000E-03 0.  1.
         12    1    3    3    0    0  0.27537578442E+02 -0.43879542306E+01  0.13356663046E+00  0.27885304532E+02  0.00000000000E+00 0. -1.
</event>
<event>
 7    1  0.4102844E-008  0.4614231E+02  0.7816164E-02  0.1320468E+00
        -11   -1    0    0    0    0  0.00000000000E+00  0.00000000000E+00  0.45593999997E+02  0.45594000000E+02  0.51100000000E-03 0.  1.
         11   -1    0    0    0    0 -0.00000000000E+00 -0.00000000000E+00 -0.45593999997E+02  0.45594000000E+02  0.51100000000E-03 0. -1.
    9900012    2    1    2    0    0  0.25509383715E+02 -0.76024743346E+01 -0.36339888236E+02  0.46142314851E+02  0.99999734615E+01 0.  0.
        -12    1    1    2    0    0 -0.25509383715E+02  0.76024743346E+01  0.36339888236E+02  0.45045685149E+02  0.00000000000E+00 0.  1.
         11    1    3    3    0    0  0.12223672295E+02 -0.74015843570E+01 -0.15799684154E+02  0.21303324505E+02  0.51100000000E-03 0.  1.
        -11    1    3    3    0    0  0.11925493291E+02 -0.53262156792E+00 -0.15249482619E+02  0.19366150789E+02  0.51100000000E-03 0. -1.
        -12    1    3    3    0    0  0.13602181292E+01  0.33173159029E+00 -0.52907214630E+01  0.54728395560E+01  0.00000000000E+00 0.  1.
</event>
<event>
 7    1  0.4102844E-008  0.4614232E+02  0.7816164E-02  0.1320468E+00
        -11   -1    0    0    0    0  0.00000000000E+00  0.00000000000E+00  0.45593999997E+02  0.45594000000E+02  0.51100000000E-03 0.  1.
         11   -1    0    0    0    0 -0.00000000000E+00 -0.00000000000E+00 -0.45593999997E+02  0.45594000000E+02  0.51100000000E-03 0. -1.
    9900012    2    1    2    0    0 -0.15296902562E+02 -0.37275646412E+02 -0.20140619204E+02  0.46142316684E+02  0.99999901808E+01 0.  0.
        -12    1    1    2    0    0  0.15296902562E+02  0.37275646412E+02  0.20140619204E+02  0.45045683316E+02  0.00000000000E+00 0.  1.
         11    1    3    3    0    0 -0.11313555146E+02 -0.26142507355E+02 -0.15435172689E+02  0.32398638507E+02  0.51100000000E-03 0. -1.
        -11    1    3    3    0    0 -0.19867822530E+01 -0.25676877900E+01 -0.36508725352E+01  0.48856109994E+01  0.51100000000E-03 0.  1.
         12    1    3    3    0    0 -0.19965651632E+01 -0.85654512670E+01 -0.10545739794E+01  0.88580671784E+01  0.00000000000E+00 0. -1.
</event>
<event>
 7    1  0.4102844E-008  0.4614232E+02  0.7816164E-02  0.1320468E+00
        -11   -1    0    0    0    0  0.00000000000E+00  0.00000000000E+00  0.45593999997E+02  0.45594000000E+02  0.51100000000E-03 0.  1.
         11   -1    0    0    0    0 -0.00000000000E+00 -0.00000000000E+00 -0.45593999997E+02  0.45594000000E+02  0.51100000000E-03 0. -1.
    9900012    2    1    2    0    0 -0.66411022133E+00  0.35662732780E+02 -0.27510752938E+02  0.46142322306E+02  0.10000041443E+02 0.  0.
        -12    1    1    2    0    0  0.66411022133E+00 -0.35662732780E+02  0.27510752938E+02  0.45045677694E+02  0.00000000000E+00 0.  1.
         11    1    3    3    0    0 -0.47739120376E+00  0.11921976678E+02 -0.86795276107E+01  0.14754512193E+02  0.51100000000E-03 0. -1.
        -11    1    3    3    0    0 -0.84940409860E+00  0.13110803864E+02 -0.15300379849E+02  0.20167208262E+02  0.51100000000E-03 0.  1.
         12    1    3    3    0    0  0.66268508103E+00  0.10629952238E+02 -0.35308454780E+01  0.11220601851E+02  0.00000000000E+00 0. -1.
</event>
<event>
 7    1  0.4102844E-008  0.4614232E+02  0.7816164E-02  0.1320468E+00
        -11   -1    0    0    0    0  0.00000000000E+00  0.00000000000E+00  0.45593999997E+02  0.45594000000E+02  0.51100000000E-03 0.  1.
         11   -1    0    0    0    0 -0.00000000000E+00 -0.00000000000E+00 -0.45593999997E+02  0.45594000000E+02  0.51100000000E-03 0. -1.
    9900012    2    1    2    0    0  0.22814026033E+02 -0.29977923281E+02 -0.24697326637E+02  0.46142316399E+02  0.99999875794E+01 0.  0.
        -12    1    1    2    0    0 -0.22814026033E+02  0.29977923281E+02  0.24697326637E+02  0.45045683601E+02  0.00000000000E+00 0.  1.
         11    1    3    3    0    0  0.12371408226E+02 -0.17745383813E+02 -0.10921608843E+02  0.24232868756E+02  0.51100000000E-03 0.  1.
        -11    1    3    3    0    0  0.94994695012E+01 -0.10669949316E+02 -0.92228671057E+01  0.17004382292E+02  0.51100000000E-03 0. -1.
        -12    1    3    3    0    0  0.94314830549E+00 -0.15625901513E+01 -0.45528506882E+01  0.49050653509E+01  0.00000000000E+00 0.  1.
</event>
<event>
 7    1  0.4102844E-008  0.4614232E+02  0.7816164E-02  0.1320468E+00
        -11   -1    0    0    0    0  0.00000000000E+00  0.00000000000E+00  0.45593999997E+02  0.45594000000E+02  0.51100000000E-03 0.  1.
         11   -1    0    0    0    0 -0.00000000000E+00 -0.00000000000E+00 -0.45593999997E+02  0.45594000000E+02  0.51100000000E-03 0. -1.
    9900012    2    1    2    0    0 -0.39086725717E+02  0.22374986442E+02  0.83739204797E+00  0.46142319064E+02  0.10000011884E+02 0.  0.
        -12    1    1    2    0    0  0.39086725717E+02 -0.22374986442E+02 -0.83739204797E+00  0.45045680936E+02  0.00000000000E+00 0.  1.
         11    1    3    3    0    0 -0.32394655394E+02  0.18381034851E+02  0.13634062044E+01  0.37271101634E+02  0.51100000000E-03 0. -1.
        -11    1    3    3    0    0 -0.41682582004E+01  0.36770966383E+01  0.13387006590E+01  0.57173014464E+01  0.51100000000E-03 0.  1.
         12    1    3    3    0    0 -0.25238121221E+01  0.31685495228E+00 -0.18647148155E+01  0.31539159836E+01  0.00000000000E+00 0. -1.
</event>
<event>
 7    1  0.4102844E-008  0.4614232E+02  0.7816164E-02  0.1320468E+00
        -11   -1    0    0    0    0  0.00000000000E+00  0.00000000000E+00  0.45593999997E+02  0.45594000000E+02  0.51100000000E-03 0.  1.
         11   -1    0    0    0    0 -0.00000000000E+00 -0.00000000000E+00 -0.45593999997E+02  0.45594000000E+02  0.51100000000E-03 0. -1.
    9900012    2    1    2    0    0  0.53389996691E+00 -0.18320084127E+02 -0.41148547226E+02  0.46142317961E+02  0.10000001822E+02 0.  0.
        -12    1    1    2    0    0 -0.53389996691E+00  0.18320084127E+02  0.41148547226E+02  0.45045682039E+02  0.00000000000E+00 0.  1.
         11    1    3    3    0    0 -0.20704265389E+00 -0.43916524726E+01 -0.21974449527E+02  0.22409951146E+02  0.51100000000E-03 0. -1.
        -11    1    3    3    0    0  0.30017910038E+00 -0.33340734137E+01 -0.39192612689E+01  0.51542955071E+01  0.51100000000E-03 0.  1.
         12    1    3    3    0    0  0.44076352043E+00 -0.10594358241E+02 -0.15254836430E+02  0.18578071308E+02  0.00000000000E+00 0. -1.
</event>
<event>
 7    1  0.4102844E-008  0.4614232E+02  0.7816164E-02  0.1320468E+00
        -11   -1    0    0    0    0  0.00000000000E+00  0.00000000000E+00  0.45593999997E+02  0.45594000000E+02  0.51100000000E-03 0.  1.
         11   -1    0    0    0    0 -0.00000000000E+00 -0.00000000000E+00 -0.45593999997E+02  0.45594000000E+02  0.51100000000E-03 0. -1.
    9900012    2    1    2    0    0 -0.27054238911E+02  0.20434407701E+02 -0.29658331624E+02  0.46142317678E+02  0.99999992411E+01 0.  0.
        -12    1    1    2    0    0  0.27054238911E+02 -0.20434407701E+02  0.29658331624E+02  0.45045682322E+02  0.00000000000E+00 0.  1.
         11    1    3    3    0    0 -0.11324974485E+02  0.83315762427E+01 -0.12120724569E+02  0.18562924719E+02  0.51100000000E-03 0. -1.
        -11    1    3    3    0    0  0.41527713399E+00  0.55166305558E+00  0.42227911621E+00  0.80938689019E+00  0.51100000000E-03 0.  1.
        -12    1    3    3    0    0 -0.16144541561E+02  0.11551168403E+02 -0.17959886171E+02  0.26770006069E+02  0.00000000000E+00 0.  1.
</event>
<event>
 7    1  0.4102844E-008  0.4614232E+02  0.7816164E-02  0.1320468E+00
        -11   -1    0    0    0    0  0.00000000000E+00  0.00000000000E+00  0.45593999997E+02  0.45594000000E+02  0.51100000000E-03 0. -1.
         11   -1    0    0    0    0 -0.00000000000E+00 -0.00000000000E+00 -0.45593999997E+02  0.45594000000E+02  0.51100000000E-03 0.  1.
    9900012    2    1    2    0    0  0.43089211786E+02 -0.12814217438E+02  0.28686740741E+01  0.46142316169E+02  0.99999854801E+01 0.  0.
        -12    1    1    2    0    0 -0.43089211786E+02  0.12814217438E+02 -0.28686740741E+01  0.45045683831E+02  0.00000000000E+00 0.  1.
         11    1    3    3    0    0  0.16849035118E+02 -0.88630213805E+01  0.25749555090E+01  0.19211286488E+02  0.51100000000E-03 0. -1.
        -11    1    3    3    0    0  0.12383751672E+02 -0.12784519551E+01 -0.20764063605E+01  0.12621537486E+02  0.51100000000E-03 0.  1.
         12    1    3    3    0    0  0.13856424996E+02 -0.26727441021E+01  0.23701249256E+01  0.14309492195E+02  0.00000000000E+00 0. -1.
</event>
<event>
 7    1  0.4102844E-008  0.4614232E+02  0.7816164E-02  0.1320468E+00
        -11   -1    0    0    0    0  0.00000000000E+00  0.00000000000E+00  0.45593999997E+02  0.45594000000E+02  0.51100000000E-03 0.  1.
         11   -1    0    0    0    0 -0.00000000000E+00 -0.00000000000E+00 -0.45593999997E+02  0.45594000000E+02  0.51100000000E-03 0. -1.
    9900012    2    1    2    0    0  0.21988336711E+02 -0.32821420725E+02 -0.21642109326E+02  0.46142317567E+02  0.99999982342E+01 0.  0.
        -12    1    1    2    0    0 -0.21988336711E+02  0.32821420725E+02  0.21642109326E+02  0.45045682433E+02  0.00000000000E+00 0.  1.
         11    1    3    3    0    0  0.92771767951E+01 -0.21147741042E+02 -0.12903430613E+02  0.26453572203E+02  0.51100000000E-03 0. -1.
        -11    1    3    3    0    0  0.87531355082E+01 -0.86924633309E+01 -0.43833973143E+01  0.13091618397E+02  0.51100000000E-03 0.  1.
        -12    1    3    3    0    0  0.39580244080E+01 -0.29812163515E+01 -0.43552813993E+01  0.65971269668E+01  0.00000000000E+00 0.  1.
</event>
<event>
 7    1  0.4102844E-008  0.4614232E+02  0.7816164E-02  0.1320468E+00
        -11   -1    0    0    0    0  0.00000000000E+00  0.00000000000E+00  0.45593999997E+02  0.45594000000E+02  0.51100000000E-03 0. -1.
         11   -1    0    0    0    0 -0.00000000000E+00 -0.00000000000E+00 -0.45593999997E+02  0.45594000000E+02  0.51100000000E-03 0.  1.
    9900012    2    1    2    0    0 -0.26388776139E+02  0.34494218916E+02 -0.11953864139E+02  0.46142317492E+02  0.99999975485E+01 0.  0.
        -12    1    1    2    0    0  0.26388776139E+02 -0.34494218916E+02  0.11953864139E+02  0.45045682508E+02  0.00000000000E+00 0.  1.
         11    1    3    3    0    0 -0.18063378619E+02  0.24857335442E+02 -0.97441438352E+01  0.32235401529E+02  0.51100000000E-03 0. -1.
        -11    1    3    3    0    0 -0.26869162412E+01  0.63739949921E+01 -0.25780822887E+01  0.73819942830E+01  0.51100000000E-03 0.  1.
        -12    1    3    3    0    0 -0.56384812791E+01  0.32628884812E+01  0.36836198446E+00  0.65249216798E+01  0.00000000000E+00 0.  1.
</event>
<event>
 7    1  0.4102844E-008  0.4614232E+02  0.7816164E-02  0.1320468E+00
        -11   -1    0    0    0    0  0.00000000000E+00  0.00000000000E+00  0.45593999997E+02  0.45594000000E+02  0.51100000000E-03 0.  1.
         11   -1    0    0    0    0 -0.00000000000E+00 -0.00000000000E+00 -0.45593999997E+02  0.45594000000E+02  0.51100000000E-03 0. -1.
    9900012    2    1    2    0    0  0.20107105222E+02  0.10697315896E+02 -0.38863672650E+02  0.46142319856E+02  0.10000019104E+02 0.  0.
        -12    1    1    2    0    0 -0.20107105222E+02 -0.10697315896E+02  0.38863672650E+02  0.45045680144E+02  0.00000000000E+00 0.  1.
         11    1    3    3    0    0  0.11415179563E+02  0.15309112989E+01 -0.19251818138E+02  0.22433958985E+02  0.51100000000E-03 0. -1.
        -11    1    3    3    0    0  0.31033344483E+01  0.46157278826E+01 -0.11997832309E+02  0.13224356656E+02  0.51100000000E-03 0.  1.
         12    1    3    3    0    0  0.55885912115E+01  0.45506767145E+01 -0.76140222025E+01  0.10484004215E+02  0.00000000000E+00 0. -1.
</event>
<event>
 7    1  0.4102844E-008  0.4614232E+02  0.7816164E-02  0.1320468E+00
        -11   -1    0    0    0    0  0.00000000000E+00  0.00000000000E+00  0.45593999997E+02  0.45594000000E+02  0.51100000000E-03 0. -1.
         11   -1    0    0    0    0 -0.00000000000E+00 -0.00000000000E+00 -0.45593999997E+02  0.45594000000E+02  0.51100000000E-03 0.  1.
    9900012    2    1    2    0    0  0.30460295971E+02 -0.32994919915E+02  0.35523457005E+01  0.46142317290E+02  0.99999957013E+01 0.  0.
        -12    1    1    2    0    0 -0.30460295971E+02  0.32994919915E+02 -0.35523457005E+01  0.45045682710E+02  0.00000000000E+00 0.  1.
         11    1    3    3    0    0  0.52034753048E+01 -0.85196008874E+01 -0.27852134011E+00  0.99868578104E+01  0.51100000000E-03 0.  1.
        -11    1    3    3    0    0  0.12970635316E+02 -0.17626432142E+02  0.21810564279E+01  0.21992851065E+02  0.51100000000E-03 0. -1.
        -12    1    3    3    0    0  0.12286185350E+02 -0.68488868853E+01  0.16498106127E+01  0.14162608414E+02  0.00000000000E+00 0.  1.
</event>
<event>
 7    1  0.4102844E-008  0.4614232E+02  0.7816164E-02  0.1320468E+00
        -11   -1    0    0    0    0  0.00000000000E+00  0.00000000000E+00  0.45593999997E+02  0.45594000000E+02  0.51100000000E-03 0.  1.
         11   -1    0    0    0    0 -0.00000000000E+00 -0.00000000000E+00 -0.45593999997E+02  0.45594000000E+02  0.51100000000E-03 0. -1.
    9900012    2    1    2    0    0 -0.19367185889E+02 -0.15589937014E+02 -0.37563006151E+02  0.46142318116E+02  0.10000003232E+02 0.  0.
        -12    1    1    2    0    0  0.19367185889E+02  0.15589937014E+02  0.37563006151E+02  0.45045681884E+02  0.00000000000E+00 0.  1.
         11    1    3    3    0    0 -0.50948815434E+01 -0.56568368585E+01 -0.17896010774E+02  0.19448003062E+02  0.51100000000E-03 0. -1.
        -11    1    3    3    0    0 -0.10711085478E+02 -0.96170043319E+01 -0.16704633157E+02  0.22051278729E+02  0.51100000000E-03 0.  1.
        -12    1    3    3    0    0 -0.35612188676E+01 -0.31609582354E+00 -0.29623622196E+01  0.46430363247E+01  0.00000000000E+00 0.  1.
</event>
<event>
 7    1  0.4102844E-008  0.4614232E+02  0.7816164E-02  0.1320468E+00
        -11   -1    0    0    0    0  0.00000000000E+00  0.00000000000E+00  0.45593999997E+02  0.45594000000E+02  0.51100000000E-03 0.  1.
         11   -1    0    0    0    0 -0.00000000000E+00 -0.00000000000E+00 -0.45593999997E+02  0.45594000000E+02  0.51100000000E-03 0. -1.
    9900012    2    1    2    0    0 -0.29857595769E+02  0.31445577743E+02 -0.12198898530E+02  0.46142317520E+02  0.99999978048E+01 0.  0.
        -12    1    1    2    0    0  0.29857595769E+02 -0.31445577743E+02  0.12198898530E+02  0.45045682480E+02  0.00000000000E+00 0.  1.
         11    1    3    3    0    0 -0.20231244793E+02  0.23228635401E+02 -0.10911790752E+02  0.32679350454E+02  0.51100000000E-03 0.  1.
        -11    1    3    3    0    0  0.19597111566E+00  0.14601859286E+01 -0.26938540624E+00  0.14977037031E+01  0.51100000000E-03 0. -1.
         12    1    3    3    0    0 -0.98223220923E+01  0.67567564137E+01 -0.10177223718E+01  0.11965263363E+02  0.00000000000E+00 0. -1.
</event>
<event>
 7    1  0.4102844E-008  0.4614232E+02  0.7816164E-02  0.1320468E+00
        -11   -1    0    0    0    0  0.00000000000E+00  0.00000000000E+00  0.45593999997E+02  0.45594000000E+02  0.51100000000E-03 0. -1.
         11   -1    0    0    0    0 -0.00000000000E+00 -0.00000000000E+00 -0.45593999997E+02  0.45594000000E+02  0.51100000000E-03 0.  1.
    9900012    2    1    2    0    0  0.13515356167E+02  0.33045129504E+02  0.27467580511E+02  0.46142318571E+02  0.10000007390E+02 0.  0.
        -12    1    1    2    0    0 -0.13515356167E+02 -0.33045129504E+02 -0.27467580511E+02  0.45045681429E+02  0.00000000000E+00 0.  1.
         11    1    3    3    0    0  0.43537829894E+01  0.10261820478E+02  0.81485461607E+01  0.13807939406E+02  0.51100000000E-03 0. -1.
        -11    1    3    3    0    0  0.72457277248E+01  0.20094077379E+02  0.12477757917E+02  0.24737965940E+02  0.51100000000E-03 0.  1.
         12    1    3    3    0    0  0.19158454531E+01  0.26892316461E+01  0.68412764332E+01  0.75964132248E+01  0.00000000000E+00 0. -1.
</event>
<event>
 7    1  0.4102844E-008  0.4614232E+02  0.7816164E-02  0.1320468E+00
        -11   -1    0    0    0    0  0.00000000000E+00  0.00000000000E+00  0.45593999997E+02  0.45594000000E+02  0.51100000000E-03 0. -1.
         11   -1    0    0    0    0 -0.00000000000E+00 -0.00000000000E+00 -0.45593999997E+02  0.45594000000E+02  0.51100000000E-03 0.  1.
    9900012    2    1    2    0    0  0.16376707834E+02 -0.37879833481E+02 -0.18056442415E+02  0.46142318112E+02  0.10000003203E+02 0.  0.
        -12    1    1    2    0    0 -0.16376707834E+02  0.37879833481E+02  0.18056442415E+02  0.45045681888E+02  0.00000000000E+00 0.  1.
         11    1    3    3    0    0  0.40012846509E+01 -0.11333042235E+02 -0.66168124900E+01  0.13719706008E+02  0.51100000000E-03 0. -1.
        -11    1    3    3    0    0  0.10545193846E+02 -0.26435247180E+02 -0.10319974524E+02  0.30274168546E+02  0.51100000000E-03 0.  1.
        -12    1    3    3    0    0  0.18302293373E+01 -0.11154406607E+00 -0.11196554016E+01  0.21484435585E+01  0.00000000000E+00 0.  1.
</event>
<event>
 7    1  0.4102844E-008  0.4614232E+02  0.7816164E-02  0.1320468E+00
        -11   -1    0    0    0    0  0.00000000000E+00  0.00000000000E+00  0.45593999997E+02  0.45594000000E+02  0.51100000000E-03 0. -1.
         11   -1    0    0    0    0 -0.00000000000E+00 -0.00000000000E+00 -0.45593999997E+02  0.45594000000E+02  0.51100000000E-03 0.  1.
    9900012    2    1    2    0    0 -0.18702816364E+02  0.40956417281E+02  0.13748059050E+01  0.46142317102E+02  0.99999939920E+01 0.  0.
        -12    1    1    2    0    0  0.18702816364E+02 -0.40956417281E+02 -0.13748059050E+01  0.45045682898E+02  0.00000000000E+00 0.  1.
         11    1    3    3    0    0 -0.31948230818E+01  0.14473075661E+02 -0.21398623478E+00  0.14823043006E+02  0.51100000000E-03 0. -1.
        -11    1    3    3    0    0 -0.26527967133E+01  0.39238089460E+01 -0.19343841315E+01  0.51161948044E+01  0.51100000000E-03 0.  1.
         12    1    3    3    0    0 -0.12855196569E+02  0.22559532675E+02  0.35231762712E+01  0.26203079292E+02  0.00000000000E+00 0. -1.
</event>
<event>
 7    1  0.4102844E-008  0.4614232E+02  0.7816164E-02  0.1320468E+00
        -11   -1    0    0    0    0  0.00000000000E+00  0.00000000000E+00  0.45593999997E+02  0.45594000000E+02  0.51100000000E-03 0. -1.
         11   -1    0    0    0    0 -0.00000000000E+00 -0.00000000000E+00 -0.45593999997E+02  0.45594000000E+02  0.51100000000E-03 0.  1.
    9900012    2    1    2    0    0 -0.33802961391E+02  0.18578376700E+02  0.23266221411E+02  0.46142319426E+02  0.10000015180E+02 0.  0.
        -12    1    1    2    0    0  0.33802961391E+02 -0.18578376700E+02 -0.23266221411E+02  0.45045680574E+02  0.00000000000E+00 0.  1.
         11    1    3    3    0    0 -0.19172508955E+02  0.10826493393E+02  0.10512065871E+02  0.24398803002E+02  0.51100000000E-03 0. -1.
        -11    1    3    3    0    0 -0.88975652337E+01  0.25833976856E+01  0.40547684941E+01  0.10113444443E+02  0.51100000000E-03 0.  1.
         12    1    3    3    0    0 -0.57328872026E+01  0.51684856212E+01  0.86993870465E+01  0.11630071981E+02  0.00000000000E+00 0. -1.
</event>
<event>
 7    1  0.4102844E-008  0.4614232E+02  0.7816164E-02  0.1320468E+00
        -11   -1    0    0    0    0  0.00000000000E+00  0.00000000000E+00  0.45593999997E+02  0.45594000000E+02  0.51100000000E-03 0.  1.
         11   -1    0    0    0    0 -0.00000000000E+00 -0.00000000000E+00 -0.45593999997E+02  0.45594000000E+02  0.51100000000E-03 0. -1.
    9900012    2    1    2    0    0  0.15171893049E+02 -0.26557644436E+02 -0.33069905790E+02  0.46142317791E+02  0.10000000277E+02 0.  0.
        -12    1    1    2    0    0 -0.15171893049E+02  0.26557644436E+02  0.33069905790E+02  0.45045682209E+02  0.00000000000E+00 0.  1.
         11    1    3    3    0    0  0.53058904998E+01 -0.84524093433E+01 -0.69062472517E+01  0.12136389458E+02  0.51100000000E-03 0. -1.
        -11    1    3    3    0    0  0.52286860849E+00 -0.44955094999E+01 -0.25521151905E+01  0.51957953628E+01  0.51100000000E-03 0.  1.
        -12    1    3    3    0    0  0.93431339403E+01 -0.13609725593E+02 -0.23611543348E+02  0.28810132971E+02  0.00000000000E+00 0.  1.
</event>
<event>
 7    1  0.4102844E-008  0.4614232E+02  0.7816164E-02  0.1320468E+00
        -11   -1    0    0    0    0  0.00000000000E+00  0.00000000000E+00  0.45593999997E+02  0.45594000000E+02  0.51100000000E-03 0.  1.
         11   -1    0    0    0    0 -0.00000000000E+00 -0.00000000000E+00 -0.45593999997E+02  0.45594000000E+02  0.51100000000E-03 0. -1.
    9900012    2    1    2    0    0 -0.19612927484E+02 -0.17966798359E+02 -0.36354376776E+02  0.46142317870E+02  0.10000000997E+02 0.  0.
        -12    1    1    2    0    0  0.19612927484E+02  0.17966798359E+02  0.36354376776E+02  0.45045682130E+02  0.00000000000E+00 0.  1.
         11    1    3    3    0    0 -0.10131080093E+02 -0.66476258724E+01 -0.16686815979E+02  0.20622306887E+02  0.51100000000E-03 0. -1.
        -11    1    3    3    0    0 -0.93356966812E+01 -0.66453232304E+01 -0.12458624019E+02  0.16927281710E+02  0.51100000000E-03 0.  1.
        -12    1    3    3    0    0 -0.14615070968E+00 -0.46738492560E+01 -0.72089367779E+01  0.85927292734E+01  0.00000000000E+00 0.  1.
</event>
<event>
 7    1  0.4102844E-008  0.4614232E+02  0.7816164E-02  0.1320468E+00
        -11   -1    0    0    0    0  0.00000000000E+00  0.00000000000E+00  0.45593999997E+02  0.45594000000E+02  0.51100000000E-03 0.  1.
         11   -1    0    0    0    0 -0.00000000000E+00 -0.00000000000E+00 -0.45593999997E+02  0.45594000000E+02  0.51100000000E-03 0. -1.
    9900012    2    1    2    0    0  0.41761992362E+02  0.16218848835E+02 -0.46902684581E+01  0.46142315614E+02  0.99999804213E+01 0.  0.
        -12    1    1    2    0    0 -0.41761992362E+02 -0.16218848835E+02  0.46902684581E+01  0.45045684386E+02  0.00000000000E+00 0.  1.
         11    1    3    3    0    0  0.67607854454E+01  0.19243031317E+01  0.92216403819E+00  0.70895380072E+01  0.51100000000E-03 0. -1.
        -11    1    3    3    0    0  0.33110314664E+01  0.30106238440E+01 -0.28385077446E+01  0.52994256084E+01  0.51100000000E-03 0.  1.
         12    1    3    3    0    0  0.31690175451E+02  0.11283921859E+02 -0.27739247517E+01  0.33753351998E+02  0.00000000000E+00 0. -1.
</event>
<event>
 7    1  0.4102844E-008  0.4614232E+02  0.7816164E-02  0.1320468E+00
        -11   -1    0    0    0    0  0.00000000000E+00  0.00000000000E+00  0.45593999997E+02  0.45594000000E+02  0.51100000000E-03 0.  1.
         11   -1    0    0    0    0 -0.00000000000E+00 -0.00000000000E+00 -0.45593999997E+02  0.45594000000E+02  0.51100000000E-03 0. -1.
    9900012    2    1    2    0    0 -0.36077929317E+02 -0.36890129147E+01 -0.26718677713E+02  0.46142317201E+02  0.99999948955E+01 0.  0.
        -12    1    1    2    0    0  0.36077929317E+02  0.36890129147E+01  0.26718677713E+02  0.45045682799E+02  0.00000000000E+00 0.  1.
         11    1    3    3    0    0 -0.25061680609E+02  0.92654005228E+00 -0.19707675241E+02  0.31895748542E+02  0.51100000000E-03 0. -1.
        -11    1    3    3    0    0 -0.13068999673E+01 -0.92194221486E+00 -0.23928085081E+01  0.28781066328E+01  0.51100000000E-03 0.  1.
         12    1    3    3    0    0 -0.97093487408E+01 -0.36936107522E+01 -0.46181939640E+01  0.11368462027E+02  0.00000000000E+00 0. -1.
</event>
<event>
 7    1  0.4102844E-008  0.4614232E+02  0.7816164E-02  0.1320468E+00
        -11   -1    0    0    0    0  0.00000000000E+00  0.00000000000E+00  0.45593999997E+02  0.45594000000E+02  0.51100000000E-03 0.  1.
         11   -1    0    0    0    0 -0.00000000000E+00 -0.00000000000E+00 -0.45593999997E+02  0.45594000000E+02  0.51100000000E-03 0. -1.
    9900012    2    1    2    0    0  0.38345799124E+01 -0.43722821463E+01 -0.44668699934E+02  0.46142316432E+02  0.99999878836E+01 0.  0.
        -12    1    1    2    0    0 -0.38345799124E+01  0.43722821463E+01  0.44668699934E+02  0.45045683568E+02  0.00000000000E+00 0.  1.
         11    1    3    3    0    0  0.42693375045E+01  0.68320047389E+00 -0.20838646017E+02  0.21282461645E+02  0.51100000000E-03 0. -1.
        -11    1    3    3    0    0  0.19144851578E+01 -0.58514739662E+00 -0.57913729039E+01  0.61276138316E+01  0.51100000000E-03 0.  1.
        -12    1    3    3    0    0 -0.23492427499E+01 -0.44703352236E+01 -0.18038681013E+02  0.18732240955E+02  0.00000000000E+00 0.  1.
</event>
<event>
 7    1  0.4102844E-008  0.4614232E+02  0.7816164E-02  0.1320468E+00
        -11   -1    0    0    0    0  0.00000000000E+00  0.00000000000E+00  0.45593999997E+02  0.45594000000E+02  0.51100000000E-03 0.  1.
         11   -1    0    0    0    0 -0.00000000000E+00 -0.00000000000E+00 -0.45593999997E+02  0.45594000000E+02  0.51100000000E-03 0. -1.
    9900012    2    1    2    0    0  0.74789301495E+01  0.41151305668E+02 -0.16725710148E+02  0.46142315031E+02  0.99999751051E+01 0.  0.
        -12    1    1    2    0    0 -0.74789301495E+01 -0.41151305668E+02  0.16725710148E+02  0.45045684969E+02  0.00000000000E+00 0.  1.
         11    1    3    3    0    0 -0.62685490473E+00  0.61582667231E+01 -0.20892604668E+01  0.65331619958E+01  0.51100000000E-03 0. -1.
        -11    1    3    3    0    0 -0.13027287529E+01  0.13677915590E+01 -0.76857957414E+00  0.20392819264E+01  0.51100000000E-03 0.  1.
         12    1    3    3    0    0  0.94085138072E+01  0.33625247386E+02 -0.13867870107E+02  0.37569871109E+02  0.00000000000E+00 0. -1.
</event>
<event>
 7    1  0.4102844E-008  0.4614232E+02  0.7816164E-02  0.1320468E+00
        -11   -1    0    0    0    0  0.00000000000E+00  0.00000000000E+00  0.45593999997E+02  0.45594000000E+02  0.51100000000E-03 0.  1.
         11   -1    0    0    0    0 -0.00000000000E+00 -0.00000000000E+00 -0.45593999997E+02  0.45594000000E+02  0.51100000000E-03 0. -1.
    9900012    2    1    2    0    0 -0.11420632870E+02  0.29989307891E+02 -0.31612085889E+02  0.46142318551E+02  0.10000007202E+02 0.  0.
        -12    1    1    2    0    0  0.11420632870E+02 -0.29989307891E+02  0.31612085889E+02  0.45045681449E+02  0.00000000000E+00 0.  1.
         11    1    3    3    0    0 -0.34550791307E+01  0.73721785783E+01 -0.74688963936E+01  0.11048574677E+02  0.51100000000E-03 0. -1.
        -11    1    3    3    0    0 -0.49751552073E+01  0.83200064089E+01 -0.15005490529E+02  0.17864473747E+02  0.51100000000E-03 0.  1.
        -12    1    3    3    0    0 -0.29903985322E+01  0.14297122904E+02 -0.91376989669E+01  0.17229270128E+02  0.00000000000E+00 0.  1.
</event>
<event>
 7    1  0.4102844E-008  0.4614232E+02  0.7816164E-02  0.1320468E+00
        -11   -1    0    0    0    0  0.00000000000E+00  0.00000000000E+00  0.45593999997E+02  0.45594000000E+02  0.51100000000E-03 0.  1.
         11   -1    0    0    0    0 -0.00000000000E+00 -0.00000000000E+00 -0.45593999997E+02  0.45594000000E+02  0.51100000000E-03 0. -1.
    9900012    2    1    2    0    0 -0.43898874122E+02 -0.70722980994E+01 -0.72100599735E+01  0.46142317472E+02  0.99999973647E+01 0.  0.
        -12    1    1    2    0    0  0.43898874122E+02  0.70722980994E+01  0.72100599735E+01  0.45045682528E+02  0.00000000000E+00 0.  1.
         11    1    3    3    0    0 -0.14216036108E+02 -0.45616527991E+01  0.98939464735E+00  0.14962729059E+02  0.51100000000E-03 0. -1.
        -11    1    3    3    0    0 -0.13948875838E+02  0.61826842538E+00 -0.27012641247E+01  0.14221470428E+02  0.51100000000E-03 0.  1.
         12    1    3    3    0    0 -0.15733962176E+02 -0.31289137256E+01 -0.54981904961E+01  0.16958117985E+02  0.00000000000E+00 0. -1.
</event>
<event>
 7    1  0.4102844E-008  0.4614232E+02  0.7816164E-02  0.1320468E+00
        -11   -1    0    0    0    0  0.00000000000E+00  0.00000000000E+00  0.45593999997E+02  0.45594000000E+02  0.51100000000E-03 0.  1.
         11   -1    0    0    0    0 -0.00000000000E+00 -0.00000000000E+00 -0.45593999997E+02  0.45594000000E+02  0.51100000000E-03 0. -1.
    9900012    2    1    2    0    0 -0.14673264111E+02 -0.79059365425E+01 -0.41848595225E+02  0.46142318358E+02  0.10000005445E+02 0.  0.
        -12    1    1    2    0    0  0.14673264111E+02  0.79059365425E+01  0.41848595225E+02  0.45045681642E+02  0.00000000000E+00 0.  1.
         11    1    3    3    0    0 -0.31345626782E+01  0.36795221737E-01 -0.11710482952E+02  0.12122798699E+02  0.51100000000E-03 0. -1.
        -11    1    3    3    0    0 -0.10171985601E+02 -0.90759923573E+01 -0.28548814521E+02  0.31636651832E+02  0.51100000000E-03 0.  1.
        -12    1    3    3    0    0 -0.13667158318E+01  0.11332605931E+01 -0.15892977520E+01  0.23828678271E+01  0.00000000000E+00 0.  1.
</event>
<event>
 7    1  0.4102844E-008  0.4614232E+02  0.7816164E-02  0.1320468E+00
        -11   -1    0    0    0    0  0.00000000000E+00  0.00000000000E+00  0.45593999997E+02  0.45594000000E+02  0.51100000000E-03 0.  1.
         11   -1    0    0    0    0 -0.00000000000E+00 -0.00000000000E+00 -0.45593999997E+02  0.45594000000E+02  0.51100000000E-03 0. -1.
    9900012    2    1    2    0    0 -0.29747556217E+02 -0.32808452340E+02 -0.82341883121E+01  0.46142317599E+02  0.99999985184E+01 0.  0.
        -12    1    1    2    0    0  0.29747556217E+02  0.32808452340E+02  0.82341883121E+01  0.45045682401E+02  0.00000000000E+00 0.  1.
         11    1    3    3    0    0 -0.20625620790E+02 -0.20281704108E+02 -0.42773037348E+01  0.29241393298E+02  0.51100000000E-03 0. -1.
        -11    1    3    3    0    0 -0.41563571504E+01 -0.20363989935E+01  0.31530209015E-01  0.46285224465E+01  0.51100000000E-03 0.  1.
        -12    1    3    3    0    0 -0.49655782772E+01 -0.10490349238E+02 -0.39884147862E+01  0.12272401854E+02  0.00000000000E+00 0.  1.
</event>
<event>
 7    1  0.4102844E-008  0.4614232E+02  0.7816164E-02  0.1320468E+00
        -11   -1    0    0    0    0  0.00000000000E+00  0.00000000000E+00  0.45593999997E+02  0.45594000000E+02  0.51100000000E-03 0.  1.
         11   -1    0    0    0    0 -0.00000000000E+00 -0.00000000000E+00 -0.45593999997E+02  0.45594000000E+02  0.51100000000E-03 0. -1.
    9900012    2    1    2    0    0 -0.35046726570E+01 -0.44205396536E+02 -0.79191921799E+01  0.46142318541E+02  0.10000007111E+02 0.  0.
        -12    1    1    2    0    0  0.35046726570E+01  0.44205396536E+02  0.79191921799E+01  0.45045681459E+02  0.00000000000E+00 0.  1.
         11    1    3    3    0    0 -0.28124293533E+01 -0.29370764410E+02 -0.42736046144E+01  0.29813004839E+02  0.51100000000E-03 0. -1.
        -11    1    3    3    0    0 -0.12342271766E+01 -0.29914433548E+01 -0.30686961221E+01  0.44597024810E+01  0.51100000000E-03 0.  1.
         12    1    3    3    0    0  0.54198387289E+00 -0.11843188771E+02 -0.57689144345E+00  0.11869611221E+02  0.00000000000E+00 0. -1.
</event>
<event>
 7    1  0.4102844E-008  0.4614232E+02  0.7816164E-02  0.1320468E+00
        -11   -1    0    0    0    0  0.00000000000E+00  0.00000000000E+00  0.45593999997E+02  0.45594000000E+02  0.51100000000E-03 0. -1.
         11   -1    0    0    0    0 -0.00000000000E+00 -0.00000000000E+00 -0.45593999997E+02  0.45594000000E+02  0.51100000000E-03 0.  1.
    9900012    2    1    2    0    0  0.37786000389E+02 -0.23353148105E+02  0.74807785230E+01  0.46142318751E+02  0.10000009029E+02 0.  0.
        -12    1    1    2    0    0 -0.37786000389E+02  0.23353148105E+02 -0.74807785230E+01  0.45045681249E+02  0.00000000000E+00 0.  1.
         11    1    3    3    0    0  0.12017748634E+02 -0.96952211414E+01 -0.13656957873E+01  0.15501248997E+02  0.51100000000E-03 0. -1.
        -11    1    3    3    0    0  0.39449163493E+01 -0.10932710547E+01  0.56526265566E+00  0.41324482735E+01  0.51100000000E-03 0.  1.
         12    1    3    3    0    0  0.21823335406E+02 -0.12564655909E+02  0.82812116546E+01  0.26508621481E+02  0.00000000000E+00 0. -1.
</event>
<event>
 7    1  0.4102844E-008  0.4614232E+02  0.7816164E-02  0.1320468E+00
        -11   -1    0    0    0    0  0.00000000000E+00  0.00000000000E+00  0.45593999997E+02  0.45594000000E+02  0.51100000000E-03 0. -1.
         11   -1    0    0    0    0 -0.00000000000E+00 -0.00000000000E+00 -0.45593999997E+02  0.45594000000E+02  0.51100000000E-03 0.  1.
    9900012    2    1    2    0    0 -0.43357197293E+02 -0.15352786765E+01 -0.12120637576E+02  0.46142317710E+02  0.99999995333E+01 0.  0.
        -12    1    1    2    0    0  0.43357197293E+02  0.15352786765E+01  0.12120637576E+02  0.45045682290E+02  0.00000000000E+00 0.  1.
         11    1    3    3    0    0 -0.45475063356E+01  0.59210293353E+00  0.13886051712E+01  0.47915158707E+01  0.51100000000E-03 0.  1.
        -11    1    3    3    0    0 -0.50358812483E+01  0.81435914205E+00 -0.26743173936E+01  0.57597963976E+01  0.51100000000E-03 0. -1.
         12    1    3    3    0    0 -0.33773809709E+02 -0.29417407520E+01 -0.10834925354E+02  0.35591005442E+02  0.00000000000E+00 0. -1.
</event>
<event>
 7    1  0.4102844E-008  0.4614231E+02  0.7816164E-02  0.1320468E+00
        -11   -1    0    0    0    0  0.00000000000E+00  0.00000000000E+00  0.45593999997E+02  0.45594000000E+02  0.51100000000E-03 0.  1.
         11   -1    0    0    0    0 -0.00000000000E+00 -0.00000000000E+00 -0.45593999997E+02  0.45594000000E+02  0.51100000000E-03 0. -1.
    9900012    2    1    2    0    0 -0.29969776089E+02 -0.44232007401E+01 -0.33337091919E+02  0.46142313400E+02  0.99999602312E+01 0.  0.
        -12    1    1    2    0    0  0.29969776089E+02  0.44232007401E+01  0.33337091919E+02  0.45045686600E+02  0.00000000000E+00 0.  1.
         11    1    3    3    0    0 -0.18403407853E+01 -0.11448893135E+01 -0.44963701517E+01  0.49914898125E+01  0.51100000000E-03 0. -1.
        -11    1    3    3    0    0 -0.24276973538E+02 -0.51753234462E+01 -0.26286868003E+02  0.36154596480E+02  0.51100000000E-03 0.  1.
        -12    1    3    3    0    0 -0.38524617658E+01  0.18970120196E+01 -0.25538537647E+01  0.49962271076E+01  0.00000000000E+00 0.  1.
</event>
<event>
 7    1  0.4102844E-008  0.4614232E+02  0.7816164E-02  0.1320468E+00
        -11   -1    0    0    0    0  0.00000000000E+00  0.00000000000E+00  0.45593999997E+02  0.45594000000E+02  0.51100000000E-03 0.  1.
         11   -1    0    0    0    0 -0.00000000000E+00 -0.00000000000E+00 -0.45593999997E+02  0.45594000000E+02  0.51100000000E-03 0. -1.
    9900012    2    1    2    0    0  0.31775605576E+02  0.10992113146E+02 -0.29976621596E+02  0.46142317594E+02  0.99999984731E+01 0.  0.
        -12    1    1    2    0    0 -0.31775605576E+02 -0.10992113146E+02  0.29976621596E+02  0.45045682406E+02  0.00000000000E+00 0.  1.
         11    1    3    3    0    0  0.17769033918E+01  0.87763989337E+00  0.30249278639E+00  0.20047791882E+01  0.51100000000E-03 0. -1.
        -11    1    3    3    0    0  0.14444459711E+02  0.20531579617E+01 -0.13368592167E+02  0.19788307930E+02  0.51100000000E-03 0.  1.
         12    1    3    3    0    0  0.15554242474E+02  0.80613152910E+01 -0.16910522215E+02  0.24349230475E+02  0.00000000000E+00 0. -1.
</event>
<event>
 7    1  0.4102844E-008  0.4614232E+02  0.7816164E-02  0.1320468E+00
        -11   -1    0    0    0    0  0.00000000000E+00  0.00000000000E+00  0.45593999997E+02  0.45594000000E+02  0.51100000000E-03 0.  1.
         11   -1    0    0    0    0 -0.00000000000E+00 -0.00000000000E+00 -0.45593999997E+02  0.45594000000E+02  0.51100000000E-03 0. -1.
    9900012    2    1    2    0    0  0.94008339854E+01 -0.80309478898E+01 -0.43315605559E+02  0.46142317759E+02  0.99999999777E+01 0.  0.
        -12    1    1    2    0    0 -0.94008339854E+01  0.80309478898E+01  0.43315605559E+02  0.45045682241E+02  0.00000000000E+00 0.  1.
         11    1    3    3    0    0  0.61075412994E+01 -0.26397673827E+01 -0.14760462858E+02  0.16190790487E+02  0.51100000000E-03 0. -1.
        -11    1    3    3    0    0  0.15517246070E+01 -0.41043291861E+01 -0.68253669830E+01  0.81141236149E+01  0.51100000000E-03 0.  1.
        -12    1    3    3    0    0  0.17415680790E+01 -0.12868513209E+01 -0.21729775718E+02  0.21837403656E+02  0.00000000000E+00 0.  1.
</event>
<event>
 7    1  0.4102844E-008  0.4614232E+02  0.7816164E-02  0.1320468E+00
        -11   -1    0    0    0    0  0.00000000000E+00  0.00000000000E+00  0.45593999997E+02  0.45594000000E+02  0.51100000000E-03 0. -1.
         11   -1    0    0    0    0 -0.00000000000E+00 -0.00000000000E+00 -0.45593999997E+02  0.45594000000E+02  0.51100000000E-03 0.  1.
    9900012    2    1    2    0    0 -0.43431923174E+02  0.55959903313E+01  0.10557770222E+02  0.46142316850E+02  0.99999916896E+01 0.  0.
        -12    1    1    2    0    0  0.43431923174E+02 -0.55959903313E+01 -0.10557770222E+02  0.45045683150E+02  0.00000000000E+00 0.  1.
         11    1    3    3    0    0 -0.21535323519E+02  0.49731663087E+01  0.79446693759E+01  0.23486598603E+02  0.51100000000E-03 0. -1.
        -11    1    3    3    0    0 -0.16997324781E+02  0.21535505310E+01  0.60450414861E+00  0.17143869316E+02  0.51100000000E-03 0.  1.
         12    1    3    3    0    0 -0.48992748747E+01 -0.15307265083E+01  0.20085966975E+01  0.55118489307E+01  0.00000000000E+00 0. -1.
</event>
<event>
 7    1  0.4102844E-008  0.4614232E+02  0.7816164E-02  0.1320468E+00
        -11   -1    0    0    0    0  0.00000000000E+00  0.00000000000E+00  0.45593999997E+02  0.45594000000E+02  0.51100000000E-03 0. -1.
         11   -1    0    0    0    0 -0.00000000000E+00 -0.00000000000E+00 -0.45593999997E+02  0.45594000000E+02  0.51100000000E-03 0.  1.
    9900012    2    1    2    0    0 -0.15297541621E+02  0.10524167071E+02  0.41040713684E+02  0.46142322606E+02  0.10000044180E+02 0.  0.
        -12    1    1    2    0    0  0.15297541621E+02 -0.10524167071E+02 -0.41040713684E+02  0.45045677394E+02  0.00000000000E+00 0.  1.
         11    1    3    3    0    0 -0.89338967986E+01  0.10942450345E+01  0.12630118022E+02  0.15509086553E+02  0.51100000000E-03 0. -1.
        -11    1    3    3    0    0 -0.42772773153E+01  0.64795495671E+01  0.17651884660E+02  0.19283897328E+02  0.51100000000E-03 0.  1.
         12    1    3    3    0    0 -0.20863675076E+01  0.29503724694E+01  0.10758711001E+02  0.11349338725E+02  0.00000000000E+00 0. -1.
</event>
<event>
 7    1  0.4102844E-008  0.4614232E+02  0.7816164E-02  0.1320468E+00
        -11   -1    0    0    0    0  0.00000000000E+00  0.00000000000E+00  0.45593999997E+02  0.45594000000E+02  0.51100000000E-03 0.  1.
         11   -1    0    0    0    0 -0.00000000000E+00 -0.00000000000E+00 -0.45593999997E+02  0.45594000000E+02  0.51100000000E-03 0. -1.
    9900012    2    1    2    0    0  0.15254840658E+02  0.32702508707E+02 -0.26961995524E+02  0.46142318277E+02  0.10000004703E+02 0.  0.
        -12    1    1    2    0    0 -0.15254840658E+02 -0.32702508707E+02  0.26961995524E+02  0.45045681723E+02  0.00000000000E+00 0.  1.
         11    1    3    3    0    0  0.10033047047E+02  0.21365125389E+02 -0.17826597919E+02  0.29579016373E+02  0.51100000000E-03 0. -1.
        -11    1    3    3    0    0  0.57338783801E+00 -0.29646072227E+00 -0.20955763266E+01  0.21927386926E+01  0.51100000000E-03 0.  1.
        -12    1    3    3    0    0  0.46484057725E+01  0.11633844040E+02 -0.70398212790E+01  0.14370563212E+02  0.00000000000E+00 0.  1.
</event>
<event>
 7    1  0.4102844E-008  0.4614232E+02  0.7816164E-02  0.1320468E+00
        -11   -1    0    0    0    0  0.00000000000E+00  0.00000000000E+00  0.45593999997E+02  0.45594000000E+02  0.51100000000E-03 0. -1.
         11   -1    0    0    0    0 -0.00000000000E+00 -0.00000000000E+00 -0.45593999997E+02  0.45594000000E+02  0.51100000000E-03 0.  1.
    9900012    2    1    2    0    0 -0.20041404603E+02  0.28477019840E+02  0.28574725690E+02  0.46142317569E+02  0.99999982478E+01 0.  0.
        -12    1    1    2    0    0  0.20041404603E+02 -0.28477019840E+02 -0.28574725690E+02  0.45045682431E+02  0.00000000000E+00 0.  1.
         11    1    3    3    0    0 -0.44336726891E+01  0.44573295937E+01  0.80697414538E+01  0.10229661188E+02  0.51100000000E-03 0. -1.
        -11    1    3    3    0    0  0.58265635980E+00  0.23858125803E+01  0.19124020422E+01  0.31126952845E+01  0.51100000000E-03 0.  1.
         12    1    3    3    0    0 -0.16190388274E+02  0.21633877666E+02  0.18592582194E+02  0.32799961097E+02  0.00000000000E+00 0. -1.
</event>
<event>
 7    1  0.4102844E-008  0.4614232E+02  0.7816164E-02  0.1320468E+00
        -11   -1    0    0    0    0  0.00000000000E+00  0.00000000000E+00  0.45593999997E+02  0.45594000000E+02  0.51100000000E-03 0.  1.
         11   -1    0    0    0    0 -0.00000000000E+00 -0.00000000000E+00 -0.45593999997E+02  0.45594000000E+02  0.51100000000E-03 0. -1.
    9900012    2    1    2    0    0  0.27206437479E+02  0.28541270622E+02 -0.21778867939E+02  0.46142318101E+02  0.10000003100E+02 0.  0.
        -12    1    1    2    0    0 -0.27206437479E+02 -0.28541270622E+02  0.21778867939E+02  0.45045681899E+02  0.00000000000E+00 0.  1.
         11    1    3    3    0    0  0.23920411200E+02  0.22421736778E+02 -0.19710952213E+02  0.38254960326E+02  0.51100000000E-03 0. -1.
        -11    1    3    3    0    0  0.21875772311E+01  0.31128646323E+01 -0.26463188723E+01  0.46344820850E+01  0.51100000000E-03 0.  1.
        -12    1    3    3    0    0  0.10984490476E+01  0.30066692113E+01  0.57840314552E+00  0.32528756901E+01  0.00000000000E+00 0.  1.
</event>
<event>
 7    1  0.4102844E-008  0.4614232E+02  0.7816164E-02  0.1320468E+00
        -11   -1    0    0    0    0  0.00000000000E+00  0.00000000000E+00  0.45593999997E+02  0.45594000000E+02  0.51100000000E-03 0.  1.
         11   -1    0    0    0    0 -0.00000000000E+00 -0.00000000000E+00 -0.45593999997E+02  0.45594000000E+02  0.51100000000E-03 0. -1.
    9900012    2    1    2    0    0 -0.13120086394E+01 -0.10016349820E+02 -0.43898346999E+02  0.46142317636E+02  0.99999988557E+01 0.  0.
        -12    1    1    2    0    0  0.13120086394E+01  0.10016349820E+02  0.43898346999E+02  0.45045682364E+02  0.00000000000E+00 0.  1.
         11    1    3    3    0    0 -0.21037480422E+01 -0.10187360905E+01 -0.17246587940E+02  0.17404263124E+02  0.51100000000E-03 0. -1.
        -11    1    3    3    0    0 -0.21006604128E+01 -0.29944390911E+01 -0.58922808234E+01  0.69353019547E+01  0.51100000000E-03 0.  1.
         12    1    3    3    0    0  0.28923998157E+01 -0.60031746388E+01 -0.20759478236E+02  0.21802752557E+02  0.00000000000E+00 0. -1.
</event>
<event>
 7    1  0.4102844E-008  0.4614232E+02  0.7816164E-02  0.1320468E+00
        -11   -1    0    0    0    0  0.00000000000E+00  0.00000000000E+00  0.45593999997E+02  0.45594000000E+02  0.51100000000E-03 0.  1.
         11   -1    0    0    0    0 -0.00000000000E+00 -0.00000000000E+00 -0.45593999997E+02  0.45594000000E+02  0.51100000000E-03 0. -1.
    9900012    2    1    2    0    0  0.93327684557E+01 -0.42461751356E+02 -0.11790360407E+02  0.46142317701E+02  0.99999994500E+01 0.  0.
        -12    1    1    2    0    0 -0.93327684557E+01  0.42461751356E+02  0.11790360407E+02  0.45045682299E+02  0.00000000000E+00 0.  1.
         11    1    3    3    0    0  0.21911881463E+01 -0.46164806651E+01 -0.24799571350E+01  0.56800868723E+01  0.51100000000E-03 0. -1.
        -11    1    3    3    0    0 -0.48259483839E+00 -0.49390991985E+01  0.11645618666E+01  0.50974310464E+01  0.51100000000E-03 0.  1.
         12    1    3    3    0    0  0.76241751478E+01 -0.32906171492E+02 -0.10474965139E+02  0.35364799782E+02  0.00000000000E+00 0. -1.
</event>
<event>
 7    1  0.4102844E-008  0.4614232E+02  0.7816164E-02  0.1320468E+00
        -11   -1    0    0    0    0  0.00000000000E+00  0.00000000000E+00  0.45593999997E+02  0.45594000000E+02  0.51100000000E-03 0. -1.
         11   -1    0    0    0    0 -0.00000000000E+00 -0.00000000000E+00 -0.45593999997E+02  0.45594000000E+02  0.51100000000E-03 0.  1.
    9900012    2    1    2    0    0  0.28472294254E+01 -0.20062878581E+02  0.40230432017E+02  0.46142317936E+02  0.10000001592E+02 0.  0.
        -12    1    1    2    0    0 -0.28472294254E+01  0.20062878581E+02 -0.40230432017E+02  0.45045682064E+02  0.00000000000E+00 0.  1.
         11    1    3    3    0    0  0.33671837400E+01 -0.47204698835E+01  0.12586056547E+02  0.13857473865E+02  0.51100000000E-03 0. -1.
        -11    1    3    3    0    0  0.45935884545E+00 -0.11323937555E+01  0.75847653467E+01  0.76825771583E+01  0.51100000000E-03 0.  1.
        -12    1    3    3    0    0 -0.97931316004E+00 -0.14210014942E+02  0.20059610123E+02  0.24602266912E+02  0.00000000000E+00 0.  1.
</event>
<event>
 7    1  0.4102844E-008  0.4614232E+02  0.7816164E-02  0.1320468E+00
        -11   -1    0    0    0    0  0.00000000000E+00  0.00000000000E+00  0.45593999997E+02  0.45594000000E+02  0.51100000000E-03 0. -1.
         11   -1    0    0    0    0 -0.00000000000E+00 -0.00000000000E+00 -0.45593999997E+02  0.45594000000E+02  0.51100000000E-03 0.  1.
    9900012    2    1    2    0    0  0.42115452070E+02 -0.12501240003E+02  0.99559642598E+01  0.46142317310E+02  0.99999958856E+01 0.  0.
        -12    1    1    2    0    0 -0.42115452070E+02  0.12501240003E+02 -0.99559642598E+01  0.45045682690E+02  0.00000000000E+00 0.  1.
         11    1    3    3    0    0  0.19378566513E+02 -0.18288351964E+01  0.28229382154E+01  0.19668311028E+02  0.51100000000E-03 0. -1.
        -11    1    3    3    0    0  0.32652540563E+01 -0.12911444591E-01  0.13601447530E+01  0.35372368832E+01  0.51100000000E-03 0.  1.
         12    1    3    3    0    0  0.19471631501E+02 -0.10659493362E+02  0.57728812914E+01  0.22936769399E+02  0.00000000000E+00 0. -1.
</event>
<event>
 7    1  0.4102844E-008  0.4614232E+02  0.7816164E-02  0.1320468E+00
        -11   -1    0    0    0    0  0.00000000000E+00  0.00000000000E+00  0.45593999997E+02  0.45594000000E+02  0.51100000000E-03 0.  1.
         11   -1    0    0    0    0 -0.00000000000E+00 -0.00000000000E+00 -0.45593999997E+02  0.45594000000E+02  0.51100000000E-03 0. -1.
    9900012    2    1    2    0    0 -0.17043935849E+02  0.41229526413E+02  0.62244578811E+01  0.46142317927E+02  0.10000001517E+02 0.  0.
        -12    1    1    2    0    0  0.17043935849E+02 -0.41229526413E+02 -0.62244578811E+01  0.45045682073E+02  0.00000000000E+00 0.  1.
         11    1    3    3    0    0 -0.36256609625E+01  0.16044322675E+02  0.41607959258E+01  0.16966965861E+02  0.51100000000E-03 0. -1.
        -11    1    3    3    0    0 -0.48186537454E+01  0.87088607812E+01  0.34601877283E+01  0.10537389591E+02  0.51100000000E-03 0.  1.
         12    1    3    3    0    0 -0.85996211415E+01  0.16476342956E+02 -0.13965257730E+01  0.18637962475E+02  0.00000000000E+00 0. -1.
</event>
<event>
 7    1  0.4102844E-008  0.4614232E+02  0.7816164E-02  0.1320468E+00
        -11   -1    0    0    0    0  0.00000000000E+00  0.00000000000E+00  0.45593999997E+02  0.45594000000E+02  0.51100000000E-03 0. -1.
         11   -1    0    0    0    0 -0.00000000000E+00 -0.00000000000E+00 -0.45593999997E+02  0.45594000000E+02  0.51100000000E-03 0.  1.
    9900012    2    1    2    0    0  0.13014801807E+01 -0.25098902370E+02  0.37382679550E+02  0.46142317841E+02  0.10000000731E+02 0.  0.
        -12    1    1    2    0    0 -0.13014801807E+01  0.25098902370E+02 -0.37382679550E+02  0.45045682159E+02  0.00000000000E+00 0.  1.
         11    1    3    3    0    0  0.29742295210E+01 -0.60493132308E+01  0.81045021407E+01  0.10541498329E+02  0.51100000000E-03 0. -1.
        -11    1    3    3    0    0  0.19543055383E+01 -0.19114142398E+01  0.41310758462E+01  0.49536453689E+01  0.51100000000E-03 0.  1.
         12    1    3    3    0    0 -0.36270548786E+01 -0.17138174899E+02  0.25147101563E+02  0.30647174143E+02  0.00000000000E+00 0. -1.
</event>
<event>
 7    1  0.4102844E-008  0.4614232E+02  0.7816164E-02  0.1320468E+00
        -11   -1    0    0    0    0  0.00000000000E+00  0.00000000000E+00  0.45593999997E+02  0.45594000000E+02  0.51100000000E-03 0.  1.
         11   -1    0    0    0    0 -0.00000000000E+00 -0.00000000000E+00 -0.45593999997E+02  0.45594000000E+02  0.51100000000E-03 0. -1.
    9900012    2    1    2    0    0  0.21707008938E+02 -0.35986098610E+02 -0.16214808180E+02  0.46142317249E+02  0.99999953304E+01 0.  0.
        -12    1    1    2    0    0 -0.21707008938E+02  0.35986098610E+02  0.16214808180E+02  0.45045682751E+02  0.00000000000E+00 0.  1.
         11    1    3    3    0    0  0.24990685068E-01 -0.29589895522E+01 -0.98144279464E+00  0.31176070831E+01  0.51100000000E-03 0.  1.
        -11    1    3    3    0    0  0.53628697666E+01 -0.14785633537E+02 -0.68211125079E+01  0.17143596686E+02  0.51100000000E-03 0. -1.
         12    1    3    3    0    0  0.16319148487E+02 -0.18241475521E+02 -0.84122528773E+01  0.25881113480E+02  0.00000000000E+00 0. -1.
</event>
<event>
 7    1  0.4102844E-008  0.4614232E+02  0.7816164E-02  0.1320468E+00
        -11   -1    0    0    0    0  0.00000000000E+00  0.00000000000E+00  0.45593999997E+02  0.45594000000E+02  0.51100000000E-03 0.  1.
         11   -1    0    0    0    0 -0.00000000000E+00 -0.00000000000E+00 -0.45593999997E+02  0.45594000000E+02  0.51100000000E-03 0. -1.
    9900012    2    1    2    0    0  0.28171082463E+01  0.42715389330E+02 -0.14020445864E+02  0.46142317780E+02  0.10000000169E+02 0.  0.
        -12    1    1    2    0    0 -0.28171082463E+01 -0.42715389330E+02  0.14020445864E+02  0.45045682220E+02  0.00000000000E+00 0.  1.
         11    1    3    3    0    0  0.70521114213E+00  0.14127194416E+01 -0.24115049134E+01  0.28824391033E+01  0.51100000000E-03 0.  1.
        -11    1    3    3    0    0  0.21787960814E+01  0.10439452939E+02 -0.14215917970E+01  0.10758729178E+02  0.51100000000E-03 0. -1.
        -12    1    3    3    0    0 -0.66898977168E-01  0.30863216950E+02 -0.10187349153E+02  0.32501149499E+02  0.00000000000E+00 0.  1.
</event>
<event>
 7    1  0.4102844E-008  0.4614232E+02  0.7816164E-02  0.1320468E+00
        -11   -1    0    0    0    0  0.00000000000E+00  0.00000000000E+00  0.45593999997E+02  0.45594000000E+02  0.51100000000E-03 0.  1.
         11   -1    0    0    0    0 -0.00000000000E+00 -0.00000000000E+00 -0.45593999997E+02  0.45594000000E+02  0.51100000000E-03 0. -1.
    9900012    2    1    2    0    0 -0.21730523209E+02  0.13505063747E+02 -0.37074399901E+02  0.46142317479E+02  0.99999974315E+01 0.  0.
        -12    1    1    2    0    0  0.21730523209E+02 -0.13505063747E+02  0.37074399901E+02  0.45045682521E+02  0.00000000000E+00 0.  1.
         11    1    3    3    0    0 -0.50314619581E+01  0.54968865780E+01 -0.18331627611E+02  0.19788378979E+02  0.51100000000E-03 0.  1.
        -11    1    3    3    0    0 -0.73616855239E+01  0.32974419881E+01 -0.83476534400E+01  0.11608223621E+02  0.51100000000E-03 0. -1.
        -12    1    3    3    0    0 -0.93373757269E+01  0.47107351810E+01 -0.10395118850E+02  0.14745714880E+02  0.00000000000E+00 0.  1.
</event>
<event>
 7    1  0.4102844E-008  0.4614232E+02  0.7816164E-02  0.1320468E+00
        -11   -1    0    0    0    0  0.00000000000E+00  0.00000000000E+00  0.45593999997E+02  0.45594000000E+02  0.51100000000E-03 0.  1.
         11   -1    0    0    0    0 -0.00000000000E+00 -0.00000000000E+00 -0.45593999997E+02  0.45594000000E+02  0.51100000000E-03 0. -1.
    9900012    2    1    2    0    0  0.24540245010E+02 -0.37709595906E+02 -0.22082520223E+01  0.46142316239E+02  0.99999861188E+01 0.  0.
        -12    1    1    2    0    0 -0.24540245010E+02  0.37709595906E+02  0.22082520223E+01  0.45045683761E+02  0.00000000000E+00 0.  1.
         11    1    3    3    0    0 -0.48230198289E-01 -0.26323126387E+01 -0.11722991007E+01  0.28819579147E+01  0.51100000000E-03 0. -1.
        -11    1    3    3    0    0  0.13452809151E+02 -0.24056557305E+02 -0.12640208438E+01  0.27591552555E+02  0.51100000000E-03 0.  1.
        -12    1    3    3    0    0  0.11135666057E+02 -0.11020725962E+02  0.22806792216E+00  0.15668805769E+02  0.00000000000E+00 0.  1.
</event>
<event>
 7    1  0.4102844E-008  0.4614232E+02  0.7816164E-02  0.1320468E+00
        -11   -1    0    0    0    0  0.00000000000E+00  0.00000000000E+00  0.45593999997E+02  0.45594000000E+02  0.51100000000E-03 0.  1.
         11   -1    0    0    0    0 -0.00000000000E+00 -0.00000000000E+00 -0.45593999997E+02  0.45594000000E+02  0.51100000000E-03 0. -1.
    9900012    2    1    2    0    0 -0.11742696074E+02  0.34426985774E+02 -0.26570760349E+02  0.46142316898E+02  0.99999921306E+01 0.  0.
        -12    1    1    2    0    0  0.11742696074E+02 -0.34426985774E+02  0.26570760349E+02  0.45045683102E+02  0.00000000000E+00 0.  1.
         11    1    3    3    0    0 -0.85937815176E+01  0.17704934815E+02 -0.13723483153E+02  0.23992744480E+02  0.51100000000E-03 0. -1.
        -11    1    3    3    0    0 -0.15133951015E+01  0.54252075756E+01 -0.79160970008E+01  0.97153401361E+01  0.51100000000E-03 0.  1.
        -12    1    3    3    0    0 -0.16355194548E+01  0.11296843384E+02 -0.49311801949E+01  0.12434232282E+02  0.00000000000E+00 0.  1.
</event>
<event>
 7    1  0.4102844E-008  0.4614232E+02  0.7816164E-02  0.1320468E+00
        -11   -1    0    0    0    0  0.00000000000E+00  0.00000000000E+00  0.45593999997E+02  0.45594000000E+02  0.51100000000E-03 0.  1.
         11   -1    0    0    0    0 -0.00000000000E+00 -0.00000000000E+00 -0.45593999997E+02  0.45594000000E+02  0.51100000000E-03 0. -1.
    9900012    2    1    2    0    0 -0.10152978189E+02 -0.30478321076E+02 -0.31576929845E+02  0.46142317408E+02  0.99999967835E+01 0.  0.
        -12    1    1    2    0    0  0.10152978189E+02  0.30478321076E+02  0.31576929845E+02  0.45045682592E+02  0.00000000000E+00 0.  1.
         11    1    3    3    0    0 -0.61613664642E+01 -0.13097292344E+02 -0.14173116239E+02  0.20257806585E+02  0.51100000000E-03 0. -1.
        -11    1    3    3    0    0  0.18119787569E+01 -0.50042136413E+01 -0.64838650068E+01  0.83884400737E+01  0.51100000000E-03 0.  1.
        -12    1    3    3    0    0 -0.58035904820E+01 -0.12376815090E+02 -0.10919948599E+02  0.17496070749E+02  0.00000000000E+00 0.  1.
</event>
<event>
 7    1  0.4102844E-008  0.4614232E+02  0.7816164E-02  0.1320468E+00
        -11   -1    0    0    0    0  0.00000000000E+00  0.00000000000E+00  0.45593999997E+02  0.45594000000E+02  0.51100000000E-03 0.  1.
         11   -1    0    0    0    0 -0.00000000000E+00 -0.00000000000E+00 -0.45593999997E+02  0.45594000000E+02  0.51100000000E-03 0. -1.
    9900012    2    1    2    0    0 -0.25508398909E+02 -0.20763009091E+02 -0.30778768659E+02  0.46142316948E+02  0.99999925899E+01 0.  0.
        -12    1    1    2    0    0  0.25508398909E+02  0.20763009091E+02  0.30778768659E+02  0.45045683052E+02  0.00000000000E+00 0.  1.
         11    1    3    3    0    0 -0.88434100121E+01 -0.52173152134E+01 -0.15466056493E+02  0.18564083128E+02  0.51100000000E-03 0. -1.
        -11    1    3    3    0    0 -0.14564943112E+01 -0.22359221014E+01 -0.11849794874E+01  0.29197431340E+01  0.51100000000E-03 0.  1.
         12    1    3    3    0    0 -0.15208494585E+02 -0.13309771776E+02 -0.14127732679E+02  0.24658490686E+02  0.00000000000E+00 0. -1.
</event>
<event>
 7    1  0.4102844E-008  0.4614232E+02  0.7816164E-02  0.1320468E+00
        -11   -1    0    0    0    0  0.00000000000E+00  0.00000000000E+00  0.45593999997E+02  0.45594000000E+02  0.51100000000E-03 0. -1.
         11   -1    0    0    0    0 -0.00000000000E+00 -0.00000000000E+00 -0.45593999997E+02  0.45594000000E+02  0.51100000000E-03 0.  1.
    9900012    2    1    2    0    0 -0.39504209292E+01  0.42958915880E+02  0.12962991915E+02  0.46142318315E+02  0.10000005049E+02 0.  0.
        -12    1    1    2    0    0  0.39504209292E+01 -0.42958915880E+02 -0.12962991915E+02  0.45045681685E+02  0.00000000000E+00 0.  1.
         11    1    3    3    0    0  0.23327753088E+00  0.87537992238E+01  0.40973978910E+00  0.87664876782E+01  0.51100000000E-03 0. -1.
        -11    1    3    3    0    0 -0.20698153312E+01  0.22453950969E+01  0.24812877763E+00  0.30639031966E+01  0.51100000000E-03 0.  1.
         12    1    3    3    0    0 -0.21138831288E+01  0.31959721559E+02  0.12305123348E+02  0.34311927440E+02  0.00000000000E+00 0. -1.
</event>
<event>
 7    1  0.4102844E-008  0.4614232E+02  0.7816164E-02  0.1320468E+00
        -11   -1    0    0    0    0  0.00000000000E+00  0.00000000000E+00  0.45593999997E+02  0.45594000000E+02  0.51100000000E-03 0. -1.
         11   -1    0    0    0    0 -0.00000000000E+00 -0.00000000000E+00 -0.45593999997E+02  0.45594000000E+02  0.51100000000E-03 0.  1.
    9900012    2    1    2    0    0 -0.17692904738E+02 -0.34671271453E+02  0.22671073337E+02  0.46142317538E+02  0.99999979664E+01 0.  0.
        -12    1    1    2    0    0  0.17692904738E+02  0.34671271453E+02 -0.22671073337E+02  0.45045682462E+02  0.00000000000E+00 0.  1.
         11    1    3    3    0    0 -0.62729923687E-01 -0.28953808599E+01  0.21464037985E+01  0.36047489364E+01  0.51100000000E-03 0.  1.
        -11    1    3    3    0    0 -0.12561100468E+02 -0.22909305949E+02  0.18780332564E+02  0.32176364548E+02  0.51100000000E-03 0. -1.
         12    1    3    3    0    0 -0.50690743465E+01 -0.88665846433E+01  0.17443369750E+01  0.10361204054E+02  0.00000000000E+00 0. -1.
</event>
<event>
 7    1  0.4102844E-008  0.4614232E+02  0.7816164E-02  0.1320468E+00
        -11   -1    0    0    0    0  0.00000000000E+00  0.00000000000E+00  0.45593999997E+02  0.45594000000E+02  0.51100000000E-03 0.  1.
         11   -1    0    0    0    0 -0.00000000000E+00 -0.00000000000E+00 -0.45593999997E+02  0.45594000000E+02  0.51100000000E-03 0. -1.
    9900012    2    1    2    0    0 -0.11837319072E+02  0.25498940390E+01 -0.43387664291E+02  0.46142317687E+02  0.99999993207E+01 0.  0.
        -12    1    1    2    0    0  0.11837319072E+02 -0.25498940390E+01  0.43387664291E+02  0.45045682313E+02  0.00000000000E+00 0.  1.
         11    1    3    3    0    0 -0.47605880550E+01  0.33979877332E+00 -0.12345236052E+02  0.13235690963E+02  0.51100000000E-03 0. -1.
        -11    1    3    3    0    0 -0.13572904062E+00 -0.16386126650E+01 -0.14120898651E+02  0.14216302361E+02  0.51100000000E-03 0.  1.
        -12    1    3    3    0    0 -0.69410019762E+01  0.38487079307E+01 -0.16921529589E+02  0.18690324363E+02  0.00000000000E+00 0.  1.
</event>
<event>
 7    1  0.4102844E-008  0.4614232E+02  0.7816164E-02  0.1320468E+00
        -11   -1    0    0    0    0  0.00000000000E+00  0.00000000000E+00  0.45593999997E+02  0.45594000000E+02  0.51100000000E-03 0. -1.
         11   -1    0    0    0    0 -0.00000000000E+00 -0.00000000000E+00 -0.45593999997E+02  0.45594000000E+02  0.51100000000E-03 0.  1.
    9900012    2    1    2    0    0 -0.98956326235E+01 -0.14799458485E+02  0.41378327450E+02  0.46142317642E+02  0.99999989173E+01 0.  0.
        -12    1    1    2    0    0  0.98956326235E+01  0.14799458485E+02 -0.41378327450E+02  0.45045682358E+02  0.00000000000E+00 0.  1.
         11    1    3    3    0    0 -0.31810150759E+01 -0.73514779312E+01  0.13708282653E+02  0.15877030524E+02  0.51100000000E-03 0. -1.
        -11    1    3    3    0    0 -0.63230307156E+01 -0.73239384235E+01  0.16797329814E+02  0.19384815723E+02  0.51100000000E-03 0.  1.
         12    1    3    3    0    0 -0.39158683203E+00 -0.12404213065E+00  0.10872714983E+02  0.10880471396E+02  0.00000000000E+00 0. -1.
</event>
<event>
 7    1  0.4102844E-008  0.4614232E+02  0.7816164E-02  0.1320468E+00
        -11   -1    0    0    0    0  0.00000000000E+00  0.00000000000E+00  0.45593999997E+02  0.45594000000E+02  0.51100000000E-03 0. -1.
         11   -1    0    0    0    0 -0.00000000000E+00 -0.00000000000E+00 -0.45593999997E+02  0.45594000000E+02  0.51100000000E-03 0.  1.
    9900012    2    1    2    0    0  0.23938626562E+02 -0.15058744365E+02  0.35061225065E+02  0.46142321777E+02  0.10000036619E+02 0.  0.
        -12    1    1    2    0    0 -0.23938626562E+02  0.15058744365E+02 -0.35061225065E+02  0.45045678223E+02  0.00000000000E+00 0.  1.
         11    1    3    3    0    0  0.35432439815E+00  0.85829427720E+00  0.14674464023E+01  0.17365523460E+01  0.51100000000E-03 0. -1.
        -11    1    3    3    0    0  0.19190265462E+02 -0.13320194432E+02  0.30568846991E+02  0.38472695185E+02  0.51100000000E-03 0.  1.
        -12    1    3    3    0    0  0.43940367010E+01 -0.25968442099E+01  0.30249316725E+01  0.59330742456E+01  0.00000000000E+00 0.  1.
</event>
<event>
 7    1  0.4102844E-008  0.4614232E+02  0.7816164E-02  0.1320468E+00
        -11   -1    0    0    0    0  0.00000000000E+00  0.00000000000E+00  0.45593999997E+02  0.45594000000E+02  0.51100000000E-03 0. -1.
         11   -1    0    0    0    0 -0.00000000000E+00 -0.00000000000E+00 -0.45593999997E+02  0.45594000000E+02  0.51100000000E-03 0.  1.
    9900012    2    1    2    0    0  0.39642724814E+02  0.45902386049E+01  0.20892520657E+02  0.46142319402E+02  0.10000014967E+02 0.  0.
        -12    1    1    2    0    0 -0.39642724814E+02 -0.45902386049E+01 -0.20892520657E+02  0.45045680598E+02  0.00000000000E+00 0.  1.
         11    1    3    3    0    0  0.29187563596E+02  0.64578625202E+01  0.17445011035E+02  0.34611360379E+02  0.51100000000E-03 0. -1.
        -11    1    3    3    0    0  0.19186196246E+01 -0.13532314246E+01  0.14130800156E+01  0.27402795375E+01  0.51100000000E-03 0.  1.
         12    1    3    3    0    0  0.85365415926E+01 -0.51439249062E+00  0.20344296066E+01  0.87906794857E+01  0.00000000000E+00 0. -1.
</event>
<event>
 7    1  0.4102844E-008  0.4614232E+02  0.7816164E-02  0.1320468E+00
        -11   -1    0    0    0    0  0.00000000000E+00  0.00000000000E+00  0.45593999997E+02  0.45594000000E+02  0.51100000000E-03 0.  1.
         11   -1    0    0    0    0 -0.00000000000E+00 -0.00000000000E+00 -0.45593999997E+02  0.45594000000E+02  0.51100000000E-03 0. -1.
    9900012    2    1    2    0    0  0.26629174035E+02  0.31394248204E+02  0.18286649566E+02  0.46142320047E+02  0.10000020849E+02 0.  0.
        -12    1    1    2    0    0 -0.26629174035E+02 -0.31394248204E+02 -0.18286649566E+02  0.45045679953E+02  0.00000000000E+00 0.  1.
         11    1    3    3    0    0  0.11933276635E+02  0.80016026719E+01  0.61873885471E+01  0.15643289739E+02  0.51100000000E-03 0. -1.
        -11    1    3    3    0    0  0.47046164577E+01  0.62324789437E+01  0.13674597388E+01  0.79276198317E+01  0.51100000000E-03 0.  1.
        -12    1    3    3    0    0  0.99912809420E+01  0.17160166588E+02  0.10731801280E+02  0.22571410476E+02  0.00000000000E+00 0.  1.
</event>
<event>
 7    1  0.4102844E-008  0.4614232E+02  0.7816164E-02  0.1320468E+00
        -11   -1    0    0    0    0  0.00000000000E+00  0.00000000000E+00  0.45593999997E+02  0.45594000000E+02  0.51100000000E-03 0. -1.
         11   -1    0    0    0    0 -0.00000000000E+00 -0.00000000000E+00 -0.45593999997E+02  0.45594000000E+02  0.51100000000E-03 0.  1.
    9900012    2    1    2    0    0  0.30863212540E+02 -0.10448826069E+02  0.31103016930E+02  0.46142317447E+02  0.99999971342E+01 0.  0.
        -12    1    1    2    0    0 -0.30863212540E+02  0.10448826069E+02 -0.31103016930E+02  0.45045682553E+02  0.00000000000E+00 0.  1.
         11    1    3    3    0    0  0.76202498901E+01 -0.32759924417E+01  0.60006495465E+01  0.10237584193E+02  0.51100000000E-03 0. -1.
        -11    1    3    3    0    0  0.20516703046E+02 -0.66156609356E+01  0.17361557506E+02  0.27678976729E+02  0.51100000000E-03 0.  1.
         12    1    3    3    0    0  0.27262596044E+01 -0.55717269144E+00  0.77408098783E+01  0.82257565251E+01  0.00000000000E+00 0. -1.
</event>
<event>
 7    1  0.4102844E-008  0.4614232E+02  0.7816164E-02  0.1320468E+00
        -11   -1    0    0    0    0  0.00000000000E+00  0.00000000000E+00  0.45593999997E+02  0.45594000000E+02  0.51100000000E-03 0. -1.
         11   -1    0    0    0    0 -0.00000000000E+00 -0.00000000000E+00 -0.45593999997E+02  0.45594000000E+02  0.51100000000E-03 0.  1.
    9900012    2    1    2    0    0 -0.16425732897E+02 -0.20644362873E+02  0.36511902298E+02  0.46142318420E+02  0.10000006005E+02 0.  0.
        -12    1    1    2    0    0  0.16425732897E+02  0.20644362873E+02 -0.36511902298E+02  0.45045681580E+02  0.00000000000E+00 0.  1.
         11    1    3    3    0    0 -0.53617576375E+01 -0.11680563293E+02  0.14556890459E+02  0.19418729719E+02  0.51100000000E-03 0. -1.
        -11    1    3    3    0    0 -0.39646940282E+01 -0.18983923325E+01  0.31180892764E+01  0.53893573997E+01  0.51100000000E-03 0.  1.
         12    1    3    3    0    0 -0.70992812313E+01 -0.70654072474E+01  0.18836922562E+02  0.21334231300E+02  0.00000000000E+00 0. -1.
</event>
<event>
 7    1  0.4102844E-008  0.4614232E+02  0.7816164E-02  0.1320468E+00
        -11   -1    0    0    0    0  0.00000000000E+00  0.00000000000E+00  0.45593999997E+02  0.45594000000E+02  0.51100000000E-03 0.  1.
         11   -1    0    0    0    0 -0.00000000000E+00 -0.00000000000E+00 -0.45593999997E+02  0.45594000000E+02  0.51100000000E-03 0. -1.
    9900012    2    1    2    0    0  0.34400362162E+02 -0.28019100854E+02 -0.77883624997E+01  0.46142317411E+02  0.99999968051E+01 0.  0.
        -12    1    1    2    0    0 -0.34400362162E+02  0.28019100854E+02  0.77883624997E+01  0.45045682589E+02  0.00000000000E+00 0.  1.
         11    1    3    3    0    0  0.20701377427E+02 -0.15929462042E+02 -0.34832278689E+01  0.26351995464E+02  0.51100000000E-03 0. -1.
        -11    1    3    3    0    0  0.68840272173E+01 -0.52842862757E+01  0.10974939294E+01  0.87474570795E+01  0.51100000000E-03 0.  1.
         12    1    3    3    0    0  0.68149575178E+01 -0.68053525361E+01 -0.54026285601E+01  0.11042864867E+02  0.00000000000E+00 0. -1.
</event>
<event>
 7    1  0.4102844E-008  0.4614232E+02  0.7816164E-02  0.1320468E+00
        -11   -1    0    0    0    0  0.00000000000E+00  0.00000000000E+00  0.45593999997E+02  0.45594000000E+02  0.51100000000E-03 0.  1.
         11   -1    0    0    0    0 -0.00000000000E+00 -0.00000000000E+00 -0.45593999997E+02  0.45594000000E+02  0.51100000000E-03 0. -1.
    9900012    2    1    2    0    0  0.13034236172E+02  0.25649180675E+02 -0.34660373431E+02  0.46142320204E+02  0.10000022280E+02 0.  0.
        -12    1    1    2    0    0 -0.13034236172E+02 -0.25649180675E+02  0.34660373431E+02  0.45045679796E+02  0.00000000000E+00 0.  1.
         11    1    3    3    0    0  0.73264553832E+00  0.80717858965E+01 -0.72213694777E+01  0.10855352341E+02  0.51100000000E-03 0. -1.
        -11    1    3    3    0    0  0.20644881446E+01  0.69977372880E+01 -0.11214662867E+02  0.13379054598E+02  0.51100000000E-03 0.  1.
        -12    1    3    3    0    0  0.10237102489E+02  0.10579657490E+02 -0.16224341086E+02  0.21907913266E+02  0.00000000000E+00 0.  1.
</event>
<event>
 7    1  0.4102844E-008  0.4614232E+02  0.7816164E-02  0.1320468E+00
        -11   -1    0    0    0    0  0.00000000000E+00  0.00000000000E+00  0.45593999997E+02  0.45594000000E+02  0.51100000000E-03 0. -1.
         11   -1    0    0    0    0 -0.00000000000E+00 -0.00000000000E+00 -0.45593999997E+02  0.45594000000E+02  0.51100000000E-03 0.  1.
    9900012    2    1    2    0    0 -0.65451312196E+01  0.35887018065E+02  0.26427195420E+02  0.46142318009E+02  0.10000002259E+02 0.  0.
        -12    1    1    2    0    0  0.65451312196E+01 -0.35887018065E+02 -0.26427195420E+02  0.45045681991E+02  0.00000000000E+00 0.  1.
         11    1    3    3    0    0 -0.65364943949E+01  0.24536737092E+02  0.22039136046E+02  0.33622919921E+02  0.51100000000E-03 0. -1.
        -11    1    3    3    0    0 -0.98022613632E+00  0.14059004258E+01  0.39154629616E+00  0.17580409690E+01  0.51100000000E-03 0.  1.
        -12    1    3    3    0    0  0.97158931160E+00  0.99443805473E+01  0.39965130779E+01  0.10761357119E+02  0.00000000000E+00 0.  1.
</event>
<event>
 7    1  0.4102844E-008  0.4614232E+02  0.7816164E-02  0.1320468E+00
        -11   -1    0    0    0    0  0.00000000000E+00  0.00000000000E+00  0.45593999997E+02  0.45594000000E+02  0.51100000000E-03 0. -1.
         11   -1    0    0    0    0 -0.00000000000E+00 -0.00000000000E+00 -0.45593999997E+02  0.45594000000E+02  0.51100000000E-03 0.  1.
    9900012    2    1    2    0    0  0.26513559858E+02 -0.22959472518E+02  0.28266716825E+02  0.46142317468E+02  0.99999973294E+01 0.  0.
        -12    1    1    2    0    0 -0.26513559858E+02  0.22959472518E+02 -0.28266716825E+02  0.45045682532E+02  0.00000000000E+00 0.  1.
         11    1    3    3    0    0  0.17004691922E+02 -0.11409064691E+02  0.14826863270E+02  0.25281656971E+02  0.51100000000E-03 0. -1.
        -11    1    3    3    0    0  0.79744830195E+01 -0.11911667524E+02  0.11617963228E+02  0.18451484289E+02  0.51100000000E-03 0.  1.
         12    1    3    3    0    0  0.15343849164E+01  0.36125969695E+00  0.18218903270E+01  0.24091762086E+01  0.00000000000E+00 0. -1.
</event>
<event>
 7    1  0.4102844E-008  0.4614232E+02  0.7816164E-02  0.1320468E+00
        -11   -1    0    0    0    0  0.00000000000E+00  0.00000000000E+00  0.45593999997E+02  0.45594000000E+02  0.51100000000E-03 0.  1.
         11   -1    0    0    0    0 -0.00000000000E+00 -0.00000000000E+00 -0.45593999997E+02  0.45594000000E+02  0.51100000000E-03 0. -1.
    9900012    2    1    2    0    0  0.22790801955E+02  0.23816713728E+02 -0.30699462923E+02  0.46142317295E+02  0.99999957537E+01 0.  0.
        -12    1    1    2    0    0 -0.22790801955E+02 -0.23816713728E+02  0.30699462923E+02  0.45045682705E+02  0.00000000000E+00 0.  1.
         11    1    3    3    0    0  0.14457994012E+02  0.19322848345E+02 -0.22324671332E+02  0.32875477325E+02  0.51100000000E-03 0. -1.
        -11    1    3    3    0    0  0.72525403696E+01  0.45405433619E+01 -0.86331480431E+01  0.12155127364E+02  0.51100000000E-03 0.  1.
        -12    1    3    3    0    0  0.10802675735E+01 -0.46677978635E-01  0.25835645179E+00  0.11117126069E+01  0.00000000000E+00 0.  1.
</event>
<event>
 7    1  0.4102844E-008  0.4614232E+02  0.7816164E-02  0.1320468E+00
        -11   -1    0    0    0    0  0.00000000000E+00  0.00000000000E+00  0.45593999997E+02  0.45594000000E+02  0.51100000000E-03 0.  1.
         11   -1    0    0    0    0 -0.00000000000E+00 -0.00000000000E+00 -0.45593999997E+02  0.45594000000E+02  0.51100000000E-03 0. -1.
    9900012    2    1    2    0    0  0.11317546637E+02  0.42617031410E+02  0.92095200433E+01  0.46142317771E+02  0.10000000090E+02 0.  0.
        -12    1    1    2    0    0 -0.11317546637E+02 -0.42617031410E+02 -0.92095200433E+01  0.45045682229E+02  0.00000000000E+00 0.  1.
         11    1    3    3    0    0  0.13754350364E+01  0.43628400618E+01  0.17060929349E+01  0.48823097309E+01  0.51100000000E-03 0. -1.
        -11    1    3    3    0    0  0.69703034693E-01  0.10748803804E+02  0.52144017467E+01  0.11947034258E+02  0.51100000000E-03 0.  1.
         12    1    3    3    0    0  0.98724085664E+01  0.27505387544E+02  0.22890253617E+01  0.29312973782E+02  0.00000000000E+00 0. -1.
</event>
<event>
 7    1  0.4102844E-008  0.4614232E+02  0.7816164E-02  0.1320468E+00
        -11   -1    0    0    0    0  0.00000000000E+00  0.00000000000E+00  0.45593999997E+02  0.45594000000E+02  0.51100000000E-03 0. -1.
         11   -1    0    0    0    0 -0.00000000000E+00 -0.00000000000E+00 -0.45593999997E+02  0.45594000000E+02  0.51100000000E-03 0.  1.
    9900012    2    1    2    0    0  0.20161105487E+02 -0.21153467277E+02  0.34280814037E+02  0.46142316929E+02  0.99999924141E+01 0.  0.
        -12    1    1    2    0    0 -0.20161105487E+02  0.21153467277E+02 -0.34280814037E+02  0.45045683071E+02  0.00000000000E+00 0.  1.
         11    1    3    3    0    0  0.29219646750E+01 -0.27237854821E+01  0.71791188300E+01  0.82156334114E+01  0.51100000000E-03 0. -1.
        -11    1    3    3    0    0  0.68648718206E+01 -0.12770733480E+02  0.17308921063E+02  0.22579124150E+02  0.51100000000E-03 0.  1.
        -12    1    3    3    0    0  0.10374268991E+02 -0.56589483145E+01  0.97927741441E+01  0.15347559368E+02  0.00000000000E+00 0.  1.
</event>
<event>
 7    1  0.4102844E-008  0.4614232E+02  0.7816164E-02  0.1320468E+00
        -11   -1    0    0    0    0  0.00000000000E+00  0.00000000000E+00  0.45593999997E+02  0.45594000000E+02  0.51100000000E-03 0.  1.
         11   -1    0    0    0    0 -0.00000000000E+00 -0.00000000000E+00 -0.45593999997E+02  0.45594000000E+02  0.51100000000E-03 0. -1.
    9900012    2    1    2    0    0 -0.22222742428E+02 -0.36469206865E+01 -0.39012346459E+02  0.46142317768E+02  0.10000000064E+02 0.  0.
        -12    1    1    2    0    0  0.22222742428E+02  0.36469206865E+01  0.39012346459E+02  0.45045682232E+02  0.00000000000E+00 0.  1.
         11    1    3    3    0    0 -0.12819867073E+02 -0.13523996340E+01 -0.14838761331E+02  0.19656215675E+02  0.51100000000E-03 0. -1.
        -11    1    3    3    0    0 -0.70386370289E-01 -0.14371551381E+01 -0.27975805621E+01  0.31459221851E+01  0.51100000000E-03 0.  1.
        -12    1    3    3    0    0 -0.93324889839E+01 -0.85736591431E+00 -0.21376004566E+02  0.23340179908E+02  0.00000000000E+00 0.  1.
</event>
<event>
 7    1  0.4102844E-008  0.4614232E+02  0.7816164E-02  0.1320468E+00
        -11   -1    0    0    0    0  0.00000000000E+00  0.00000000000E+00  0.45593999997E+02  0.45594000000E+02  0.51100000000E-03 0.  1.
         11   -1    0    0    0    0 -0.00000000000E+00 -0.00000000000E+00 -0.45593999997E+02  0.45594000000E+02  0.51100000000E-03 0. -1.
    9900012    2    1    2    0    0  0.11898428932E+02  0.10368322653E+02 -0.42190507130E+02  0.46142316327E+02  0.99999869220E+01 0.  0.
        -12    1    1    2    0    0 -0.11898428932E+02 -0.10368322653E+02  0.42190507130E+02  0.45045683673E+02  0.00000000000E+00 0.  1.
         11    1    3    3    0    0  0.76118359176E+01  0.31207615806E+01 -0.18233007156E+02  0.20003043496E+02  0.51100000000E-03 0. -1.
        -11    1    3    3    0    0  0.28595675667E+01  0.29991202686E+01 -0.42781107482E+01  0.59560121632E+01  0.51100000000E-03 0.  1.
         12    1    3    3    0    0  0.14270254479E+01  0.42484408043E+01 -0.19679389226E+02  0.20183260668E+02  0.00000000000E+00 0. -1.
</event>
<event>
 7    1  0.4102844E-008  0.4614232E+02  0.7816164E-02  0.1320468E+00
        -11   -1    0    0    0    0  0.00000000000E+00  0.00000000000E+00  0.45593999997E+02  0.45594000000E+02  0.51100000000E-03 0.  1.
         11   -1    0    0    0    0 -0.00000000000E+00 -0.00000000000E+00 -0.45593999997E+02  0.45594000000E+02  0.51100000000E-03 0. -1.
    9900012    2    1    2    0    0  0.62655882603E+01  0.11351986506E+02 -0.43139170958E+02  0.46142320242E+02  0.10000022627E+02 0.  0.
        -12    1    1    2    0    0 -0.62655882603E+01 -0.11351986506E+02  0.43139170958E+02  0.45045679758E+02  0.00000000000E+00 0.  1.
         11    1    3    3    0    0  0.49913000628E+01  0.72283390670E+01 -0.25033016679E+02  0.26529490879E+02  0.51100000000E-03 0. -1.
        -11    1    3    3    0    0  0.20674474113E+01 -0.39571280998E+00 -0.21453434760E+01  0.30055658897E+01  0.51100000000E-03 0.  1.
        -12    1    3    3    0    0 -0.79315921378E+00  0.45193602491E+01 -0.15960810803E+02  0.16607263474E+02  0.00000000000E+00 0.  1.
</event>
<event>
 7    1  0.4102844E-008  0.4614232E+02  0.7816164E-02  0.1320468E+00
        -11   -1    0    0    0    0  0.00000000000E+00  0.00000000000E+00  0.45593999997E+02  0.45594000000E+02  0.51100000000E-03 0. -1.
         11   -1    0    0    0    0 -0.00000000000E+00 -0.00000000000E+00 -0.45593999997E+02  0.45594000000E+02  0.51100000000E-03 0.  1.
    9900012    2    1    2    0    0  0.29484756877E+02  0.24272105857E+02  0.23887808598E+02  0.46142318626E+02  0.10000007884E+02 0.  0.
        -12    1    1    2    0    0 -0.29484756877E+02 -0.24272105857E+02 -0.23887808598E+02  0.45045681374E+02  0.00000000000E+00 0.  1.
         11    1    3    3    0    0  0.16632968088E+01  0.34573981197E+01  0.15196774238E+01  0.41266908978E+01  0.51100000000E-03 0. -1.
        -11    1    3    3    0    0  0.95452143877E+01  0.10134132441E+02  0.12291751272E+02  0.18571454107E+02  0.51100000000E-03 0.  1.
         12    1    3    3    0    0  0.18276245681E+02  0.10680575296E+02  0.10076379903E+02  0.23444173621E+02  0.00000000000E+00 0. -1.
</event>
<event>
 7    1  0.4102844E-008  0.4614232E+02  0.7816164E-02  0.1320468E+00
        -11   -1    0    0    0    0  0.00000000000E+00  0.00000000000E+00  0.45593999997E+02  0.45594000000E+02  0.51100000000E-03 0.  1.
         11   -1    0    0    0    0 -0.00000000000E+00 -0.00000000000E+00 -0.45593999997E+02  0.45594000000E+02  0.51100000000E-03 0. -1.
    9900012    2    1    2    0    0  0.40818219164E+02 -0.86301236323E+01 -0.16985505798E+02  0.46142318111E+02  0.10000003191E+02 0.  0.
        -12    1    1    2    0    0 -0.40818219164E+02  0.86301236323E+01  0.16985505798E+02  0.45045681889E+02  0.00000000000E+00 0.  1.
         11    1    3    3    0    0  0.32085185822E+02 -0.41618096655E+01 -0.13182327188E+02  0.34936421672E+02  0.51100000000E-03 0. -1.
        -11    1    3    3    0    0  0.87099099462E+01 -0.46191602728E+01 -0.42483111756E+01  0.10735330503E+02  0.51100000000E-03 0.  1.
         12    1    3    3    0    0  0.23123395860E-01  0.15084630600E+00  0.44513256532E+00  0.47056593606E+00  0.00000000000E+00 0. -1.
</event>
<event>
 7    1  0.4102844E-008  0.4614232E+02  0.7816164E-02  0.1320468E+00
        -11   -1    0    0    0    0  0.00000000000E+00  0.00000000000E+00  0.45593999997E+02  0.45594000000E+02  0.51100000000E-03 0.  1.
         11   -1    0    0    0    0 -0.00000000000E+00 -0.00000000000E+00 -0.45593999997E+02  0.45594000000E+02  0.51100000000E-03 0. -1.
    9900012    2    1    2    0    0 -0.12515427458E+02  0.32639297959E+01 -0.43148860364E+02  0.46142319709E+02  0.10000017765E+02 0.  0.
        -12    1    1    2    0    0  0.12515427458E+02 -0.32639297959E+01  0.43148860364E+02  0.45045680291E+02  0.00000000000E+00 0.  1.
         11    1    3    3    0    0 -0.38193836748E+00  0.21511810245E+01 -0.10948654799E+02  0.11164519644E+02  0.51100000000E-03 0.  1.
        -11    1    3    3    0    0 -0.37060476232E+01  0.31520315508E+01 -0.13914123073E+02  0.14740180224E+02  0.51100000000E-03 0. -1.
        -12    1    3    3    0    0 -0.84274414675E+01 -0.20392827794E+01 -0.18286082492E+02  0.20237619842E+02  0.00000000000E+00 0.  1.
</event>
<event>
 7    1  0.4102844E-008  0.4614232E+02  0.7816164E-02  0.1320468E+00
        -11   -1    0    0    0    0  0.00000000000E+00  0.00000000000E+00  0.45593999997E+02  0.45594000000E+02  0.51100000000E-03 0.  1.
         11   -1    0    0    0    0 -0.00000000000E+00 -0.00000000000E+00 -0.45593999997E+02  0.45594000000E+02  0.51100000000E-03 0. -1.
    9900012    2    1    2    0    0 -0.10920605044E+02 -0.28770630509E+01 -0.43607067107E+02  0.46142318653E+02  0.10000008134E+02 0.  0.
        -12    1    1    2    0    0  0.10920605044E+02  0.28770630509E+01  0.43607067107E+02  0.45045681347E+02  0.00000000000E+00 0.  1.
         11    1    3    3    0    0 -0.14223549919E+01 -0.11488258112E+01 -0.15647796444E+01  0.24065390220E+01  0.51100000000E-03 0. -1.
        -11    1    3    3    0    0 -0.32869970412E+01  0.17656754316E+01 -0.65779580003E+01  0.75625056028E+01  0.51100000000E-03 0.  1.
         12    1    3    3    0    0 -0.62112530113E+01 -0.34939126713E+01 -0.35464329462E+02  0.36173274028E+02  0.00000000000E+00 0. -1.
</event>
<event>
 7    1  0.4102844E-008  0.4614232E+02  0.7816164E-02  0.1320468E+00
        -11   -1    0    0    0    0  0.00000000000E+00  0.00000000000E+00  0.45593999997E+02  0.45594000000E+02  0.51100000000E-03 0.  1.
         11   -1    0    0    0    0 -0.00000000000E+00 -0.00000000000E+00 -0.45593999997E+02  0.45594000000E+02  0.51100000000E-03 0. -1.
    9900012    2    1    2    0    0 -0.14814115642E+02  0.42113505463E+02 -0.60090064556E+01  0.46142317374E+02  0.99999964742E+01 0.  0.
        -12    1    1    2    0    0  0.14814115642E+02 -0.42113505463E+02  0.60090064556E+01  0.45045682626E+02  0.00000000000E+00 0.  1.
         11    1    3    3    0    0 -0.71925214014E+01  0.80707705925E+01 -0.12053171172E+01  0.10877614246E+02  0.51100000000E-03 0. -1.
        -11    1    3    3    0    0 -0.31698578478E+00  0.42036605231E+01 -0.62319159584E+00  0.42614093687E+01  0.51100000000E-03 0.  1.
        -12    1    3    3    0    0 -0.73046084554E+01  0.29839074347E+02 -0.41804977426E+01  0.31003293760E+02  0.00000000000E+00 0.  1.
</event>
<event>
 7    1  0.4102844E-008  0.4614232E+02  0.7816164E-02  0.1320468E+00
        -11   -1    0    0    0    0  0.00000000000E+00  0.00000000000E+00  0.45593999997E+02  0.45594000000E+02  0.51100000000E-03 0.  1.
         11   -1    0    0    0    0 -0.00000000000E+00 -0.00000000000E+00 -0.45593999997E+02  0.45594000000E+02  0.51100000000E-03 0. -1.
    9900012    2    1    2    0    0 -0.68046384878E+01  0.15253621617E+02 -0.41834644011E+02  0.46142317444E+02  0.99999971095E+01 0.  0.
        -12    1    1    2    0    0  0.68046384878E+01 -0.15253621617E+02  0.41834644011E+02  0.45045682556E+02  0.00000000000E+00 0.  1.
         11    1    3    3    0    0 -0.19086699857E+01  0.18319678782E+01 -0.13078457252E+02  0.13343356841E+02  0.51100000000E-03 0. -1.
        -11    1    3    3    0    0 -0.39589298210E+01  0.23190925774E+01 -0.72970916155E+01  0.86196787653E+01  0.51100000000E-03 0.  1.
         12    1    3    3    0    0 -0.93703868109E+00  0.11102561161E+02 -0.21459095143E+02  0.24179281838E+02  0.00000000000E+00 0. -1.
</event>
<event>
 7    1  0.4102844E-008  0.4614232E+02  0.7816164E-02  0.1320468E+00
        -11   -1    0    0    0    0  0.00000000000E+00  0.00000000000E+00  0.45593999997E+02  0.45594000000E+02  0.51100000000E-03 0.  1.
         11   -1    0    0    0    0 -0.00000000000E+00 -0.00000000000E+00 -0.45593999997E+02  0.45594000000E+02  0.51100000000E-03 0. -1.
    9900012    2    1    2    0    0 -0.33648637051E+02  0.23209559648E+02 -0.18926147714E+02  0.46142317613E+02  0.99999986491E+01 0.  0.
        -12    1    1    2    0    0  0.33648637051E+02 -0.23209559648E+02  0.18926147714E+02  0.45045682387E+02  0.00000000000E+00 0.  1.
         11    1    3    3    0    0 -0.26024719793E+02  0.19372875612E+02 -0.14678516033E+02  0.35609734385E+02  0.51100000000E-03 0. -1.
        -11    1    3    3    0    0  0.55712571149E+00  0.60617247179E+00 -0.18469709463E+00  0.84376975642E+00  0.51100000000E-03 0.  1.
        -12    1    3    3    0    0 -0.81810429698E+01  0.32305115638E+01 -0.40629345861E+01  0.96888134716E+01  0.00000000000E+00 0.  1.
</event>
<event>
 7    1  0.4102844E-008  0.4614232E+02  0.7816164E-02  0.1320468E+00
        -11   -1    0    0    0    0  0.00000000000E+00  0.00000000000E+00  0.45593999997E+02  0.45594000000E+02  0.51100000000E-03 0. -1.
         11   -1    0    0    0    0 -0.00000000000E+00 -0.00000000000E+00 -0.45593999997E+02  0.45594000000E+02  0.51100000000E-03 0.  1.
    9900012    2    1    2    0    0 -0.17871297647E+02 -0.24451173133E+02  0.33344711819E+02  0.46142323698E+02  0.10000054138E+02 0.  0.
        -12    1    1    2    0    0  0.17871297647E+02  0.24451173133E+02 -0.33344711819E+02  0.45045676302E+02  0.00000000000E+00 0.  1.
         11    1    3    3    0    0 -0.30277217993E+01 -0.76282278625E+01  0.83047657465E+01  0.11675876583E+02  0.51100000000E-03 0. -1.
        -11    1    3    3    0    0 -0.15389577463E+01 -0.49368393619E+01  0.94569249007E+01  0.10778413736E+02  0.51100000000E-03 0.  1.
         12    1    3    3    0    0 -0.13304618102E+02 -0.11886105909E+02  0.15583021172E+02  0.23688033379E+02  0.00000000000E+00 0. -1.
</event>
<event>
 7    1  0.4102844E-008  0.4614232E+02  0.7816164E-02  0.1320468E+00
        -11   -1    0    0    0    0  0.00000000000E+00  0.00000000000E+00  0.45593999997E+02  0.45594000000E+02  0.51100000000E-03 0. -1.
         11   -1    0    0    0    0 -0.00000000000E+00 -0.00000000000E+00 -0.45593999997E+02  0.45594000000E+02  0.51100000000E-03 0.  1.
    9900012    2    1    2    0    0 -0.10804161429E+02 -0.39737426849E+02 -0.18257072580E+02  0.46142315457E+02  0.99999789926E+01 0.  0.
        -12    1    1    2    0    0  0.10804161429E+02  0.39737426849E+02  0.18257072580E+02  0.45045684543E+02  0.00000000000E+00 0.  1.
         11    1    3    3    0    0 -0.25401751163E+01 -0.78349031159E+01 -0.18412985856E+00  0.82384525563E+01  0.51100000000E-03 0. -1.
        -11    1    3    3    0    0 -0.52835087086E+01 -0.11589298625E+02 -0.59149780335E+01  0.14043299908E+02  0.51100000000E-03 0.  1.
        -12    1    3    3    0    0 -0.29804776044E+01 -0.20313225107E+02 -0.12157964688E+02  0.23860562993E+02  0.00000000000E+00 0.  1.
</event>
<event>
 7    1  0.4102844E-008  0.4614232E+02  0.7816164E-02  0.1320468E+00
        -11   -1    0    0    0    0  0.00000000000E+00  0.00000000000E+00  0.45593999997E+02  0.45594000000E+02  0.51100000000E-03 0.  1.
         11   -1    0    0    0    0 -0.00000000000E+00 -0.00000000000E+00 -0.45593999997E+02  0.45594000000E+02  0.51100000000E-03 0. -1.
    9900012    2    1    2    0    0  0.19572480150E+02  0.15800142980E+02 -0.37368262829E+02  0.46142316919E+02  0.99999923196E+01 0.  0.
        -12    1    1    2    0    0 -0.19572480150E+02 -0.15800142980E+02  0.37368262829E+02  0.45045683081E+02  0.00000000000E+00 0.  1.
         11    1    3    3    0    0  0.60289694594E+01  0.53236063527E+01 -0.78462215094E+01  0.11236211531E+02  0.51100000000E-03 0. -1.
        -11    1    3    3    0    0  0.12842574545E+02  0.79336229035E+01 -0.28127863386E+02  0.31922574963E+02  0.51100000000E-03 0.  1.
        -12    1    3    3    0    0  0.70093614577E+00  0.25429137238E+01 -0.13941779333E+01  0.29835304250E+01  0.00000000000E+00 0.  1.
</event>
<event>
 7    1  0.4102844E-008  0.4614233E+02  0.7816164E-02  0.1320468E+00
        -11   -1    0    0    0    0  0.00000000000E+00  0.00000000000E+00  0.45593999997E+02  0.45594000000E+02  0.51100000000E-03 0.  1.
         11   -1    0    0    0    0 -0.00000000000E+00 -0.00000000000E+00 -0.45593999997E+02  0.45594000000E+02  0.51100000000E-03 0. -1.
    9900012    2    1    2    0    0 -0.20555185920E+02 -0.40054235105E+02  0.15018035922E+01  0.46142325046E+02  0.10000066429E+02 0.  0.
        -12    1    1    2    0    0  0.20555185920E+02  0.40054235105E+02 -0.15018035922E+01  0.45045674954E+02  0.00000000000E+00 0.  1.
         11    1    3    3    0    0 -0.15824104016E+02 -0.28848883978E+02 -0.55291265647E+00  0.32908450091E+02  0.51100000000E-03 0. -1.
        -11    1    3    3    0    0  0.22613329998E-01 -0.36137961443E+01 -0.10345273309E+01  0.37590266020E+01  0.51100000000E-03 0.  1.
         12    1    3    3    0    0 -0.47536952334E+01 -0.75915549824E+01  0.30892435796E+01  0.94748483533E+01  0.00000000000E+00 0. -1.
</event>
<event>
 7    1  0.4102844E-008  0.4614232E+02  0.7816164E-02  0.1320468E+00
        -11   -1    0    0    0    0  0.00000000000E+00  0.00000000000E+00  0.45593999997E+02  0.45594000000E+02  0.51100000000E-03 0.  1.
         11   -1    0    0    0    0 -0.00000000000E+00 -0.00000000000E+00 -0.45593999997E+02  0.45594000000E+02  0.51100000000E-03 0. -1.
    9900012    2    1    2    0    0 -0.41660479714E+02  0.29886646432E+01 -0.16869671109E+02  0.46142317747E+02  0.99999998677E+01 0.  0.
        -12    1    1    2    0    0  0.41660479714E+02 -0.29886646432E+01  0.16869671109E+02  0.45045682253E+02  0.00000000000E+00 0.  1.
         11    1    3    3    0    0 -0.48013250284E+01  0.11850552608E+01 -0.25752962410E+01  0.55757716049E+01  0.51100000000E-03 0.  1.
        -11    1    3    3    0    0 -0.18988782953E+02  0.10265477259E+00 -0.12015728308E+02  0.22471362733E+02  0.51100000000E-03 0. -1.
        -12    1    3    3    0    0 -0.17870371733E+02  0.17009546098E+01 -0.22786465593E+01  0.18095183409E+02  0.00000000000E+00 0.  1.
</event>
<event>
 7    1  0.4102844E-008  0.4614232E+02  0.7816164E-02  0.1320468E+00
        -11   -1    0    0    0    0  0.00000000000E+00  0.00000000000E+00  0.45593999997E+02  0.45594000000E+02  0.51100000000E-03 0.  1.
         11   -1    0    0    0    0 -0.00000000000E+00 -0.00000000000E+00 -0.45593999997E+02  0.45594000000E+02  0.51100000000E-03 0. -1.
    9900012    2    1    2    0    0 -0.40212026512E+02  0.12971303396E+02 -0.15615758570E+02  0.46142315370E+02  0.99999781982E+01 0.  0.
        -12    1    1    2    0    0  0.40212026512E+02 -0.12971303396E+02  0.15615758570E+02  0.45045684630E+02  0.00000000000E+00 0.  1.
         11    1    3    3    0    0 -0.11281971279E+02  0.36409662800E+01 -0.65936823708E+01  0.13565255577E+02  0.51100000000E-03 0. -1.
        -11    1    3    3    0    0 -0.26112316524E+02  0.62645707278E+01 -0.62385670112E+01  0.27568417424E+02  0.51100000000E-03 0.  1.
         12    1    3    3    0    0 -0.28177387095E+01  0.30657663887E+01 -0.27835091885E+01  0.50086423696E+01  0.00000000000E+00 0. -1.
</event>
<event>
 7    1  0.4102844E-008  0.4614232E+02  0.7816164E-02  0.1320468E+00
        -11   -1    0    0    0    0  0.00000000000E+00  0.00000000000E+00  0.45593999997E+02  0.45594000000E+02  0.51100000000E-03 0.  1.
         11   -1    0    0    0    0 -0.00000000000E+00 -0.00000000000E+00 -0.45593999997E+02  0.45594000000E+02  0.51100000000E-03 0. -1.
    9900012    2    1    2    0    0 -0.34655661483E+02  0.12819241535E+02 -0.25763650010E+02  0.46142317763E+02  0.10000000017E+02 0.  0.
        -12    1    1    2    0    0  0.34655661483E+02 -0.12819241535E+02  0.25763650010E+02  0.45045682237E+02  0.00000000000E+00 0.  1.
         11    1    3    3    0    0 -0.12159769245E+02  0.37119632248E+01 -0.49431211893E+01  0.13640861645E+02  0.51100000000E-03 0. -1.
        -11    1    3    3    0    0 -0.80652940341E+01  0.62808853703E+01 -0.77626529550E+01  0.12835780851E+02  0.51100000000E-03 0.  1.
        -12    1    3    3    0    0 -0.14430598203E+02  0.28263929404E+01 -0.13057875866E+02  0.19665675267E+02  0.00000000000E+00 0.  1.
</event>
<event>
 7    1  0.4102844E-008  0.4614232E+02  0.7816164E-02  0.1320468E+00
        -11   -1    0    0    0    0  0.00000000000E+00  0.00000000000E+00  0.45593999997E+02  0.45594000000E+02  0.51100000000E-03 0.  1.
         11   -1    0    0    0    0 -0.00000000000E+00 -0.00000000000E+00 -0.45593999997E+02  0.45594000000E+02  0.51100000000E-03 0. -1.
    9900012    2    1    2    0    0 -0.12336920163E+02  0.27799216182E+02 -0.33228265086E+02  0.46142316299E+02  0.99999866704E+01 0.  0.
        -12    1    1    2    0    0  0.12336920163E+02 -0.27799216182E+02  0.33228265086E+02  0.45045683701E+02  0.00000000000E+00 0.  1.
         11    1    3    3    0    0 -0.37069370267E+01  0.98980454860E+01 -0.16046772531E+02  0.19214879533E+02  0.51100000000E-03 0. -1.
        -11    1    3    3    0    0 -0.38978951777E+01  0.29814215916E+01 -0.56648904241E+01  0.74948946158E+01  0.51100000000E-03 0.  1.
        -12    1    3    3    0    0 -0.47320879583E+01  0.14919749104E+02 -0.11516602132E+02  0.19432542151E+02  0.00000000000E+00 0.  1.
</event>
<event>
 7    1  0.4102844E-008  0.4614232E+02  0.7816164E-02  0.1320468E+00
        -11   -1    0    0    0    0  0.00000000000E+00  0.00000000000E+00  0.45593999997E+02  0.45594000000E+02  0.51100000000E-03 0.  1.
         11   -1    0    0    0    0 -0.00000000000E+00 -0.00000000000E+00 -0.45593999997E+02  0.45594000000E+02  0.51100000000E-03 0. -1.
    9900012    2    1    2    0    0 -0.36401182785E+02 -0.16926424980E+02 -0.20434370571E+02  0.46142317950E+02  0.10000001720E+02 0.  0.
        -12    1    1    2    0    0  0.36401182785E+02  0.16926424980E+02  0.20434370571E+02  0.45045682050E+02  0.00000000000E+00 0.  1.
         11    1    3    3    0    0 -0.12822878801E+02 -0.89968213486E+01 -0.90023425533E+01  0.18066853263E+02  0.51100000000E-03 0. -1.
        -11    1    3    3    0    0 -0.71252430786E+01 -0.52100063545E+01 -0.25842663490E+01  0.91973739712E+01  0.51100000000E-03 0.  1.
         12    1    3    3    0    0 -0.16453060906E+02 -0.27195972765E+01 -0.88477616690E+01  0.18878090716E+02  0.00000000000E+00 0. -1.
</event>
<event>
 7    1  0.4102844E-008  0.4614232E+02  0.7816164E-02  0.1320468E+00
        -11   -1    0    0    0    0  0.00000000000E+00  0.00000000000E+00  0.45593999997E+02  0.45594000000E+02  0.51100000000E-03 0. -1.
         11   -1    0    0    0    0 -0.00000000000E+00 -0.00000000000E+00 -0.45593999997E+02  0.45594000000E+02  0.51100000000E-03 0.  1.
    9900012    2    1    2    0    0  0.15783940901E+01 -0.28881679840E+02  0.34532168717E+02  0.46142318358E+02  0.10000005443E+02 0.  0.
        -12    1    1    2    0    0 -0.15783940901E+01  0.28881679840E+02 -0.34532168717E+02  0.45045681642E+02  0.00000000000E+00 0.  1.
         11    1    3    3    0    0  0.16083240354E+01 -0.12054702316E+02  0.12920790754E+02  0.17743995833E+02  0.51100000000E-03 0. -1.
        -11    1    3    3    0    0 -0.26554781418E+01 -0.13341651283E+02  0.18807676958E+02  0.23211633634E+02  0.51100000000E-03 0.  1.
        -12    1    3    3    0    0  0.26255481965E+01 -0.34853262401E+01  0.28037010051E+01  0.51866888916E+01  0.00000000000E+00 0.  1.
</event>
<event>
 7    1  0.4102844E-008  0.4614232E+02  0.7816164E-02  0.1320468E+00
        -11   -1    0    0    0    0  0.00000000000E+00  0.00000000000E+00  0.45593999997E+02  0.45594000000E+02  0.51100000000E-03 0.  1.
         11   -1    0    0    0    0 -0.00000000000E+00 -0.00000000000E+00 -0.45593999997E+02  0.45594000000E+02  0.51100000000E-03 0. -1.
    9900012    2    1    2    0    0  0.13427458564E+02  0.23051186625E+02 -0.36296828013E+02  0.46142316831E+02  0.99999915212E+01 0.  0.
        -12    1    1    2    0    0 -0.13427458564E+02 -0.23051186625E+02  0.36296828013E+02  0.45045683169E+02  0.00000000000E+00 0.  1.
         11    1    3    3    0    0  0.11913863205E+02  0.21551908447E+02 -0.28656303140E+02  0.37783708184E+02  0.51100000000E-03 0. -1.
        -11    1    3    3    0    0 -0.30009340503E-01  0.29786577921E+00  0.14392028311E+00  0.33217147974E+00  0.51100000000E-03 0.  1.
        -12    1    3    3    0    0  0.15436046995E+01  0.12014123985E+01 -0.77844451561E+01  0.80264371678E+01  0.00000000000E+00 0.  1.
</event>
<event>
 7    1  0.4102844E-008  0.4614232E+02  0.7816164E-02  0.1320468E+00
        -11   -1    0    0    0    0  0.00000000000E+00  0.00000000000E+00  0.45593999997E+02  0.45594000000E+02  0.51100000000E-03 0. -1.
         11   -1    0    0    0    0 -0.00000000000E+00 -0.00000000000E+00 -0.45593999997E+02  0.45594000000E+02  0.51100000000E-03 0.  1.
    9900012    2    1    2    0    0  0.31570258587E+02 -0.31516664616E+02  0.62555763193E+01  0.46142316402E+02  0.99999876074E+01 0.  0.
        -12    1    1    2    0    0 -0.31570258587E+02  0.31516664616E+02 -0.62555763193E+01  0.45045683598E+02  0.00000000000E+00 0.  1.
         11    1    3    3    0    0  0.14432312612E+02 -0.18049384527E+02 -0.84377714601E-02  0.23109997849E+02  0.51100000000E-03 0. -1.
        -11    1    3    3    0    0  0.12560928355E+00 -0.40143069270E+00 -0.38958525444E+00  0.57332471144E+00  0.51100000000E-03 0.  1.
        -12    1    3    3    0    0  0.17012336691E+02 -0.13065849396E+02  0.66535993452E+01  0.22458993841E+02  0.00000000000E+00 0.  1.
</event>
<event>
 7    1  0.4102844E-008  0.4614232E+02  0.7816164E-02  0.1320468E+00
        -11   -1    0    0    0    0  0.00000000000E+00  0.00000000000E+00  0.45593999997E+02  0.45594000000E+02  0.51100000000E-03 0. -1.
         11   -1    0    0    0    0 -0.00000000000E+00 -0.00000000000E+00 -0.45593999997E+02  0.45594000000E+02  0.51100000000E-03 0.  1.
    9900012    2    1    2    0    0  0.33389399657E+02  0.23188866706E+01  0.30147708062E+02  0.46142317119E+02  0.99999941440E+01 0.  0.
        -12    1    1    2    0    0 -0.33389399657E+02 -0.23188866706E+01 -0.30147708062E+02  0.45045682881E+02  0.00000000000E+00 0.  1.
         11    1    3    3    0    0  0.19680161183E+02  0.31760453430E+01  0.14232495132E+02  0.24494079411E+02  0.51100000000E-03 0. -1.
        -11    1    3    3    0    0  0.25480066350E+01  0.13475237977E+01  0.13961236341E+01  0.32027050536E+01  0.51100000000E-03 0.  1.
        -12    1    3    3    0    0  0.11161231839E+02 -0.22046824700E+01  0.14519089295E+02  0.18445532655E+02  0.00000000000E+00 0.  1.
</event>
<event>
 7    1  0.4102844E-008  0.4614232E+02  0.7816164E-02  0.1320468E+00
        -11   -1    0    0    0    0  0.00000000000E+00  0.00000000000E+00  0.45593999997E+02  0.45594000000E+02  0.51100000000E-03 0.  1.
         11   -1    0    0    0    0 -0.00000000000E+00 -0.00000000000E+00 -0.45593999997E+02  0.45594000000E+02  0.51100000000E-03 0. -1.
    9900012    2    1    2    0    0  0.39388869448E+02 -0.21775250489E+02 -0.18625049894E+01  0.46142317686E+02  0.99999993187E+01 0.  0.
        -12    1    1    2    0    0 -0.39388869448E+02  0.21775250489E+02  0.18625049894E+01  0.45045682314E+02  0.00000000000E+00 0.  1.
         11    1    3    3    0    0  0.33807169245E+00 -0.13436735268E+01 -0.53997579629E+00  0.14870524999E+01  0.51100000000E-03 0. -1.
        -11    1    3    3    0    0  0.84013326863E+01 -0.63947107616E+01 -0.27627408004E+01  0.10913636132E+02  0.51100000000E-03 0.  1.
         12    1    3    3    0    0  0.30649465070E+02 -0.14036866200E+02  0.14402116073E+01  0.33741629055E+02  0.00000000000E+00 0. -1.
</event>
<event>
 7    1  0.4102844E-008  0.4614232E+02  0.7816164E-02  0.1320468E+00
        -11   -1    0    0    0    0  0.00000000000E+00  0.00000000000E+00  0.45593999997E+02  0.45594000000E+02  0.51100000000E-03 0. -1.
         11   -1    0    0    0    0 -0.00000000000E+00 -0.00000000000E+00 -0.45593999997E+02  0.45594000000E+02  0.51100000000E-03 0.  1.
    9900012    2    1    2    0    0  0.10198919784E+02  0.35425439382E+02  0.25886943040E+02  0.46142317187E+02  0.99999947616E+01 0.  0.
        -12    1    1    2    0    0 -0.10198919784E+02 -0.35425439382E+02 -0.25886943040E+02  0.45045682813E+02  0.00000000000E+00 0.  1.
         11    1    3    3    0    0  0.43974599491E+01  0.19885613555E+02  0.14041776812E+02  0.24737558019E+02  0.51100000000E-03 0. -1.
        -11    1    3    3    0    0 -0.82691368933E+00  0.66489795382E+01  0.37856856573E+01  0.76957216234E+01  0.51100000000E-03 0.  1.
        -12    1    3    3    0    0  0.66283735246E+01  0.88908462891E+01  0.80594805702E+01  0.13709037544E+02  0.00000000000E+00 0.  1.
</event>
<event>
 7    1  0.4102844E-008  0.4614232E+02  0.7816164E-02  0.1320468E+00
        -11   -1    0    0    0    0  0.00000000000E+00  0.00000000000E+00  0.45593999997E+02  0.45594000000E+02  0.51100000000E-03 0.  1.
         11   -1    0    0    0    0 -0.00000000000E+00 -0.00000000000E+00 -0.45593999997E+02  0.45594000000E+02  0.51100000000E-03 0. -1.
    9900012    2    1    2    0    0  0.83532598698E+01 -0.27534773701E+01 -0.44178669563E+02  0.46142318382E+02  0.10000005661E+02 0.  0.
        -12    1    1    2    0    0 -0.83532598698E+01  0.27534773701E+01  0.44178669563E+02  0.45045681618E+02  0.00000000000E+00 0.  1.
         11    1    3    3    0    0  0.12015182111E+01 -0.20814179837E+01 -0.26778094863E+01  0.35981399000E+01  0.51100000000E-03 0. -1.
        -11    1    3    3    0    0  0.32668696279E+01  0.15405709568E+01 -0.84119448273E+01  0.91545951345E+01  0.51100000000E-03 0.  1.
         12    1    3    3    0    0  0.38848720308E+01 -0.22126303432E+01 -0.33088915249E+02  0.33389583347E+02  0.00000000000E+00 0. -1.
</event>
<event>
 7    1  0.4102844E-008  0.4614232E+02  0.7816164E-02  0.1320468E+00
        -11   -1    0    0    0    0  0.00000000000E+00  0.00000000000E+00  0.45593999997E+02  0.45594000000E+02  0.51100000000E-03 0. -1.
         11   -1    0    0    0    0 -0.00000000000E+00 -0.00000000000E+00 -0.45593999997E+02  0.45594000000E+02  0.51100000000E-03 0.  1.
    9900012    2    1    2    0    0 -0.18656306228E+02 -0.21024152765E+02  0.35200010542E+02  0.46142317591E+02  0.99999984461E+01 0.  0.
        -12    1    1    2    0    0  0.18656306228E+02  0.21024152765E+02 -0.35200010542E+02  0.45045682409E+02  0.00000000000E+00 0.  1.
         11    1    3    3    0    0 -0.13124298027E+02 -0.17219935882E+02  0.23653522730E+02  0.32066532838E+02  0.51100000000E-03 0. -1.
        -11    1    3    3    0    0 -0.21428249671E+01 -0.27912772361E+01  0.23739979781E+01  0.42448550163E+01  0.51100000000E-03 0.  1.
         12    1    3    3    0    0 -0.33891832345E+01 -0.10129396473E+01  0.91724898341E+01  0.98309297364E+01  0.00000000000E+00 0. -1.
</event>
<event>
 7    1  0.4102844E-008  0.4614232E+02  0.7816164E-02  0.1320468E+00
        -11   -1    0    0    0    0  0.00000000000E+00  0.00000000000E+00  0.45593999997E+02  0.45594000000E+02  0.51100000000E-03 0.  1.
         11   -1    0    0    0    0 -0.00000000000E+00 -0.00000000000E+00 -0.45593999997E+02  0.45594000000E+02  0.51100000000E-03 0. -1.
    9900012    2    1    2    0    0  0.13589095719E+02  0.30495255825E+01 -0.42838656604E+02  0.46142316207E+02  0.99999858285E+01 0.  0.
        -12    1    1    2    0    0 -0.13589095719E+02 -0.30495255825E+01  0.42838656604E+02  0.45045683793E+02  0.00000000000E+00 0.  1.
         11    1    3    3    0    0  0.10301503323E+02  0.10773687650E+01 -0.29246112210E+02  0.31026066039E+02  0.51100000000E-03 0. -1.
        -11    1    3    3    0    0  0.23913085653E+01 -0.11595646501E+01 -0.96125206690E+01  0.99731389595E+01  0.51100000000E-03 0.  1.
         12    1    3    3    0    0  0.89628383097E+00  0.31317214676E+01 -0.39800237250E+01  0.51431112090E+01  0.00000000000E+00 0. -1.
</event>
<event>
 7    1  0.4102844E-008  0.4614231E+02  0.7816164E-02  0.1320468E+00
        -11   -1    0    0    0    0  0.00000000000E+00  0.00000000000E+00  0.45593999997E+02  0.45594000000E+02  0.51100000000E-03 0. -1.
         11   -1    0    0    0    0 -0.00000000000E+00 -0.00000000000E+00 -0.45593999997E+02  0.45594000000E+02  0.51100000000E-03 0.  1.
    9900012    2    1    2    0    0  0.18208050864E+02 -0.40314264330E+02  0.85053366459E+01  0.46142314566E+02  0.99999708653E+01 0.  0.
        -12    1    1    2    0    0 -0.18208050864E+02  0.40314264330E+02 -0.85053366459E+01  0.45045685434E+02  0.00000000000E+00 0.  1.
         11    1    3    3    0    0  0.41374452009E+01 -0.74670164015E+01  0.34772090888E+01  0.92176878901E+01  0.51100000000E-03 0. -1.
        -11    1    3    3    0    0  0.74977512084E+01 -0.93179779928E+01 -0.10807014161E+00  0.11960462636E+02  0.51100000000E-03 0.  1.
        -12    1    3    3    0    0  0.65728544542E+01 -0.23529269936E+02  0.51361976987E+01  0.24964164040E+02  0.00000000000E+00 0.  1.
</event>
<event>
 7    1  0.4102844E-008  0.4614233E+02  0.7816164E-02  0.1320468E+00
        -11   -1    0    0    0    0  0.00000000000E+00  0.00000000000E+00  0.45593999997E+02  0.45594000000E+02  0.51100000000E-03 0. -1.
         11   -1    0    0    0    0 -0.00000000000E+00 -0.00000000000E+00 -0.45593999997E+02  0.45594000000E+02  0.51100000000E-03 0.  1.
    9900012    2    1    2    0    0  0.25041658120E+02 -0.21396856059E+02  0.30727876517E+02  0.46142328889E+02  0.10000101473E+02 0.  0.
        -12    1    1    2    0    0 -0.25041658120E+02  0.21396856059E+02 -0.30727876517E+02  0.45045671111E+02  0.00000000000E+00 0.  1.
         11    1    3    3    0    0  0.87196895616E+01 -0.53574742705E+01  0.15323669694E+02  0.18426892570E+02  0.51100000000E-03 0. -1.
        -11    1    3    3    0    0  0.54210596789E+01 -0.71589635430E+01  0.59601340779E+01  0.10777840486E+02  0.51100000000E-03 0.  1.
        -12    1    3    3    0    0  0.10900908879E+02 -0.88804182458E+01  0.94440727442E+01  0.16937595833E+02  0.00000000000E+00 0.  1.
</event>
<event>
 7    1  0.4102844E-008  0.4614232E+02  0.7816164E-02  0.1320468E+00
        -11   -1    0    0    0    0  0.00000000000E+00  0.00000000000E+00  0.45593999997E+02  0.45594000000E+02  0.51100000000E-03 0.  1.
         11   -1    0    0    0    0 -0.00000000000E+00 -0.00000000000E+00 -0.45593999997E+02  0.45594000000E+02  0.51100000000E-03 0. -1.
    9900012    2    1    2    0    0  0.27428192338E+02 -0.27601394455E+02 -0.22692968885E+02  0.46142317103E+02  0.99999940028E+01 0.  0.
        -12    1    1    2    0    0 -0.27428192338E+02  0.27601394455E+02  0.22692968885E+02  0.45045682897E+02  0.00000000000E+00 0.  1.
         11    1    3    3    0    0  0.90734028358E+01 -0.14463198416E+02 -0.98719282046E+01  0.19722213724E+02  0.51100000000E-03 0. -1.
        -11    1    3    3    0    0  0.37555077229E+00 -0.18076660098E+01 -0.11369540071E+01  0.21682618525E+01  0.51100000000E-03 0.  1.
         12    1    3    3    0    0  0.17979238730E+02 -0.11330530029E+02 -0.11684086673E+02  0.24251841527E+02  0.00000000000E+00 0. -1.
</event>
<event>
 7    1  0.4102844E-008  0.4614232E+02  0.7816164E-02  0.1320468E+00
        -11   -1    0    0    0    0  0.00000000000E+00  0.00000000000E+00  0.45593999997E+02  0.45594000000E+02  0.51100000000E-03 0.  1.
         11   -1    0    0    0    0 -0.00000000000E+00 -0.00000000000E+00 -0.45593999997E+02  0.45594000000E+02  0.51100000000E-03 0. -1.
    9900012    2    1    2    0    0 -0.94697890851E+01 -0.32757755897E+02 -0.29434097452E+02  0.46142316860E+02  0.99999917842E+01 0.  0.
        -12    1    1    2    0    0  0.94697890851E+01  0.32757755897E+02  0.29434097452E+02  0.45045683140E+02  0.00000000000E+00 0.  1.
         11    1    3    3    0    0  0.17967188614E+00 -0.99325513968E+01 -0.12922779456E+02  0.16299880011E+02  0.51100000000E-03 0.  1.
        -11    1    3    3    0    0 -0.37501277720E+01 -0.10020749839E+02 -0.81643867242E+01  0.13458681083E+02  0.51100000000E-03 0. -1.
        -12    1    3    3    0    0 -0.58993331992E+01 -0.12804454662E+02 -0.83469312718E+01  0.16383755767E+02  0.00000000000E+00 0.  1.
</event>
<event>
 7    1  0.4102844E-008  0.4614232E+02  0.7816164E-02  0.1320468E+00
        -11   -1    0    0    0    0  0.00000000000E+00  0.00000000000E+00  0.45593999997E+02  0.45594000000E+02  0.51100000000E-03 0.  1.
         11   -1    0    0    0    0 -0.00000000000E+00 -0.00000000000E+00 -0.45593999997E+02  0.45594000000E+02  0.51100000000E-03 0. -1.
    9900012    2    1    2    0    0 -0.41533450490E+02 -0.10037154380E+02 -0.14259780630E+02  0.46142319616E+02  0.10000016913E+02 0.  0.
        -12    1    1    2    0    0  0.41533450490E+02  0.10037154380E+02  0.14259780630E+02  0.45045680384E+02  0.00000000000E+00 0.  1.
         11    1    3    3    0    0 -0.26476951067E+02 -0.69024246878E+01 -0.83235339984E+01  0.28599888511E+02  0.51100000000E-03 0. -1.
        -11    1    3    3    0    0 -0.11114288608E+02 -0.47759169843E+01 -0.53683264823E+01  0.13234641052E+02  0.51100000000E-03 0.  1.
        -12    1    3    3    0    0 -0.39422108158E+01  0.16411872922E+01 -0.56792014926E+00  0.43077900530E+01  0.00000000000E+00 0.  1.
</event>
<event>
 7    1  0.4102844E-008  0.4614232E+02  0.7816164E-02  0.1320468E+00
        -11   -1    0    0    0    0  0.00000000000E+00  0.00000000000E+00  0.45593999997E+02  0.45594000000E+02  0.51100000000E-03 0.  1.
         11   -1    0    0    0    0 -0.00000000000E+00 -0.00000000000E+00 -0.45593999997E+02  0.45594000000E+02  0.51100000000E-03 0. -1.
    9900012    2    1    2    0    0  0.35014713679E+02  0.51749460749E+01 -0.27862219877E+02  0.46142317217E+02  0.99999950385E+01 0.  0.
        -12    1    1    2    0    0 -0.35014713679E+02 -0.51749460749E+01  0.27862219877E+02  0.45045682783E+02  0.00000000000E+00 0.  1.
         11    1    3    3    0    0  0.24433204500E+02  0.18631830335E+01 -0.22359332219E+02  0.33172167109E+02  0.51100000000E-03 0. -1.
        -11    1    3    3    0    0  0.12037270914E+01 -0.85945528538E+00 -0.60993164192E+00  0.15998872357E+01  0.51100000000E-03 0.  1.
         12    1    3    3    0    0  0.93777820877E+01  0.41712183268E+01 -0.48929560165E+01  0.11370262873E+02  0.00000000000E+00 0. -1.
</event>
<event>
 7    1  0.4102844E-008  0.4614232E+02  0.7816164E-02  0.1320468E+00
        -11   -1    0    0    0    0  0.00000000000E+00  0.00000000000E+00  0.45593999997E+02  0.45594000000E+02  0.51100000000E-03 0.  1.
         11   -1    0    0    0    0 -0.00000000000E+00 -0.00000000000E+00 -0.45593999997E+02  0.45594000000E+02  0.51100000000E-03 0. -1.
    9900012    2    1    2    0    0  0.30827263069E+02 -0.34416397318E+01 -0.32664177642E+02  0.46142317261E+02  0.99999954429E+01 0.  0.
        -12    1    1    2    0    0 -0.30827263069E+02  0.34416397318E+01  0.32664177642E+02  0.45045682739E+02  0.00000000000E+00 0.  1.
         11    1    3    3    0    0  0.11162975537E+02 -0.16295642229E+01 -0.16426377406E+02  0.19927201944E+02  0.51100000000E-03 0. -1.
        -11    1    3    3    0    0  0.94543658880E+01  0.20308471132E+01 -0.74720514397E+01  0.12220512564E+02  0.51100000000E-03 0.  1.
         12    1    3    3    0    0  0.10209921645E+02 -0.38429226221E+01 -0.87657487962E+01  0.13994602754E+02  0.00000000000E+00 0. -1.
</event>
<event>
 7    1  0.4102844E-008  0.4614232E+02  0.7816164E-02  0.1320468E+00
        -11   -1    0    0    0    0  0.00000000000E+00  0.00000000000E+00  0.45593999997E+02  0.45594000000E+02  0.51100000000E-03 0.  1.
         11   -1    0    0    0    0 -0.00000000000E+00 -0.00000000000E+00 -0.45593999997E+02  0.45594000000E+02  0.51100000000E-03 0. -1.
    9900012    2    1    2    0    0  0.11798354609E+02  0.14188992464E+02 -0.41092394294E+02  0.46142317106E+02  0.99999940238E+01 0.  0.
        -12    1    1    2    0    0 -0.11798354609E+02 -0.14188992464E+02  0.41092394294E+02  0.45045682894E+02  0.00000000000E+00 0.  1.
         11    1    3    3    0    0  0.65865233164E+00  0.18989607480E+01 -0.12418961839E+02  0.12580559934E+02  0.51100000000E-03 0. -1.
        -11    1    3    3    0    0  0.45738112679E+00  0.61226658070E+00 -0.51712539297E+01  0.52274214798E+01  0.51100000000E-03 0.  1.
        -12    1    3    3    0    0  0.10682321151E+02  0.11677765135E+02 -0.23502178525E+02  0.28334335692E+02  0.00000000000E+00 0.  1.
</event>
<event>
 7    1  0.4102844E-008  0.4614232E+02  0.7816164E-02  0.1320468E+00
        -11   -1    0    0    0    0  0.00000000000E+00  0.00000000000E+00  0.45593999997E+02  0.45594000000E+02  0.51100000000E-03 0.  1.
         11   -1    0    0    0    0 -0.00000000000E+00 -0.00000000000E+00 -0.45593999997E+02  0.45594000000E+02  0.51100000000E-03 0. -1.
    9900012    2    1    2    0    0  0.32164399870E+02 -0.31250984454E+02 -0.42356676353E+01  0.46142317314E+02  0.99999959258E+01 0.  0.
        -12    1    1    2    0    0 -0.32164399870E+02  0.31250984454E+02  0.42356676353E+01  0.45045682686E+02  0.00000000000E+00 0.  1.
         11    1    3    3    0    0  0.20615264777E+01 -0.40939781153E+01  0.92484285304E+00  0.46760969612E+01  0.51100000000E-03 0. -1.
        -11    1    3    3    0    0  0.17551027914E+02 -0.11239463087E+02 -0.18067259514E+01  0.20919569074E+02  0.51100000000E-03 0.  1.
        -12    1    3    3    0    0  0.12551845478E+02 -0.15917543251E+02 -0.33537845369E+01  0.20546651279E+02  0.00000000000E+00 0.  1.
</event>
<event>
 7    1  0.4102844E-008  0.4614232E+02  0.7816164E-02  0.1320468E+00
        -11   -1    0    0    0    0  0.00000000000E+00  0.00000000000E+00  0.45593999997E+02  0.45594000000E+02  0.51100000000E-03 0. -1.
         11   -1    0    0    0    0 -0.00000000000E+00 -0.00000000000E+00 -0.45593999997E+02  0.45594000000E+02  0.51100000000E-03 0.  1.
    9900012    2    1    2    0    0  0.13907190740E+02 -0.28557373298E+02  0.31940255703E+02  0.46142318095E+02  0.10000003042E+02 0.  0.
        -12    1    1    2    0    0 -0.13907190740E+02  0.28557373298E+02 -0.31940255703E+02  0.45045681905E+02  0.00000000000E+00 0.  1.
         11    1    3    3    0    0  0.95475777582E+01 -0.23023459641E+02  0.26614629208E+02  0.36463329840E+02  0.51100000000E-03 0. -1.
        -11    1    3    3    0    0  0.37296850383E+01 -0.37097118190E+01  0.56524885814E+01  0.77216021452E+01  0.51100000000E-03 0.  1.
        -12    1    3    3    0    0  0.62992794399E+00 -0.18242018374E+01 -0.32686208625E+00  0.19573861095E+01  0.00000000000E+00 0.  1.
</event>
<event>
 7    1  0.4102844E-008  0.4614232E+02  0.7816164E-02  0.1320468E+00
        -11   -1    0    0    0    0  0.00000000000E+00  0.00000000000E+00  0.45593999997E+02  0.45594000000E+02  0.51100000000E-03 0.  1.
         11   -1    0    0    0    0 -0.00000000000E+00 -0.00000000000E+00 -0.45593999997E+02  0.45594000000E+02  0.51100000000E-03 0. -1.
    9900012    2    1    2    0    0 -0.11957227309E+02 -0.37173352711E+02 -0.22456180584E+02  0.46142317819E+02  0.10000000530E+02 0.  0.
        -12    1    1    2    0    0  0.11957227309E+02  0.37173352711E+02  0.22456180584E+02  0.45045682181E+02  0.00000000000E+00 0.  1.
         11    1    3    3    0    0 -0.70533435454E+01 -0.21047505594E+02 -0.12653093413E+02  0.25550888831E+02  0.51100000000E-03 0. -1.
        -11    1    3    3    0    0 -0.42731658787E+00  0.44932874782E+00  0.28015667153E+00  0.68042913783E+00  0.51100000000E-03 0.  1.
        -12    1    3    3    0    0 -0.44765671760E+01 -0.16575175865E+02 -0.10083243842E+02  0.19910999850E+02  0.00000000000E+00 0.  1.
</event>
<event>
 7    1  0.4102844E-008  0.4614232E+02  0.7816164E-02  0.1320468E+00
        -11   -1    0    0    0    0  0.00000000000E+00  0.00000000000E+00  0.45593999997E+02  0.45594000000E+02  0.51100000000E-03 0. -1.
         11   -1    0    0    0    0 -0.00000000000E+00 -0.00000000000E+00 -0.45593999997E+02  0.45594000000E+02  0.51100000000E-03 0.  1.
    9900012    2    1    2    0    0 -0.75157275758E+00  0.36507392273E+02  0.26377242159E+02  0.46142318119E+02  0.10000003266E+02 0.  0.
        -12    1    1    2    0    0  0.75157275758E+00 -0.36507392273E+02 -0.26377242159E+02  0.45045681881E+02  0.00000000000E+00 0.  1.
         11    1    3    3    0    0 -0.30600076575E+01  0.75397956931E+01  0.35052607167E+01  0.88599672071E+01  0.51100000000E-03 0. -1.
        -11    1    3    3    0    0  0.20537854391E+01  0.87469424065E+01  0.92793836520E+01  0.12916423550E+02  0.51100000000E-03 0.  1.
        -12    1    3    3    0    0  0.25464946084E+00  0.20220654173E+02  0.13592597791E+02  0.24365927363E+02  0.00000000000E+00 0.  1.
</event>
<event>
 7    1  0.4102844E-008  0.4614232E+02  0.7816164E-02  0.1320468E+00
        -11   -1    0    0    0    0  0.00000000000E+00  0.00000000000E+00  0.45593999997E+02  0.45594000000E+02  0.51100000000E-03 0.  1.
         11   -1    0    0    0    0 -0.00000000000E+00 -0.00000000000E+00 -0.45593999997E+02  0.45594000000E+02  0.51100000000E-03 0. -1.
    9900012    2    1    2    0    0 -0.31165713467E+02 -0.24556298419E+02 -0.21326045985E+02  0.46142315132E+02  0.99999760234E+01 0.  0.
        -12    1    1    2    0    0  0.31165713467E+02  0.24556298419E+02  0.21326045985E+02  0.45045684868E+02  0.00000000000E+00 0.  1.
         11    1    3    3    0    0 -0.13638278987E+02 -0.95977648678E+01 -0.14153950877E+02  0.21873592980E+02  0.51100000000E-03 0. -1.
        -11    1    3    3    0    0 -0.24050155774E+01 -0.28974096546E+01 -0.45716637841E+00  0.37931627955E+01  0.51100000000E-03 0.  1.
         12    1    3    3    0    0 -0.15122418903E+02 -0.12061123896E+02 -0.67149287293E+01  0.20475559356E+02  0.00000000000E+00 0. -1.
</event>
<event>
 7    1  0.4102844E-008  0.4614232E+02  0.7816164E-02  0.1320468E+00
        -11   -1    0    0    0    0  0.00000000000E+00  0.00000000000E+00  0.45593999997E+02  0.45594000000E+02  0.51100000000E-03 0.  1.
         11   -1    0    0    0    0 -0.00000000000E+00 -0.00000000000E+00 -0.45593999997E+02  0.45594000000E+02  0.51100000000E-03 0. -1.
    9900012    2    1    2    0    0 -0.36462792656E+02  0.20650832906E+02 -0.16526384556E+02  0.46142317249E+02  0.99999953339E+01 0.  0.
        -12    1    1    2    0    0  0.36462792656E+02 -0.20650832906E+02  0.16526384556E+02  0.45045682751E+02  0.00000000000E+00 0.  1.
         11    1    3    3    0    0 -0.77667481279E+01  0.61816094158E+01 -0.32998994261E+01  0.10460593097E+02  0.51100000000E-03 0. -1.
        -11    1    3    3    0    0 -0.10905083691E+02  0.98729095656E+01 -0.68978260371E+01  0.16247313559E+02  0.51100000000E-03 0.  1.
         12    1    3    3    0    0 -0.17790960837E+02  0.45963139248E+01 -0.63286590931E+01  0.19434410594E+02  0.00000000000E+00 0. -1.
</event>
<event>
 7    1  0.4102844E-008  0.4614232E+02  0.7816164E-02  0.1320468E+00
        -11   -1    0    0    0    0  0.00000000000E+00  0.00000000000E+00  0.45593999997E+02  0.45594000000E+02  0.51100000000E-03 0.  1.
         11   -1    0    0    0    0 -0.00000000000E+00 -0.00000000000E+00 -0.45593999997E+02  0.45594000000E+02  0.51100000000E-03 0. -1.
    9900012    2    1    2    0    0  0.11401654152E+02  0.17047584132E+02 -0.40106055059E+02  0.46142317693E+02  0.99999993788E+01 0.  0.
        -12    1    1    2    0    0 -0.11401654152E+02 -0.17047584132E+02  0.40106055059E+02  0.45045682307E+02  0.00000000000E+00 0.  1.
         11    1    3    3    0    0 -0.83032491757E+00  0.64117646858E+00 -0.83800764909E-01  0.10524113083E+01  0.51100000000E-03 0. -1.
        -11    1    3    3    0    0  0.12541669460E+01  0.42831882334E+00 -0.18321948068E+01  0.22612673026E+01  0.51100000000E-03 0.  1.
         12    1    3    3    0    0  0.10977812123E+02  0.15978088840E+02 -0.38190059487E+02  0.42828639082E+02  0.00000000000E+00 0. -1.
</event>
<event>
 7    1  0.4102844E-008  0.4614232E+02  0.7816164E-02  0.1320468E+00
        -11   -1    0    0    0    0  0.00000000000E+00  0.00000000000E+00  0.45593999997E+02  0.45594000000E+02  0.51100000000E-03 0.  1.
         11   -1    0    0    0    0 -0.00000000000E+00 -0.00000000000E+00 -0.45593999997E+02  0.45594000000E+02  0.51100000000E-03 0. -1.
    9900012    2    1    2    0    0 -0.35778700963E+01  0.40362162227E+02 -0.19677604026E+02  0.46142318806E+02  0.10000009524E+02 0.  0.
        -12    1    1    2    0    0  0.35778700963E+01 -0.40362162227E+02  0.19677604026E+02  0.45045681194E+02  0.00000000000E+00 0.  1.
         11    1    3    3    0    0 -0.14692692386E+01  0.26246127513E+01 -0.38032738443E+00  0.30318300365E+01  0.51100000000E-03 0.  1.
        -11    1    3    3    0    0 -0.48370298792E+01  0.22501117671E+02 -0.12675197826E+02  0.26274660696E+02  0.51100000000E-03 0. -1.
        -12    1    3    3    0    0  0.27284290215E+01  0.15236431805E+02 -0.66220788147E+01  0.16835828073E+02  0.00000000000E+00 0.  1.
</event>
<event>
 7    1  0.4102844E-008  0.4614232E+02  0.7816164E-02  0.1320468E+00
        -11   -1    0    0    0    0  0.00000000000E+00  0.00000000000E+00  0.45593999997E+02  0.45594000000E+02  0.51100000000E-03 0.  1.
         11   -1    0    0    0    0 -0.00000000000E+00 -0.00000000000E+00 -0.45593999997E+02  0.45594000000E+02  0.51100000000E-03 0. -1.
    9900012    2    1    2    0    0 -0.81704092962E+01  0.37398274414E+02 -0.23742936680E+02  0.46142316973E+02  0.99999928095E+01 0.  0.
        -12    1    1    2    0    0  0.81704092962E+01 -0.37398274414E+02  0.23742936680E+02  0.45045683027E+02  0.00000000000E+00 0.  1.
         11    1    3    3    0    0 -0.44983599974E+01  0.17348511948E+02 -0.12850744965E+02  0.22053293538E+02  0.51100000000E-03 0. -1.
        -11    1    3    3    0    0 -0.24101352441E-01  0.18932630738E+01 -0.38232506553E+01  0.42664120495E+01  0.51100000000E-03 0.  1.
         12    1    3    3    0    0 -0.36479479464E+01  0.18156499392E+02 -0.70689410596E+01  0.19822611385E+02  0.00000000000E+00 0. -1.
</event>
<event>
 7    1  0.4102844E-008  0.4614232E+02  0.7816164E-02  0.1320468E+00
        -11   -1    0    0    0    0  0.00000000000E+00  0.00000000000E+00  0.45593999997E+02  0.45594000000E+02  0.51100000000E-03 0.  1.
         11   -1    0    0    0    0 -0.00000000000E+00 -0.00000000000E+00 -0.45593999997E+02  0.45594000000E+02  0.51100000000E-03 0. -1.
    9900012    2    1    2    0    0  0.40187593489E+02 -0.97012969999E+01  0.17887303708E+02  0.46142317989E+02  0.10000002074E+02 0.  0.
        -12    1    1    2    0    0 -0.40187593489E+02  0.97012969999E+01 -0.17887303708E+02  0.45045682011E+02  0.00000000000E+00 0.  1.
         11    1    3    3    0    0  0.27009709780E+02 -0.75258826962E+01  0.12677350856E+02  0.30771391872E+02  0.51100000000E-03 0. -1.
        -11    1    3    3    0    0  0.55944318572E+01 -0.27384119326E+01  0.45980899944E+01  0.77420281307E+01  0.51100000000E-03 0.  1.
        -12    1    3    3    0    0  0.75834518520E+01  0.56299762900E+00  0.61186285752E+00  0.76288979858E+01  0.00000000000E+00 0.  1.
</event>
<event>
 7    1  0.4102844E-008  0.4614232E+02  0.7816164E-02  0.1320468E+00
        -11   -1    0    0    0    0  0.00000000000E+00  0.00000000000E+00  0.45593999997E+02  0.45594000000E+02  0.51100000000E-03 0.  1.
         11   -1    0    0    0    0 -0.00000000000E+00 -0.00000000000E+00 -0.45593999997E+02  0.45594000000E+02  0.51100000000E-03 0. -1.
    9900012    2    1    2    0    0 -0.17837443836E+02 -0.32100342772E+02 -0.26086530553E+02  0.46142317799E+02  0.10000000343E+02 0.  0.
        -12    1    1    2    0    0  0.17837443836E+02  0.32100342772E+02  0.26086530553E+02  0.45045682201E+02  0.00000000000E+00 0.  1.
         11    1    3    3    0    0 -0.27359455124E+01 -0.29605487773E+01 -0.46739549184E+01  0.61722039621E+01  0.51100000000E-03 0. -1.
        -11    1    3    3    0    0 -0.10661437369E+02 -0.12711118838E+02 -0.87379799882E+01  0.18750762209E+02  0.51100000000E-03 0.  1.
         12    1    3    3    0    0 -0.44400609544E+01 -0.16428675157E+02 -0.12674595647E+02  0.21219351628E+02  0.00000000000E+00 0. -1.
</event>
<event>
 7    1  0.4102844E-008  0.4614231E+02  0.7816164E-02  0.1320468E+00
        -11   -1    0    0    0    0  0.00000000000E+00  0.00000000000E+00  0.45593999997E+02  0.45594000000E+02  0.51100000000E-03 0.  1.
         11   -1    0    0    0    0 -0.00000000000E+00 -0.00000000000E+00 -0.45593999997E+02  0.45594000000E+02  0.51100000000E-03 0. -1.
    9900012    2    1    2    0    0 -0.29484387057E+02  0.28686032122E+02 -0.18354746025E+02  0.46142309633E+02  0.99999258776E+01 0.  0.
        -12    1    1    2    0    0  0.29484387057E+02 -0.28686032122E+02  0.18354746025E+02  0.45045690367E+02  0.00000000000E+00 0.  1.
         11    1    3    3    0    0 -0.63012969867E+01  0.82200315285E+01 -0.77915627850E+01  0.12960853095E+02  0.51100000000E-03 0. -1.
        -11    1    3    3    0    0 -0.11968000811E+02  0.14304524439E+02 -0.66366228748E+01  0.19796394275E+02  0.51100000000E-03 0.  1.
        -12    1    3    3    0    0 -0.11215089259E+02  0.61614761553E+01 -0.39265603649E+01  0.13385062264E+02  0.00000000000E+00 0.  1.
</event>
<event>
 7    1  0.4102844E-008  0.4614232E+02  0.7816164E-02  0.1320468E+00
        -11   -1    0    0    0    0  0.00000000000E+00  0.00000000000E+00  0.45593999997E+02  0.45594000000E+02  0.51100000000E-03 0. -1.
         11   -1    0    0    0    0 -0.00000000000E+00 -0.00000000000E+00 -0.45593999997E+02  0.45594000000E+02  0.51100000000E-03 0.  1.
    9900012    2    1    2    0    0  0.12107313881E+01  0.19055525613E+02  0.40798708501E+02  0.46142317164E+02  0.99999945532E+01 0.  0.
        -12    1    1    2    0    0 -0.12107313881E+01 -0.19055525613E+02 -0.40798708501E+02  0.45045682836E+02  0.00000000000E+00 0.  1.
         11    1    3    3    0    0  0.18405609920E+01  0.10793866253E+02  0.16892267050E+02  0.20130670625E+02  0.51100000000E-03 0. -1.
        -11    1    3    3    0    0  0.24676859119E+00 -0.52889335036E+00  0.61637556308E+01  0.61913251127E+01  0.51100000000E-03 0.  1.
         12    1    3    3    0    0 -0.87659819513E+00  0.87905527097E+01  0.17742685820E+02  0.19820321426E+02  0.00000000000E+00 0. -1.
</event>
<event>
 7    1  0.4102844E-008  0.4614232E+02  0.7816164E-02  0.1320468E+00
        -11   -1    0    0    0    0  0.00000000000E+00  0.00000000000E+00  0.45593999997E+02  0.45594000000E+02  0.51100000000E-03 0.  1.
         11   -1    0    0    0    0 -0.00000000000E+00 -0.00000000000E+00 -0.45593999997E+02  0.45594000000E+02  0.51100000000E-03 0. -1.
    9900012    2    1    2    0    0  0.19539539597E+02 -0.18287054255E+02 -0.36234011087E+02  0.46142317405E+02  0.99999967530E+01 0.  0.
        -12    1    1    2    0    0 -0.19539539597E+02  0.18287054255E+02  0.36234011087E+02  0.45045682595E+02  0.00000000000E+00 0.  1.
         11    1    3    3    0    0  0.10191501915E+02 -0.52938550074E+01 -0.16623332643E+02  0.20204623246E+02  0.51100000000E-03 0. -1.
        -11    1    3    3    0    0  0.36936073251E+01 -0.23380490160E+01 -0.26064889411E+01  0.50894983186E+01  0.51100000000E-03 0.  1.
         12    1    3    3    0    0  0.56544303574E+01 -0.10655150232E+02 -0.17004189503E+02  0.20848195840E+02  0.00000000000E+00 0. -1.
</event>
<event>
 7    1  0.4102844E-008  0.4614232E+02  0.7816164E-02  0.1320468E+00
        -11   -1    0    0    0    0  0.00000000000E+00  0.00000000000E+00  0.45593999997E+02  0.45594000000E+02  0.51100000000E-03 0.  1.
         11   -1    0    0    0    0 -0.00000000000E+00 -0.00000000000E+00 -0.45593999997E+02  0.45594000000E+02  0.51100000000E-03 0. -1.
    9900012    2    1    2    0    0  0.11600529862E+02  0.11144180830E+02 -0.42075508165E+02  0.46142318222E+02  0.10000004205E+02 0.  0.
        -12    1    1    2    0    0 -0.11600529862E+02 -0.11144180830E+02  0.42075508165E+02  0.45045681778E+02  0.00000000000E+00 0.  1.
         11    1    3    3    0    0  0.85047081123E+01  0.10123441089E+02 -0.39215390479E+02  0.41384308261E+02  0.51100000000E-03 0. -1.
        -11    1    3    3    0    0  0.17149831777E+00 -0.43932083875E+00 -0.10492926687E+00  0.48314064673E+00  0.51100000000E-03 0.  1.
         12    1    3    3    0    0  0.29243234320E+01  0.14600605793E+01 -0.27551884199E+01  0.42748693149E+01  0.00000000000E+00 0. -1.
</event>
<event>
 7    1  0.4102844E-008  0.4614232E+02  0.7816164E-02  0.1320468E+00
        -11   -1    0    0    0    0  0.00000000000E+00  0.00000000000E+00  0.45593999997E+02  0.45594000000E+02  0.51100000000E-03 0.  1.
         11   -1    0    0    0    0 -0.00000000000E+00 -0.00000000000E+00 -0.45593999997E+02  0.45594000000E+02  0.51100000000E-03 0. -1.
    9900012    2    1    2    0    0  0.12481830527E+02 -0.11278880648E+02 -0.41786413206E+02  0.46142316848E+02  0.99999916769E+01 0.  0.
        -12    1    1    2    0    0 -0.12481830527E+02  0.11278880648E+02  0.41786413206E+02  0.45045683152E+02  0.00000000000E+00 0.  1.
         11    1    3    3    0    0  0.43086924505E+01 -0.18772129127E+01 -0.14763005068E+02  0.15493065477E+02  0.51100000000E-03 0. -1.
        -11    1    3    3    0    0  0.61149200479E+01 -0.26934114176E+01 -0.18122690610E+02  0.19315243397E+02  0.51100000000E-03 0.  1.
        -12    1    3    3    0    0  0.20582180281E+01 -0.67082563176E+01 -0.89007175273E+01  0.11334007975E+02  0.00000000000E+00 0.  1.
</event>
<event>
 7    1  0.4102844E-008  0.4614232E+02  0.7816164E-02  0.1320468E+00
        -11   -1    0    0    0    0  0.00000000000E+00  0.00000000000E+00  0.45593999997E+02  0.45594000000E+02  0.51100000000E-03 0.  1.
         11   -1    0    0    0    0 -0.00000000000E+00 -0.00000000000E+00 -0.45593999997E+02  0.45594000000E+02  0.51100000000E-03 0. -1.
    9900012    2    1    2    0    0  0.42780715019E+02  0.35096816399E-01 -0.14103995536E+02  0.46142317639E+02  0.99999988858E+01 0.  0.
        -12    1    1    2    0    0 -0.42780715019E+02 -0.35096816399E-01  0.14103995536E+02  0.45045682361E+02  0.00000000000E+00 0.  1.
         11    1    3    3    0    0  0.27297193636E+02 -0.28768286127E+01 -0.96401831988E+01  0.29092027355E+02  0.51100000000E-03 0. -1.
        -11    1    3    3    0    0  0.22746955203E+01  0.62624659048E+00  0.10154693085E+01  0.25685798955E+01  0.51100000000E-03 0.  1.
        -12    1    3    3    0    0  0.13208825863E+02  0.22856788386E+01 -0.54792816456E+01  0.14481710388E+02  0.00000000000E+00 0.  1.
</event>
<event>
 7    1  0.4102844E-008  0.4614232E+02  0.7816164E-02  0.1320468E+00
        -11   -1    0    0    0    0  0.00000000000E+00  0.00000000000E+00  0.45593999997E+02  0.45594000000E+02  0.51100000000E-03 0.  1.
         11   -1    0    0    0    0 -0.00000000000E+00 -0.00000000000E+00 -0.45593999997E+02  0.45594000000E+02  0.51100000000E-03 0. -1.
    9900012    2    1    2    0    0  0.38930999728E+02 -0.19579188175E+02 -0.11408159829E+02  0.46142318075E+02  0.10000002860E+02 0.  0.
        -12    1    1    2    0    0 -0.38930999728E+02  0.19579188175E+02  0.11408159829E+02  0.45045681925E+02  0.00000000000E+00 0.  1.
         11    1    3    3    0    0  0.14346214987E+02 -0.10988488068E+02 -0.32984335952E+01  0.18369551408E+02  0.51100000000E-03 0. -1.
        -11    1    3    3    0    0  0.67988736081E+00  0.57591011342E+00 -0.65975421637E+00  0.11086907456E+01  0.51100000000E-03 0.  1.
        -12    1    3    3    0    0  0.23904897380E+02 -0.91666102210E+01 -0.74499720173E+01  0.26664075922E+02  0.00000000000E+00 0.  1.
</event>
<event>
 7    1  0.4102844E-008  0.4614232E+02  0.7816164E-02  0.1320468E+00
        -11   -1    0    0    0    0  0.00000000000E+00  0.00000000000E+00  0.45593999997E+02  0.45594000000E+02  0.51100000000E-03 0.  1.
         11   -1    0    0    0    0 -0.00000000000E+00 -0.00000000000E+00 -0.45593999997E+02  0.45594000000E+02  0.51100000000E-03 0. -1.
    9900012    2    1    2    0    0 -0.19389393237E+02  0.21965571579E+02 -0.34215182068E+02  0.46142316646E+02  0.99999898293E+01 0.  0.
        -12    1    1    2    0    0  0.19389393237E+02 -0.21965571579E+02  0.34215182068E+02  0.45045683354E+02  0.00000000000E+00 0.  1.
         11    1    3    3    0    0 -0.13667572894E+02  0.12259816765E+02 -0.23236766260E+02  0.29615079983E+02  0.51100000000E-03 0. -1.
        -11    1    3    3    0    0 -0.62476907617E+01  0.72267799727E+01 -0.99465279938E+01  0.13791062614E+02  0.51100000000E-03 0.  1.
        -12    1    3    3    0    0  0.52587041868E+00  0.24789748421E+01 -0.10318878142E+01  0.27361740489E+01  0.00000000000E+00 0.  1.
</event>
<event>
 7    1  0.4102844E-008  0.4614232E+02  0.7816164E-02  0.1320468E+00
        -11   -1    0    0    0    0  0.00000000000E+00  0.00000000000E+00  0.45593999997E+02  0.45594000000E+02  0.51100000000E-03 0.  1.
         11   -1    0    0    0    0 -0.00000000000E+00 -0.00000000000E+00 -0.45593999997E+02  0.45594000000E+02  0.51100000000E-03 0. -1.
    9900012    2    1    2    0    0  0.38521494887E+02 -0.22681759486E+02 -0.55448905043E+01  0.46142316606E+02  0.99999894665E+01 0.  0.
        -12    1    1    2    0    0 -0.38521494887E+02  0.22681759486E+02  0.55448905043E+01  0.45045683394E+02  0.00000000000E+00 0.  1.
         11    1    3    3    0    0  0.22450549621E+02 -0.11346102064E+02 -0.11890597361E+01  0.25182832915E+02  0.51100000000E-03 0. -1.
        -11    1    3    3    0    0  0.16490701164E+02 -0.11266128429E+02 -0.45628769517E+01  0.20486305694E+02  0.51100000000E-03 0.  1.
        -12    1    3    3    0    0 -0.41975589754E+00 -0.69528993416E-01  0.20704618347E+00  0.47317799667E+00  0.00000000000E+00 0.  1.
</event>
<event>
 7    1  0.4102844E-008  0.4614232E+02  0.7816164E-02  0.1320468E+00
        -11   -1    0    0    0    0  0.00000000000E+00  0.00000000000E+00  0.45593999997E+02  0.45594000000E+02  0.51100000000E-03 0.  1.
         11   -1    0    0    0    0 -0.00000000000E+00 -0.00000000000E+00 -0.45593999997E+02  0.45594000000E+02  0.51100000000E-03 0. -1.
    9900012    2    1    2    0    0 -0.19836263404E+02 -0.11188456703E+02 -0.38864570287E+02  0.46142315048E+02  0.99999752591E+01 0.  0.
        -12    1    1    2    0    0  0.19836263404E+02  0.11188456703E+02  0.38864570287E+02  0.45045684952E+02  0.00000000000E+00 0.  1.
         11    1    3    3    0    0 -0.78261095488E+01 -0.49180158566E+01 -0.16150576140E+02  0.18608492162E+02  0.51100000000E-03 0. -1.
        -11    1    3    3    0    0 -0.10769282321E+02 -0.26302958581E+01 -0.19860465310E+02  0.22744977041E+02  0.51100000000E-03 0.  1.
        -12    1    3    3    0    0 -0.12408715339E+01 -0.36401449885E+01 -0.28535288369E+01  0.47888458447E+01  0.00000000000E+00 0.  1.
</event>
<event>
 7    1  0.4102844E-008  0.4614232E+02  0.7816164E-02  0.1320468E+00
        -11   -1    0    0    0    0  0.00000000000E+00  0.00000000000E+00  0.45593999997E+02  0.45594000000E+02  0.51100000000E-03 0.  1.
         11   -1    0    0    0    0 -0.00000000000E+00 -0.00000000000E+00 -0.45593999997E+02  0.45594000000E+02  0.51100000000E-03 0. -1.
    9900012    2    1    2    0    0  0.31444735912E+02 -0.26599933088E+02 -0.18242408351E+02  0.46142319637E+02  0.10000017109E+02 0.  0.
        -12    1    1    2    0    0 -0.31444735912E+02  0.26599933088E+02  0.18242408351E+02  0.45045680363E+02  0.00000000000E+00 0.  1.
         11    1    3    3    0    0  0.23668836554E+01 -0.33723689966E+01 -0.14075014712E+01  0.43538570877E+01  0.51100000000E-03 0. -1.
        -11    1    3    3    0    0  0.13760712623E+02 -0.15008302270E+02 -0.56991301555E+01  0.21144418500E+02  0.51100000000E-03 0.  1.
         12    1    3    3    0    0  0.15317139634E+02 -0.82192618213E+01 -0.11135776725E+02  0.20644044050E+02  0.00000000000E+00 0. -1.
</event>
<event>
 7    1  0.4102844E-008  0.4614232E+02  0.7816164E-02  0.1320468E+00
        -11   -1    0    0    0    0  0.00000000000E+00  0.00000000000E+00  0.45593999997E+02  0.45594000000E+02  0.51100000000E-03 0.  1.
         11   -1    0    0    0    0 -0.00000000000E+00 -0.00000000000E+00 -0.45593999997E+02  0.45594000000E+02  0.51100000000E-03 0. -1.
    9900012    2    1    2    0    0  0.42349583556E+02  0.15043895047E+02 -0.30508333925E+01  0.46142316634E+02  0.99999897213E+01 0.  0.
        -12    1    1    2    0    0 -0.42349583556E+02 -0.15043895047E+02  0.30508333925E+01  0.45045683366E+02  0.00000000000E+00 0.  1.
         11    1    3    3    0    0  0.23049758406E+02  0.11211184258E+02 -0.15803701093E+01  0.25680334597E+02  0.51100000000E-03 0. -1.
        -11    1    3    3    0    0  0.41352412031E-01 -0.54968299629E+00  0.30769553207E+00  0.63129883571E+00  0.51100000000E-03 0.  1.
         12    1    3    3    0    0  0.19258472737E+02  0.43823937855E+01 -0.17781588153E+01  0.19830683201E+02  0.00000000000E+00 0. -1.
</event>
<event>
 7    1  0.4102844E-008  0.4614232E+02  0.7816164E-02  0.1320468E+00
        -11   -1    0    0    0    0  0.00000000000E+00  0.00000000000E+00  0.45593999997E+02  0.45594000000E+02  0.51100000000E-03 0.  1.
         11   -1    0    0    0    0 -0.00000000000E+00 -0.00000000000E+00 -0.45593999997E+02  0.45594000000E+02  0.51100000000E-03 0. -1.
    9900012    2    1    2    0    0  0.19059981564E+02 -0.41772546747E+01 -0.40600262772E+02  0.46142315513E+02  0.99999794954E+01 0.  0.
        -12    1    1    2    0    0 -0.19059981564E+02  0.41772546747E+01  0.40600262772E+02  0.45045684487E+02  0.00000000000E+00 0.  1.
         11    1    3    3    0    0  0.14890887874E+01  0.21181544497E+01 -0.87160316873E+01  0.90924788878E+01  0.51100000000E-03 0. -1.
        -11    1    3    3    0    0  0.32162852876E+01 -0.20186752059E+01 -0.50498460654E+01  0.63182660742E+01  0.51100000000E-03 0.  1.
         12    1    3    3    0    0  0.14354607489E+02 -0.42767339185E+01 -0.26834385019E+02  0.30731570551E+02  0.00000000000E+00 0. -1.
</event>
<event>
 7    1  0.4102844E-008  0.4614232E+02  0.7816164E-02  0.1320468E+00
        -11   -1    0    0    0    0  0.00000000000E+00  0.00000000000E+00  0.45593999997E+02  0.45594000000E+02  0.51100000000E-03 0. -1.
         11   -1    0    0    0    0 -0.00000000000E+00 -0.00000000000E+00 -0.45593999997E+02  0.45594000000E+02  0.51100000000E-03 0.  1.
    9900012    2    1    2    0    0 -0.18314203034E+02 -0.39834461481E+02  0.10340169202E+02  0.46142318149E+02  0.10000003538E+02 0.  0.
        -12    1    1    2    0    0  0.18314203034E+02  0.39834461481E+02 -0.10340169202E+02  0.45045681851E+02  0.00000000000E+00 0.  1.
         11    1    3    3    0    0 -0.13997312331E+00 -0.29188127489E+01  0.77495208646E+00  0.30231790115E+01  0.51100000000E-03 0. -1.
        -11    1    3    3    0    0 -0.17740824137E+01 -0.71941810674E+00  0.18031070589E+01  0.26298528761E+01  0.51100000000E-03 0.  1.
         12    1    3    3    0    0 -0.16400147497E+02 -0.36196230626E+02  0.77621100562E+01  0.40489286262E+02  0.00000000000E+00 0. -1.
</event>
<event>
 7    1  0.4102844E-008  0.4614232E+02  0.7816164E-02  0.1320468E+00
        -11   -1    0    0    0    0  0.00000000000E+00  0.00000000000E+00  0.45593999997E+02  0.45594000000E+02  0.51100000000E-03 0.  1.
         11   -1    0    0    0    0 -0.00000000000E+00 -0.00000000000E+00 -0.45593999997E+02  0.45594000000E+02  0.51100000000E-03 0. -1.
    9900012    2    1    2    0    0  0.28058578454E+02 -0.11100108297E+01 -0.35222115749E+02  0.46142318890E+02  0.10000010290E+02 0.  0.
        -12    1    1    2    0    0 -0.28058578454E+02  0.11100108297E+01  0.35222115749E+02  0.45045681110E+02  0.00000000000E+00 0.  1.
         11    1    3    3    0    0  0.25828650219E+02 -0.95909811866E+00 -0.27558445012E+02  0.37782362725E+02  0.51100000000E-03 0. -1.
        -11    1    3    3    0    0  0.21586291423E+01  0.85207395932E+00 -0.56854784980E+01  0.61408774469E+01  0.51100000000E-03 0.  1.
        -12    1    3    3    0    0  0.71299092226E-01 -0.10029866703E+01 -0.19781922387E+01  0.22190787175E+01  0.00000000000E+00 0.  1.
</event>
<event>
 7    1  0.4102844E-008  0.4614232E+02  0.7816164E-02  0.1320468E+00
        -11   -1    0    0    0    0  0.00000000000E+00  0.00000000000E+00  0.45593999997E+02  0.45594000000E+02  0.51100000000E-03 0. -1.
         11   -1    0    0    0    0 -0.00000000000E+00 -0.00000000000E+00 -0.45593999997E+02  0.45594000000E+02  0.51100000000E-03 0.  1.
    9900012    2    1    2    0    0 -0.14006908527E+01  0.36721996596E+02  0.26050844723E+02  0.46142317858E+02  0.10000000885E+02 0.  0.
        -12    1    1    2    0    0  0.14006908527E+01 -0.36721996596E+02 -0.26050844723E+02  0.45045682142E+02  0.00000000000E+00 0.  1.
         11    1    3    3    0    0 -0.41610298743E+01  0.25628932186E+02  0.20430744244E+02  0.33038941346E+02  0.51100000000E-03 0. -1.
        -11    1    3    3    0    0  0.48240422288E+00  0.20237635787E+00 -0.18346688919E+00  0.55437386755E+00  0.51100000000E-03 0.  1.
         12    1    3    3    0    0  0.22779347987E+01  0.10890688052E+02  0.58035673677E+01  0.12549002645E+02  0.00000000000E+00 0. -1.
</event>
<event>
 7    1  0.4102844E-008  0.4614232E+02  0.7816164E-02  0.1320468E+00
        -11   -1    0    0    0    0  0.00000000000E+00  0.00000000000E+00  0.45593999997E+02  0.45594000000E+02  0.51100000000E-03 0.  1.
         11   -1    0    0    0    0 -0.00000000000E+00 -0.00000000000E+00 -0.45593999997E+02  0.45594000000E+02  0.51100000000E-03 0. -1.
    9900012    2    1    2    0    0 -0.26596933119E+02 -0.22517956255E+02 -0.28542218890E+02  0.46142318027E+02  0.10000002425E+02 0.  0.
        -12    1    1    2    0    0  0.26596933119E+02  0.22517956255E+02  0.28542218890E+02  0.45045681973E+02  0.00000000000E+00 0.  1.
         11    1    3    3    0    0 -0.17141948664E+02 -0.11370647860E+02 -0.18981550273E+02  0.27989949764E+02  0.51100000000E-03 0. -1.
        -11    1    3    3    0    0 -0.23838507439E+01 -0.47197170916E+01 -0.58913560890E+01  0.79162207285E+01  0.51100000000E-03 0.  1.
        -12    1    3    3    0    0 -0.70711337107E+01 -0.64275913029E+01 -0.36693125280E+01  0.10236147534E+02  0.00000000000E+00 0.  1.
</event>
<event>
 7    1  0.4102844E-008  0.4614232E+02  0.7816164E-02  0.1320468E+00
        -11   -1    0    0    0    0  0.00000000000E+00  0.00000000000E+00  0.45593999997E+02  0.45594000000E+02  0.51100000000E-03 0.  1.
         11   -1    0    0    0    0 -0.00000000000E+00 -0.00000000000E+00 -0.45593999997E+02  0.45594000000E+02  0.51100000000E-03 0. -1.
    9900012    2    1    2    0    0 -0.25121958552E+02 -0.32361364697E+02 -0.18728121470E+02  0.46142320292E+02  0.10000023080E+02 0.  0.
        -12    1    1    2    0    0  0.25121958552E+02  0.32361364697E+02  0.18728121470E+02  0.45045679708E+02  0.00000000000E+00 0.  1.
         11    1    3    3    0    0 -0.71964089035E+01 -0.70441003408E+01 -0.73516611928E+01  0.12468142335E+02  0.51100000000E-03 0. -1.
        -11    1    3    3    0    0 -0.11788553348E+02 -0.12025550550E+02 -0.41308006391E+01  0.17339185975E+02  0.51100000000E-03 0.  1.
        -12    1    3    3    0    0 -0.61369963002E+01 -0.13291713806E+02 -0.72456596378E+01  0.16334991983E+02  0.00000000000E+00 0.  1.
</event>
<event>
 7    1  0.4102844E-008  0.4614232E+02  0.7816164E-02  0.1320468E+00
        -11   -1    0    0    0    0  0.00000000000E+00  0.00000000000E+00  0.45593999997E+02  0.45594000000E+02  0.51100000000E-03 0.  1.
         11   -1    0    0    0    0 -0.00000000000E+00 -0.00000000000E+00 -0.45593999997E+02  0.45594000000E+02  0.51100000000E-03 0. -1.
    9900012    2    1    2    0    0 -0.10220665163E+02  0.21971411178E+02 -0.37972472581E+02  0.46142316751E+02  0.99999907851E+01 0.  0.
        -12    1    1    2    0    0  0.10220665163E+02 -0.21971411178E+02  0.37972472581E+02  0.45045683249E+02  0.00000000000E+00 0.  1.
         11    1    3    3    0    0 -0.54883667905E+01  0.87123774022E+01 -0.22411448074E+02  0.24663752655E+02  0.51100000000E-03 0.  1.
        -11    1    3    3    0    0 -0.61111176419E+00  0.37276134526E-02 -0.19270142976E+01  0.20215973505E+01  0.51100000000E-03 0. -1.
         12    1    3    3    0    0 -0.41211866079E+01  0.13255306162E+02 -0.13634010210E+02  0.19456966745E+02  0.00000000000E+00 0. -1.
</event>
<event>
 7    1  0.4102844E-008  0.4614232E+02  0.7816164E-02  0.1320468E+00
        -11   -1    0    0    0    0  0.00000000000E+00  0.00000000000E+00  0.45593999997E+02  0.45594000000E+02  0.51100000000E-03 0.  1.
         11   -1    0    0    0    0 -0.00000000000E+00 -0.00000000000E+00 -0.45593999997E+02  0.45594000000E+02  0.51100000000E-03 0. -1.
    9900012    2    1    2    0    0 -0.26210022632E+02 -0.30324210035E+02 -0.20557004080E+02  0.46142318550E+02  0.10000007191E+02 0.  0.
        -12    1    1    2    0    0  0.26210022632E+02  0.30324210035E+02  0.20557004080E+02  0.45045681450E+02  0.00000000000E+00 0.  1.
         11    1    3    3    0    0 -0.10558430722E+02 -0.18349217703E+02 -0.82285179256E+01  0.22713052572E+02  0.51100000000E-03 0. -1.
        -11    1    3    3    0    0 -0.95440474967E+01 -0.87226326696E+01 -0.70534615109E+01  0.14728356421E+02  0.51100000000E-03 0.  1.
        -12    1    3    3    0    0 -0.61075444135E+01 -0.32523596617E+01 -0.52750246431E+01  0.87009095569E+01  0.00000000000E+00 0.  1.
</event>
<event>
 7    1  0.4102844E-008  0.4614232E+02  0.7816164E-02  0.1320468E+00
        -11   -1    0    0    0    0  0.00000000000E+00  0.00000000000E+00  0.45593999997E+02  0.45594000000E+02  0.51100000000E-03 0.  1.
         11   -1    0    0    0    0 -0.00000000000E+00 -0.00000000000E+00 -0.45593999997E+02  0.45594000000E+02  0.51100000000E-03 0. -1.
    9900012    2    1    2    0    0 -0.43623724283E+02 -0.11068125608E+02 -0.18922963034E+01  0.46142317520E+02  0.99999978020E+01 0.  0.
        -12    1    1    2    0    0  0.43623724283E+02  0.11068125608E+02  0.18922963034E+01  0.45045682480E+02  0.00000000000E+00 0.  1.
         11    1    3    3    0    0 -0.25062874724E+02 -0.42305404364E+01 -0.16994473446E+01  0.25474168943E+02  0.51100000000E-03 0. -1.
        -11    1    3    3    0    0 -0.85842968245E+01 -0.49459045160E+00 -0.16533422681E+01  0.87560443468E+01  0.51100000000E-03 0.  1.
        -12    1    3    3    0    0 -0.99765527346E+01 -0.63429947200E+01  0.14604933094E+01  0.11912104230E+02  0.00000000000E+00 0.  1.
</event>
<event>
 7    1  0.4102844E-008  0.4614232E+02  0.7816164E-02  0.1320468E+00
        -11   -1    0    0    0    0  0.00000000000E+00  0.00000000000E+00  0.45593999997E+02  0.45594000000E+02  0.51100000000E-03 0.  1.
         11   -1    0    0    0    0 -0.00000000000E+00 -0.00000000000E+00 -0.45593999997E+02  0.45594000000E+02  0.51100000000E-03 0. -1.
    9900012    2    1    2    0    0 -0.21163097010E+02  0.30680625575E+02 -0.25296956688E+02  0.46142317872E+02  0.10000001008E+02 0.  0.
        -12    1    1    2    0    0  0.21163097010E+02 -0.30680625575E+02  0.25296956688E+02  0.45045682128E+02  0.00000000000E+00 0.  1.
         11    1    3    3    0    0 -0.17269767221E+02  0.21371075838E+02 -0.19590149159E+02  0.33745246876E+02  0.51100000000E-03 0. -1.
        -11    1    3    3    0    0 -0.19529760319E+01  0.56880817878E+00 -0.13363023288E+01  0.24337958625E+01  0.51100000000E-03 0.  1.
        -12    1    3    3    0    0 -0.19403537569E+01  0.87407415575E+01 -0.43705052009E+01  0.99632751336E+01  0.00000000000E+00 0.  1.
</event>
<event>
 7    1  0.4102844E-008  0.4614232E+02  0.7816164E-02  0.1320468E+00
        -11   -1    0    0    0    0  0.00000000000E+00  0.00000000000E+00  0.45593999997E+02  0.45594000000E+02  0.51100000000E-03 0.  1.
         11   -1    0    0    0    0 -0.00000000000E+00 -0.00000000000E+00 -0.45593999997E+02  0.45594000000E+02  0.51100000000E-03 0. -1.
    9900012    2    1    2    0    0 -0.21984232794E-01  0.19232365662E+02 -0.40733635201E+02  0.46142318643E+02  0.10000008042E+02 0.  0.
        -12    1    1    2    0    0  0.21984232794E-01 -0.19232365662E+02  0.40733635201E+02  0.45045681357E+02  0.00000000000E+00 0.  1.
         11    1    3    3    0    0  0.18679855691E+01  0.97703618053E+01 -0.24457935508E+02  0.26403407914E+02  0.51100000000E-03 0. -1.
        -11    1    3    3    0    0  0.13964898990E+01  0.46156181695E+01 -0.10297485165E+02  0.11370677909E+02  0.51100000000E-03 0.  1.
        -12    1    3    3    0    0 -0.32864597009E+01  0.48463856870E+01 -0.59782145273E+01  0.83682328199E+01  0.00000000000E+00 0.  1.
</event>
<event>
 7    1  0.4102844E-008  0.4614231E+02  0.7816164E-02  0.1320468E+00
        -11   -1    0    0    0    0  0.00000000000E+00  0.00000000000E+00  0.45593999997E+02  0.45594000000E+02  0.51100000000E-03 0.  1.
         11   -1    0    0    0    0 -0.00000000000E+00 -0.00000000000E+00 -0.45593999997E+02  0.45594000000E+02  0.51100000000E-03 0. -1.
    9900012    2    1    2    0    0  0.44677783641E+02  0.12291754093E+01  0.56123955548E+01  0.46142309783E+02  0.99999272510E+01 0.  0.
        -12    1    1    2    0    0 -0.44677783641E+02 -0.12291754093E+01 -0.56123955548E+01  0.45045690217E+02  0.00000000000E+00 0.  1.
         11    1    3    3    0    0 -0.17519071370E+00 -0.11114649783E+00  0.18557197055E+00  0.27835687080E+00  0.51100000000E-03 0.  1.
        -11    1    3    3    0    0  0.37889234522E+02  0.27583859404E+01  0.68873005914E+01  0.38608777439E+02  0.51100000000E-03 0. -1.
         12    1    3    3    0    0  0.69637398329E+01 -0.14180640333E+01 -0.14604770072E+01  0.72551754735E+01  0.00000000000E+00 0. -1.
</event>
<event>
 7    1  0.4102844E-008  0.4614232E+02  0.7816164E-02  0.1320468E+00
        -11   -1    0    0    0    0  0.00000000000E+00  0.00000000000E+00  0.45593999997E+02  0.45594000000E+02  0.51100000000E-03 0. -1.
         11   -1    0    0    0    0 -0.00000000000E+00 -0.00000000000E+00 -0.45593999997E+02  0.45594000000E+02  0.51100000000E-03 0.  1.
    9900012    2    1    2    0    0  0.44619780985E+02  0.46717110828E+01  0.40452269850E+01  0.46142316512E+02  0.99999886067E+01 0.  0.
        -12    1    1    2    0    0 -0.44619780985E+02 -0.46717110828E+01 -0.40452269850E+01  0.45045683488E+02  0.00000000000E+00 0.  1.
         11    1    3    3    0    0  0.40663287385E+02  0.62776122567E+01  0.27876919071E+01  0.41239332961E+02  0.51100000000E-03 0. -1.
        -11    1    3    3    0    0  0.40288938228E+01 -0.15415877199E+01  0.74036813375E+00  0.43768280031E+01  0.51100000000E-03 0.  1.
         12    1    3    3    0    0 -0.72400223069E-01 -0.64313453984E-01  0.51716694414E+00  0.52615554808E+00  0.00000000000E+00 0. -1.
</event>
<event>
 7    1  0.4102844E-008  0.4614232E+02  0.7816164E-02  0.1320468E+00
        -11   -1    0    0    0    0  0.00000000000E+00  0.00000000000E+00  0.45593999997E+02  0.45594000000E+02  0.51100000000E-03 0.  1.
         11   -1    0    0    0    0 -0.00000000000E+00 -0.00000000000E+00 -0.45593999997E+02  0.45594000000E+02  0.51100000000E-03 0. -1.
    9900012    2    1    2    0    0 -0.32465755440E+02 -0.13528218564E+02 -0.28143834857E+02  0.46142318583E+02  0.10000007499E+02 0.  0.
        -12    1    1    2    0    0  0.32465755440E+02  0.13528218564E+02  0.28143834857E+02  0.45045681417E+02  0.00000000000E+00 0.  1.
         11    1    3    3    0    0 -0.68001935663E+01 -0.38034783827E+01 -0.60782544276E+01  0.98820168739E+01  0.51100000000E-03 0. -1.
        -11    1    3    3    0    0 -0.10575002038E+02 -0.82485631481E+01 -0.82389235672E+01  0.15740054762E+02  0.51100000000E-03 0.  1.
         12    1    3    3    0    0 -0.15090559836E+02 -0.14761770333E+01 -0.13826656862E+02  0.20520246947E+02  0.00000000000E+00 0. -1.
</event>
<event>
 7    1  0.4102844E-008  0.4614232E+02  0.7816164E-02  0.1320468E+00
        -11   -1    0    0    0    0  0.00000000000E+00  0.00000000000E+00  0.45593999997E+02  0.45594000000E+02  0.51100000000E-03 0. -1.
         11   -1    0    0    0    0 -0.00000000000E+00 -0.00000000000E+00 -0.45593999997E+02  0.45594000000E+02  0.51100000000E-03 0.  1.
    9900012    2    1    2    0    0 -0.25317007887E+02  0.31203216515E+02  0.20359809354E+02  0.46142318229E+02  0.10000004268E+02 0.  0.
        -12    1    1    2    0    0  0.25317007887E+02 -0.31203216515E+02 -0.20359809354E+02  0.45045681771E+02  0.00000000000E+00 0.  1.
         11    1    3    3    0    0 -0.30039456701E+01  0.48366083276E+01  0.23951159311E+01  0.61768155458E+01  0.51100000000E-03 0. -1.
        -11    1    3    3    0    0 -0.16910172697E+02  0.20563050434E+02  0.17816911209E+02  0.32034907665E+02  0.51100000000E-03 0.  1.
        -12    1    3    3    0    0 -0.54028895198E+01  0.58035577540E+01  0.14778221403E+00  0.79305950186E+01  0.00000000000E+00 0.  1.
</event>
<event>
 7    1  0.4102844E-008  0.4614232E+02  0.7816164E-02  0.1320468E+00
        -11   -1    0    0    0    0  0.00000000000E+00  0.00000000000E+00  0.45593999997E+02  0.45594000000E+02  0.51100000000E-03 0. -1.
         11   -1    0    0    0    0 -0.00000000000E+00 -0.00000000000E+00 -0.45593999997E+02  0.45594000000E+02  0.51100000000E-03 0.  1.
    9900012    2    1    2    0    0 -0.12369416026E+02  0.33042626351E+02  0.28005285820E+02  0.46142316046E+02  0.99999843575E+01 0.  0.
        -12    1    1    2    0    0  0.12369416026E+02 -0.33042626351E+02 -0.28005285820E+02  0.45045683954E+02  0.00000000000E+00 0.  1.
         11    1    3    3    0    0 -0.18540596468E+01  0.26443438007E+01  0.35452572968E+01  0.47957211003E+01  0.51100000000E-03 0. -1.
        -11    1    3    3    0    0 -0.98872486445E+01  0.15401738994E+02  0.12665219046E+02  0.22257111752E+02  0.51100000000E-03 0.  1.
        -12    1    3    3    0    0 -0.62810773478E+00  0.14996543557E+02  0.11794809478E+02  0.19089483194E+02  0.00000000000E+00 0.  1.
</event>
<event>
 7    1  0.4102844E-008  0.4614232E+02  0.7816164E-02  0.1320468E+00
        -11   -1    0    0    0    0  0.00000000000E+00  0.00000000000E+00  0.45593999997E+02  0.45594000000E+02  0.51100000000E-03 0.  1.
         11   -1    0    0    0    0 -0.00000000000E+00 -0.00000000000E+00 -0.45593999997E+02  0.45594000000E+02  0.51100000000E-03 0. -1.
    9900012    2    1    2    0    0 -0.22470009430E+02  0.39041090108E+02  0.73236058885E-01  0.46142318696E+02  0.10000008526E+02 0.  0.
        -12    1    1    2    0    0  0.22470009430E+02 -0.39041090108E+02 -0.73236058885E-01  0.45045681304E+02  0.00000000000E+00 0.  1.
         11    1    3    3    0    0 -0.11647792427E+02  0.15027974772E+02  0.19592107123E+01  0.19114120462E+02  0.51100000000E-03 0. -1.
        -11    1    3    3    0    0 -0.97917944878E+01  0.16474001528E+02  0.98036267246E-01  0.19164591751E+02  0.51100000000E-03 0.  1.
        -12    1    3    3    0    0 -0.10304225149E+01  0.75391138087E+01 -0.19840109207E+01  0.78636064826E+01  0.00000000000E+00 0.  1.
</event>
<event>
 7    1  0.4102844E-008  0.4614232E+02  0.7816164E-02  0.1320468E+00
        -11   -1    0    0    0    0  0.00000000000E+00  0.00000000000E+00  0.45593999997E+02  0.45594000000E+02  0.51100000000E-03 0. -1.
         11   -1    0    0    0    0 -0.00000000000E+00 -0.00000000000E+00 -0.45593999997E+02  0.45594000000E+02  0.51100000000E-03 0.  1.
    9900012    2    1    2    0    0  0.31778233251E+00  0.44073950019E+02 -0.93005177395E+01  0.46142315566E+02  0.99999799820E+01 0.  0.
        -12    1    1    2    0    0 -0.31778233251E+00 -0.44073950019E+02  0.93005177395E+01  0.45045684434E+02  0.00000000000E+00 0.  1.
         11    1    3    3    0    0  0.10667965611E+01  0.48604201982E+01 -0.19404871839E+01  0.53410888570E+01  0.51100000000E-03 0. -1.
        -11    1    3    3    0    0  0.25695808870E+01  0.41756229097E+01 -0.14576556857E+01  0.51150105550E+01  0.51100000000E-03 0.  1.
         12    1    3    3    0    0 -0.33185951156E+01  0.35037906911E+02 -0.59023748698E+01  0.35686216154E+02  0.00000000000E+00 0. -1.
</event>
<event>
 7    1  0.4102844E-008  0.4614232E+02  0.7816164E-02  0.1320468E+00
        -11   -1    0    0    0    0  0.00000000000E+00  0.00000000000E+00  0.45593999997E+02  0.45594000000E+02  0.51100000000E-03 0.  1.
         11   -1    0    0    0    0 -0.00000000000E+00 -0.00000000000E+00 -0.45593999997E+02  0.45594000000E+02  0.51100000000E-03 0. -1.
    9900012    2    1    2    0    0  0.35082702072E+02  0.28204609903E+02 -0.16785426949E+01  0.46142317521E+02  0.99999978069E+01 0.  0.
        -12    1    1    2    0    0 -0.35082702072E+02 -0.28204609903E+02  0.16785426949E+01  0.45045682479E+02  0.00000000000E+00 0.  1.
         11    1    3    3    0    0  0.13959381006E+02  0.12802725429E+02  0.74228366921E+00  0.18955871961E+02  0.51100000000E-03 0. -1.
        -11    1    3    3    0    0  0.13682203717E+02  0.13232954852E+02  0.10393514010E+00  0.19034825858E+02  0.51100000000E-03 0.  1.
        -12    1    3    3    0    0  0.74411173496E+01  0.21689296213E+01 -0.25247615042E+01  0.81516197019E+01  0.00000000000E+00 0.  1.
</event>
<event>
 7    1  0.4102844E-008  0.4614232E+02  0.7816164E-02  0.1320468E+00
        -11   -1    0    0    0    0  0.00000000000E+00  0.00000000000E+00  0.45593999997E+02  0.45594000000E+02  0.51100000000E-03 0.  1.
         11   -1    0    0    0    0 -0.00000000000E+00 -0.00000000000E+00 -0.45593999997E+02  0.45594000000E+02  0.51100000000E-03 0. -1.
    9900012    2    1    2    0    0 -0.42894068193E+02 -0.57106668516E+01 -0.12514019380E+02  0.46142317820E+02  0.10000000533E+02 0.  0.
        -12    1    1    2    0    0  0.42894068193E+02  0.57106668516E+01  0.12514019380E+02  0.45045682180E+02  0.00000000000E+00 0.  1.
         11    1    3    3    0    0 -0.22561406489E+01 -0.25114815709E+01 -0.10916237427E+01  0.35481478218E+01  0.51100000000E-03 0. -1.
        -11    1    3    3    0    0 -0.16552671646E+01  0.46171530112E-02  0.45467669774E+00  0.17165843600E+01  0.51100000000E-03 0.  1.
         12    1    3    3    0    0 -0.38982660380E+02 -0.32038024338E+01 -0.11877072335E+02  0.40877585638E+02  0.00000000000E+00 0. -1.
</event>
<event>
 7    1  0.4102844E-008  0.4614232E+02  0.7816164E-02  0.1320468E+00
        -11   -1    0    0    0    0  0.00000000000E+00  0.00000000000E+00  0.45593999997E+02  0.45594000000E+02  0.51100000000E-03 0.  1.
         11   -1    0    0    0    0 -0.00000000000E+00 -0.00000000000E+00 -0.45593999997E+02  0.45594000000E+02  0.51100000000E-03 0. -1.
    9900012    2    1    2    0    0  0.48309026692E+01 -0.17100063583E+02 -0.41392796481E+02  0.46142318790E+02  0.10000009386E+02 0.  0.
        -12    1    1    2    0    0 -0.48309026692E+01  0.17100063583E+02  0.41392796481E+02  0.45045681210E+02  0.00000000000E+00 0.  1.
         11    1    3    3    0    0  0.21048868546E+00 -0.21922540342E+01 -0.69220583416E+01  0.72639641507E+01  0.51100000000E-03 0. -1.
        -11    1    3    3    0    0 -0.22824163748E+00 -0.16918152724E+01 -0.69853077761E-01  0.17085704184E+01  0.51100000000E-03 0.  1.
         12    1    3    3    0    0  0.48486556212E+01 -0.13215994276E+02 -0.34400885062E+02  0.37169784221E+02  0.00000000000E+00 0. -1.
</event>
<event>
 7    1  0.4102844E-008  0.4614232E+02  0.7816164E-02  0.1320468E+00
        -11   -1    0    0    0    0  0.00000000000E+00  0.00000000000E+00  0.45593999997E+02  0.45594000000E+02  0.51100000000E-03 0.  1.
         11   -1    0    0    0    0 -0.00000000000E+00 -0.00000000000E+00 -0.45593999997E+02  0.45594000000E+02  0.51100000000E-03 0. -1.
    9900012    2    1    2    0    0 -0.86558820504E+01 -0.32834204171E+02 -0.29599057929E+02  0.46142317766E+02  0.10000000047E+02 0.  0.
        -12    1    1    2    0    0  0.86558820504E+01  0.32834204171E+02  0.29599057929E+02  0.45045682234E+02  0.00000000000E+00 0.  1.
         11    1    3    3    0    0 -0.60420662052E+01 -0.15622747642E+02 -0.18273874251E+02  0.24789338198E+02  0.51100000000E-03 0. -1.
        -11    1    3    3    0    0 -0.31884866086E+01 -0.16682520879E+02 -0.11550742438E+02  0.20540024364E+02  0.51100000000E-03 0.  1.
        -12    1    3    3    0    0  0.57467076341E+00 -0.52893565051E+00  0.22555876104E+00  0.81295520380E+00  0.00000000000E+00 0.  1.
</event>
<event>
 7    1  0.4102844E-008  0.4614232E+02  0.7816164E-02  0.1320468E+00
        -11   -1    0    0    0    0  0.00000000000E+00  0.00000000000E+00  0.45593999997E+02  0.45594000000E+02  0.51100000000E-03 0. -1.
         11   -1    0    0    0    0 -0.00000000000E+00 -0.00000000000E+00 -0.45593999997E+02  0.45594000000E+02  0.51100000000E-03 0.  1.
    9900012    2    1    2    0    0 -0.11806033640E+02 -0.38130269348E+02  0.20876150272E+02  0.46142317399E+02  0.99999966953E+01 0.  0.
        -12    1    1    2    0    0  0.11806033640E+02  0.38130269348E+02 -0.20876150272E+02  0.45045682601E+02  0.00000000000E+00 0.  1.
         11    1    3    3    0    0 -0.55004469577E+01 -0.97931326774E+01  0.33881585880E+01  0.11732006787E+02  0.51100000000E-03 0. -1.
        -11    1    3    3    0    0  0.15297892706E+00 -0.16634422091E+01  0.28567750207E+01  0.33093211261E+01  0.51100000000E-03 0.  1.
         12    1    3    3    0    0 -0.64585656092E+01 -0.26673694461E+02  0.14631216663E+02  0.31100989486E+02  0.00000000000E+00 0. -1.
</event>
<event>
 7    1  0.4102844E-008  0.4614232E+02  0.7816164E-02  0.1320468E+00
        -11   -1    0    0    0    0  0.00000000000E+00  0.00000000000E+00  0.45593999997E+02  0.45594000000E+02  0.51100000000E-03 0.  1.
         11   -1    0    0    0    0 -0.00000000000E+00 -0.00000000000E+00 -0.45593999997E+02  0.45594000000E+02  0.51100000000E-03 0. -1.
    9900012    2    1    2    0    0 -0.66365183858E+01  0.22638358524E+02 -0.38374142985E+02  0.46142317601E+02  0.99999985396E+01 0.  0.
        -12    1    1    2    0    0  0.66365183858E+01 -0.22638358524E+02  0.38374142985E+02  0.45045682399E+02  0.00000000000E+00 0.  1.
         11    1    3    3    0    0 -0.69169000623E+00  0.39147551900E+00 -0.34728954296E+00  0.86735139042E+00  0.51100000000E-03 0. -1.
        -11    1    3    3    0    0 -0.81164086232E+01  0.17153897434E+02 -0.28085629314E+02  0.33895941650E+02  0.51100000000E-03 0.  1.
        -12    1    3    3    0    0  0.21715802436E+01  0.50929855708E+01 -0.99412241283E+01  0.11379024560E+02  0.00000000000E+00 0.  1.
</event>
<event>
 7    1  0.4102844E-008  0.4614232E+02  0.7816164E-02  0.1320468E+00
        -11   -1    0    0    0    0  0.00000000000E+00  0.00000000000E+00  0.45593999997E+02  0.45594000000E+02  0.51100000000E-03 0.  1.
         11   -1    0    0    0    0 -0.00000000000E+00 -0.00000000000E+00 -0.45593999997E+02  0.45594000000E+02  0.51100000000E-03 0. -1.
    9900012    2    1    2    0    0  0.21923659080E+02 -0.29685399909E+02 -0.25831054552E+02  0.46142321245E+02  0.10000031770E+02 0.  0.
        -12    1    1    2    0    0 -0.21923659080E+02  0.29685399909E+02  0.25831054552E+02  0.45045678755E+02  0.00000000000E+00 0.  1.
         11    1    3    3    0    0  0.11757084316E+02 -0.13229453724E+02 -0.11069415634E+02  0.20875330900E+02  0.51100000000E-03 0. -1.
        -11    1    3    3    0    0  0.36059714381E+01 -0.10419874088E+01 -0.27937026797E+01  0.46790536112E+01  0.51100000000E-03 0.  1.
         12    1    3    3    0    0  0.65606033258E+01 -0.15413958776E+02 -0.11967936238E+02  0.20587936734E+02  0.00000000000E+00 0. -1.
</event>
<event>
 7    1  0.4102844E-008  0.4614232E+02  0.7816164E-02  0.1320468E+00
        -11   -1    0    0    0    0  0.00000000000E+00  0.00000000000E+00  0.45593999997E+02  0.45594000000E+02  0.51100000000E-03 0. -1.
         11   -1    0    0    0    0 -0.00000000000E+00 -0.00000000000E+00 -0.45593999997E+02  0.45594000000E+02  0.51100000000E-03 0.  1.
    9900012    2    1    2    0    0 -0.38160997929E+02  0.18018337757E+02  0.15754086356E+02  0.46142317683E+02  0.99999992916E+01 0.  0.
        -12    1    1    2    0    0  0.38160997929E+02 -0.18018337757E+02 -0.15754086356E+02  0.45045682317E+02  0.00000000000E+00 0.  1.
         11    1    3    3    0    0 -0.14466460579E+02  0.73835505175E+01  0.55537510413E+01  0.17165064836E+02  0.51100000000E-03 0. -1.
        -11    1    3    3    0    0 -0.17141398535E+02  0.36452840307E+01  0.70805095476E+01  0.18901038467E+02  0.51100000000E-03 0.  1.
        -12    1    3    3    0    0 -0.65531388142E+01  0.69895032086E+01  0.31198257672E+01  0.10076214380E+02  0.00000000000E+00 0.  1.
</event>
<event>
 7    1  0.4102844E-008  0.4614232E+02  0.7816164E-02  0.1320468E+00
        -11   -1    0    0    0    0  0.00000000000E+00  0.00000000000E+00  0.45593999997E+02  0.45594000000E+02  0.51100000000E-03 0.  1.
         11   -1    0    0    0    0 -0.00000000000E+00 -0.00000000000E+00 -0.45593999997E+02  0.45594000000E+02  0.51100000000E-03 0. -1.
    9900012    2    1    2    0    0  0.43532571544E+01  0.67566982499E+01 -0.44322788962E+02  0.46142318293E+02  0.10000004850E+02 0.  0.
        -12    1    1    2    0    0 -0.43532571544E+01 -0.67566982499E+01  0.44322788962E+02  0.45045681707E+02  0.00000000000E+00 0.  1.
         11    1    3    3    0    0  0.83957111778E+00  0.78302870871E+01 -0.31585303809E+02  0.32552260943E+02  0.51100000000E-03 0. -1.
        -11    1    3    3    0    0  0.14853149881E+01  0.84089093253E+00 -0.29019229541E+01  0.33666623334E+01  0.51100000000E-03 0.  1.
         12    1    3    3    0    0  0.20283710485E+01 -0.19144797698E+01 -0.98355621985E+01  0.10223395016E+02  0.00000000000E+00 0. -1.
</event>
<event>
 7    1  0.4102844E-008  0.4614232E+02  0.7816164E-02  0.1320468E+00
        -11   -1    0    0    0    0  0.00000000000E+00  0.00000000000E+00  0.45593999997E+02  0.45594000000E+02  0.51100000000E-03 0.  1.
         11   -1    0    0    0    0 -0.00000000000E+00 -0.00000000000E+00 -0.45593999997E+02  0.45594000000E+02  0.51100000000E-03 0. -1.
    9900012    2    1    2    0    0  0.23262034429E+01 -0.31788431138E+00 -0.44984455375E+02  0.46142317651E+02  0.99999989985E+01 0.  0.
        -12    1    1    2    0    0 -0.23262034429E+01  0.31788431138E+00  0.44984455375E+02  0.45045682349E+02  0.00000000000E+00 0.  1.
         11    1    3    3    0    0  0.86971139528E+00  0.13553212657E+01 -0.19912762920E+02  0.19977773174E+02  0.51100000000E-03 0. -1.
        -11    1    3    3    0    0 -0.27661805571E+01 -0.16490186970E+01 -0.12199937632E+02  0.12617824536E+02  0.51100000000E-03 0.  1.
        -12    1    3    3    0    0  0.42226726048E+01 -0.24186880157E-01 -0.12871754823E+02  0.13546719941E+02  0.00000000000E+00 0.  1.
</event>
<event>
 7    1  0.4102844E-008  0.4614232E+02  0.7816164E-02  0.1320468E+00
        -11   -1    0    0    0    0  0.00000000000E+00  0.00000000000E+00  0.45593999997E+02  0.45594000000E+02  0.51100000000E-03 0. -1.
         11   -1    0    0    0    0 -0.00000000000E+00 -0.00000000000E+00 -0.45593999997E+02  0.45594000000E+02  0.51100000000E-03 0.  1.
    9900012    2    1    2    0    0  0.15884975539E+02  0.31567572897E+02  0.27933303628E+02  0.46142316988E+02  0.99999929484E+01 0.  0.
        -12    1    1    2    0    0 -0.15884975539E+02 -0.31567572897E+02 -0.27933303628E+02  0.45045683012E+02  0.00000000000E+00 0.  1.
         11    1    3    3    0    0  0.17984722132E+01  0.18310854473E+01  0.57861904276E+00  0.26310029408E+01  0.51100000000E-03 0.  1.
        -11    1    3    3    0    0  0.62301960283E+01  0.92432592597E+01  0.13703683753E+02  0.17664770957E+02  0.51100000000E-03 0. -1.
         12    1    3    3    0    0  0.78563072976E+01  0.20493228189E+02  0.13651000832E+02  0.25846543090E+02  0.00000000000E+00 0. -1.
</event>
<event>
 7    1  0.4102844E-008  0.4614232E+02  0.7816164E-02  0.1320468E+00
        -11   -1    0    0    0    0  0.00000000000E+00  0.00000000000E+00  0.45593999997E+02  0.45594000000E+02  0.51100000000E-03 0.  1.
         11   -1    0    0    0    0 -0.00000000000E+00 -0.00000000000E+00 -0.45593999997E+02  0.45594000000E+02  0.51100000000E-03 0. -1.
    9900012    2    1    2    0    0  0.30968719930E+02  0.31274812312E+02 -0.95884314203E+01  0.46142317451E+02  0.99999971691E+01 0.  0.
        -12    1    1    2    0    0 -0.30968719930E+02 -0.31274812312E+02  0.95884314203E+01  0.45045682549E+02  0.00000000000E+00 0.  1.
         11    1    3    3    0    0  0.78133891943E+01  0.10535569566E+02 -0.15390958575E+01  0.13206668508E+02  0.51100000000E-03 0. -1.
        -11    1    3    3    0    0  0.51126340938E+01  0.52983442205E+01 -0.52076746177E+01  0.90183897698E+01  0.51100000000E-03 0.  1.
         12    1    3    3    0    0  0.18042696642E+02  0.15440898526E+02 -0.28416609451E+01  0.23917259172E+02  0.00000000000E+00 0. -1.
</event>
<event>
 7    1  0.4102844E-008  0.4614232E+02  0.7816164E-02  0.1320468E+00
        -11   -1    0    0    0    0  0.00000000000E+00  0.00000000000E+00  0.45593999997E+02  0.45594000000E+02  0.51100000000E-03 0.  1.
         11   -1    0    0    0    0 -0.00000000000E+00 -0.00000000000E+00 -0.45593999997E+02  0.45594000000E+02  0.51100000000E-03 0. -1.
    9900012    2    1    2    0    0  0.33616189657E+02  0.67250224385E+01 -0.29220528869E+02  0.46142318284E+02  0.10000004772E+02 0.  0.
        -12    1    1    2    0    0 -0.33616189657E+02 -0.67250224385E+01  0.29220528869E+02  0.45045681716E+02  0.00000000000E+00 0.  1.
         11    1    3    3    0    0  0.92191709997E+01  0.37242350649E+00 -0.66633325326E+01  0.11381204413E+02  0.51100000000E-03 0. -1.
        -11    1    3    3    0    0  0.19279050279E+02  0.40596579258E+01 -0.12761910686E+02  0.23474006193E+02  0.51100000000E-03 0.  1.
        -12    1    3    3    0    0  0.51179683789E+01  0.22929410062E+01 -0.97952856499E+01  0.11287107679E+02  0.00000000000E+00 0.  1.
</event>
<event>
 7    1  0.4102844E-008  0.4614232E+02  0.7816164E-02  0.1320468E+00
        -11   -1    0    0    0    0  0.00000000000E+00  0.00000000000E+00  0.45593999997E+02  0.45594000000E+02  0.51100000000E-03 0.  1.
         11   -1    0    0    0    0 -0.00000000000E+00 -0.00000000000E+00 -0.45593999997E+02  0.45594000000E+02  0.51100000000E-03 0. -1.
    9900012    2    1    2    0    0  0.29955645429E+02  0.29018549664E+02 -0.17020475742E+02  0.46142317497E+02  0.99999975939E+01 0.  0.
        -12    1    1    2    0    0 -0.29955645429E+02 -0.29018549664E+02  0.17020475742E+02  0.45045682503E+02  0.00000000000E+00 0.  1.
         11    1    3    3    0    0  0.17027260096E+02  0.10585339957E+02 -0.94243262843E+01  0.22153892086E+02  0.51100000000E-03 0. -1.
        -11    1    3    3    0    0  0.11618625147E+02  0.14618327397E+02 -0.56447803918E+01  0.19507729036E+02  0.51100000000E-03 0.  1.
         12    1    3    3    0    0  0.13097601863E+01  0.38148823091E+01 -0.19513690657E+01  0.44806963754E+01  0.00000000000E+00 0. -1.
</event>
<event>
 7    1  0.4102844E-008  0.4614232E+02  0.7816164E-02  0.1320468E+00
        -11   -1    0    0    0    0  0.00000000000E+00  0.00000000000E+00  0.45593999997E+02  0.45594000000E+02  0.51100000000E-03 0. -1.
         11   -1    0    0    0    0 -0.00000000000E+00 -0.00000000000E+00 -0.45593999997E+02  0.45594000000E+02  0.51100000000E-03 0.  1.
    9900012    2    1    2    0    0 -0.21502967924E+02 -0.29350079386E+01  0.39473049567E+02  0.46142317151E+02  0.99999944404E+01 0.  0.
        -12    1    1    2    0    0  0.21502967924E+02  0.29350079386E+01 -0.39473049567E+02  0.45045682849E+02  0.00000000000E+00 0.  1.
         11    1    3    3    0    0 -0.21210560793E+01  0.16509647734E+01  0.44859359559E+01  0.52295492384E+01  0.51100000000E-03 0. -1.
        -11    1    3    3    0    0 -0.10126164727E+01 -0.13277946651E+01  0.56987825881E+00  0.17644240659E+01  0.51100000000E-03 0.  1.
         12    1    3    3    0    0 -0.18369295372E+02 -0.32581780470E+01  0.34417235353E+02  0.39148343847E+02  0.00000000000E+00 0. -1.
</event>
<event>
 7    1  0.4102844E-008  0.4614232E+02  0.7816164E-02  0.1320468E+00
        -11   -1    0    0    0    0  0.00000000000E+00  0.00000000000E+00  0.45593999997E+02  0.45594000000E+02  0.51100000000E-03 0.  1.
         11   -1    0    0    0    0 -0.00000000000E+00 -0.00000000000E+00 -0.45593999997E+02  0.45594000000E+02  0.51100000000E-03 0. -1.
    9900012    2    1    2    0    0  0.39933372421E+02  0.14655265953E+02 -0.14821013959E+02  0.46142317545E+02  0.99999980250E+01 0.  0.
        -12    1    1    2    0    0 -0.39933372421E+02 -0.14655265953E+02  0.14821013959E+02  0.45045682455E+02  0.00000000000E+00 0.  1.
         11    1    3    3    0    0  0.69487306879E+01  0.33441944108E+01 -0.28729927609E+01  0.82293731289E+01  0.51100000000E-03 0. -1.
        -11    1    3    3    0    0  0.15992418967E+02  0.22335652440E+01 -0.21207965275E+01  0.16286315000E+02  0.51100000000E-03 0.  1.
         12    1    3    3    0    0  0.16992222767E+02  0.90775062985E+01 -0.98272246704E+01  0.21626629416E+02  0.00000000000E+00 0. -1.
</event>
<event>
 7    1  0.4102844E-008  0.4614232E+02  0.7816164E-02  0.1320468E+00
        -11   -1    0    0    0    0  0.00000000000E+00  0.00000000000E+00  0.45593999997E+02  0.45594000000E+02  0.51100000000E-03 0. -1.
         11   -1    0    0    0    0 -0.00000000000E+00 -0.00000000000E+00 -0.45593999997E+02  0.45594000000E+02  0.51100000000E-03 0.  1.
    9900012    2    1    2    0    0  0.51645602909E-01 -0.32455131947E+02  0.31237399557E+02  0.46142318875E+02  0.10000010153E+02 0.  0.
        -12    1    1    2    0    0 -0.51645602909E-01  0.32455131947E+02 -0.31237399557E+02  0.45045681125E+02  0.00000000000E+00 0.  1.
         11    1    3    3    0    0 -0.49231430043E+00 -0.18653455821E+02  0.23026492756E+02  0.29638035635E+02  0.51100000000E-03 0. -1.
        -11    1    3    3    0    0 -0.24859802380E+00 -0.82659259190E+01  0.68762939012E+01  0.10755033722E+02  0.51100000000E-03 0.  1.
        -12    1    3    3    0    0  0.79255792714E+00 -0.55357502071E+01  0.13346129006E+01  0.57492495177E+01  0.00000000000E+00 0.  1.
</event>
<event>
 7    1  0.4102844E-008  0.4614232E+02  0.7816164E-02  0.1320468E+00
        -11   -1    0    0    0    0  0.00000000000E+00  0.00000000000E+00  0.45593999997E+02  0.45594000000E+02  0.51100000000E-03 0.  1.
         11   -1    0    0    0    0 -0.00000000000E+00 -0.00000000000E+00 -0.45593999997E+02  0.45594000000E+02  0.51100000000E-03 0. -1.
    9900012    2    1    2    0    0 -0.44236157383E+02  0.21386090071E+01 -0.82281345439E+01  0.46142318003E+02  0.10000002202E+02 0.  0.
        -12    1    1    2    0    0  0.44236157383E+02 -0.21386090071E+01  0.82281345439E+01  0.45045681997E+02  0.00000000000E+00 0.  1.
         11    1    3    3    0    0 -0.28561395317E+02  0.18802801925E+00 -0.57617486190E+01  0.29137371268E+02  0.51100000000E-03 0. -1.
        -11    1    3    3    0    0 -0.15612243855E+02  0.76227848779E+00 -0.21921919365E+01  0.15783818690E+02  0.51100000000E-03 0.  1.
        -12    1    3    3    0    0 -0.62518211153E-01  0.11883025000E+01 -0.27419398841E+00  0.12211280447E+01  0.00000000000E+00 0.  1.
</event>
<event>
 7    1  0.4102844E-008  0.4614231E+02  0.7816164E-02  0.1320468E+00
        -11   -1    0    0    0    0  0.00000000000E+00  0.00000000000E+00  0.45593999997E+02  0.45594000000E+02  0.51100000000E-03 0. -1.
         11   -1    0    0    0    0 -0.00000000000E+00 -0.00000000000E+00 -0.45593999997E+02  0.45594000000E+02  0.51100000000E-03 0.  1.
    9900012    2    1    2    0    0  0.23269076501E+01 -0.38483965081E+02  0.23295574652E+02  0.46142313570E+02  0.99999617793E+01 0.  0.
        -12    1    1    2    0    0 -0.23269076501E+01  0.38483965081E+02 -0.23295574652E+02  0.45045686430E+02  0.00000000000E+00 0.  1.
         11    1    3    3    0    0  0.13655893505E+01 -0.12360626745E+02  0.54176073367E+01  0.13564674611E+02  0.51100000000E-03 0. -1.
        -11    1    3    3    0    0  0.76405388023E+00 -0.12365145910E+02  0.39598007571E+01  0.13006176763E+02  0.51100000000E-03 0.  1.
        -12    1    3    3    0    0  0.19726441945E+00 -0.13758192427E+02  0.13918166558E+02  0.19571462195E+02  0.00000000000E+00 0.  1.
</event>
<event>
 7    1  0.4102844E-008  0.4614232E+02  0.7816164E-02  0.1320468E+00
        -11   -1    0    0    0    0  0.00000000000E+00  0.00000000000E+00  0.45593999997E+02  0.45594000000E+02  0.51100000000E-03 0. -1.
         11   -1    0    0    0    0 -0.00000000000E+00 -0.00000000000E+00 -0.45593999997E+02  0.45594000000E+02  0.51100000000E-03 0.  1.
    9900012    2    1    2    0    0 -0.10850080744E+02 -0.40183848053E+02  0.17223452925E+02  0.46142320660E+02  0.10000026438E+02 0.  0.
        -12    1    1    2    0    0  0.10850080744E+02  0.40183848053E+02 -0.17223452925E+02  0.45045679340E+02  0.00000000000E+00 0.  1.
         11    1    3    3    0    0 -0.99629661523E+01 -0.22582244371E+02  0.12579885084E+02  0.27703284361E+02  0.51100000000E-03 0. -1.
        -11    1    3    3    0    0 -0.13197422716E+01 -0.66483765426E+01  0.81031769896E+00  0.68263639920E+01  0.51100000000E-03 0.  1.
        -12    1    3    3    0    0  0.43262767978E+00 -0.10953227139E+02  0.38332501418E+01  0.11612672308E+02  0.00000000000E+00 0.  1.
</event>
<event>
 7    1  0.4102844E-008  0.4614232E+02  0.7816164E-02  0.1320468E+00
        -11   -1    0    0    0    0  0.00000000000E+00  0.00000000000E+00  0.45593999997E+02  0.45594000000E+02  0.51100000000E-03 0.  1.
         11   -1    0    0    0    0 -0.00000000000E+00 -0.00000000000E+00 -0.45593999997E+02  0.45594000000E+02  0.51100000000E-03 0. -1.
    9900012    2    1    2    0    0 -0.22192775748E+02  0.35310360399E+02 -0.17022709325E+02  0.46142317858E+02  0.10000000880E+02 0.  0.
        -12    1    1    2    0    0  0.22192775748E+02 -0.35310360399E+02  0.17022709325E+02  0.45045682142E+02  0.00000000000E+00 0.  1.
         11    1    3    3    0    0 -0.10885475694E+02  0.20930966832E+02 -0.78023994481E+01  0.24849072236E+02  0.51100000000E-03 0. -1.
        -11    1    3    3    0    0 -0.79113988802E+01  0.13271799654E+02 -0.85504282782E+01  0.17659012495E+02  0.51100000000E-03 0.  1.
        -12    1    3    3    0    0 -0.33959011742E+01  0.11075939135E+01 -0.66988159909E+00  0.36342331266E+01  0.00000000000E+00 0.  1.
</event>
<event>
 7    1  0.4102844E-008  0.4614232E+02  0.7816164E-02  0.1320468E+00
        -11   -1    0    0    0    0  0.00000000000E+00  0.00000000000E+00  0.45593999997E+02  0.45594000000E+02  0.51100000000E-03 0.  1.
         11   -1    0    0    0    0 -0.00000000000E+00 -0.00000000000E+00 -0.45593999997E+02  0.45594000000E+02  0.51100000000E-03 0. -1.
    9900012    2    1    2    0    0  0.36575143381E+02 -0.69358029152E+01 -0.25362707968E+02  0.46142318399E+02  0.10000005816E+02 0.  0.
        -12    1    1    2    0    0 -0.36575143381E+02  0.69358029152E+01  0.25362707968E+02  0.45045681601E+02  0.00000000000E+00 0.  1.
         11    1    3    3    0    0  0.77551556751E+01  0.45280162456E-01 -0.60176599633E+01  0.98161459613E+01  0.51100000000E-03 0. -1.
        -11    1    3    3    0    0 -0.47189300893E+00 -0.56541372435E+00 -0.25696122256E+00  0.78000321960E+00  0.51100000000E-03 0.  1.
        -12    1    3    3    0    0  0.29291880715E+02 -0.64156693533E+01 -0.19088086782E+02  0.35546169218E+02  0.00000000000E+00 0.  1.
</event>
<event>
 7    1  0.4102844E-008  0.4614232E+02  0.7816164E-02  0.1320468E+00
        -11   -1    0    0    0    0  0.00000000000E+00  0.00000000000E+00  0.45593999997E+02  0.45594000000E+02  0.51100000000E-03 0.  1.
         11   -1    0    0    0    0 -0.00000000000E+00 -0.00000000000E+00 -0.45593999997E+02  0.45594000000E+02  0.51100000000E-03 0. -1.
    9900012    2    1    2    0    0  0.21809019494E+02 -0.33711685916E+02 -0.20420636988E+02  0.46142317481E+02  0.99999974454E+01 0.  0.
        -12    1    1    2    0    0 -0.21809019494E+02  0.33711685916E+02  0.20420636988E+02  0.45045682519E+02  0.00000000000E+00 0.  1.
         11    1    3    3    0    0  0.16248072696E+02 -0.28963735682E+02 -0.14438373913E+02  0.36212766982E+02  0.51100000000E-03 0. -1.
        -11    1    3    3    0    0  0.25481798047E+01 -0.25035873842E+01 -0.10382346925E+01  0.37200943059E+01  0.51100000000E-03 0.  1.
         12    1    3    3    0    0  0.30127669934E+01 -0.22443628497E+01 -0.49440283831E+01  0.62094561928E+01  0.00000000000E+00 0. -1.
</event>
<event>
 7    1  0.4102844E-008  0.4614232E+02  0.7816164E-02  0.1320468E+00
        -11   -1    0    0    0    0  0.00000000000E+00  0.00000000000E+00  0.45593999997E+02  0.45594000000E+02  0.51100000000E-03 0.  1.
         11   -1    0    0    0    0 -0.00000000000E+00 -0.00000000000E+00 -0.45593999997E+02  0.45594000000E+02  0.51100000000E-03 0. -1.
    9900012    2    1    2    0    0 -0.14004716084E+02  0.38129478974E+02 -0.19471110689E+02  0.46142318844E+02  0.10000009871E+02 0.  0.
        -12    1    1    2    0    0  0.14004716084E+02 -0.38129478974E+02  0.19471110689E+02  0.45045681156E+02  0.00000000000E+00 0.  1.
         11    1    3    3    0    0 -0.59539001426E+01  0.13540388782E+02 -0.10365177041E+02  0.18061781491E+02  0.51100000000E-03 0. -1.
        -11    1    3    3    0    0  0.26183220017E+00 -0.15257738738E+00 -0.52359714794E+00  0.60497123456E+00  0.51100000000E-03 0.  1.
        -12    1    3    3    0    0 -0.83126481412E+01  0.24741667579E+02 -0.85823365002E+01  0.27475566118E+02  0.00000000000E+00 0.  1.
</event>
<event>
 7    1  0.4102844E-008  0.4614232E+02  0.7816164E-02  0.1320468E+00
        -11   -1    0    0    0    0  0.00000000000E+00  0.00000000000E+00  0.45593999997E+02  0.45594000000E+02  0.51100000000E-03 0. -1.
         11   -1    0    0    0    0 -0.00000000000E+00 -0.00000000000E+00 -0.45593999997E+02  0.45594000000E+02  0.51100000000E-03 0.  1.
    9900012    2    1    2    0    0  0.22992903282E+02 -0.26154314203E+02  0.28572569123E+02  0.46142318086E+02  0.10000002965E+02 0.  0.
        -12    1    1    2    0    0 -0.22992903282E+02  0.26154314203E+02 -0.28572569123E+02  0.45045681914E+02  0.00000000000E+00 0.  1.
         11    1    3    3    0    0  0.32351935754E+01 -0.28222799477E+01  0.15258063113E+01  0.45562952861E+01  0.51100000000E-03 0. -1.
        -11    1    3    3    0    0  0.13146467710E+02 -0.10974405324E+02  0.11359311298E+02  0.20549966882E+02  0.51100000000E-03 0.  1.
         12    1    3    3    0    0  0.66112419967E+01 -0.12357628932E+02  0.15687451514E+02  0.21036055918E+02  0.00000000000E+00 0. -1.
</event>
<event>
 7    1  0.4102844E-008  0.4614232E+02  0.7816164E-02  0.1320468E+00
        -11   -1    0    0    0    0  0.00000000000E+00  0.00000000000E+00  0.45593999997E+02  0.45594000000E+02  0.51100000000E-03 0. -1.
         11   -1    0    0    0    0 -0.00000000000E+00 -0.00000000000E+00 -0.45593999997E+02  0.45594000000E+02  0.51100000000E-03 0.  1.
    9900012    2    1    2    0    0  0.69071381183E+01 -0.36166760478E+02  0.25949381148E+02  0.46142317605E+02  0.99999985790E+01 0.  0.
        -12    1    1    2    0    0 -0.69071381183E+01  0.36166760478E+02 -0.25949381148E+02  0.45045682395E+02  0.00000000000E+00 0.  1.
         11    1    3    3    0    0  0.52279814674E+01 -0.13245459515E+02  0.92831612969E+01  0.16998560878E+02  0.51100000000E-03 0. -1.
        -11    1    3    3    0    0  0.31035174794E+01 -0.16683941012E+02  0.14696908147E+02  0.22449606183E+02  0.51100000000E-03 0.  1.
        -12    1    3    3    0    0 -0.14243608285E+01 -0.62373599502E+01  0.19693117043E+01  0.66941505441E+01  0.00000000000E+00 0.  1.
</event>
<event>
 7    1  0.4102844E-008  0.4614232E+02  0.7816164E-02  0.1320468E+00
        -11   -1    0    0    0    0  0.00000000000E+00  0.00000000000E+00  0.45593999997E+02  0.45594000000E+02  0.51100000000E-03 0.  1.
         11   -1    0    0    0    0 -0.00000000000E+00 -0.00000000000E+00 -0.45593999997E+02  0.45594000000E+02  0.51100000000E-03 0. -1.
    9900012    2    1    2    0    0  0.59593452632E+01 -0.43264550875E+02  0.11035321199E+02  0.46142317939E+02  0.10000001625E+02 0.  0.
        -12    1    1    2    0    0 -0.59593452632E+01  0.43264550875E+02 -0.11035321199E+02  0.45045682061E+02  0.00000000000E+00 0.  1.
         11    1    3    3    0    0  0.19584179569E+01 -0.31142248096E+02  0.41533804631E+01  0.31478970550E+02  0.51100000000E-03 0. -1.
        -11    1    3    3    0    0  0.24178174973E+01 -0.83657442067E+01  0.35719215453E+01  0.94122336014E+01  0.51100000000E-03 0.  1.
        -12    1    3    3    0    0  0.15831098090E+01 -0.37565585724E+01  0.33100191901E+01  0.52511137880E+01  0.00000000000E+00 0.  1.
</event>
<event>
 7    1  0.4102844E-008  0.4614232E+02  0.7816164E-02  0.1320468E+00
        -11   -1    0    0    0    0  0.00000000000E+00  0.00000000000E+00  0.45593999997E+02  0.45594000000E+02  0.51100000000E-03 0.  1.
         11   -1    0    0    0    0 -0.00000000000E+00 -0.00000000000E+00 -0.45593999997E+02  0.45594000000E+02  0.51100000000E-03 0. -1.
    9900012    2    1    2    0    0  0.26847703601E+02 -0.18872337672E+02 -0.30856915267E+02  0.46142317214E+02  0.99999950148E+01 0.  0.
        -12    1    1    2    0    0 -0.26847703601E+02  0.18872337672E+02  0.30856915267E+02  0.45045682786E+02  0.00000000000E+00 0.  1.
         11    1    3    3    0    0  0.67954712177E+01 -0.62530784581E+01 -0.47629457668E+01  0.10390624231E+02  0.51100000000E-03 0.  1.
        -11    1    3    3    0    0  0.73892500486E+01 -0.56395131488E+01 -0.14474876680E+02  0.17202534116E+02  0.51100000000E-03 0. -1.
         12    1    3    3    0    0  0.12662982335E+02 -0.69797460650E+01 -0.11619092819E+02  0.18549158867E+02  0.00000000000E+00 0. -1.
</event>
<event>
 7    1  0.4102844E-008  0.4614232E+02  0.7816164E-02  0.1320468E+00
        -11   -1    0    0    0    0  0.00000000000E+00  0.00000000000E+00  0.45593999997E+02  0.45594000000E+02  0.51100000000E-03 0.  1.
         11   -1    0    0    0    0 -0.00000000000E+00 -0.00000000000E+00 -0.45593999997E+02  0.45594000000E+02  0.51100000000E-03 0. -1.
    9900012    2    1    2    0    0  0.12977694688E+02  0.19797725312E+02 -0.38324181426E+02  0.46142319087E+02  0.10000012092E+02 0.  0.
        -12    1    1    2    0    0 -0.12977694688E+02 -0.19797725312E+02  0.38324181426E+02  0.45045680913E+02  0.00000000000E+00 0.  1.
         11    1    3    3    0    0  0.60828478497E+01  0.65168066941E+01 -0.14261623780E+02  0.16818552867E+02  0.51100000000E-03 0. -1.
        -11    1    3    3    0    0  0.18362753029E-01  0.31167490104E+01 -0.11321132059E+01  0.33160431476E+01  0.51100000000E-03 0.  1.
        -12    1    3    3    0    0  0.68764840857E+01  0.10164169607E+02 -0.22930444440E+02  0.26007723072E+02  0.00000000000E+00 0.  1.
</event>
<event>
 7    1  0.4102844E-008  0.4614232E+02  0.7816164E-02  0.1320468E+00
        -11   -1    0    0    0    0  0.00000000000E+00  0.00000000000E+00  0.45593999997E+02  0.45594000000E+02  0.51100000000E-03 0.  1.
         11   -1    0    0    0    0 -0.00000000000E+00 -0.00000000000E+00 -0.45593999997E+02  0.45594000000E+02  0.51100000000E-03 0. -1.
    9900012    2    1    2    0    0  0.40517541250E+02  0.91583644897E+01 -0.17423166798E+02  0.46142317296E+02  0.99999957556E+01 0.  0.
        -12    1    1    2    0    0 -0.40517541250E+02 -0.91583644897E+01  0.17423166798E+02  0.45045682704E+02  0.00000000000E+00 0.  1.
         11    1    3    3    0    0  0.16115687582E+02  0.21762908936E+01 -0.36311344897E+01  0.16662435783E+02  0.51100000000E-03 0. -1.
        -11    1    3    3    0    0  0.97113700462E+00 -0.64312684000E+00 -0.16250757713E+01  0.19993975937E+01  0.51100000000E-03 0.  1.
         12    1    3    3    0    0  0.23430716663E+02  0.76252004361E+01 -0.12166956537E+02  0.27480483919E+02  0.00000000000E+00 0. -1.
</event>
<event>
 7    1  0.4102844E-008  0.4614232E+02  0.7816164E-02  0.1320468E+00
        -11   -1    0    0    0    0  0.00000000000E+00  0.00000000000E+00  0.45593999997E+02  0.45594000000E+02  0.51100000000E-03 0.  1.
         11   -1    0    0    0    0 -0.00000000000E+00 -0.00000000000E+00 -0.45593999997E+02  0.45594000000E+02  0.51100000000E-03 0. -1.
    9900012    2    1    2    0    0  0.38501613893E+02 -0.17748773117E+02 -0.15222362508E+02  0.46142317190E+02  0.99999947878E+01 0.  0.
        -12    1    1    2    0    0 -0.38501613893E+02  0.17748773117E+02  0.15222362508E+02  0.45045682810E+02  0.00000000000E+00 0.  1.
         11    1    3    3    0    0  0.11942954049E+01 -0.32212123752E+00  0.54909219597E+00  0.13533684297E+01  0.51100000000E-03 0.  1.
        -11    1    3    3    0    0  0.78790759557E+01 -0.72141870190E+01 -0.53057775516E+01  0.11927933935E+02  0.51100000000E-03 0. -1.
         12    1    3    3    0    0  0.29428242532E+02 -0.10212464861E+02 -0.10465677153E+02  0.32861014825E+02  0.00000000000E+00 0. -1.
</event>
<event>
 7    1  0.4102844E-008  0.4614232E+02  0.7816164E-02  0.1320468E+00
        -11   -1    0    0    0    0  0.00000000000E+00  0.00000000000E+00  0.45593999997E+02  0.45594000000E+02  0.51100000000E-03 0.  1.
         11   -1    0    0    0    0 -0.00000000000E+00 -0.00000000000E+00 -0.45593999997E+02  0.45594000000E+02  0.51100000000E-03 0. -1.
    9900012    2    1    2    0    0  0.29280648768E+02  0.16503345618E+02 -0.29989944316E+02  0.46142316867E+02  0.99999918498E+01 0.  0.
        -12    1    1    2    0    0 -0.29280648768E+02 -0.16503345618E+02  0.29989944316E+02  0.45045683133E+02  0.00000000000E+00 0.  1.
         11    1    3    3    0    0  0.15102606322E+02  0.72323015308E+01 -0.14503979535E+02  0.22153110972E+02  0.51100000000E-03 0. -1.
        -11    1    3    3    0    0  0.81973254619E+01  0.63751270640E+01 -0.13542885538E+02  0.17065993636E+02  0.51100000000E-03 0.  1.
        -12    1    3    3    0    0  0.59807169838E+01  0.28959170229E+01 -0.19430792427E+01  0.69232122593E+01  0.00000000000E+00 0.  1.
</event>
<event>
 7    1  0.4102844E-008  0.4614232E+02  0.7816164E-02  0.1320468E+00
        -11   -1    0    0    0    0  0.00000000000E+00  0.00000000000E+00  0.45593999997E+02  0.45594000000E+02  0.51100000000E-03 0.  1.
         11   -1    0    0    0    0 -0.00000000000E+00 -0.00000000000E+00 -0.45593999997E+02  0.45594000000E+02  0.51100000000E-03 0. -1.
    9900012    2    1    2    0    0 -0.38292938964E+02 -0.23559762826E+02 -0.27752322850E+01  0.46142317486E+02  0.99999974895E+01 0.  0.
        -12    1    1    2    0    0  0.38292938964E+02  0.23559762826E+02  0.27752322850E+01  0.45045682514E+02  0.00000000000E+00 0.  1.
         11    1    3    3    0    0 -0.16575051598E+02 -0.91220223160E+01 -0.48082139843E+01  0.19520823461E+02  0.51100000000E-03 0. -1.
        -11    1    3    3    0    0 -0.21866248296E+02 -0.14542085591E+02  0.17940894977E+01  0.26321546787E+02  0.51100000000E-03 0.  1.
         12    1    3    3    0    0  0.14836092982E+00  0.10434508106E+00  0.23889220167E+00  0.29994723779E+00  0.00000000000E+00 0. -1.
</event>
<event>
 7    1  0.4102844E-008  0.4614232E+02  0.7816164E-02  0.1320468E+00
        -11   -1    0    0    0    0  0.00000000000E+00  0.00000000000E+00  0.45593999997E+02  0.45594000000E+02  0.51100000000E-03 0. -1.
         11   -1    0    0    0    0 -0.00000000000E+00 -0.00000000000E+00 -0.45593999997E+02  0.45594000000E+02  0.51100000000E-03 0.  1.
    9900012    2    1    2    0    0  0.40194520158E+02  0.16947863458E+02  0.11237613297E+02  0.46142317864E+02  0.10000000937E+02 0.  0.
        -12    1    1    2    0    0 -0.40194520158E+02 -0.16947863458E+02 -0.11237613297E+02  0.45045682136E+02  0.00000000000E+00 0.  1.
         11    1    3    3    0    0  0.27013095322E+02  0.15159972462E+02  0.89432139660E+01  0.32241481979E+02  0.51100000000E-03 0. -1.
        -11    1    3    3    0    0  0.78063911276E+01  0.25238361676E+01  0.64071924565E+00  0.82292170254E+01  0.51100000000E-03 0.  1.
         12    1    3    3    0    0  0.53750337079E+01 -0.73594517168E+00  0.16536800856E+01  0.56716188591E+01  0.00000000000E+00 0. -1.
</event>
<event>
 7    1  0.4102844E-008  0.4614232E+02  0.7816164E-02  0.1320468E+00
        -11   -1    0    0    0    0  0.00000000000E+00  0.00000000000E+00  0.45593999997E+02  0.45594000000E+02  0.51100000000E-03 0. -1.
         11   -1    0    0    0    0 -0.00000000000E+00 -0.00000000000E+00 -0.45593999997E+02  0.45594000000E+02  0.51100000000E-03 0.  1.
    9900012    2    1    2    0    0  0.18303317832E+01 -0.34320824008E+02  0.29117767598E+02  0.46142318021E+02  0.10000002374E+02 0.  0.
        -12    1    1    2    0    0 -0.18303317832E+01  0.34320824008E+02 -0.29117767598E+02  0.45045681979E+02  0.00000000000E+00 0.  1.
         11    1    3    3    0    0  0.16244133156E+01 -0.50222871334E+01  0.54437041761E+01  0.75826118250E+01  0.51100000000E-03 0. -1.
        -11    1    3    3    0    0  0.16211119648E+01 -0.13110459718E+02  0.58725687367E+01  0.14456805381E+02  0.51100000000E-03 0.  1.
        -12    1    3    3    0    0 -0.14151934972E+01 -0.16188077157E+02  0.17801494685E+02  0.24102900815E+02  0.00000000000E+00 0.  1.
</event>
<event>
 7    1  0.4102844E-008  0.4614232E+02  0.7816164E-02  0.1320468E+00
        -11   -1    0    0    0    0  0.00000000000E+00  0.00000000000E+00  0.45593999997E+02  0.45594000000E+02  0.51100000000E-03 0. -1.
         11   -1    0    0    0    0 -0.00000000000E+00 -0.00000000000E+00 -0.45593999997E+02  0.45594000000E+02  0.51100000000E-03 0.  1.
    9900012    2    1    2    0    0  0.42292548874E+02  0.13612611810E+02 -0.74263420129E+01  0.46142318228E+02  0.10000004261E+02 0.  0.
        -12    1    1    2    0    0 -0.42292548874E+02 -0.13612611810E+02  0.74263420129E+01  0.45045681772E+02  0.00000000000E+00 0.  1.
         11    1    3    3    0    0  0.58931448434E+01  0.10645776364E+01 -0.28464922529E+01  0.66306108388E+01  0.51100000000E-03 0. -1.
        -11    1    3    3    0    0  0.10204538601E+02  0.13380361182E+01  0.14338094049E+01  0.10391282808E+02  0.51100000000E-03 0.  1.
         12    1    3    3    0    0  0.26194865429E+02  0.11209998056E+02 -0.60136591649E+01  0.29120424582E+02  0.00000000000E+00 0. -1.
</event>
<event>
 7    1  0.4102844E-008  0.4614232E+02  0.7816164E-02  0.1320468E+00
        -11   -1    0    0    0    0  0.00000000000E+00  0.00000000000E+00  0.45593999997E+02  0.45594000000E+02  0.51100000000E-03 0. -1.
         11   -1    0    0    0    0 -0.00000000000E+00 -0.00000000000E+00 -0.45593999997E+02  0.45594000000E+02  0.51100000000E-03 0.  1.
    9900012    2    1    2    0    0 -0.12695207072E+02  0.42160047595E+02  0.95118637411E+01  0.46142318213E+02  0.10000004123E+02 0.  0.
        -12    1    1    2    0    0  0.12695207072E+02 -0.42160047595E+02 -0.95118637411E+01  0.45045681787E+02  0.00000000000E+00 0.  1.
         11    1    3    3    0    0 -0.42381453899E+01  0.17541896266E+02  0.15109373463E+01  0.18109746903E+02  0.51100000000E-03 0. -1.
        -11    1    3    3    0    0 -0.63456742057E+01  0.13319589072E+02  0.74425994020E+01  0.16524869751E+02  0.51100000000E-03 0.  1.
        -12    1    3    3    0    0 -0.21113874763E+01  0.11298562257E+02  0.55832699274E+00  0.11507701559E+02  0.00000000000E+00 0.  1.
</event>
<event>
 7    1  0.4102844E-008  0.4614232E+02  0.7816164E-02  0.1320468E+00
        -11   -1    0    0    0    0  0.00000000000E+00  0.00000000000E+00  0.45593999997E+02  0.45594000000E+02  0.51100000000E-03 0.  1.
         11   -1    0    0    0    0 -0.00000000000E+00 -0.00000000000E+00 -0.45593999997E+02  0.45594000000E+02  0.51100000000E-03 0. -1.
    9900012    2    1    2    0    0  0.20953520956E+02  0.49996112081E+01 -0.39560932322E+02  0.46142317422E+02  0.99999969118E+01 0.  0.
        -12    1    1    2    0    0 -0.20953520956E+02 -0.49996112081E+01  0.39560932322E+02  0.45045682578E+02  0.00000000000E+00 0.  1.
         11    1    3    3    0    0  0.82553081195E+01  0.50882259775E+01 -0.12671609162E+02  0.15956498199E+02  0.51100000000E-03 0. -1.
        -11    1    3    3    0    0  0.28146559677E+01  0.18251617292E+01 -0.42919347676E+01  0.54474037729E+01  0.51100000000E-03 0.  1.
        -12    1    3    3    0    0  0.98835568683E+01 -0.19137764986E+01 -0.22597388392E+02  0.24738415451E+02  0.00000000000E+00 0.  1.
</event>
<event>
 7    1  0.4102844E-008  0.4614232E+02  0.7816164E-02  0.1320468E+00
        -11   -1    0    0    0    0  0.00000000000E+00  0.00000000000E+00  0.45593999997E+02  0.45594000000E+02  0.51100000000E-03 0. -1.
         11   -1    0    0    0    0 -0.00000000000E+00 -0.00000000000E+00 -0.45593999997E+02  0.45594000000E+02  0.51100000000E-03 0.  1.
    9900012    2    1    2    0    0  0.40316193029E+02 -0.11220799217E+02 -0.16667687591E+02  0.46142316910E+02  0.99999922405E+01 0.  0.
        -12    1    1    2    0    0 -0.40316193029E+02  0.11220799217E+02  0.16667687591E+02  0.45045683090E+02  0.00000000000E+00 0.  1.
         11    1    3    3    0    0  0.22548097480E+02 -0.68194165585E+01 -0.94417204628E+01  0.25378479618E+02  0.51100000000E-03 0. -1.
        -11    1    3    3    0    0  0.17424782610E+02 -0.54245252826E+01 -0.73569378280E+01  0.19676713598E+02  0.51100000000E-03 0.  1.
        -12    1    3    3    0    0  0.34331293954E+00  0.10231426240E+01  0.13097070031E+00  0.10871236948E+01  0.00000000000E+00 0.  1.
</event>
<event>
 7    1  0.4102844E-008  0.4614232E+02  0.7816164E-02  0.1320468E+00
        -11   -1    0    0    0    0  0.00000000000E+00  0.00000000000E+00  0.45593999997E+02  0.45594000000E+02  0.51100000000E-03 0.  1.
         11   -1    0    0    0    0 -0.00000000000E+00 -0.00000000000E+00 -0.45593999997E+02  0.45594000000E+02  0.51100000000E-03 0. -1.
    9900012    2    1    2    0    0  0.41117946959E+02 -0.15756051865E+02 -0.94960418006E+01  0.46142317161E+02  0.99999945291E+01 0.  0.
        -12    1    1    2    0    0 -0.41117946959E+02  0.15756051865E+02  0.94960418006E+01  0.45045682839E+02  0.00000000000E+00 0.  1.
         11    1    3    3    0    0  0.92991211588E+01 -0.35699513180E+01 -0.10763073520E+00  0.99614151292E+01  0.51100000000E-03 0.  1.
        -11    1    3    3    0    0  0.26707697296E+02 -0.12364304614E+02 -0.98754140087E+01  0.31043532750E+02  0.51100000000E-03 0. -1.
        -12    1    3    3    0    0  0.51111285043E+01  0.17820406715E+00  0.48700294331E+00  0.51373692824E+01  0.00000000000E+00 0.  1.
</event>
<event>
 7    1  0.4102844E-008  0.4614232E+02  0.7816164E-02  0.1320468E+00
        -11   -1    0    0    0    0  0.00000000000E+00  0.00000000000E+00  0.45593999997E+02  0.45594000000E+02  0.51100000000E-03 0.  1.
         11   -1    0    0    0    0 -0.00000000000E+00 -0.00000000000E+00 -0.45593999997E+02  0.45594000000E+02  0.51100000000E-03 0. -1.
    9900012    2    1    2    0    0  0.40172177114E+02 -0.16545770840E+02 -0.11897364879E+02  0.46142316102E+02  0.99999848686E+01 0.  0.
        -12    1    1    2    0    0 -0.40172177114E+02  0.16545770840E+02  0.11897364879E+02  0.45045683898E+02  0.00000000000E+00 0.  1.
         11    1    3    3    0    0  0.10682678445E+02 -0.14971756618E+01  0.28131260360E+00  0.10790750241E+02  0.51100000000E-03 0. -1.
        -11    1    3    3    0    0  0.17903142261E+01 -0.34912974560E+00 -0.52338229836E+00  0.18976421946E+01  0.51100000000E-03 0.  1.
        -12    1    3    3    0    0  0.27699184443E+02 -0.14699465433E+02 -0.11655295184E+02  0.33453923666E+02  0.00000000000E+00 0.  1.
</event>
<event>
 7    1  0.4102844E-008  0.4614232E+02  0.7816164E-02  0.1320468E+00
        -11   -1    0    0    0    0  0.00000000000E+00  0.00000000000E+00  0.45593999997E+02  0.45594000000E+02  0.51100000000E-03 0.  1.
         11   -1    0    0    0    0 -0.00000000000E+00 -0.00000000000E+00 -0.45593999997E+02  0.45594000000E+02  0.51100000000E-03 0. -1.
    9900012    2    1    2    0    0  0.40654368061E+02  0.17960612924E+02 -0.73315880091E+01  0.46142318278E+02  0.10000004712E+02 0.  0.
        -12    1    1    2    0    0 -0.40654368061E+02 -0.17960612924E+02  0.73315880091E+01  0.45045681722E+02  0.00000000000E+00 0.  1.
         11    1    3    3    0    0  0.58501371432E+01  0.18071984793E+01  0.90552932628E+00  0.61895116576E+01  0.51100000000E-03 0.  1.
        -11    1    3    3    0    0  0.23835679670E+02  0.95888394921E+01 -0.21137204079E+01  0.25778930978E+02  0.51100000000E-03 0. -1.
         12    1    3    3    0    0  0.10968551248E+02  0.65645749530E+01 -0.61233969275E+01  0.14173875643E+02  0.00000000000E+00 0. -1.
</event>
<event>
 7    1  0.4102844E-008  0.4614232E+02  0.7816164E-02  0.1320468E+00
        -11   -1    0    0    0    0  0.00000000000E+00  0.00000000000E+00  0.45593999997E+02  0.45594000000E+02  0.51100000000E-03 0.  1.
         11   -1    0    0    0    0 -0.00000000000E+00 -0.00000000000E+00 -0.45593999997E+02  0.45594000000E+02  0.51100000000E-03 0. -1.
    9900012    2    1    2    0    0  0.11892143175E+02 -0.41805298214E+02 -0.11832474496E+02  0.46142317845E+02  0.10000000768E+02 0.  0.
        -12    1    1    2    0    0 -0.11892143175E+02  0.41805298214E+02  0.11832474496E+02  0.45045682155E+02  0.00000000000E+00 0.  1.
         11    1    3    3    0    0  0.12192102349E+00 -0.53319103226E+01 -0.19294087912E+01  0.56715739410E+01  0.51100000000E-03 0. -1.
        -11    1    3    3    0    0  0.84010844870E+01 -0.20287050753E+02 -0.17249012194E+01  0.22025392921E+02  0.51100000000E-03 0.  1.
        -12    1    3    3    0    0  0.33691376647E+01 -0.16186337138E+02 -0.81781644859E+01  0.18445350984E+02  0.00000000000E+00 0.  1.
</event>
<event>
 7    1  0.4102844E-008  0.4614232E+02  0.7816164E-02  0.1320468E+00
        -11   -1    0    0    0    0  0.00000000000E+00  0.00000000000E+00  0.45593999997E+02  0.45594000000E+02  0.51100000000E-03 0.  1.
         11   -1    0    0    0    0 -0.00000000000E+00 -0.00000000000E+00 -0.45593999997E+02  0.45594000000E+02  0.51100000000E-03 0. -1.
    9900012    2    1    2    0    0  0.79692551143E+01  0.79298354645E+01 -0.43620204181E+02  0.46142317295E+02  0.99999957524E+01 0.  0.
        -12    1    1    2    0    0 -0.79692551143E+01 -0.79298354645E+01  0.43620204181E+02  0.45045682705E+02  0.00000000000E+00 0.  1.
         11    1    3    3    0    0  0.21189378182E+00 -0.15065572260E-01 -0.37069887889E+01  0.37130704394E+01  0.51100000000E-03 0. -1.
        -11    1    3    3    0    0  0.87317134373E+01  0.32204195325E+01 -0.22221806221E+02  0.24091961180E+02  0.51100000000E-03 0.  1.
        -12    1    3    3    0    0 -0.97435210479E+00  0.47244815043E+01 -0.17691409171E+02  0.18337285676E+02  0.00000000000E+00 0.  1.
</event>
<event>
 7    1  0.4102844E-008  0.4614231E+02  0.7816164E-02  0.1320468E+00
        -11   -1    0    0    0    0  0.00000000000E+00  0.00000000000E+00  0.45593999997E+02  0.45594000000E+02  0.51100000000E-03 0.  1.
         11   -1    0    0    0    0 -0.00000000000E+00 -0.00000000000E+00 -0.45593999997E+02  0.45594000000E+02  0.51100000000E-03 0. -1.
    9900012    2    1    2    0    0  0.12865288547E+02  0.12930951929E+02 -0.41187238075E+02  0.46142314886E+02  0.99999737808E+01 0.  0.
        -12    1    1    2    0    0 -0.12865288547E+02 -0.12930951929E+02  0.41187238075E+02  0.45045685114E+02  0.00000000000E+00 0.  1.
         11    1    3    3    0    0  0.31612423708E+01  0.29044266385E+01 -0.44367754265E+01  0.61736637317E+01  0.51100000000E-03 0.  1.
        -11    1    3    3    0    0  0.57187684764E+01  0.97108392889E+01 -0.30826798848E+02  0.32822191274E+02  0.51100000000E-03 0. -1.
         12    1    3    3    0    0  0.39852776996E+01  0.31568600163E+00 -0.59236638003E+01  0.71464598798E+01  0.00000000000E+00 0. -1.
</event>
<event>
 7    1  0.4102844E-008  0.4614232E+02  0.7816164E-02  0.1320468E+00
        -11   -1    0    0    0    0  0.00000000000E+00  0.00000000000E+00  0.45593999997E+02  0.45594000000E+02  0.51100000000E-03 0. -1.
         11   -1    0    0    0    0 -0.00000000000E+00 -0.00000000000E+00 -0.45593999997E+02  0.45594000000E+02  0.51100000000E-03 0.  1.
    9900012    2    1    2    0    0 -0.42591346073E+02 -0.13427037426E+02 -0.58996162337E+01  0.46142316899E+02  0.99999921365E+01 0.  0.
        -12    1    1    2    0    0  0.42591346073E+02  0.13427037426E+02  0.58996162337E+01  0.45045683101E+02  0.00000000000E+00 0.  1.
         11    1    3    3    0    0  0.20012352690E+00 -0.37684230044E+00  0.14945013884E+00  0.45210081900E+00  0.51100000000E-03 0. -1.
        -11    1    3    3    0    0 -0.16079086674E+02 -0.18650807898E+01 -0.44276826043E+00  0.16192949040E+02  0.51100000000E-03 0.  1.
         12    1    3    3    0    0 -0.26712382926E+02 -0.11185114336E+02 -0.56062981122E+01  0.29497267040E+02  0.00000000000E+00 0. -1.
</event>
<event>
 7    1  0.4102844E-008  0.4614232E+02  0.7816164E-02  0.1320468E+00
        -11   -1    0    0    0    0  0.00000000000E+00  0.00000000000E+00  0.45593999997E+02  0.45594000000E+02  0.51100000000E-03 0.  1.
         11   -1    0    0    0    0 -0.00000000000E+00 -0.00000000000E+00 -0.45593999997E+02  0.45594000000E+02  0.51100000000E-03 0. -1.
    9900012    2    1    2    0    0  0.15476163289E+02  0.34962524463E+02 -0.23816461234E+02  0.46142316825E+02  0.99999914657E+01 0.  0.
        -12    1    1    2    0    0 -0.15476163289E+02 -0.34962524463E+02  0.23816461234E+02  0.45045683175E+02  0.00000000000E+00 0.  1.
         11    1    3    3    0    0  0.12537412812E+02  0.21848135183E+02 -0.15712717588E+02  0.29688671665E+02  0.51100000000E-03 0. -1.
        -11    1    3    3    0    0  0.21326445317E+01  0.32683347655E+01 -0.44544091458E+01  0.59221572030E+01  0.51100000000E-03 0.  1.
        -12    1    3    3    0    0  0.80610594587E+00  0.98460545140E+01 -0.36493345006E+01  0.10531487957E+02  0.00000000000E+00 0.  1.
</event>
<event>
 7    1  0.4102844E-008  0.4614232E+02  0.7816164E-02  0.1320468E+00
        -11   -1    0    0    0    0  0.00000000000E+00  0.00000000000E+00  0.45593999997E+02  0.45594000000E+02  0.51100000000E-03 0. -1.
         11   -1    0    0    0    0 -0.00000000000E+00 -0.00000000000E+00 -0.45593999997E+02  0.45594000000E+02  0.51100000000E-03 0.  1.
    9900012    2    1    2    0    0  0.39693876081E+02  0.21196449322E+02 -0.20543031605E+01  0.46142318480E+02  0.10000006551E+02 0.  0.
        -12    1    1    2    0    0 -0.39693876081E+02 -0.21196449322E+02  0.20543031605E+01  0.45045681520E+02  0.00000000000E+00 0.  1.
         11    1    3    3    0    0  0.67779326662E+01  0.42766246539E+01 -0.47671269768E+00  0.80285207177E+01  0.51100000000E-03 0. -1.
        -11    1    3    3    0    0  0.26965182318E+02  0.16592358132E+02  0.86490573025E+00  0.31672945364E+02  0.51100000000E-03 0.  1.
        -12    1    3    3    0    0  0.59507610964E+01  0.32746653571E+00 -0.24424961931E+01  0.64408523979E+01  0.00000000000E+00 0.  1.
</event>
<event>
 7    1  0.4102844E-008  0.4614232E+02  0.7816164E-02  0.1320468E+00
        -11   -1    0    0    0    0  0.00000000000E+00  0.00000000000E+00  0.45593999997E+02  0.45594000000E+02  0.51100000000E-03 0. -1.
         11   -1    0    0    0    0 -0.00000000000E+00 -0.00000000000E+00 -0.45593999997E+02  0.45594000000E+02  0.51100000000E-03 0.  1.
    9900012    2    1    2    0    0 -0.43299226285E+02  0.42094352271E+01  0.11686366719E+02  0.46142317533E+02  0.99999979240E+01 0.  0.
        -12    1    1    2    0    0  0.43299226285E+02 -0.42094352271E+01 -0.11686366719E+02  0.45045682467E+02  0.00000000000E+00 0.  1.
         11    1    3    3    0    0 -0.14072345742E+01 -0.47275800705E+00  0.16435473695E+01  0.22147364396E+01  0.51100000000E-03 0. -1.
        -11    1    3    3    0    0 -0.64914751810E+01 -0.17000225165E+01  0.59744871051E+00  0.67369334126E+01  0.51100000000E-03 0.  1.
         12    1    3    3    0    0 -0.35400516530E+02  0.63822157507E+01  0.94453706386E+01  0.37190647681E+02  0.00000000000E+00 0. -1.
</event>
<event>
 7    1  0.4102844E-008  0.4614232E+02  0.7816164E-02  0.1320468E+00
        -11   -1    0    0    0    0  0.00000000000E+00  0.00000000000E+00  0.45593999997E+02  0.45594000000E+02  0.51100000000E-03 0. -1.
         11   -1    0    0    0    0 -0.00000000000E+00 -0.00000000000E+00 -0.45593999997E+02  0.45594000000E+02  0.51100000000E-03 0.  1.
    9900012    2    1    2    0    0  0.85287331151E+01  0.43961604423E+02  0.48735579541E+01  0.46142317420E+02  0.99999968880E+01 0.  0.
        -12    1    1    2    0    0 -0.85287331151E+01 -0.43961604423E+02 -0.48735579541E+01  0.45045682580E+02  0.00000000000E+00 0.  1.
         11    1    3    3    0    0  0.31020294185E+01  0.28178333942E+02  0.23865929477E+01  0.28448847365E+02  0.51100000000E-03 0. -1.
        -11    1    3    3    0    0  0.29239574219E+01  0.11752390958E+02 -0.43995210108E+00  0.12118654147E+02  0.51100000000E-03 0.  1.
        -12    1    3    3    0    0  0.25027462747E+01  0.40308795235E+01  0.29269171075E+01  0.55748159075E+01  0.00000000000E+00 0.  1.
</event>
<event>
 7    1  0.4102844E-008  0.4614232E+02  0.7816164E-02  0.1320468E+00
        -11   -1    0    0    0    0  0.00000000000E+00  0.00000000000E+00  0.45593999997E+02  0.45594000000E+02  0.51100000000E-03 0.  1.
         11   -1    0    0    0    0 -0.00000000000E+00 -0.00000000000E+00 -0.45593999997E+02  0.45594000000E+02  0.51100000000E-03 0. -1.
    9900012    2    1    2    0    0  0.14291837161E+01 -0.31496016537E+01 -0.44912704220E+02  0.46142316999E+02  0.99999930498E+01 0.  0.
        -12    1    1    2    0    0 -0.14291837161E+01  0.31496016537E+01  0.44912704220E+02  0.45045683001E+02  0.00000000000E+00 0.  1.
         11    1    3    3    0    0  0.13363417623E+01 -0.79587633461E+00 -0.25233406067E+02  0.25281297641E+02  0.51100000000E-03 0.  1.
        -11    1    3    3    0    0 -0.46652596326E+00 -0.10434440630E+01 -0.19369303276E+02  0.19402998006E+02  0.51100000000E-03 0. -1.
        -12    1    3    3    0    0  0.55936791700E+00 -0.13102812561E+01 -0.30999487791E+00  0.14580213514E+01  0.00000000000E+00 0.  1.
</event>
<event>
 7    1  0.4102844E-008  0.4614232E+02  0.7816164E-02  0.1320468E+00
        -11   -1    0    0    0    0  0.00000000000E+00  0.00000000000E+00  0.45593999997E+02  0.45594000000E+02  0.51100000000E-03 0.  1.
         11   -1    0    0    0    0 -0.00000000000E+00 -0.00000000000E+00 -0.45593999997E+02  0.45594000000E+02  0.51100000000E-03 0. -1.
    9900012    2    1    2    0    0  0.29900192703E+02  0.23006511078E+02 -0.24612851726E+02  0.46142317125E+02  0.99999941965E+01 0.  0.
        -12    1    1    2    0    0 -0.29900192703E+02 -0.23006511078E+02  0.24612851726E+02  0.45045682875E+02  0.00000000000E+00 0.  1.
         11    1    3    3    0    0  0.62730507933E+01  0.68929017367E+01 -0.87610119773E+01  0.12791348316E+02  0.51100000000E-03 0. -1.
        -11    1    3    3    0    0  0.88108437589E+01  0.24279687313E+01 -0.56922914328E+01  0.10766995027E+02  0.51100000000E-03 0.  1.
         12    1    3    3    0    0  0.14816298151E+02  0.13685640610E+02 -0.10159548316E+02  0.22583973782E+02  0.00000000000E+00 0. -1.
</event>
<event>
 7    1  0.4102844E-008  0.4614232E+02  0.7816164E-02  0.1320468E+00
        -11   -1    0    0    0    0  0.00000000000E+00  0.00000000000E+00  0.45593999997E+02  0.45594000000E+02  0.51100000000E-03 0. -1.
         11   -1    0    0    0    0 -0.00000000000E+00 -0.00000000000E+00 -0.45593999997E+02  0.45594000000E+02  0.51100000000E-03 0.  1.
    9900012    2    1    2    0    0  0.37599957363E+02 -0.14216090621E+02  0.20328782203E+02  0.46142318608E+02  0.10000007720E+02 0.  0.
        -12    1    1    2    0    0 -0.37599957363E+02  0.14216090621E+02 -0.20328782203E+02  0.45045681392E+02  0.00000000000E+00 0.  1.
         11    1    3    3    0    0  0.63247280021E+01 -0.39710438842E+00  0.16907799849E+01  0.65588576303E+01  0.51100000000E-03 0. -1.
        -11    1    3    3    0    0  0.52068578979E+01 -0.38529788570E+01  0.64127073240E+01  0.91148028353E+01  0.51100000000E-03 0.  1.
        -12    1    3    3    0    0  0.26068371463E+02 -0.99660073758E+01  0.12225294894E+02  0.30468658142E+02  0.00000000000E+00 0.  1.
</event>
<event>
 7    1  0.4102844E-008  0.4614232E+02  0.7816164E-02  0.1320468E+00
        -11   -1    0    0    0    0  0.00000000000E+00  0.00000000000E+00  0.45593999997E+02  0.45594000000E+02  0.51100000000E-03 0.  1.
         11   -1    0    0    0    0 -0.00000000000E+00 -0.00000000000E+00 -0.45593999997E+02  0.45594000000E+02  0.51100000000E-03 0. -1.
    9900012    2    1    2    0    0  0.25843188498E+02  0.92741429075E+01 -0.35710409697E+02  0.46142317864E+02  0.10000000937E+02 0.  0.
        -12    1    1    2    0    0 -0.25843188498E+02 -0.92741429075E+01  0.35710409697E+02  0.45045682136E+02  0.00000000000E+00 0.  1.
         11    1    3    3    0    0 -0.11135283283E+00  0.10341488275E+01 -0.31160833110E+00  0.10858007478E+01  0.51100000000E-03 0. -1.
        -11    1    3    3    0    0  0.70713764655E+01  0.34435177479E+01 -0.64993012577E+01  0.10203092507E+02  0.51100000000E-03 0.  1.
         12    1    3    3    0    0  0.18883164865E+02  0.47964763321E+01 -0.28899500108E+02  0.34853424610E+02  0.00000000000E+00 0. -1.
</event>
<event>
 7    1  0.4102844E-008  0.4614232E+02  0.7816164E-02  0.1320468E+00
        -11   -1    0    0    0    0  0.00000000000E+00  0.00000000000E+00  0.45593999997E+02  0.45594000000E+02  0.51100000000E-03 0.  1.
         11   -1    0    0    0    0 -0.00000000000E+00 -0.00000000000E+00 -0.45593999997E+02  0.45594000000E+02  0.51100000000E-03 0. -1.
    9900012    2    1    2    0    0  0.27793491369E+02  0.29020796960E+02 -0.20357517933E+02  0.46142319241E+02  0.10000013493E+02 0.  0.
        -12    1    1    2    0    0 -0.27793491369E+02 -0.29020796960E+02  0.20357517933E+02  0.45045680759E+02  0.00000000000E+00 0.  1.
         11    1    3    3    0    0  0.93011193549E+01  0.15911483479E+02 -0.11472389322E+02  0.21709487437E+02  0.51100000000E-03 0. -1.
        -11    1    3    3    0    0  0.84914707237E+01  0.69137519807E+01 -0.50547164550E+01  0.12060480928E+02  0.51100000000E-03 0.  1.
         12    1    3    3    0    0  0.10000901290E+02  0.61955615004E+01 -0.38304121555E+01  0.12372350876E+02  0.00000000000E+00 0. -1.
</event>
<event>
 7    1  0.4102844E-008  0.4614232E+02  0.7816164E-02  0.1320468E+00
        -11   -1    0    0    0    0  0.00000000000E+00  0.00000000000E+00  0.45593999997E+02  0.45594000000E+02  0.51100000000E-03 0.  1.
         11   -1    0    0    0    0 -0.00000000000E+00 -0.00000000000E+00 -0.45593999997E+02  0.45594000000E+02  0.51100000000E-03 0. -1.
    9900012    2    1    2    0    0 -0.19492969778E+02  0.92924089525E+01 -0.39532123158E+02  0.46142317673E+02  0.99999991952E+01 0.  0.
        -12    1    1    2    0    0  0.19492969778E+02 -0.92924089525E+01  0.39532123158E+02  0.45045682327E+02  0.00000000000E+00 0.  1.
         11    1    3    3    0    0 -0.17630982609E+01  0.30506647808E+01 -0.39847655822E+01  0.53191567084E+01  0.51100000000E-03 0. -1.
        -11    1    3    3    0    0 -0.49722954918E+00 -0.10124797175E+01 -0.86315378109E+00  0.14203475328E+01  0.51100000000E-03 0.  1.
         12    1    3    3    0    0 -0.17232641968E+02  0.72542238893E+01 -0.34684203795E+02  0.39402813432E+02  0.00000000000E+00 0. -1.
</event>
<event>
 7    1  0.4102844E-008  0.4614232E+02  0.7816164E-02  0.1320468E+00
        -11   -1    0    0    0    0  0.00000000000E+00  0.00000000000E+00  0.45593999997E+02  0.45594000000E+02  0.51100000000E-03 0.  1.
         11   -1    0    0    0    0 -0.00000000000E+00 -0.00000000000E+00 -0.45593999997E+02  0.45594000000E+02  0.51100000000E-03 0. -1.
    9900012    2    1    2    0    0 -0.27458776013E+02 -0.19140971313E+02 -0.30145519013E+02  0.46142317860E+02  0.10000000899E+02 0.  0.
        -12    1    1    2    0    0  0.27458776013E+02  0.19140971313E+02  0.30145519013E+02  0.45045682140E+02  0.00000000000E+00 0.  1.
         11    1    3    3    0    0 -0.11518736145E+02 -0.86398661351E+01 -0.14303148619E+02  0.20295532264E+02  0.51100000000E-03 0. -1.
        -11    1    3    3    0    0  0.74395945743E-01  0.70472648683E+00 -0.13143657386E+01  0.14932286275E+01  0.51100000000E-03 0.  1.
        -12    1    3    3    0    0 -0.16014435814E+02 -0.11205831664E+02 -0.14528004655E+02  0.24353556968E+02  0.00000000000E+00 0.  1.
</event>
<event>
 7    1  0.4102844E-008  0.4614232E+02  0.7816164E-02  0.1320468E+00
        -11   -1    0    0    0    0  0.00000000000E+00  0.00000000000E+00  0.45593999997E+02  0.45594000000E+02  0.51100000000E-03 0.  1.
         11   -1    0    0    0    0 -0.00000000000E+00 -0.00000000000E+00 -0.45593999997E+02  0.45594000000E+02  0.51100000000E-03 0. -1.
    9900012    2    1    2    0    0  0.29032259413E+02 -0.64436912823E+01 -0.33833712917E+02  0.46142319033E+02  0.10000011601E+02 0.  0.
        -12    1    1    2    0    0 -0.29032259413E+02  0.64436912823E+01  0.33833712917E+02  0.45045680967E+02  0.00000000000E+00 0.  1.
         11    1    3    3    0    0  0.13901957681E+02 -0.61011154420E+01 -0.15968944312E+02  0.22033956062E+02  0.51100000000E-03 0.  1.
        -11    1    3    3    0    0  0.56580435967E+01 -0.28452630494E+01 -0.60327868409E+01  0.87466277211E+01  0.51100000000E-03 0. -1.
        -12    1    3    3    0    0  0.94722581351E+01  0.25026872092E+01 -0.11831981764E+02  0.15361735251E+02  0.00000000000E+00 0.  1.
</event>
<event>
 7    1  0.4102844E-008  0.4614232E+02  0.7816164E-02  0.1320468E+00
        -11   -1    0    0    0    0  0.00000000000E+00  0.00000000000E+00  0.45593999997E+02  0.45594000000E+02  0.51100000000E-03 0. -1.
         11   -1    0    0    0    0 -0.00000000000E+00 -0.00000000000E+00 -0.45593999997E+02  0.45594000000E+02  0.51100000000E-03 0.  1.
    9900012    2    1    2    0    0  0.24938505318E+02  0.35399590532E+02  0.12411824448E+02  0.46142318260E+02  0.10000004550E+02 0.  0.
        -12    1    1    2    0    0 -0.24938505318E+02 -0.35399590532E+02 -0.12411824448E+02  0.45045681740E+02  0.00000000000E+00 0.  1.
         11    1    3    3    0    0  0.15806369463E+02  0.20828924704E+02  0.81090119198E+01  0.27375929107E+02  0.51100000000E-03 0. -1.
        -11    1    3    3    0    0  0.31129567900E+01  0.53953883923E+01  0.46725204044E+01  0.77867299343E+01  0.51100000000E-03 0.  1.
         12    1    3    3    0    0  0.60191790652E+01  0.91752774354E+01 -0.36970787662E+00  0.10979659218E+02  0.00000000000E+00 0. -1.
</event>
<event>
 7    1  0.4102844E-008  0.4614232E+02  0.7816164E-02  0.1320468E+00
        -11   -1    0    0    0    0  0.00000000000E+00  0.00000000000E+00  0.45593999997E+02  0.45594000000E+02  0.51100000000E-03 0.  1.
         11   -1    0    0    0    0 -0.00000000000E+00 -0.00000000000E+00 -0.45593999997E+02  0.45594000000E+02  0.51100000000E-03 0. -1.
    9900012    2    1    2    0    0 -0.31671940485E+01  0.35466615633E+02 -0.27589881476E+02  0.46142317605E+02  0.99999985783E+01 0.  0.
        -12    1    1    2    0    0  0.31671940485E+01 -0.35466615633E+02  0.27589881476E+02  0.45045682395E+02  0.00000000000E+00 0.  1.
         11    1    3    3    0    0 -0.23546765968E+00  0.35528893427E+01 -0.46713496847E+01  0.58736680054E+01  0.51100000000E-03 0. -1.
        -11    1    3    3    0    0 -0.12309246070E+01  0.19059544772E+01 -0.44415972737E+01  0.49875469382E+01  0.51100000000E-03 0.  1.
         12    1    3    3    0    0 -0.17008017818E+01  0.30007771813E+02 -0.18476934517E+02  0.35281102662E+02  0.00000000000E+00 0. -1.
</event>
<event>
 7    1  0.4102844E-008  0.4614232E+02  0.7816164E-02  0.1320468E+00
        -11   -1    0    0    0    0  0.00000000000E+00  0.00000000000E+00  0.45593999997E+02  0.45594000000E+02  0.51100000000E-03 0.  1.
         11   -1    0    0    0    0 -0.00000000000E+00 -0.00000000000E+00 -0.45593999997E+02  0.45594000000E+02  0.51100000000E-03 0. -1.
    9900012    2    1    2    0    0 -0.18447743460E+02 -0.10958583714E+01 -0.41080328027E+02  0.46142317686E+02  0.99999993119E+01 0.  0.
        -12    1    1    2    0    0  0.18447743460E+02  0.10958583714E+01  0.41080328027E+02  0.45045682314E+02  0.00000000000E+00 0.  1.
         11    1    3    3    0    0 -0.11252545422E+02 -0.33496262679E+01 -0.23257770344E+02  0.26053093026E+02  0.51100000000E-03 0. -1.
        -11    1    3    3    0    0 -0.43533588509E+01 -0.11582456405E+01 -0.11606227665E+02  0.12449810726E+02  0.51100000000E-03 0.  1.
         12    1    3    3    0    0 -0.28418391878E+01  0.34120135370E+01 -0.62163300183E+01  0.76394139332E+01  0.00000000000E+00 0. -1.
</event>
<event>
 7    1  0.4102844E-008  0.4614232E+02  0.7816164E-02  0.1320468E+00
        -11   -1    0    0    0    0  0.00000000000E+00  0.00000000000E+00  0.45593999997E+02  0.45594000000E+02  0.51100000000E-03 0.  1.
         11   -1    0    0    0    0 -0.00000000000E+00 -0.00000000000E+00 -0.45593999997E+02  0.45594000000E+02  0.51100000000E-03 0. -1.
    9900012    2    1    2    0    0 -0.20836312500E+02  0.38363964806E+02 -0.11098085934E+02  0.46142320677E+02  0.10000026589E+02 0.  0.
        -12    1    1    2    0    0  0.20836312500E+02 -0.38363964806E+02  0.11098085934E+02  0.45045679323E+02  0.00000000000E+00 0.  1.
         11    1    3    3    0    0 -0.67993421172E+01  0.11149636671E+02 -0.66302785992E+01  0.14646024911E+02  0.51100000000E-03 0. -1.
        -11    1    3    3    0    0 -0.83076910216E+01  0.10223484799E+02 -0.82470112029E+00  0.13199147842E+02  0.51100000000E-03 0.  1.
        -12    1    3    3    0    0 -0.57292793617E+01  0.16990843336E+02 -0.36431062143E+01  0.18297147924E+02  0.00000000000E+00 0.  1.
</event>
<event>
 7    1  0.4102844E-008  0.4614232E+02  0.7816164E-02  0.1320468E+00
        -11   -1    0    0    0    0  0.00000000000E+00  0.00000000000E+00  0.45593999997E+02  0.45594000000E+02  0.51100000000E-03 0. -1.
         11   -1    0    0    0    0 -0.00000000000E+00 -0.00000000000E+00 -0.45593999997E+02  0.45594000000E+02  0.51100000000E-03 0.  1.
    9900012    2    1    2    0    0  0.21836086279E+02  0.36918573334E+02  0.13759270236E+02  0.46142320535E+02  0.10000025293E+02 0.  0.
        -12    1    1    2    0    0 -0.21836086279E+02 -0.36918573334E+02 -0.13759270236E+02  0.45045679465E+02  0.00000000000E+00 0.  1.
         11    1    3    3    0    0  0.78052892943E+01  0.91776763114E+01  0.53742925729E+01  0.13192244099E+02  0.51100000000E-03 0. -1.
        -11    1    3    3    0    0  0.14726532946E+02  0.27024915089E+02  0.76586551093E+01  0.31715482126E+02  0.51100000000E-03 0.  1.
        -12    1    3    3    0    0 -0.69573596060E+00  0.71598193394E+00  0.72632255422E+00  0.12345943096E+01  0.00000000000E+00 0.  1.
</event>
<event>
 7    1  0.4102844E-008  0.4614232E+02  0.7816164E-02  0.1320468E+00
        -11   -1    0    0    0    0  0.00000000000E+00  0.00000000000E+00  0.45593999997E+02  0.45594000000E+02  0.51100000000E-03 0. -1.
         11   -1    0    0    0    0 -0.00000000000E+00 -0.00000000000E+00 -0.45593999997E+02  0.45594000000E+02  0.51100000000E-03 0.  1.
    9900012    2    1    2    0    0 -0.19544578621E+02 -0.31734330641E+02  0.25299311046E+02  0.46142318364E+02  0.10000005493E+02 0.  0.
        -12    1    1    2    0    0  0.19544578621E+02  0.31734330641E+02 -0.25299311046E+02  0.45045681636E+02  0.00000000000E+00 0.  1.
         11    1    3    3    0    0 -0.43096731429E+01 -0.77238964899E+01  0.39770591106E+01  0.96978790989E+01  0.51100000000E-03 0. -1.
        -11    1    3    3    0    0 -0.10925786717E+02 -0.12535132390E+02  0.83864800326E+01  0.18623517579E+02  0.51100000000E-03 0.  1.
         12    1    3    3    0    0 -0.43091187605E+01 -0.11475301761E+02  0.12935771902E+02  0.17820921685E+02  0.00000000000E+00 0. -1.
</event>
<event>
 7    1  0.4102844E-008  0.4614232E+02  0.7816164E-02  0.1320468E+00
        -11   -1    0    0    0    0  0.00000000000E+00  0.00000000000E+00  0.45593999997E+02  0.45594000000E+02  0.51100000000E-03 0. -1.
         11   -1    0    0    0    0 -0.00000000000E+00 -0.00000000000E+00 -0.45593999997E+02  0.45594000000E+02  0.51100000000E-03 0.  1.
    9900012    2    1    2    0    0 -0.26991963940E+02 -0.35980476231E+02  0.24398042158E+01  0.46142318389E+02  0.10000005730E+02 0.  0.
        -12    1    1    2    0    0  0.26991963940E+02  0.35980476231E+02 -0.24398042158E+01  0.45045681611E+02  0.00000000000E+00 0.  1.
         11    1    3    3    0    0 -0.96954803936E+00 -0.39453812071E+01  0.13646667881E+01  0.42858338715E+01  0.51100000000E-03 0. -1.
        -11    1    3    3    0    0 -0.25539935585E+02 -0.28665181535E+02  0.44888462541E+00  0.38395083537E+02  0.51100000000E-03 0.  1.
        -12    1    3    3    0    0 -0.48248031477E+00 -0.33699134897E+01  0.62625280234E+00  0.34614009814E+01  0.00000000000E+00 0.  1.
</event>
<event>
 7    1  0.4102844E-008  0.4614232E+02  0.7816164E-02  0.1320468E+00
        -11   -1    0    0    0    0  0.00000000000E+00  0.00000000000E+00  0.45593999997E+02  0.45594000000E+02  0.51100000000E-03 0.  1.
         11   -1    0    0    0    0 -0.00000000000E+00 -0.00000000000E+00 -0.45593999997E+02  0.45594000000E+02  0.51100000000E-03 0. -1.
    9900012    2    1    2    0    0 -0.24236596783E+02  0.16055421254E+02 -0.34408192394E+02  0.46142324524E+02  0.10000061672E+02 0.  0.
        -12    1    1    2    0    0  0.24236596783E+02 -0.16055421254E+02  0.34408192394E+02  0.45045675476E+02  0.00000000000E+00 0.  1.
         11    1    3    3    0    0 -0.36037872007E+00 -0.32115244905E+00 -0.10514217165E+01  0.11569354366E+01  0.51100000000E-03 0.  1.
        -11    1    3    3    0    0 -0.53967599330E+01  0.37379722428E+01 -0.28788425111E+01  0.71683463035E+01  0.51100000000E-03 0. -1.
         12    1    3    3    0    0 -0.18479458130E+02  0.12638601460E+02 -0.30477928166E+02  0.37817042784E+02  0.00000000000E+00 0. -1.
</event>
<event>
 7    1  0.4102844E-008  0.4614232E+02  0.7816164E-02  0.1320468E+00
        -11   -1    0    0    0    0  0.00000000000E+00  0.00000000000E+00  0.45593999997E+02  0.45594000000E+02  0.51100000000E-03 0.  1.
         11   -1    0    0    0    0 -0.00000000000E+00 -0.00000000000E+00 -0.45593999997E+02  0.45594000000E+02  0.51100000000E-03 0. -1.
    9900012    2    1    2    0    0  0.15341532560E+02 -0.41779486596E+02 -0.69444433989E+01  0.46142318568E+02  0.10000007359E+02 0.  0.
        -12    1    1    2    0    0 -0.15341532560E+02  0.41779486596E+02  0.69444433989E+01  0.45045681432E+02  0.00000000000E+00 0.  1.
         11    1    3    3    0    0  0.88442880180E+01 -0.30860507791E+02 -0.76548927268E+01  0.33002874944E+02  0.51100000000E-03 0. -1.
        -11    1    3    3    0    0  0.99119121770E+00 -0.46998780684E+01  0.47095186980E-02  0.48032630917E+01  0.51100000000E-03 0.  1.
         12    1    3    3    0    0  0.55060533246E+01 -0.62191007372E+01  0.70573980923E+00  0.83361805325E+01  0.00000000000E+00 0. -1.
</event>
<event>
 7    1  0.4102844E-008  0.4614232E+02  0.7816164E-02  0.1320468E+00
        -11   -1    0    0    0    0  0.00000000000E+00  0.00000000000E+00  0.45593999997E+02  0.45594000000E+02  0.51100000000E-03 0.  1.
         11   -1    0    0    0    0 -0.00000000000E+00 -0.00000000000E+00 -0.45593999997E+02  0.45594000000E+02  0.51100000000E-03 0. -1.
    9900012    2    1    2    0    0  0.21649512089E+02 -0.21223016035E+02 -0.33316598900E+02  0.46142317127E+02  0.99999942132E+01 0.  0.
        -12    1    1    2    0    0 -0.21649512089E+02  0.21223016035E+02  0.33316598900E+02  0.45045682873E+02  0.00000000000E+00 0.  1.
         11    1    3    3    0    0  0.49641628690E+00  0.72491277167E+00 -0.80471783849E+00  0.11914271766E+01  0.51100000000E-03 0.  1.
        -11    1    3    3    0    0  0.18028660898E+02 -0.20326918221E+02 -0.30684801833E+02  0.40985037293E+02  0.51100000000E-03 0. -1.
         12    1    3    3    0    0  0.31244349041E+01 -0.16210105854E+01 -0.18270792278E+01  0.39658526564E+01  0.00000000000E+00 0. -1.
</event>
<event>
 7    1  0.4102844E-008  0.4614232E+02  0.7816164E-02  0.1320468E+00
        -11   -1    0    0    0    0  0.00000000000E+00  0.00000000000E+00  0.45593999997E+02  0.45594000000E+02  0.51100000000E-03 0. -1.
         11   -1    0    0    0    0 -0.00000000000E+00 -0.00000000000E+00 -0.45593999997E+02  0.45594000000E+02  0.51100000000E-03 0.  1.
    9900012    2    1    2    0    0 -0.39863254379E+02 -0.20962651297E+02 -0.77567687567E+00  0.46142317924E+02  0.10000001484E+02 0.  0.
        -12    1    1    2    0    0  0.39863254379E+02  0.20962651297E+02  0.77567687567E+00  0.45045682076E+02  0.00000000000E+00 0.  1.
         11    1    3    3    0    0 -0.81754456545E+01 -0.80174563597E+01 -0.84082969027E+00  0.11481485660E+02  0.51100000000E-03 0. -1.
        -11    1    3    3    0    0 -0.33852842910E+01 -0.13708666453E+01 -0.17075209785E+01  0.40317556031E+01  0.51100000000E-03 0.  1.
         12    1    3    3    0    0 -0.28302524433E+02 -0.11574328292E+02  0.17726737931E+01  0.30629076661E+02  0.00000000000E+00 0. -1.
</event>
<event>
 7    1  0.4102844E-008  0.4614233E+02  0.7816164E-02  0.1320468E+00
        -11   -1    0    0    0    0  0.00000000000E+00  0.00000000000E+00  0.45593999997E+02  0.45594000000E+02  0.51100000000E-03 0. -1.
         11   -1    0    0    0    0 -0.00000000000E+00 -0.00000000000E+00 -0.45593999997E+02  0.45594000000E+02  0.51100000000E-03 0.  1.
    9900012    2    1    2    0    0 -0.36905921191E+02  0.11232923657E+01 -0.25803164136E+02  0.46142333348E+02  0.10000142135E+02 0.  0.
        -12    1    1    2    0    0  0.36905921191E+02 -0.11232923657E+01  0.25803164136E+02  0.45045666652E+02  0.00000000000E+00 0.  1.
         11    1    3    3    0    0 -0.24550533659E+02  0.17752161151E+01 -0.16854968946E+02  0.29832366210E+02  0.51100000000E-03 0. -1.
        -11    1    3    3    0    0 -0.19277067019E+01  0.18318023609E+01 -0.31518034705E+01  0.41237626503E+01  0.51100000000E-03 0.  1.
        -12    1    3    3    0    0 -0.10427680829E+02 -0.24837261104E+01 -0.57963917191E+01  0.12186204488E+02  0.00000000000E+00 0.  1.
</event>
<event>
 7    1  0.4102844E-008  0.4614232E+02  0.7816164E-02  0.1320468E+00
        -11   -1    0    0    0    0  0.00000000000E+00  0.00000000000E+00  0.45593999997E+02  0.45594000000E+02  0.51100000000E-03 0. -1.
         11   -1    0    0    0    0 -0.00000000000E+00 -0.00000000000E+00 -0.45593999997E+02  0.45594000000E+02  0.51100000000E-03 0.  1.
    9900012    2    1    2    0    0 -0.40068152439E+02  0.15132307029E+02  0.13952417194E+02  0.46142317616E+02  0.99999986788E+01 0.  0.
        -12    1    1    2    0    0  0.40068152439E+02 -0.15132307029E+02 -0.13952417194E+02  0.45045682384E+02  0.00000000000E+00 0.  1.
         11    1    3    3    0    0 -0.84655458833E+01  0.28048574230E+01  0.49784893524E+01  0.10213620747E+02  0.51100000000E-03 0. -1.
        -11    1    3    3    0    0 -0.15363414450E+02  0.22894154782E+01  0.57722481811E+01  0.16570901488E+02  0.51100000000E-03 0.  1.
         12    1    3    3    0    0 -0.16239192105E+02  0.10038034128E+02  0.32016796603E+01  0.19357795382E+02  0.00000000000E+00 0. -1.
</event>
<event>
 7    1  0.4102844E-008  0.4614232E+02  0.7816164E-02  0.1320468E+00
        -11   -1    0    0    0    0  0.00000000000E+00  0.00000000000E+00  0.45593999997E+02  0.45594000000E+02  0.51100000000E-03 0.  1.
         11   -1    0    0    0    0 -0.00000000000E+00 -0.00000000000E+00 -0.45593999997E+02  0.45594000000E+02  0.51100000000E-03 0. -1.
    9900012    2    1    2    0    0 -0.31680895383E+02 -0.32004441287E+02  0.10724737644E+01  0.46142316585E+02  0.99999892720E+01 0.  0.
        -12    1    1    2    0    0  0.31680895383E+02  0.32004441287E+02 -0.10724737644E+01  0.45045683415E+02  0.00000000000E+00 0.  1.
         11    1    3    3    0    0 -0.22724008140E+02 -0.26576363818E+02  0.75105342240E+00  0.34974958774E+02  0.51100000000E-03 0. -1.
        -11    1    3    3    0    0 -0.74428980896E+01 -0.44656684499E+01  0.17737544868E+01  0.88591834792E+01  0.51100000000E-03 0.  1.
        -12    1    3    3    0    0 -0.15139891529E+01 -0.96240901968E+00 -0.14523341448E+01  0.23081743314E+01  0.00000000000E+00 0.  1.
</event>
<event>
 7    1  0.4102844E-008  0.4614232E+02  0.7816164E-02  0.1320468E+00
        -11   -1    0    0    0    0  0.00000000000E+00  0.00000000000E+00  0.45593999997E+02  0.45594000000E+02  0.51100000000E-03 0.  1.
         11   -1    0    0    0    0 -0.00000000000E+00 -0.00000000000E+00 -0.45593999997E+02  0.45594000000E+02  0.51100000000E-03 0. -1.
    9900012    2    1    2    0    0 -0.15801975775E+02  0.33988151721E+02 -0.24984327099E+02  0.46142317672E+02  0.99999991899E+01 0.  0.
        -12    1    1    2    0    0  0.15801975775E+02 -0.33988151721E+02  0.24984327099E+02  0.45045682328E+02  0.00000000000E+00 0.  1.
         11    1    3    3    0    0 -0.50661502659E+01  0.16461759524E+02 -0.10766727432E+02  0.20312011840E+02  0.51100000000E-03 0. -1.
        -11    1    3    3    0    0 -0.56089283400E+01  0.14634145771E+02 -0.10046666502E+02  0.18615955728E+02  0.51100000000E-03 0.  1.
        -12    1    3    3    0    0 -0.51268971693E+01  0.28922464258E+01 -0.41709331646E+01  0.72143501049E+01  0.00000000000E+00 0.  1.
</event>
<event>
 7    1  0.4102844E-008  0.4614232E+02  0.7816164E-02  0.1320468E+00
        -11   -1    0    0    0    0  0.00000000000E+00  0.00000000000E+00  0.45593999997E+02  0.45594000000E+02  0.51100000000E-03 0.  1.
         11   -1    0    0    0    0 -0.00000000000E+00 -0.00000000000E+00 -0.45593999997E+02  0.45594000000E+02  0.51100000000E-03 0. -1.
    9900012    2    1    2    0    0 -0.41594910819E+02 -0.13034503130E+02 -0.11361277383E+02  0.46142317614E+02  0.99999986593E+01 0.  0.
        -12    1    1    2    0    0  0.41594910819E+02  0.13034503130E+02  0.11361277383E+02  0.45045682386E+02  0.00000000000E+00 0.  1.
         11    1    3    3    0    0 -0.18814356644E+02 -0.41474331335E+01 -0.64642955745E+01  0.20321622353E+02  0.51100000000E-03 0. -1.
        -11    1    3    3    0    0 -0.10748614283E+02 -0.65331860483E+01 -0.50641383755E+01  0.13559525313E+02  0.51100000000E-03 0.  1.
         12    1    3    3    0    0 -0.12031939891E+02 -0.23538839480E+01  0.16715656743E+00  0.12261169949E+02  0.00000000000E+00 0. -1.
</event>
<event>
 7    1  0.4102844E-008  0.4614232E+02  0.7816164E-02  0.1320468E+00
        -11   -1    0    0    0    0  0.00000000000E+00  0.00000000000E+00  0.45593999997E+02  0.45594000000E+02  0.51100000000E-03 0.  1.
         11   -1    0    0    0    0 -0.00000000000E+00 -0.00000000000E+00 -0.45593999997E+02  0.45594000000E+02  0.51100000000E-03 0. -1.
    9900012    2    1    2    0    0  0.18235264217E+02  0.93525478987E+01 -0.40113819964E+02  0.46142316906E+02  0.99999922032E+01 0.  0.
        -12    1    1    2    0    0 -0.18235264217E+02 -0.93525478987E+01  0.40113819964E+02  0.45045683094E+02  0.00000000000E+00 0.  1.
         11    1    3    3    0    0  0.14158070975E+01  0.31002512309E+01 -0.24434934007E+01  0.41936532633E+01  0.51100000000E-03 0.  1.
        -11    1    3    3    0    0  0.57076931414E+01  0.43610009894E+01 -0.14382397044E+02  0.16076362637E+02  0.51100000000E-03 0. -1.
         12    1    3    3    0    0  0.11111763978E+02  0.18912956783E+01 -0.23287929519E+02  0.25872301006E+02  0.00000000000E+00 0. -1.
</event>
<event>
 7    1  0.4102844E-008  0.4614232E+02  0.7816164E-02  0.1320468E+00
        -11   -1    0    0    0    0  0.00000000000E+00  0.00000000000E+00  0.45593999997E+02  0.45594000000E+02  0.51100000000E-03 0. -1.
         11   -1    0    0    0    0 -0.00000000000E+00 -0.00000000000E+00 -0.45593999997E+02  0.45594000000E+02  0.51100000000E-03 0.  1.
    9900012    2    1    2    0    0 -0.23648781516E+02 -0.32270637332E+02  0.20699143347E+02  0.46142318339E+02  0.10000005267E+02 0.  0.
        -12    1    1    2    0    0  0.23648781516E+02  0.32270637332E+02 -0.20699143347E+02  0.45045681661E+02  0.00000000000E+00 0.  1.
         11    1    3    3    0    0 -0.32909947898E+00  0.38606631205E+00 -0.41093270273E+00  0.65285496985E+00  0.51100000000E-03 0.  1.
        -11    1    3    3    0    0 -0.23026916402E+01 -0.25487753504E+01  0.29421642958E+01  0.45227177207E+01  0.51100000000E-03 0. -1.
        -12    1    3    3    0    0 -0.21016990397E+02 -0.30107928294E+02  0.18167911754E+02  0.40966745648E+02  0.00000000000E+00 0.  1.
</event>
<event>
 7    1  0.4102844E-008  0.4614232E+02  0.7816164E-02  0.1320468E+00
        -11   -1    0    0    0    0  0.00000000000E+00  0.00000000000E+00  0.45593999997E+02  0.45594000000E+02  0.51100000000E-03 0.  1.
         11   -1    0    0    0    0 -0.00000000000E+00 -0.00000000000E+00 -0.45593999997E+02  0.45594000000E+02  0.51100000000E-03 0. -1.
    9900012    2    1    2    0    0  0.15836513519E+02  0.56104682389E+01 -0.41795227415E+02  0.46142317088E+02  0.99999938659E+01 0.  0.
        -12    1    1    2    0    0 -0.15836513519E+02 -0.56104682389E+01  0.41795227415E+02  0.45045682912E+02  0.00000000000E+00 0.  1.
         11    1    3    3    0    0  0.11640594511E+01  0.43800656480E+01 -0.12223974918E+02  0.13037084511E+02  0.51100000000E-03 0. -1.
        -11    1    3    3    0    0  0.47486673547E+01  0.68064909361E+00 -0.75529235187E+01  0.89476130211E+01  0.51100000000E-03 0.  1.
         12    1    3    3    0    0  0.99237867135E+01  0.54975349728E+00 -0.22018328978E+02  0.24157619556E+02  0.00000000000E+00 0. -1.
</event>
<event>
 7    1  0.4102844E-008  0.4614232E+02  0.7816164E-02  0.1320468E+00
        -11   -1    0    0    0    0  0.00000000000E+00  0.00000000000E+00  0.45593999997E+02  0.45594000000E+02  0.51100000000E-03 0. -1.
         11   -1    0    0    0    0 -0.00000000000E+00 -0.00000000000E+00 -0.45593999997E+02  0.45594000000E+02  0.51100000000E-03 0.  1.
    9900012    2    1    2    0    0 -0.41097932205E+02 -0.15791532623E+02  0.95237045372E+01  0.46142317829E+02  0.10000000623E+02 0.  0.
        -12    1    1    2    0    0  0.41097932205E+02  0.15791532623E+02 -0.95237045372E+01  0.45045682171E+02  0.00000000000E+00 0.  1.
         11    1    3    3    0    0 -0.34979538747E+02 -0.11844095937E+02  0.84457486361E+01  0.37883788219E+02  0.51100000000E-03 0. -1.
        -11    1    3    3    0    0 -0.35402812862E+01 -0.62099660171E+00  0.17482309373E+01  0.39969413351E+01  0.51100000000E-03 0.  1.
        -12    1    3    3    0    0 -0.25781121715E+01 -0.33264400847E+01 -0.67027503629E+00  0.42615882755E+01  0.00000000000E+00 0.  1.
</event>
<event>
 7    1  0.4102844E-008  0.4614232E+02  0.7816164E-02  0.1320468E+00
        -11   -1    0    0    0    0  0.00000000000E+00  0.00000000000E+00  0.45593999997E+02  0.45594000000E+02  0.51100000000E-03 0.  1.
         11   -1    0    0    0    0 -0.00000000000E+00 -0.00000000000E+00 -0.45593999997E+02  0.45594000000E+02  0.51100000000E-03 0. -1.
    9900012    2    1    2    0    0  0.14974799889E+02 -0.31125416288E+02 -0.28915001990E+02  0.46142317511E+02  0.99999977201E+01 0.  0.
        -12    1    1    2    0    0 -0.14974799889E+02  0.31125416288E+02  0.28915001990E+02  0.45045682489E+02  0.00000000000E+00 0.  1.
         11    1    3    3    0    0  0.81738463344E+01 -0.17494740818E+02 -0.13540933543E+02  0.23584626384E+02  0.51100000000E-03 0. -1.
        -11    1    3    3    0    0  0.55798265838E+01 -0.71334269604E+01 -0.12280190996E+02  0.15258549605E+02  0.51100000000E-03 0.  1.
        -12    1    3    3    0    0  0.12211269707E+01 -0.64972485098E+01 -0.30938774511E+01  0.72991415221E+01  0.00000000000E+00 0.  1.
</event>
<event>
 7    1  0.4102844E-008  0.4614232E+02  0.7816164E-02  0.1320468E+00
        -11   -1    0    0    0    0  0.00000000000E+00  0.00000000000E+00  0.45593999997E+02  0.45594000000E+02  0.51100000000E-03 0. -1.
         11   -1    0    0    0    0 -0.00000000000E+00 -0.00000000000E+00 -0.45593999997E+02  0.45594000000E+02  0.51100000000E-03 0.  1.
    9900012    2    1    2    0    0 -0.27141128332E+01  0.30318793553E+02  0.33204185243E+02  0.46142316870E+02  0.99999918739E+01 0.  0.
        -12    1    1    2    0    0  0.27141128332E+01 -0.30318793553E+02 -0.33204185243E+02  0.45045683130E+02  0.00000000000E+00 0.  1.
         11    1    3    3    0    0  0.96689454071E-01  0.72939776600E+01  0.11434747940E+02  0.13563366826E+02  0.51100000000E-03 0. -1.
        -11    1    3    3    0    0  0.18867743306E+01  0.12239102592E+02  0.12563791829E+02  0.17640986793E+02  0.51100000000E-03 0.  1.
         12    1    3    3    0    0 -0.46975766179E+01  0.10785713301E+02  0.92056454746E+01  0.14937963251E+02  0.00000000000E+00 0. -1.
</event>
<event>
 7    1  0.4102844E-008  0.4614232E+02  0.7816164E-02  0.1320468E+00
        -11   -1    0    0    0    0  0.00000000000E+00  0.00000000000E+00  0.45593999997E+02  0.45594000000E+02  0.51100000000E-03 0.  1.
         11   -1    0    0    0    0 -0.00000000000E+00 -0.00000000000E+00 -0.45593999997E+02  0.45594000000E+02  0.51100000000E-03 0. -1.
    9900012    2    1    2    0    0 -0.15175102048E+02  0.23620260814E+01 -0.42346790034E+02  0.46142317459E+02  0.99999972487E+01 0.  0.
        -12    1    1    2    0    0  0.15175102048E+02 -0.23620260814E+01  0.42346790034E+02  0.45045682541E+02  0.00000000000E+00 0.  1.
         11    1    3    3    0    0 -0.17141222930E+01  0.23098299506E+00 -0.16852036978E+02  0.16940564304E+02  0.51100000000E-03 0. -1.
        -11    1    3    3    0    0 -0.25099080541E+01 -0.12047286742E+01 -0.46203280439E+01  0.53942970916E+01  0.51100000000E-03 0.  1.
         12    1    3    3    0    0 -0.10951071700E+02  0.33357717605E+01 -0.20874425012E+02  0.23807456064E+02  0.00000000000E+00 0. -1.
</event>
<event>
 7    1  0.4102844E-008  0.4614232E+02  0.7816164E-02  0.1320468E+00
        -11   -1    0    0    0    0  0.00000000000E+00  0.00000000000E+00  0.45593999997E+02  0.45594000000E+02  0.51100000000E-03 0. -1.
         11   -1    0    0    0    0 -0.00000000000E+00 -0.00000000000E+00 -0.45593999997E+02  0.45594000000E+02  0.51100000000E-03 0.  1.
    9900012    2    1    2    0    0  0.11246637797E+02  0.20560122503E+02  0.38469574740E+02  0.46142315637E+02  0.99999806309E+01 0.  0.
        -12    1    1    2    0    0 -0.11246637797E+02 -0.20560122503E+02 -0.38469574740E+02  0.45045684363E+02  0.00000000000E+00 0.  1.
         11    1    3    3    0    0  0.86417731860E+01  0.12549323547E+02  0.20131163133E+02  0.25247366093E+02  0.51100000000E-03 0. -1.
        -11    1    3    3    0    0 -0.18556775006E+00  0.36789792810E+01  0.31184342002E+01  0.48263812595E+01  0.51100000000E-03 0.  1.
        -12    1    3    3    0    0  0.27904323609E+01  0.43318196750E+01  0.15219977407E+02  0.16068568284E+02  0.00000000000E+00 0.  1.
</event>
<event>
 7    1  0.4102844E-008  0.4614232E+02  0.7816164E-02  0.1320468E+00
        -11   -1    0    0    0    0  0.00000000000E+00  0.00000000000E+00  0.45593999997E+02  0.45594000000E+02  0.51100000000E-03 0.  1.
         11   -1    0    0    0    0 -0.00000000000E+00 -0.00000000000E+00 -0.45593999997E+02  0.45594000000E+02  0.51100000000E-03 0. -1.
    9900012    2    1    2    0    0 -0.44118103156E+02  0.30848065299E+01 -0.85551460961E+01  0.46142316720E+02  0.99999905106E+01 0.  0.
        -12    1    1    2    0    0  0.44118103156E+02 -0.30848065299E+01  0.85551460961E+01  0.45045683280E+02  0.00000000000E+00 0.  1.
         11    1    3    3    0    0 -0.33697999520E+02 -0.15661969443E+01 -0.69489569298E+01  0.34442650118E+02  0.51100000000E-03 0. -1.
        -11    1    3    3    0    0 -0.10895817263E+01  0.68202117761E+00  0.43424763043E+00  0.13568023035E+01  0.51100000000E-03 0.  1.
         12    1    3    3    0    0 -0.93305219097E+01  0.39689822966E+01 -0.20404367967E+01  0.10342864299E+02  0.00000000000E+00 0. -1.
</event>
<event>
 7    1  0.4102844E-008  0.4614232E+02  0.7816164E-02  0.1320468E+00
        -11   -1    0    0    0    0  0.00000000000E+00  0.00000000000E+00  0.45593999997E+02  0.45594000000E+02  0.51100000000E-03 0.  1.
         11   -1    0    0    0    0 -0.00000000000E+00 -0.00000000000E+00 -0.45593999997E+02  0.45594000000E+02  0.51100000000E-03 0. -1.
    9900012    2    1    2    0    0 -0.22450572850E+02 -0.19580082448E+01 -0.39003220947E+02  0.46142320276E+02  0.10000022935E+02 0.  0.
        -12    1    1    2    0    0  0.22450572850E+02  0.19580082448E+01  0.39003220947E+02  0.45045679724E+02  0.00000000000E+00 0.  1.
         11    1    3    3    0    0 -0.15471163473E+02 -0.29641655971E+01 -0.20561563346E+02  0.25902144012E+02  0.51100000000E-03 0.  1.
        -11    1    3    3    0    0 -0.61941386359E+01  0.67603918224E+00 -0.10185691454E+02  0.11940380776E+02  0.51100000000E-03 0. -1.
        -12    1    3    3    0    0 -0.78527074093E+00  0.33011817012E+00 -0.82559661468E+01  0.82997954891E+01  0.00000000000E+00 0.  1.
</event>
<event>
 7    1  0.4102844E-008  0.4614232E+02  0.7816164E-02  0.1320468E+00
        -11   -1    0    0    0    0  0.00000000000E+00  0.00000000000E+00  0.45593999997E+02  0.45594000000E+02  0.51100000000E-03 0.  1.
         11   -1    0    0    0    0 -0.00000000000E+00 -0.00000000000E+00 -0.45593999997E+02  0.45594000000E+02  0.51100000000E-03 0. -1.
    9900012    2    1    2    0    0  0.27637871597E+02 -0.20625363353E+01 -0.35510667413E+02  0.46142317602E+02  0.99999985532E+01 0.  0.
        -12    1    1    2    0    0 -0.27637871597E+02  0.20625363353E+01  0.35510667413E+02  0.45045682398E+02  0.00000000000E+00 0.  1.
         11    1    3    3    0    0  0.87223265091E+01 -0.22229020604E+01 -0.85410205705E+01  0.12408436886E+02  0.51100000000E-03 0. -1.
        -11    1    3    3    0    0  0.67432198146E+01  0.24085623092E+00 -0.42951087028E+01  0.79985613845E+01  0.51100000000E-03 0.  1.
        -12    1    3    3    0    0  0.12172325273E+02 -0.80490505891E-01 -0.22674538140E+02  0.25735319332E+02  0.00000000000E+00 0.  1.
</event>
<event>
 7    1  0.4102844E-008  0.4614232E+02  0.7816164E-02  0.1320468E+00
        -11   -1    0    0    0    0  0.00000000000E+00  0.00000000000E+00  0.45593999997E+02  0.45594000000E+02  0.51100000000E-03 0.  1.
         11   -1    0    0    0    0 -0.00000000000E+00 -0.00000000000E+00 -0.45593999997E+02  0.45594000000E+02  0.51100000000E-03 0. -1.
    9900012    2    1    2    0    0  0.50497689429E+01 -0.30544406604E+02 -0.32720827356E+02  0.46142317809E+02  0.10000000441E+02 0.  0.
        -12    1    1    2    0    0 -0.50497689429E+01  0.30544406604E+02  0.32720827356E+02  0.45045682191E+02  0.00000000000E+00 0.  1.
         11    1    3    3    0    0  0.88022698382E+00 -0.75173660106E+01 -0.29085736936E+01  0.81083532528E+01  0.51100000000E-03 0. -1.
        -11    1    3    3    0    0 -0.97749863903E-01 -0.56181399744E+01 -0.84551010151E+01  0.10151935049E+02  0.51100000000E-03 0.  1.
         12    1    3    3    0    0  0.42672918229E+01 -0.17408900619E+02 -0.21357152647E+02  0.27882029507E+02  0.00000000000E+00 0. -1.
</event>
<event>
 7    1  0.4102844E-008  0.4614232E+02  0.7816164E-02  0.1320468E+00
        -11   -1    0    0    0    0  0.00000000000E+00  0.00000000000E+00  0.45593999997E+02  0.45594000000E+02  0.51100000000E-03 0. -1.
         11   -1    0    0    0    0 -0.00000000000E+00 -0.00000000000E+00 -0.45593999997E+02  0.45594000000E+02  0.51100000000E-03 0.  1.
    9900012    2    1    2    0    0 -0.14145979810E+02 -0.17807196133E+02  0.38883267855E+02  0.46142317654E+02  0.99999990219E+01 0.  0.
        -12    1    1    2    0    0  0.14145979810E+02  0.17807196133E+02 -0.38883267855E+02  0.45045682346E+02  0.00000000000E+00 0.  1.
         11    1    3    3    0    0 -0.10909279131E+02 -0.11788698286E+02  0.31516997749E+02  0.35373816952E+02  0.51100000000E-03 0. -1.
        -11    1    3    3    0    0 -0.36762696237E+01 -0.34227687694E+01  0.59232245766E+01  0.77662664158E+01  0.51100000000E-03 0.  1.
         12    1    3    3    0    0  0.43956894519E+00 -0.25957290778E+01  0.14430455303E+01  0.30022342856E+01  0.00000000000E+00 0. -1.
</event>
<event>
 7    1  0.4192926E-008  0.4614232E+02  0.7816164E-02  0.1320468E+00
        -11   -1    0    0    0    0  0.00000000000E+00  0.00000000000E+00  0.45593999997E+02  0.45594000000E+02  0.51100000000E-03 0. -1.
         11   -1    0    0    0    0 -0.00000000000E+00 -0.00000000000E+00 -0.45593999997E+02  0.45594000000E+02  0.51100000000E-03 0.  1.
    9900012    2    1    2    0    0 -0.43656913040E+02 -0.17423632054E+01  0.10961356852E+02  0.46142320631E+02  0.10000026174E+02 0.  0.
        -12    1    1    2    0    0  0.43656913040E+02  0.17423632054E+01 -0.10961356852E+02  0.45045679369E+02  0.00000000000E+00 0.  1.
         11    1    3    3    0    0 -0.15950546247E+02  0.97642207946E+00  0.63112748189E+01  0.17181545791E+02  0.51100000000E-03 0. -1.
        -11    1    3    3    0    0 -0.11268976949E+01  0.47576981314E+00  0.16041244238E+01  0.20172929281E+01  0.51100000000E-03 0.  1.
         12    1    3    3    0    0 -0.26579469098E+02 -0.31945550980E+01  0.30459576097E+01  0.26943481912E+02  0.00000000000E+00 0. -1.
</event>
<event>
 7    1  0.4102844E-008  0.4614232E+02  0.7816164E-02  0.1320468E+00
        -11   -1    0    0    0    0  0.00000000000E+00  0.00000000000E+00  0.45593999997E+02  0.45594000000E+02  0.51100000000E-03 0.  1.
         11   -1    0    0    0    0 -0.00000000000E+00 -0.00000000000E+00 -0.45593999997E+02  0.45594000000E+02  0.51100000000E-03 0. -1.
    9900012    2    1    2    0    0 -0.10760013325E+02  0.28407396683E+02 -0.33261920394E+02  0.46142318505E+02  0.10000006782E+02 0.  0.
        -12    1    1    2    0    0  0.10760013325E+02 -0.28407396683E+02  0.33261920394E+02  0.45045681495E+02  0.00000000000E+00 0.  1.
         11    1    3    3    0    0 -0.48631786285E+01  0.12309052232E+02 -0.97612581701E+01  0.16445225281E+02  0.51100000000E-03 0.  1.
        -11    1    3    3    0    0 -0.70463461969E+01  0.12854861962E+02 -0.19899218644E+02  0.24715933599E+02  0.51100000000E-03 0. -1.
        -12    1    3    3    0    0  0.11495114999E+01  0.32434824887E+01 -0.36014435799E+01  0.49811596243E+01  0.00000000000E+00 0.  1.
</event>
<event>
 7    1  0.4102844E-008  0.4614232E+02  0.7816164E-02  0.1320468E+00
        -11   -1    0    0    0    0  0.00000000000E+00  0.00000000000E+00  0.45593999997E+02  0.45594000000E+02  0.51100000000E-03 0.  1.
         11   -1    0    0    0    0 -0.00000000000E+00 -0.00000000000E+00 -0.45593999997E+02  0.45594000000E+02  0.51100000000E-03 0. -1.
    9900012    2    1    2    0    0  0.30933385510E+02 -0.27900742345E+02  0.17140239270E+02  0.46142316913E+02  0.99999922691E+01 0.  0.
        -12    1    1    2    0    0 -0.30933385510E+02  0.27900742345E+02 -0.17140239270E+02  0.45045683087E+02  0.00000000000E+00 0.  1.
         11    1    3    3    0    0  0.85503308254E+01 -0.33453512715E+01  0.25736065030E+01  0.95353543745E+01  0.51100000000E-03 0. -1.
        -11    1    3    3    0    0  0.60612934807E+01 -0.83824583353E+01  0.24499571666E+01  0.10630483375E+02  0.51100000000E-03 0.  1.
         12    1    3    3    0    0  0.16321761204E+02 -0.16172932738E+02  0.12116675601E+02  0.25976479164E+02  0.00000000000E+00 0. -1.
</event>
<event>
 7    1  0.4102844E-008  0.4614232E+02  0.7816164E-02  0.1320468E+00
        -11   -1    0    0    0    0  0.00000000000E+00  0.00000000000E+00  0.45593999997E+02  0.45594000000E+02  0.51100000000E-03 0.  1.
         11   -1    0    0    0    0 -0.00000000000E+00 -0.00000000000E+00 -0.45593999997E+02  0.45594000000E+02  0.51100000000E-03 0. -1.
    9900012    2    1    2    0    0  0.19092224664E+02  0.34764345458E+02 -0.21355106609E+02  0.46142319452E+02  0.10000015418E+02 0.  0.
        -12    1    1    2    0    0 -0.19092224664E+02 -0.34764345458E+02  0.21355106609E+02  0.45045680548E+02  0.00000000000E+00 0.  1.
         11    1    3    3    0    0  0.11468677515E+01  0.42689291697E+00 -0.44033598110E+00  0.13005534358E+01  0.51100000000E-03 0. -1.
        -11    1    3    3    0    0  0.10235268910E+02  0.10844595694E+02 -0.70569146310E+01  0.16497455252E+02  0.51100000000E-03 0.  1.
         12    1    3    3    0    0  0.77100880023E+01  0.23492856847E+02 -0.13857855997E+02  0.28344310764E+02  0.00000000000E+00 0. -1.
</event>
<event>
 7    1  0.4102844E-008  0.4614232E+02  0.7816164E-02  0.1320468E+00
        -11   -1    0    0    0    0  0.00000000000E+00  0.00000000000E+00  0.45593999997E+02  0.45594000000E+02  0.51100000000E-03 0. -1.
         11   -1    0    0    0    0 -0.00000000000E+00 -0.00000000000E+00 -0.45593999997E+02  0.45594000000E+02  0.51100000000E-03 0.  1.
    9900012    2    1    2    0    0  0.32670097630E+02  0.18794530100E+02  0.24668683396E+02  0.46142316729E+02  0.99999905901E+01 0.  0.
        -12    1    1    2    0    0 -0.32670097630E+02 -0.18794530100E+02 -0.24668683396E+02  0.45045683271E+02  0.00000000000E+00 0.  1.
         11    1    3    3    0    0  0.13226580586E+02  0.29847262737E+01  0.83955643557E+01  0.15947931716E+02  0.51100000000E-03 0. -1.
        -11    1    3    3    0    0  0.38302712701E+00 -0.23247149549E+00  0.64477911051E+00  0.78517077041E+00  0.51100000000E-03 0.  1.
         12    1    3    3    0    0  0.19060489917E+02  0.16042275322E+02  0.15628339930E+02  0.29409214242E+02  0.00000000000E+00 0. -1.
</event>
<event>
 7    1  0.4102844E-008  0.4614232E+02  0.7816164E-02  0.1320468E+00
        -11   -1    0    0    0    0  0.00000000000E+00  0.00000000000E+00  0.45593999997E+02  0.45594000000E+02  0.51100000000E-03 0.  1.
         11   -1    0    0    0    0 -0.00000000000E+00 -0.00000000000E+00 -0.45593999997E+02  0.45594000000E+02  0.51100000000E-03 0. -1.
    9900012    2    1    2    0    0 -0.25900263446E+02  0.22942313454E+02 -0.28843363078E+02  0.46142323328E+02  0.10000050762E+02 0.  0.
        -12    1    1    2    0    0  0.25900263446E+02 -0.22942313454E+02  0.28843363078E+02  0.45045676672E+02  0.00000000000E+00 0.  1.
         11    1    3    3    0    0 -0.36964300016E+01  0.15190183776E+01 -0.23156036346E+01  0.46187695376E+01  0.51100000000E-03 0. -1.
        -11    1    3    3    0    0 -0.29500829725E+01 -0.11464644539E+00 -0.35039709416E+01  0.45819150988E+01  0.51100000000E-03 0.  1.
        -12    1    3    3    0    0 -0.19253750472E+02  0.21537941522E+02 -0.23023788502E+02  0.36941638691E+02  0.00000000000E+00 0.  1.
</event>
<event>
 7    1  0.4102844E-008  0.4614232E+02  0.7816164E-02  0.1320468E+00
        -11   -1    0    0    0    0  0.00000000000E+00  0.00000000000E+00  0.45593999997E+02  0.45594000000E+02  0.51100000000E-03 0.  1.
         11   -1    0    0    0    0 -0.00000000000E+00 -0.00000000000E+00 -0.45593999997E+02  0.45594000000E+02  0.51100000000E-03 0. -1.
    9900012    2    1    2    0    0  0.95461451336E+01  0.53305534948E+01 -0.43698624621E+02  0.46142317840E+02  0.10000000721E+02 0.  0.
        -12    1    1    2    0    0 -0.95461451336E+01 -0.53305534948E+01  0.43698624621E+02  0.45045682160E+02  0.00000000000E+00 0.  1.
         11    1    3    3    0    0  0.48821802462E+01  0.76308160395E+00 -0.76283995354E+01  0.90890294984E+01  0.51100000000E-03 0.  1.
        -11    1    3    3    0    0  0.29838007792E+01 -0.66983981443E-01 -0.20641944625E+02  0.20856592054E+02  0.51100000000E-03 0. -1.
        -12    1    3    3    0    0  0.16801641081E+01  0.46344558723E+01 -0.15428280460E+02  0.16196696287E+02  0.00000000000E+00 0.  1.
</event>
<event>
 7    1  0.4102844E-008  0.4614232E+02  0.7816164E-02  0.1320468E+00
        -11   -1    0    0    0    0  0.00000000000E+00  0.00000000000E+00  0.45593999997E+02  0.45594000000E+02  0.51100000000E-03 0.  1.
         11   -1    0    0    0    0 -0.00000000000E+00 -0.00000000000E+00 -0.45593999997E+02  0.45594000000E+02  0.51100000000E-03 0. -1.
    9900012    2    1    2    0    0  0.34970777348E+02  0.11312646793E+02 -0.26041931933E+02  0.46142318025E+02  0.10000002409E+02 0.  0.
        -12    1    1    2    0    0 -0.34970777348E+02 -0.11312646793E+02  0.26041931933E+02  0.45045681975E+02  0.00000000000E+00 0.  1.
         11    1    3    3    0    0  0.25785093288E+02  0.70328021871E+01 -0.21635709203E+02  0.34386556318E+02  0.51100000000E-03 0. -1.
        -11    1    3    3    0    0  0.12863817677E+01  0.24676906291E+01 -0.13632269600E+01  0.30988164029E+01  0.51100000000E-03 0.  1.
        -12    1    3    3    0    0  0.78993022927E+01  0.18121539766E+01 -0.30429957702E+01  0.86569453044E+01  0.00000000000E+00 0.  1.
</event>
<event>
 7    1  0.4102844E-008  0.4614232E+02  0.7816164E-02  0.1320468E+00
        -11   -1    0    0    0    0  0.00000000000E+00  0.00000000000E+00  0.45593999997E+02  0.45594000000E+02  0.51100000000E-03 0.  1.
         11   -1    0    0    0    0 -0.00000000000E+00 -0.00000000000E+00 -0.45593999997E+02  0.45594000000E+02  0.51100000000E-03 0. -1.
    9900012    2    1    2    0    0 -0.92954360619E+01  0.35229548850E+02 -0.26487490409E+02  0.46142318832E+02  0.10000009765E+02 0.  0.
        -12    1    1    2    0    0  0.92954360619E+01 -0.35229548850E+02  0.26487490409E+02  0.45045681168E+02  0.00000000000E+00 0.  1.
         11    1    3    3    0    0 -0.27551321756E+01  0.72894183782E+01 -0.46019796885E+01  0.90501155193E+01  0.51100000000E-03 0. -1.
        -11    1    3    3    0    0 -0.83313493569E+01  0.17909980126E+02 -0.14782802508E+02  0.24672049377E+02  0.51100000000E-03 0.  1.
        -12    1    3    3    0    0  0.17910454705E+01  0.10030150345E+02 -0.71027082122E+01  0.12420153935E+02  0.00000000000E+00 0.  1.
</event>
<event>
 7    1  0.4102844E-008  0.4614232E+02  0.7816164E-02  0.1320468E+00
        -11   -1    0    0    0    0  0.00000000000E+00  0.00000000000E+00  0.45593999997E+02  0.45594000000E+02  0.51100000000E-03 0.  1.
         11   -1    0    0    0    0 -0.00000000000E+00 -0.00000000000E+00 -0.45593999997E+02  0.45594000000E+02  0.51100000000E-03 0. -1.
    9900012    2    1    2    0    0 -0.33520146829E+02  0.26051408406E+02 -0.15061121088E+02  0.46142317723E+02  0.99999996497E+01 0.  0.
        -12    1    1    2    0    0  0.33520146829E+02 -0.26051408406E+02  0.15061121088E+02  0.45045682277E+02  0.00000000000E+00 0.  1.
         11    1    3    3    0    0 -0.23877348219E+01  0.11658567036E+01 -0.14935874156E+00  0.26613544912E+01  0.51100000000E-03 0. -1.
        -11    1    3    3    0    0 -0.69822196139E+01  0.26961803299E+01 -0.75891773449E-01  0.74850877704E+01  0.51100000000E-03 0.  1.
         12    1    3    3    0    0 -0.24150192394E+02  0.22189371373E+02 -0.14835870573E+02  0.35995875461E+02  0.00000000000E+00 0. -1.
</event>
<event>
 7    1  0.4102844E-008  0.4614232E+02  0.7816164E-02  0.1320468E+00
        -11   -1    0    0    0    0  0.00000000000E+00  0.00000000000E+00  0.45593999997E+02  0.45594000000E+02  0.51100000000E-03 0.  1.
         11   -1    0    0    0    0 -0.00000000000E+00 -0.00000000000E+00 -0.45593999997E+02  0.45594000000E+02  0.51100000000E-03 0. -1.
    9900012    2    1    2    0    0  0.32911309250E+02 -0.19951742350E+02 -0.23406989720E+02  0.46142317997E+02  0.10000002153E+02 0.  0.
        -12    1    1    2    0    0 -0.32911309250E+02  0.19951742350E+02  0.23406989720E+02  0.45045682003E+02  0.00000000000E+00 0.  1.
         11    1    3    3    0    0  0.15094355458E+02 -0.78580866331E+01 -0.12913663800E+02  0.21362392311E+02  0.51100000000E-03 0. -1.
        -11    1    3    3    0    0  0.12503787987E+02 -0.64413639796E+01 -0.94675303918E+01  0.16954940753E+02  0.51100000000E-03 0.  1.
        -12    1    3    3    0    0  0.53131658040E+01 -0.56522917374E+01 -0.10257955283E+01  0.78249849336E+01  0.00000000000E+00 0.  1.
</event>
<event>
 7    1  0.4102844E-008  0.4614232E+02  0.7816164E-02  0.1320468E+00
        -11   -1    0    0    0    0  0.00000000000E+00  0.00000000000E+00  0.45593999997E+02  0.45594000000E+02  0.51100000000E-03 0.  1.
         11   -1    0    0    0    0 -0.00000000000E+00 -0.00000000000E+00 -0.45593999997E+02  0.45594000000E+02  0.51100000000E-03 0. -1.
    9900012    2    1    2    0    0 -0.81312758634E+01  0.13232664903E+01 -0.44285944040E+02  0.46142317400E+02  0.99999967073E+01 0.  0.
        -12    1    1    2    0    0  0.81312758634E+01 -0.13232664903E+01  0.44285944040E+02  0.45045682600E+02  0.00000000000E+00 0.  1.
         11    1    3    3    0    0 -0.17671249276E+01  0.31985589524E+01 -0.11348151377E+02  0.11921998566E+02  0.51100000000E-03 0. -1.
        -11    1    3    3    0    0  0.59451458306E+00  0.38676830006E+00 -0.29612803311E+00  0.76858921442E+00  0.51100000000E-03 0.  1.
         12    1    3    3    0    0 -0.69586655188E+01 -0.22620607621E+01 -0.32641664630E+02  0.33451729619E+02  0.00000000000E+00 0. -1.
</event>
<event>
 7    1  0.4102844E-008  0.4614232E+02  0.7816164E-02  0.1320468E+00
        -11   -1    0    0    0    0  0.00000000000E+00  0.00000000000E+00  0.45593999997E+02  0.45594000000E+02  0.51100000000E-03 0. -1.
         11   -1    0    0    0    0 -0.00000000000E+00 -0.00000000000E+00 -0.45593999997E+02  0.45594000000E+02  0.51100000000E-03 0.  1.
    9900012    2    1    2    0    0  0.25332512164E+02  0.13480885641E+02  0.34722371973E+02  0.46142316903E+02  0.99999921795E+01 0.  0.
        -12    1    1    2    0    0 -0.25332512164E+02 -0.13480885641E+02 -0.34722371973E+02  0.45045683097E+02  0.00000000000E+00 0.  1.
         11    1    3    3    0    0  0.97596823236E+01  0.22271655168E+01  0.16590764495E+02  0.19376922668E+02  0.51100000000E-03 0. -1.
        -11    1    3    3    0    0  0.59339860539E+01  0.18398364884E+01  0.55273357434E+01  0.83155654933E+01  0.51100000000E-03 0.  1.
        -12    1    3    3    0    0  0.96388437869E+01  0.94138836362E+01  0.12604271734E+02  0.18449828742E+02  0.00000000000E+00 0.  1.
</event>
<event>
 7    1  0.4102844E-008  0.4614232E+02  0.7816164E-02  0.1320468E+00
        -11   -1    0    0    0    0  0.00000000000E+00  0.00000000000E+00  0.45593999997E+02  0.45594000000E+02  0.51100000000E-03 0.  1.
         11   -1    0    0    0    0 -0.00000000000E+00 -0.00000000000E+00 -0.45593999997E+02  0.45594000000E+02  0.51100000000E-03 0. -1.
    9900012    2    1    2    0    0  0.10983023037E+02 -0.16569969531E+02 -0.40421812349E+02  0.46142316534E+02  0.99999888132E+01 0.  0.
        -12    1    1    2    0    0 -0.10983023037E+02  0.16569969531E+02  0.40421812349E+02  0.45045683466E+02  0.00000000000E+00 0.  1.
         11    1    3    3    0    0  0.42221156261E+01 -0.17050260227E+01 -0.13132132807E+02  0.13899146967E+02  0.51100000000E-03 0. -1.
        -11    1    3    3    0    0  0.15480320464E+00  0.26150124541E+00  0.49211566064E-01  0.30784569653E+00  0.51100000000E-03 0.  1.
         12    1    3    3    0    0  0.66061042058E+01 -0.15126444754E+02 -0.27338891108E+02  0.31935323870E+02  0.00000000000E+00 0. -1.
</event>
<event>
 7    1  0.4102844E-008  0.4614232E+02  0.7816164E-02  0.1320468E+00
        -11   -1    0    0    0    0  0.00000000000E+00  0.00000000000E+00  0.45593999997E+02  0.45594000000E+02  0.51100000000E-03 0.  1.
         11   -1    0    0    0    0 -0.00000000000E+00 -0.00000000000E+00 -0.45593999997E+02  0.45594000000E+02  0.51100000000E-03 0. -1.
    9900012    2    1    2    0    0 -0.39586338855E+02 -0.22327078526E+01  0.21378734434E+02  0.46142317695E+02  0.99999993997E+01 0.  0.
        -12    1    1    2    0    0  0.39586338855E+02  0.22327078526E+01 -0.21378734434E+02  0.45045682305E+02  0.00000000000E+00 0.  1.
         11    1    3    3    0    0 -0.22155105824E+02 -0.33039355730E+01  0.11373719385E+02  0.25122225165E+02  0.51100000000E-03 0. -1.
        -11    1    3    3    0    0 -0.17926229171E+02  0.97872035233E+00  0.95197274122E+01  0.20320747921E+02  0.51100000000E-03 0.  1.
        -12    1    3    3    0    0  0.49499613980E+00  0.92507368116E-01  0.48528763660E+00  0.69934460876E+00  0.00000000000E+00 0.  1.
</event>
<event>
 7    1  0.4102844E-008  0.4614232E+02  0.7816164E-02  0.1320468E+00
        -11   -1    0    0    0    0  0.00000000000E+00  0.00000000000E+00  0.45593999997E+02  0.45594000000E+02  0.51100000000E-03 0.  1.
         11   -1    0    0    0    0 -0.00000000000E+00 -0.00000000000E+00 -0.45593999997E+02  0.45594000000E+02  0.51100000000E-03 0. -1.
    9900012    2    1    2    0    0  0.42961401781E+01 -0.20048317573E+02 -0.40108871767E+02  0.46142318161E+02  0.10000003643E+02 0.  0.
        -12    1    1    2    0    0 -0.42961401781E+01  0.20048317573E+02  0.40108871767E+02  0.45045681839E+02  0.00000000000E+00 0.  1.
         11    1    3    3    0    0  0.34128149016E+01 -0.15329720272E+02 -0.24009699411E+02  0.28689951119E+02  0.51100000000E-03 0. -1.
        -11    1    3    3    0    0  0.18186856065E+01  0.94661487641E-01 -0.38815724372E+01  0.42875614257E+01  0.51100000000E-03 0.  1.
         12    1    3    3    0    0 -0.93536033008E+00 -0.48132587889E+01 -0.12217599919E+02  0.13164805616E+02  0.00000000000E+00 0. -1.
</event>
<event>
 7    1  0.4102844E-008  0.4614232E+02  0.7816164E-02  0.1320468E+00
        -11   -1    0    0    0    0  0.00000000000E+00  0.00000000000E+00  0.45593999997E+02  0.45594000000E+02  0.51100000000E-03 0. -1.
         11   -1    0    0    0    0 -0.00000000000E+00 -0.00000000000E+00 -0.45593999997E+02  0.45594000000E+02  0.51100000000E-03 0.  1.
    9900012    2    1    2    0    0  0.16715946656E+02  0.19170177062E+02  0.37177882481E+02  0.46142317555E+02  0.99999981222E+01 0.  0.
        -12    1    1    2    0    0 -0.16715946656E+02 -0.19170177062E+02 -0.37177882481E+02  0.45045682445E+02  0.00000000000E+00 0.  1.
         11    1    3    3    0    0  0.62193683995E+01  0.11587792031E+02  0.16006296401E+02  0.20716152929E+02  0.51100000000E-03 0. -1.
        -11    1    3    3    0    0  0.22244992236E+01  0.99805509578E+00  0.89015823744E+01  0.92294463430E+01  0.51100000000E-03 0.  1.
        -12    1    3    3    0    0  0.82720790326E+01  0.65843299348E+01  0.12270003705E+02  0.16196718283E+02  0.00000000000E+00 0.  1.
</event>
<event>
 7    1  0.4102844E-008  0.4614232E+02  0.7816164E-02  0.1320468E+00
        -11   -1    0    0    0    0  0.00000000000E+00  0.00000000000E+00  0.45593999997E+02  0.45594000000E+02  0.51100000000E-03 0.  1.
         11   -1    0    0    0    0 -0.00000000000E+00 -0.00000000000E+00 -0.45593999997E+02  0.45594000000E+02  0.51100000000E-03 0. -1.
    9900012    2    1    2    0    0  0.15766644269E+02 -0.15304500184E+02 -0.39323004109E+02  0.46142318192E+02  0.10000003927E+02 0.  0.
        -12    1    1    2    0    0 -0.15766644269E+02  0.15304500184E+02  0.39323004109E+02  0.45045681808E+02  0.00000000000E+00 0.  1.
         11    1    3    3    0    0  0.10824193025E+02 -0.57208014177E+01 -0.22085825435E+02  0.25252215921E+02  0.51100000000E-03 0. -1.
        -11    1    3    3    0    0  0.18967461319E+01 -0.65675678882E+01 -0.69636787006E+01  0.97582485704E+01  0.51100000000E-03 0.  1.
        -12    1    3    3    0    0  0.30457051123E+01 -0.30161308777E+01 -0.10273499974E+02  0.11131853700E+02  0.00000000000E+00 0.  1.
</event>
<event>
 7    1  0.4102844E-008  0.4614232E+02  0.7816164E-02  0.1320468E+00
        -11   -1    0    0    0    0  0.00000000000E+00  0.00000000000E+00  0.45593999997E+02  0.45594000000E+02  0.51100000000E-03 0.  1.
         11   -1    0    0    0    0 -0.00000000000E+00 -0.00000000000E+00 -0.45593999997E+02  0.45594000000E+02  0.51100000000E-03 0. -1.
    9900012    2    1    2    0    0  0.26434329032E+02  0.10617396422E+02 -0.34894277789E+02  0.46142317848E+02  0.10000000788E+02 0.  0.
        -12    1    1    2    0    0 -0.26434329032E+02 -0.10617396422E+02  0.34894277789E+02  0.45045682152E+02  0.00000000000E+00 0.  1.
         11    1    3    3    0    0  0.24057458565E+02  0.73362597202E+01 -0.28874013959E+02  0.38292175463E+02  0.51100000000E-03 0. -1.
        -11    1    3    3    0    0  0.17128500084E+01  0.15680868873E+01 -0.10450588197E+01  0.25465466489E+01  0.51100000000E-03 0.  1.
        -12    1    3    3    0    0  0.66402045846E+00  0.17130498141E+01 -0.49752050102E+01  0.53035957358E+01  0.00000000000E+00 0.  1.
</event>
<event>
 7    1  0.4102844E-008  0.4614232E+02  0.7816164E-02  0.1320468E+00
        -11   -1    0    0    0    0  0.00000000000E+00  0.00000000000E+00  0.45593999997E+02  0.45594000000E+02  0.51100000000E-03 0.  1.
         11   -1    0    0    0    0 -0.00000000000E+00 -0.00000000000E+00 -0.45593999997E+02  0.45594000000E+02  0.51100000000E-03 0. -1.
    9900012    2    1    2    0    0 -0.30065168053E+02  0.16861651563E+02 -0.28997997531E+02  0.46142317806E+02  0.10000000412E+02 0.  0.
        -12    1    1    2    0    0  0.30065168053E+02 -0.16861651563E+02  0.28997997531E+02  0.45045682194E+02  0.00000000000E+00 0.  1.
         11    1    3    3    0    0 -0.10638786246E+02  0.39604555957E+01 -0.82699628544E+01  0.14044973022E+02  0.51100000000E-03 0. -1.
        -11    1    3    3    0    0 -0.83237337392E+01  0.13575452864E+01 -0.82031719502E+01  0.11765181804E+02  0.51100000000E-03 0.  1.
        -12    1    3    3    0    0 -0.11102648068E+02  0.11543650681E+02 -0.12524862727E+02  0.20332162981E+02  0.00000000000E+00 0.  1.
</event>
<event>
 7    1  0.4102844E-008  0.4614232E+02  0.7816164E-02  0.1320468E+00
        -11   -1    0    0    0    0  0.00000000000E+00  0.00000000000E+00  0.45593999997E+02  0.45594000000E+02  0.51100000000E-03 0.  1.
         11   -1    0    0    0    0 -0.00000000000E+00 -0.00000000000E+00 -0.45593999997E+02  0.45594000000E+02  0.51100000000E-03 0. -1.
    9900012    2    1    2    0    0  0.18658867742E+02  0.34392656897E+02 -0.22318274706E+02  0.46142316748E+02  0.99999907571E+01 0.  0.
        -12    1    1    2    0    0 -0.18658867742E+02 -0.34392656897E+02  0.22318274706E+02  0.45045683252E+02  0.00000000000E+00 0.  1.
         11    1    3    3    0    0  0.23788105114E+01  0.77132755666E+01 -0.67504137196E+01  0.10522425816E+02  0.51100000000E-03 0.  1.
        -11    1    3    3    0    0  0.16124246306E+02  0.22773356352E+02 -0.14968702656E+02  0.31665109157E+02  0.51100000000E-03 0. -1.
        -12    1    3    3    0    0  0.15581092476E+00  0.39060249787E+01 -0.59915833063E+00  0.39547817744E+01  0.00000000000E+00 0.  1.
</event>
<event>
 7    1  0.4102844E-008  0.4614232E+02  0.7816164E-02  0.1320468E+00
        -11   -1    0    0    0    0  0.00000000000E+00  0.00000000000E+00  0.45593999997E+02  0.45594000000E+02  0.51100000000E-03 0.  1.
         11   -1    0    0    0    0 -0.00000000000E+00 -0.00000000000E+00 -0.45593999997E+02  0.45594000000E+02  0.51100000000E-03 0. -1.
    9900012    2    1    2    0    0 -0.31035975743E+02  0.19534642647E+02 -0.26158735036E+02  0.46142317939E+02  0.10000001623E+02 0.  0.
        -12    1    1    2    0    0  0.31035975743E+02 -0.19534642647E+02  0.26158735036E+02  0.45045682061E+02  0.00000000000E+00 0.  1.
         11    1    3    3    0    0 -0.58229244255E+01  0.46238956153E+01 -0.38610266769E+01  0.83782090441E+01  0.51100000000E-03 0. -1.
        -11    1    3    3    0    0 -0.19746663136E+02  0.71844864731E+01 -0.15231567561E+02  0.25952807199E+02  0.51100000000E-03 0.  1.
        -12    1    3    3    0    0 -0.54663881808E+01  0.77262605586E+01 -0.70661407981E+01  0.11811301695E+02  0.00000000000E+00 0.  1.
</event>
<event>
 7    1  0.4102844E-008  0.4614232E+02  0.7816164E-02  0.1320468E+00
        -11   -1    0    0    0    0  0.00000000000E+00  0.00000000000E+00  0.45593999997E+02  0.45594000000E+02  0.51100000000E-03 0.  1.
         11   -1    0    0    0    0 -0.00000000000E+00 -0.00000000000E+00 -0.45593999997E+02  0.45594000000E+02  0.51100000000E-03 0. -1.
    9900012    2    1    2    0    0 -0.10035201359E+02  0.10350170152E+02 -0.42676483796E+02  0.46142316992E+02  0.99999929871E+01 0.  0.
        -12    1    1    2    0    0  0.10035201359E+02 -0.10350170152E+02  0.42676483796E+02  0.45045683008E+02  0.00000000000E+00 0.  1.
         11    1    3    3    0    0 -0.32192492018E+01  0.22486698439E+01 -0.21539568011E+02  0.21894590013E+02  0.51100000000E-03 0. -1.
        -11    1    3    3    0    0  0.48493619203E+00 -0.14123348395E+00 -0.29059439528E+01  0.29495119130E+01  0.51100000000E-03 0.  1.
         12    1    3    3    0    0 -0.73008883490E+01  0.82427337918E+01 -0.18230971832E+02  0.21298215066E+02  0.00000000000E+00 0. -1.
</event>
<event>
 7    1  0.4102844E-008  0.4614232E+02  0.7816164E-02  0.1320468E+00
        -11   -1    0    0    0    0  0.00000000000E+00  0.00000000000E+00  0.45593999997E+02  0.45594000000E+02  0.51100000000E-03 0.  1.
         11   -1    0    0    0    0 -0.00000000000E+00 -0.00000000000E+00 -0.45593999997E+02  0.45594000000E+02  0.51100000000E-03 0. -1.
    9900012    2    1    2    0    0 -0.35144066517E+02  0.21720155854E+02 -0.17951127044E+02  0.46142317145E+02  0.99999943820E+01 0.  0.
        -12    1    1    2    0    0  0.35144066517E+02 -0.21720155854E+02  0.17951127044E+02  0.45045682855E+02  0.00000000000E+00 0.  1.
         11    1    3    3    0    0 -0.98799464371E+01  0.49542108343E+01 -0.23188707622E+01  0.11293126603E+02  0.51100000000E-03 0. -1.
        -11    1    3    3    0    0 -0.71901318038E+01  0.42170061121E+01 -0.93285637488E+00  0.83875715903E+01  0.51100000000E-03 0.  1.
         12    1    3    3    0    0 -0.18073988277E+02  0.12548938908E+02 -0.14699399907E+02  0.26461618952E+02  0.00000000000E+00 0. -1.
</event>
<event>
 7    1  0.4102844E-008  0.4614232E+02  0.7816164E-02  0.1320468E+00
        -11   -1    0    0    0    0  0.00000000000E+00  0.00000000000E+00  0.45593999997E+02  0.45594000000E+02  0.51100000000E-03 0.  1.
         11   -1    0    0    0    0 -0.00000000000E+00 -0.00000000000E+00 -0.45593999997E+02  0.45594000000E+02  0.51100000000E-03 0. -1.
    9900012    2    1    2    0    0 -0.13951572611E+02  0.39345096091E+02 -0.16924258182E+02  0.46142317857E+02  0.10000000874E+02 0.  0.
        -12    1    1    2    0    0  0.13951572611E+02 -0.39345096091E+02  0.16924258182E+02  0.45045682143E+02  0.00000000000E+00 0.  1.
         11    1    3    3    0    0 -0.65435028276E+01  0.21710435126E+02 -0.83516449400E+01  0.24164237958E+02  0.51100000000E-03 0. -1.
        -11    1    3    3    0    0 -0.71312747303E+01  0.16798881651E+02 -0.96034729800E+01  0.20622419779E+02  0.51100000000E-03 0.  1.
        -12    1    3    3    0    0 -0.27679505278E+00  0.83577931366E+00  0.10308597375E+01  0.13556601200E+01  0.00000000000E+00 0.  1.
</event>
<event>
 7    1  0.4102844E-008  0.4614232E+02  0.7816164E-02  0.1320468E+00
        -11   -1    0    0    0    0  0.00000000000E+00  0.00000000000E+00  0.45593999997E+02  0.45594000000E+02  0.51100000000E-03 0.  1.
         11   -1    0    0    0    0 -0.00000000000E+00 -0.00000000000E+00 -0.45593999997E+02  0.45594000000E+02  0.51100000000E-03 0. -1.
    9900012    2    1    2    0    0 -0.29899051425E+02  0.32348294149E+02 -0.94206225206E+01  0.46142317197E+02  0.99999948566E+01 0.  0.
        -12    1    1    2    0    0  0.29899051425E+02 -0.32348294149E+02  0.94206225206E+01  0.45045682803E+02  0.00000000000E+00 0.  1.
         11    1    3    3    0    0 -0.12064578990E+02  0.14551000092E+02 -0.42482976990E+01  0.19373531002E+02  0.51100000000E-03 0. -1.
        -11    1    3    3    0    0 -0.33802622985E+01  0.71217587276E+01  0.57148138032E+00  0.79039364756E+01  0.51100000000E-03 0.  1.
         12    1    3    3    0    0 -0.14454210137E+02  0.10675535330E+02 -0.57438062019E+01  0.18864849719E+02  0.00000000000E+00 0. -1.
</event>
<event>
 7    1  0.4102844E-008  0.4614231E+02  0.7816164E-02  0.1320468E+00
        -11   -1    0    0    0    0  0.00000000000E+00  0.00000000000E+00  0.45593999997E+02  0.45594000000E+02  0.51100000000E-03 0.  1.
         11   -1    0    0    0    0 -0.00000000000E+00 -0.00000000000E+00 -0.45593999997E+02  0.45594000000E+02  0.51100000000E-03 0. -1.
    9900012    2    1    2    0    0  0.26880791425E+02  0.36356925608E+01 -0.35962742816E+02  0.46142311206E+02  0.99999402258E+01 0.  0.
        -12    1    1    2    0    0 -0.26880791425E+02 -0.36356925608E+01  0.35962742816E+02  0.45045688794E+02  0.00000000000E+00 0.  1.
         11    1    3    3    0    0  0.84103741119E+01 -0.16344097584E+00 -0.98995324902E+01  0.12990837134E+02  0.51100000000E-03 0. -1.
        -11    1    3    3    0    0  0.10784367562E+02  0.60293481811E+00 -0.20401644012E+02  0.23084479478E+02  0.51100000000E-03 0.  1.
        -12    1    3    3    0    0  0.76860497518E+01  0.31961987185E+01 -0.56615663137E+01  0.10066994594E+02  0.00000000000E+00 0.  1.
</event>
<event>
 7    1  0.4102844E-008  0.4614233E+02  0.7816164E-02  0.1320468E+00
        -11   -1    0    0    0    0  0.00000000000E+00  0.00000000000E+00  0.45593999997E+02  0.45594000000E+02  0.51100000000E-03 0. -1.
         11   -1    0    0    0    0 -0.00000000000E+00 -0.00000000000E+00 -0.45593999997E+02  0.45594000000E+02  0.51100000000E-03 0.  1.
    9900012    2    1    2    0    0 -0.20959746963E+02  0.39543005707E+02 -0.51139056068E+01  0.46142330690E+02  0.10000117892E+02 0.  0.
        -12    1    1    2    0    0  0.20959746963E+02 -0.39543005707E+02  0.51139056068E+01  0.45045669310E+02  0.00000000000E+00 0.  1.
         11    1    3    3    0    0 -0.12051087341E+02  0.19019263624E+02 -0.35259952024E+01  0.22790211437E+02  0.51100000000E-03 0.  1.
        -11    1    3    3    0    0 -0.60178815294E+01  0.16626288967E+02  0.12581489072E+01  0.17726571068E+02  0.51100000000E-03 0. -1.
        -12    1    3    3    0    0 -0.28907780920E+01  0.38974531156E+01 -0.28460593116E+01  0.56255481841E+01  0.00000000000E+00 0.  1.
</event>
<event>
 7    1  0.4102844E-008  0.4614232E+02  0.7816164E-02  0.1320468E+00
        -11   -1    0    0    0    0  0.00000000000E+00  0.00000000000E+00  0.45593999997E+02  0.45594000000E+02  0.51100000000E-03 0.  1.
         11   -1    0    0    0    0 -0.00000000000E+00 -0.00000000000E+00 -0.45593999997E+02  0.45594000000E+02  0.51100000000E-03 0. -1.
    9900012    2    1    2    0    0  0.39075437562E+02  0.15785698844E+02 -0.15907084009E+02  0.46142318406E+02  0.10000005879E+02 0.  0.
        -12    1    1    2    0    0 -0.39075437562E+02 -0.15785698844E+02  0.15907084009E+02  0.45045681594E+02  0.00000000000E+00 0.  1.
         11    1    3    3    0    0  0.37109512407E+01  0.42464733705E+00 -0.16871703616E+01  0.40985398085E+01  0.51100000000E-03 0.  1.
        -11    1    3    3    0    0  0.21544172620E+02  0.74120390675E+01 -0.40711016506E+01  0.23144406796E+02  0.51100000000E-03 0. -1.
        -12    1    3    3    0    0  0.13820313701E+02  0.79490124391E+01 -0.10148811997E+02  0.18899371802E+02  0.00000000000E+00 0.  1.
</event>
<event>
 7    1  0.4102844E-008  0.4614232E+02  0.7816164E-02  0.1320468E+00
        -11   -1    0    0    0    0  0.00000000000E+00  0.00000000000E+00  0.45593999997E+02  0.45594000000E+02  0.51100000000E-03 0.  1.
         11   -1    0    0    0    0 -0.00000000000E+00 -0.00000000000E+00 -0.45593999997E+02  0.45594000000E+02  0.51100000000E-03 0. -1.
    9900012    2    1    2    0    0 -0.24550904342E+01  0.15121523617E+02 -0.42360660706E+02  0.46142317399E+02  0.99999966972E+01 0.  0.
        -12    1    1    2    0    0  0.24550904342E+01 -0.15121523617E+02  0.42360660706E+02  0.45045682601E+02  0.00000000000E+00 0.  1.
         11    1    3    3    0    0 -0.50600374554E+01  0.10676403003E+02 -0.25004985388E+02  0.27655720107E+02  0.51100000000E-03 0. -1.
        -11    1    3    3    0    0  0.14919664241E+01  0.49023444669E+01 -0.13183563485E+02  0.14144443839E+02  0.51100000000E-03 0.  1.
        -12    1    3    3    0    0  0.11129805971E+01 -0.45722385294E+00 -0.41721118326E+01  0.43421534525E+01  0.00000000000E+00 0.  1.
</event>
<event>
 7    1  0.4102844E-008  0.4614232E+02  0.7816164E-02  0.1320468E+00
        -11   -1    0    0    0    0  0.00000000000E+00  0.00000000000E+00  0.45593999997E+02  0.45594000000E+02  0.51100000000E-03 0. -1.
         11   -1    0    0    0    0 -0.00000000000E+00 -0.00000000000E+00 -0.45593999997E+02  0.45594000000E+02  0.51100000000E-03 0.  1.
    9900012    2    1    2    0    0  0.25814688093E+02 -0.25226444647E+01  0.36828679589E+02  0.46142317668E+02  0.99999991536E+01 0.  0.
        -12    1    1    2    0    0 -0.25814688093E+02  0.25226444647E+01 -0.36828679589E+02  0.45045682332E+02  0.00000000000E+00 0.  1.
         11    1    3    3    0    0  0.27973182466E+00  0.77465658106E+00  0.23951055538E+01  0.25327600730E+01  0.51100000000E-03 0. -1.
        -11    1    3    3    0    0  0.18814803652E+02  0.63402070112E+00  0.22184100499E+02  0.29095242462E+02  0.51100000000E-03 0.  1.
        -12    1    3    3    0    0  0.67201526160E+01 -0.39313217469E+01  0.12249473536E+02  0.14514315133E+02  0.00000000000E+00 0.  1.
</event>
<event>
 7    1  0.4102844E-008  0.4614232E+02  0.7816164E-02  0.1320468E+00
        -11   -1    0    0    0    0  0.00000000000E+00  0.00000000000E+00  0.45593999997E+02  0.45594000000E+02  0.51100000000E-03 0.  1.
         11   -1    0    0    0    0 -0.00000000000E+00 -0.00000000000E+00 -0.45593999997E+02  0.45594000000E+02  0.51100000000E-03 0. -1.
    9900012    2    1    2    0    0  0.75484533914E+01  0.44195541893E+02  0.43460801087E+01  0.46142317808E+02  0.10000000427E+02 0.  0.
        -12    1    1    2    0    0 -0.75484533914E+01 -0.44195541893E+02 -0.43460801087E+01  0.45045682192E+02  0.00000000000E+00 0.  1.
         11    1    3    3    0    0  0.86421622500E+00  0.93057208734E+01  0.10577706960E+01  0.94054340551E+01  0.51100000000E-03 0. -1.
        -11    1    3    3    0    0  0.85934436638E+01  0.29426067842E+02  0.39616992201E+01  0.30910124614E+02  0.51100000000E-03 0.  1.
        -12    1    3    3    0    0 -0.19092064974E+01  0.54637531775E+01 -0.67338980747E+00  0.58267591393E+01  0.00000000000E+00 0.  1.
</event>
<event>
 7    1  0.4102844E-008  0.4614231E+02  0.7816164E-02  0.1320468E+00
        -11   -1    0    0    0    0  0.00000000000E+00  0.00000000000E+00  0.45593999997E+02  0.45594000000E+02  0.51100000000E-03 0. -1.
         11   -1    0    0    0    0 -0.00000000000E+00 -0.00000000000E+00 -0.45593999997E+02  0.45594000000E+02  0.51100000000E-03 0.  1.
    9900012    2    1    2    0    0 -0.13067181976E+01 -0.43124758328E+02 -0.12948425799E+02  0.46142311816E+02  0.99999457854E+01 0.  0.
        -12    1    1    2    0    0  0.13067181976E+01  0.43124758328E+02  0.12948425799E+02  0.45045688184E+02  0.00000000000E+00 0.  1.
         11    1    3    3    0    0 -0.31452418883E+01 -0.17007441697E+02 -0.44190048025E+01  0.17851420764E+02  0.51100000000E-03 0. -1.
        -11    1    3    3    0    0  0.52257337171E+00 -0.28955125959E+01 -0.33564901556E+01  0.44635302785E+01  0.51100000000E-03 0.  1.
        -12    1    3    3    0    0  0.13159503190E+01 -0.23221804036E+02 -0.51729308413E+01  0.23827360773E+02  0.00000000000E+00 0.  1.
</event>
<event>
 7    1  0.4102844E-008  0.4614232E+02  0.7816164E-02  0.1320468E+00
        -11   -1    0    0    0    0  0.00000000000E+00  0.00000000000E+00  0.45593999997E+02  0.45594000000E+02  0.51100000000E-03 0.  1.
         11   -1    0    0    0    0 -0.00000000000E+00 -0.00000000000E+00 -0.45593999997E+02  0.45594000000E+02  0.51100000000E-03 0. -1.
    9900012    2    1    2    0    0  0.41762618523E+02 -0.89702460993E+01 -0.14301463538E+02  0.46142317851E+02  0.10000000817E+02 0.  0.
        -12    1    1    2    0    0 -0.41762618523E+02  0.89702460993E+01  0.14301463538E+02  0.45045682149E+02  0.00000000000E+00 0.  1.
         11    1    3    3    0    0  0.33107559726E+02 -0.41054708760E+01 -0.11110815860E+02  0.35162702277E+02  0.51100000000E-03 0. -1.
        -11    1    3    3    0    0  0.44786125357E+01 -0.25961816684E+01  0.13562656785E+00  0.51784673724E+01  0.51100000000E-03 0.  1.
         12    1    3    3    0    0  0.41764462615E+01 -0.22685935549E+01 -0.33262742456E+01  0.58011482010E+01  0.00000000000E+00 0. -1.
</event>
<event>
 7    1  0.4102844E-008  0.4614232E+02  0.7816164E-02  0.1320468E+00
        -11   -1    0    0    0    0  0.00000000000E+00  0.00000000000E+00  0.45593999997E+02  0.45594000000E+02  0.51100000000E-03 0.  1.
         11   -1    0    0    0    0 -0.00000000000E+00 -0.00000000000E+00 -0.45593999997E+02  0.45594000000E+02  0.51100000000E-03 0. -1.
    9900012    2    1    2    0    0 -0.19968043649E+02 -0.38316098731E+02 -0.12738417015E+02  0.46142318107E+02  0.10000003153E+02 0.  0.
        -12    1    1    2    0    0  0.19968043649E+02  0.38316098731E+02  0.12738417015E+02  0.45045681893E+02  0.00000000000E+00 0.  1.
         11    1    3    3    0    0 -0.22593967017E+01 -0.27595524867E+01 -0.35337566134E+00  0.35839751676E+01  0.51100000000E-03 0. -1.
        -11    1    3    3    0    0 -0.14393094849E+02 -0.30234722602E+02 -0.13651418148E+02  0.36161593547E+02  0.51100000000E-03 0.  1.
        -12    1    3    3    0    0 -0.33155520990E+01 -0.53218236425E+01  0.12663767943E+01  0.63967493923E+01  0.00000000000E+00 0.  1.
</event>
<event>
 7    1  0.4102844E-008  0.4614232E+02  0.7816164E-02  0.1320468E+00
        -11   -1    0    0    0    0  0.00000000000E+00  0.00000000000E+00  0.45593999997E+02  0.45594000000E+02  0.51100000000E-03 0. -1.
         11   -1    0    0    0    0 -0.00000000000E+00 -0.00000000000E+00 -0.45593999997E+02  0.45594000000E+02  0.51100000000E-03 0.  1.
    9900012    2    1    2    0    0  0.38181744451E+02 -0.17167757864E+02  0.16629370890E+02  0.46142317681E+02  0.99999992670E+01 0.  0.
        -12    1    1    2    0    0 -0.38181744451E+02  0.17167757864E+02 -0.16629370890E+02  0.45045682319E+02  0.00000000000E+00 0.  1.
         11    1    3    3    0    0  0.18616437514E+02 -0.11719825205E+02  0.12045864802E+02  0.25080448713E+02  0.51100000000E-03 0. -1.
        -11    1    3    3    0    0  0.56656778648E+01 -0.34282501047E+00  0.47997655038E+00  0.56962981317E+01  0.51100000000E-03 0.  1.
         12    1    3    3    0    0  0.13899629073E+02 -0.51051076488E+01  0.41035295372E+01  0.15365570836E+02  0.00000000000E+00 0. -1.
</event>
<event>
 7    1  0.4102844E-008  0.4614232E+02  0.7816164E-02  0.1320468E+00
        -11   -1    0    0    0    0  0.00000000000E+00  0.00000000000E+00  0.45593999997E+02  0.45594000000E+02  0.51100000000E-03 0.  1.
         11   -1    0    0    0    0 -0.00000000000E+00 -0.00000000000E+00 -0.45593999997E+02  0.45594000000E+02  0.51100000000E-03 0. -1.
    9900012    2    1    2    0    0 -0.16381143391E+02 -0.87255821961E+01 -0.41044316743E+02  0.46142316740E+02  0.99999906900E+01 0.  0.
        -12    1    1    2    0    0  0.16381143391E+02  0.87255821961E+01  0.41044316743E+02  0.45045683260E+02  0.00000000000E+00 0.  1.
         11    1    3    3    0    0 -0.35646367200E+01 -0.23518805419E+01 -0.15876540754E+02  0.16440879648E+02  0.51100000000E-03 0. -1.
        -11    1    3    3    0    0 -0.75807324332E+00 -0.19242434512E+01 -0.79539482410E+01  0.82184354218E+01  0.51100000000E-03 0.  1.
         12    1    3    3    0    0 -0.12058433428E+02 -0.44494582030E+01 -0.17213827748E+02  0.21483001670E+02  0.00000000000E+00 0. -1.
</event>
<event>
 7    1  0.4102844E-008  0.4614232E+02  0.7816164E-02  0.1320468E+00
        -11   -1    0    0    0    0  0.00000000000E+00  0.00000000000E+00  0.45593999997E+02  0.45594000000E+02  0.51100000000E-03 0.  1.
         11   -1    0    0    0    0 -0.00000000000E+00 -0.00000000000E+00 -0.45593999997E+02  0.45594000000E+02  0.51100000000E-03 0. -1.
    9900012    2    1    2    0    0  0.20224004271E+02 -0.21153559101E+01 -0.40194881229E+02  0.46142317006E+02  0.99999931133E+01 0.  0.
        -12    1    1    2    0    0 -0.20224004271E+02  0.21153559101E+01  0.40194881229E+02  0.45045682994E+02  0.00000000000E+00 0.  1.
         11    1    3    3    0    0  0.16513813593E+02  0.86777424368E+00 -0.35945086283E+02  0.39566504769E+02  0.51100000000E-03 0. -1.
        -11    1    3    3    0    0  0.11041649347E+01 -0.18731193588E+01 -0.20635081827E+01  0.29976361715E+01  0.51100000000E-03 0.  1.
         12    1    3    3    0    0  0.26060257433E+01 -0.11100107949E+01 -0.21862867636E+01  0.35781760651E+01  0.00000000000E+00 0. -1.
</event>
<event>
 7    1  0.4102844E-008  0.4614232E+02  0.7816164E-02  0.1320468E+00
        -11   -1    0    0    0    0  0.00000000000E+00  0.00000000000E+00  0.45593999997E+02  0.45594000000E+02  0.51100000000E-03 0.  1.
         11   -1    0    0    0    0 -0.00000000000E+00 -0.00000000000E+00 -0.45593999997E+02  0.45594000000E+02  0.51100000000E-03 0. -1.
    9900012    2    1    2    0    0 -0.28875968817E+01  0.18060975482E+02 -0.41165235763E+02  0.46142315562E+02  0.99999799446E+01 0.  0.
        -12    1    1    2    0    0  0.28875968817E+01 -0.18060975482E+02  0.41165235763E+02  0.45045684438E+02  0.00000000000E+00 0.  1.
         11    1    3    3    0    0 -0.22613877440E+01  0.35052780903E+01 -0.14117858156E+02  0.14721235280E+02  0.51100000000E-03 0. -1.
        -11    1    3    3    0    0  0.23193764455E+01  0.29114348871E+01 -0.90305673636E+01  0.97676561859E+01  0.51100000000E-03 0.  1.
         12    1    3    3    0    0 -0.29455855832E+01  0.11644262504E+02 -0.18016810244E+02  0.21653424095E+02  0.00000000000E+00 0. -1.
</event>
<event>
 7    1  0.4102844E-008  0.4614232E+02  0.7816164E-02  0.1320468E+00
        -11   -1    0    0    0    0  0.00000000000E+00  0.00000000000E+00  0.45593999997E+02  0.45594000000E+02  0.51100000000E-03 0.  1.
         11   -1    0    0    0    0 -0.00000000000E+00 -0.00000000000E+00 -0.45593999997E+02  0.45594000000E+02  0.51100000000E-03 0. -1.
    9900012    2    1    2    0    0 -0.33658877292E+02 -0.10794481826E+02 -0.27922617001E+02  0.46142318757E+02  0.10000009082E+02 0.  0.
        -12    1    1    2    0    0  0.33658877292E+02  0.10794481826E+02  0.27922617001E+02  0.45045681243E+02  0.00000000000E+00 0.  1.
         11    1    3    3    0    0 -0.26714964827E+02 -0.57419276737E+01 -0.22290330158E+02  0.35263549140E+02  0.51100000000E-03 0. -1.
        -11    1    3    3    0    0 -0.68924264639E+01 -0.35558459272E+01 -0.42654102790E+01  0.88511755111E+01  0.51100000000E-03 0.  1.
        -12    1    3    3    0    0 -0.51486001254E-01 -0.14967082246E+01 -0.13668765641E+01  0.20275941061E+01  0.00000000000E+00 0.  1.
</event>
<event>
 7    1  0.4102844E-008  0.4614232E+02  0.7816164E-02  0.1320468E+00
        -11   -1    0    0    0    0  0.00000000000E+00  0.00000000000E+00  0.45593999997E+02  0.45594000000E+02  0.51100000000E-03 0.  1.
         11   -1    0    0    0    0 -0.00000000000E+00 -0.00000000000E+00 -0.45593999997E+02  0.45594000000E+02  0.51100000000E-03 0. -1.
    9900012    2    1    2    0    0  0.35161762430E+02 -0.33573845470E+01 -0.27955174978E+02  0.46142319005E+02  0.10000011347E+02 0.  0.
        -12    1    1    2    0    0 -0.35161762430E+02  0.33573845470E+01  0.27955174978E+02  0.45045680995E+02  0.00000000000E+00 0.  1.
         11    1    3    3    0    0  0.20387786678E+01 -0.82686848504E+00 -0.27801264460E+00  0.22175710224E+01  0.51100000000E-03 0. -1.
        -11    1    3    3    0    0  0.81036058359E+01 -0.35849436866E+01 -0.51952342524E+01  0.10271840535E+02  0.51100000000E-03 0.  1.
         12    1    3    3    0    0  0.25019377926E+02  0.10544276246E+01 -0.22481928081E+02  0.33652907448E+02  0.00000000000E+00 0. -1.
</event>
<event>
 7    1  0.4102844E-008  0.4614232E+02  0.7816164E-02  0.1320468E+00
        -11   -1    0    0    0    0  0.00000000000E+00  0.00000000000E+00  0.45593999997E+02  0.45594000000E+02  0.51100000000E-03 0. -1.
         11   -1    0    0    0    0 -0.00000000000E+00 -0.00000000000E+00 -0.45593999997E+02  0.45594000000E+02  0.51100000000E-03 0.  1.
    9900012    2    1    2    0    0  0.27061749004E+01 -0.26070002055E+02  0.36635298636E+02  0.46142317677E+02  0.99999992361E+01 0.  0.
        -12    1    1    2    0    0 -0.27061749004E+01  0.26070002055E+02 -0.36635298636E+02  0.45045682323E+02  0.00000000000E+00 0.  1.
         11    1    3    3    0    0 -0.10499549242E+01 -0.42657038516E+01  0.10517064203E+02  0.11397687239E+02  0.51100000000E-03 0. -1.
        -11    1    3    3    0    0  0.21234594548E+01 -0.24204918675E+01  0.56790692217E+01  0.65283756343E+01  0.51100000000E-03 0.  1.
         12    1    3    3    0    0  0.16326703698E+01 -0.19383806336E+02  0.20439165212E+02  0.28216254804E+02  0.00000000000E+00 0. -1.
</event>
<event>
 7    1  0.4102844E-008  0.4614231E+02  0.7816164E-02  0.1320468E+00
        -11   -1    0    0    0    0  0.00000000000E+00  0.00000000000E+00  0.45593999997E+02  0.45594000000E+02  0.51100000000E-03 0.  1.
         11   -1    0    0    0    0 -0.00000000000E+00 -0.00000000000E+00 -0.45593999997E+02  0.45594000000E+02  0.51100000000E-03 0. -1.
    9900012    2    1    2    0    0  0.79102804547E+00  0.11860949929E+02 -0.43448890571E+02  0.46142312632E+02  0.99999532259E+01 0.  0.
        -12    1    1    2    0    0 -0.79102804547E+00 -0.11860949929E+02  0.43448890571E+02  0.45045687368E+02  0.00000000000E+00 0.  1.
         11    1    3    3    0    0  0.20890257087E+01  0.15134038310E+01 -0.16043052021E+02  0.16249121145E+02  0.51100000000E-03 0. -1.
        -11    1    3    3    0    0 -0.77088137541E+00  0.21449749678E+01 -0.13878753793E+02  0.14064671443E+02  0.51100000000E-03 0.  1.
        -12    1    3    3    0    0 -0.52711628779E+00  0.82025711303E+01 -0.13527084758E+02  0.15828520043E+02  0.00000000000E+00 0.  1.
</event>
<event>
 7    1  0.4102844E-008  0.4614232E+02  0.7816164E-02  0.1320468E+00
        -11   -1    0    0    0    0  0.00000000000E+00  0.00000000000E+00  0.45593999997E+02  0.45594000000E+02  0.51100000000E-03 0. -1.
         11   -1    0    0    0    0 -0.00000000000E+00 -0.00000000000E+00 -0.45593999997E+02  0.45594000000E+02  0.51100000000E-03 0.  1.
    9900012    2    1    2    0    0  0.61760603182E+01  0.15028653432E+02  0.42013204431E+02  0.46142317725E+02  0.99999996727E+01 0.  0.
        -12    1    1    2    0    0 -0.61760603182E+01 -0.15028653432E+02 -0.42013204431E+02  0.45045682275E+02  0.00000000000E+00 0.  1.
         11    1    3    3    0    0  0.64588480446E+01  0.70407723810E+01  0.21673853842E+02  0.23686391334E+02  0.51100000000E-03 0. -1.
        -11    1    3    3    0    0  0.30286012315E+00  0.25101116486E+01  0.13190811330E+02  0.13430930294E+02  0.51100000000E-03 0.  1.
        -12    1    3    3    0    0 -0.58564784954E+00  0.54777694026E+01  0.71485392583E+01  0.90249960975E+01  0.00000000000E+00 0.  1.
</event>
<event>
 7    1  0.4102844E-008  0.4614232E+02  0.7816164E-02  0.1320468E+00
        -11   -1    0    0    0    0  0.00000000000E+00  0.00000000000E+00  0.45593999997E+02  0.45594000000E+02  0.51100000000E-03 0. -1.
         11   -1    0    0    0    0 -0.00000000000E+00 -0.00000000000E+00 -0.45593999997E+02  0.45594000000E+02  0.51100000000E-03 0.  1.
    9900012    2    1    2    0    0 -0.17690736586E+02 -0.34453322973E+02  0.23002606133E+02  0.46142317480E+02  0.99999974332E+01 0.  0.
        -12    1    1    2    0    0  0.17690736586E+02  0.34453322973E+02 -0.23002606133E+02  0.45045682520E+02  0.00000000000E+00 0.  1.
         11    1    3    3    0    0 -0.63114118712E+01 -0.12133825867E+02  0.10369902756E+02  0.17163872914E+02  0.51100000000E-03 0.  1.
        -11    1    3    3    0    0 -0.12334886736E+02 -0.20131371091E+02  0.12109333189E+02  0.26534081543E+02  0.51100000000E-03 0. -1.
        -12    1    3    3    0    0  0.95556202108E+00 -0.21881260150E+01  0.52337018781E+00  0.24443630228E+01  0.00000000000E+00 0.  1.
</event>
<event>
 7    1  0.4102844E-008  0.4614232E+02  0.7816164E-02  0.1320468E+00
        -11   -1    0    0    0    0  0.00000000000E+00  0.00000000000E+00  0.45593999997E+02  0.45594000000E+02  0.51100000000E-03 0. -1.
         11   -1    0    0    0    0 -0.00000000000E+00 -0.00000000000E+00 -0.45593999997E+02  0.45594000000E+02  0.51100000000E-03 0.  1.
    9900012    2    1    2    0    0 -0.70685807175E+01 -0.44479957431E+02 -0.82585372072E+00  0.46142317845E+02  0.10000000763E+02 0.  0.
        -12    1    1    2    0    0  0.70685807175E+01  0.44479957431E+02  0.82585372072E+00  0.45045682155E+02  0.00000000000E+00 0.  1.
         11    1    3    3    0    0 -0.15364261068E+01 -0.18123947558E+02 -0.98494421120E+00  0.18215603082E+02  0.51100000000E-03 0. -1.
        -11    1    3    3    0    0 -0.32501967387E+01 -0.81806166781E+01 -0.30771124812E+01  0.93249605660E+01  0.51100000000E-03 0.  1.
        -12    1    3    3    0    0 -0.22819578720E+01 -0.18175393195E+02  0.32362029717E+01  0.18601754197E+02  0.00000000000E+00 0.  1.
</event>
<event>
 7    1  0.4102844E-008  0.4614232E+02  0.7816164E-02  0.1320468E+00
        -11   -1    0    0    0    0  0.00000000000E+00  0.00000000000E+00  0.45593999997E+02  0.45594000000E+02  0.51100000000E-03 0.  1.
         11   -1    0    0    0    0 -0.00000000000E+00 -0.00000000000E+00 -0.45593999997E+02  0.45594000000E+02  0.51100000000E-03 0. -1.
    9900012    2    1    2    0    0 -0.14368667365E+02 -0.32717263418E+02 -0.27426912606E+02  0.46142318048E+02  0.10000002616E+02 0.  0.
        -12    1    1    2    0    0  0.14368667365E+02  0.32717263418E+02  0.27426912606E+02  0.45045681952E+02  0.00000000000E+00 0.  1.
         11    1    3    3    0    0 -0.87819812687E+01 -0.23124234565E+02 -0.19440813291E+02  0.31461065476E+02  0.51100000000E-03 0. -1.
        -11    1    3    3    0    0 -0.30295270991E+01 -0.88158476390E+01 -0.46822213716E+01  0.10431701744E+02  0.51100000000E-03 0.  1.
         12    1    3    3    0    0 -0.25571589973E+01 -0.77718121460E+00 -0.33038779433E+01  0.42495508283E+01  0.00000000000E+00 0. -1.
</event>
<event>
 7    1  0.4102844E-008  0.4614232E+02  0.7816164E-02  0.1320468E+00
        -11   -1    0    0    0    0  0.00000000000E+00  0.00000000000E+00  0.45593999997E+02  0.45594000000E+02  0.51100000000E-03 0.  1.
         11   -1    0    0    0    0 -0.00000000000E+00 -0.00000000000E+00 -0.45593999997E+02  0.45594000000E+02  0.51100000000E-03 0. -1.
    9900012    2    1    2    0    0 -0.20206993878E+01  0.36670414472E+02 -0.26082771156E+02  0.46142317913E+02  0.10000001383E+02 0.  0.
        -12    1    1    2    0    0  0.20206993878E+01 -0.36670414472E+02  0.26082771156E+02  0.45045682087E+02  0.00000000000E+00 0.  1.
         11    1    3    3    0    0  0.19922311369E+01  0.19299149685E+02 -0.11823903760E+02  0.22720714422E+02  0.51100000000E-03 0. -1.
        -11    1    3    3    0    0 -0.19268519817E+01  0.15285376402E+02 -0.13198350196E+02  0.20286742924E+02  0.51100000000E-03 0.  1.
        -12    1    3    3    0    0 -0.20860785430E+01  0.20858883846E+01 -0.10605171994E+01  0.31348605664E+01  0.00000000000E+00 0.  1.
</event>
<event>
 7    1  0.4102844E-008  0.4614232E+02  0.7816164E-02  0.1320468E+00
        -11   -1    0    0    0    0  0.00000000000E+00  0.00000000000E+00  0.45593999997E+02  0.45594000000E+02  0.51100000000E-03 0.  1.
         11   -1    0    0    0    0 -0.00000000000E+00 -0.00000000000E+00 -0.45593999997E+02  0.45594000000E+02  0.51100000000E-03 0. -1.
    9900012    2    1    2    0    0  0.90977853939E+01  0.29981881112E+02 -0.32364034586E+02  0.46142316203E+02  0.99999857910E+01 0.  0.
        -12    1    1    2    0    0 -0.90977853939E+01 -0.29981881112E+02  0.32364034586E+02  0.45045683797E+02  0.00000000000E+00 0.  1.
         11    1    3    3    0    0  0.62936718450E+01  0.18086486142E+02 -0.17440018201E+02  0.25901457901E+02  0.51100000000E-03 0.  1.
        -11    1    3    3    0    0  0.47570058125E+01  0.84494441783E+01 -0.10141391781E+02  0.14031038406E+02  0.51100000000E-03 0. -1.
        -12    1    3    3    0    0 -0.19528922636E+01  0.34459507916E+01 -0.47826246034E+01  0.62098198966E+01  0.00000000000E+00 0.  1.
</event>
<event>
 7    1  0.4102844E-008  0.4614232E+02  0.7816164E-02  0.1320468E+00
        -11   -1    0    0    0    0  0.00000000000E+00  0.00000000000E+00  0.45593999997E+02  0.45594000000E+02  0.51100000000E-03 0.  1.
         11   -1    0    0    0    0 -0.00000000000E+00 -0.00000000000E+00 -0.45593999997E+02  0.45594000000E+02  0.51100000000E-03 0. -1.
    9900012    2    1    2    0    0  0.30353332804E+02  0.13223340866E+02 -0.30543934730E+02  0.46142317579E+02  0.99999983431E+01 0.  0.
        -12    1    1    2    0    0 -0.30353332804E+02 -0.13223340866E+02  0.30543934730E+02  0.45045682421E+02  0.00000000000E+00 0.  1.
         11    1    3    3    0    0  0.15969119070E+02  0.96137211507E+01 -0.20742015803E+02  0.27886692491E+02  0.51100000000E-03 0. -1.
        -11    1    3    3    0    0  0.32841976402E+01  0.12283838716E+01 -0.45574094846E+01  0.57502054353E+01  0.51100000000E-03 0.  1.
        -12    1    3    3    0    0  0.11100016094E+02  0.23812358432E+01 -0.52445094424E+01  0.12505419653E+02  0.00000000000E+00 0.  1.
</event>
<event>
 7    1  0.4102844E-008  0.4614232E+02  0.7816164E-02  0.1320468E+00
        -11   -1    0    0    0    0  0.00000000000E+00  0.00000000000E+00  0.45593999997E+02  0.45594000000E+02  0.51100000000E-03 0. -1.
         11   -1    0    0    0    0 -0.00000000000E+00 -0.00000000000E+00 -0.45593999997E+02  0.45594000000E+02  0.51100000000E-03 0.  1.
    9900012    2    1    2    0    0  0.11780584549E+02  0.43476147986E+02 -0.39488287208E+00  0.46142317094E+02  0.99999939156E+01 0.  0.
        -12    1    1    2    0    0 -0.11780584549E+02 -0.43476147986E+02  0.39488287208E+00  0.45045682906E+02  0.00000000000E+00 0.  1.
         11    1    3    3    0    0  0.97236560318E+00  0.96641956424E+01 -0.41663443394E+00  0.97219214559E+01  0.51100000000E-03 0. -1.
        -11    1    3    3    0    0 -0.44807021708E+00  0.58689808396E+01 -0.20283617147E+01  0.62257493141E+01  0.51100000000E-03 0.  1.
         12    1    3    3    0    0  0.11256289163E+02  0.27942971504E+02  0.20501132766E+01  0.30194646324E+02  0.00000000000E+00 0. -1.
</event>
<event>
 7    1  0.4102844E-008  0.4614232E+02  0.7816164E-02  0.1320468E+00
        -11   -1    0    0    0    0  0.00000000000E+00  0.00000000000E+00  0.45593999997E+02  0.45594000000E+02  0.51100000000E-03 0.  1.
         11   -1    0    0    0    0 -0.00000000000E+00 -0.00000000000E+00 -0.45593999997E+02  0.45594000000E+02  0.51100000000E-03 0. -1.
    9900012    2    1    2    0    0 -0.10024443107E+02  0.60694083213E+00 -0.43911907314E+02  0.46142318290E+02  0.10000004826E+02 0.  0.
        -12    1    1    2    0    0  0.10024443107E+02 -0.60694083213E+00  0.43911907314E+02  0.45045681710E+02  0.00000000000E+00 0.  1.
         11    1    3    3    0    0 -0.99220473709E+01  0.25659496260E-01 -0.30306905632E+02  0.31889750888E+02  0.51100000000E-03 0. -1.
        -11    1    3    3    0    0 -0.19416954461E+01  0.37774712790E-01 -0.98107854381E+01  0.10001155899E+02  0.51100000000E-03 0.  1.
        -12    1    3    3    0    0  0.18392997102E+01  0.54350662308E+00 -0.37942162432E+01  0.42514115037E+01  0.00000000000E+00 0.  1.
</event>
<event>
 7    1  0.4102844E-008  0.4614232E+02  0.7816164E-02  0.1320468E+00
        -11   -1    0    0    0    0  0.00000000000E+00  0.00000000000E+00  0.45593999997E+02  0.45594000000E+02  0.51100000000E-03 0.  1.
         11   -1    0    0    0    0 -0.00000000000E+00 -0.00000000000E+00 -0.45593999997E+02  0.45594000000E+02  0.51100000000E-03 0. -1.
    9900012    2    1    2    0    0  0.40476211751E+02 -0.19761551901E+02  0.52048412791E+00  0.46142317022E+02  0.99999932615E+01 0.  0.
        -12    1    1    2    0    0 -0.40476211751E+02  0.19761551901E+02 -0.52048412791E+00  0.45045682978E+02  0.00000000000E+00 0.  1.
         11    1    3    3    0    0  0.32678328094E+02 -0.19842042527E+02 -0.40239212155E-01  0.38230634288E+02  0.51100000000E-03 0. -1.
        -11    1    3    3    0    0  0.35375301635E+01 -0.17479258272E+00 -0.31134871824E+00  0.35555042385E+01  0.51100000000E-03 0.  1.
         12    1    3    3    0    0  0.42603534938E+01  0.25528320903E+00  0.87207205831E+00  0.43561784954E+01  0.00000000000E+00 0. -1.
</event>
<event>
 7    1  0.4102844E-008  0.4614232E+02  0.7816164E-02  0.1320468E+00
        -11   -1    0    0    0    0  0.00000000000E+00  0.00000000000E+00  0.45593999997E+02  0.45594000000E+02  0.51100000000E-03 0. -1.
         11   -1    0    0    0    0 -0.00000000000E+00 -0.00000000000E+00 -0.45593999997E+02  0.45594000000E+02  0.51100000000E-03 0.  1.
    9900012    2    1    2    0    0  0.37433460668E+02 -0.65990580218E+01  0.24172336441E+02  0.46142318815E+02  0.10000009612E+02 0.  0.
        -12    1    1    2    0    0 -0.37433460668E+02  0.65990580218E+01 -0.24172336441E+02  0.45045681185E+02  0.00000000000E+00 0.  1.
         11    1    3    3    0    0  0.12831776494E+02  0.27592939676E+00  0.97318891494E+01  0.16107150328E+02  0.51100000000E-03 0. -1.
        -11    1    3    3    0    0  0.78053216395E+00 -0.97418980077E+00  0.23871375727E+01  0.26938266981E+01  0.51100000000E-03 0.  1.
        -12    1    3    3    0    0  0.23821152010E+02 -0.59007976178E+01  0.12053309719E+02  0.27341341789E+02  0.00000000000E+00 0.  1.
</event>
<event>
 7    1  0.4102844E-008  0.4614232E+02  0.7816164E-02  0.1320468E+00
        -11   -1    0    0    0    0  0.00000000000E+00  0.00000000000E+00  0.45593999997E+02  0.45594000000E+02  0.51100000000E-03 0. -1.
         11   -1    0    0    0    0 -0.00000000000E+00 -0.00000000000E+00 -0.45593999997E+02  0.45594000000E+02  0.51100000000E-03 0.  1.
    9900012    2    1    2    0    0  0.42797136507E+02  0.30211751596E+01 -0.13725564880E+02  0.46142317367E+02  0.99999964101E+01 0.  0.
        -12    1    1    2    0    0 -0.42797136507E+02 -0.30211751596E+01  0.13725564880E+02  0.45045682633E+02  0.00000000000E+00 0.  1.
         11    1    3    3    0    0  0.79136314449E+01  0.28221461902E+01 -0.33012123356E+01  0.90270745489E+01  0.51100000000E-03 0.  1.
        -11    1    3    3    0    0  0.23763457590E+02 -0.20817379718E+01 -0.43747112041E+01  0.24252291603E+02  0.51100000000E-03 0. -1.
         12    1    3    3    0    0  0.11120047472E+02  0.22807669412E+01 -0.60496413407E+01  0.12862951215E+02  0.00000000000E+00 0. -1.
</event>
<event>
 7    1  0.4102844E-008  0.4614232E+02  0.7816164E-02  0.1320468E+00
        -11   -1    0    0    0    0  0.00000000000E+00  0.00000000000E+00  0.45593999997E+02  0.45594000000E+02  0.51100000000E-03 0. -1.
         11   -1    0    0    0    0 -0.00000000000E+00 -0.00000000000E+00 -0.45593999997E+02  0.45594000000E+02  0.51100000000E-03 0.  1.
    9900012    2    1    2    0    0 -0.48777218615E+01  0.43707814207E+02  0.97441408678E+01  0.46142317915E+02  0.10000001402E+02 0.  0.
        -12    1    1    2    0    0  0.48777218615E+01 -0.43707814207E+02 -0.97441408678E+01  0.45045682085E+02  0.00000000000E+00 0.  1.
         11    1    3    3    0    0  0.22319946234E-01  0.29143812766E+02  0.47885653179E+01  0.29534601382E+02  0.51100000000E-03 0. -1.
        -11    1    3    3    0    0 -0.48615515968E+01  0.12292292277E+02  0.54233423275E+01  0.14288029101E+02  0.51100000000E-03 0.  1.
        -12    1    3    3    0    0 -0.38490210957E-01  0.22717091640E+01 -0.46776677757E+00  0.23196874316E+01  0.00000000000E+00 0.  1.
</event>
<event>
 7    1  0.4102844E-008  0.4614232E+02  0.7816164E-02  0.1320468E+00
        -11   -1    0    0    0    0  0.00000000000E+00  0.00000000000E+00  0.45593999997E+02  0.45594000000E+02  0.51100000000E-03 0.  1.
         11   -1    0    0    0    0 -0.00000000000E+00 -0.00000000000E+00 -0.45593999997E+02  0.45594000000E+02  0.51100000000E-03 0. -1.
    9900012    2    1    2    0    0 -0.31707414285E+02 -0.41865170564E+01 -0.31721070239E+02  0.46142319377E+02  0.10000014732E+02 0.  0.
        -12    1    1    2    0    0  0.31707414285E+02  0.41865170564E+01  0.31721070239E+02  0.45045680623E+02  0.00000000000E+00 0.  1.
         11    1    3    3    0    0 -0.14780726344E+02 -0.55022125085E+00 -0.17382263422E+02  0.22823577647E+02  0.51100000000E-03 0. -1.
        -11    1    3    3    0    0 -0.13646861307E+01 -0.10633021093E+01 -0.42663146616E+01  0.46037398562E+01  0.51100000000E-03 0.  1.
        -12    1    3    3    0    0 -0.15562001810E+02 -0.25729936963E+01 -0.10072492156E+02  0.18715001873E+02  0.00000000000E+00 0.  1.
</event>
<event>
 7    1  0.4102844E-008  0.4614232E+02  0.7816164E-02  0.1320468E+00
        -11   -1    0    0    0    0  0.00000000000E+00  0.00000000000E+00  0.45593999997E+02  0.45594000000E+02  0.51100000000E-03 0.  1.
         11   -1    0    0    0    0 -0.00000000000E+00 -0.00000000000E+00 -0.45593999997E+02  0.45594000000E+02  0.51100000000E-03 0. -1.
    9900012    2    1    2    0    0 -0.12893900560E+02  0.22459102569E+02 -0.36857150654E+02  0.46142317475E+02  0.99999973892E+01 0.  0.
        -12    1    1    2    0    0  0.12893900560E+02 -0.22459102569E+02  0.36857150654E+02  0.45045682525E+02  0.00000000000E+00 0.  1.
         11    1    3    3    0    0 -0.68243986968E+01  0.65706282455E+01 -0.10647837782E+02  0.14252088366E+02  0.51100000000E-03 0.  1.
        -11    1    3    3    0    0 -0.13810393362E+01  0.56569967658E+00 -0.55373523828E+01  0.57349417996E+01  0.51100000000E-03 0. -1.
         12    1    3    3    0    0 -0.46884625267E+01  0.15322774647E+02 -0.20671960489E+02  0.26155287309E+02  0.00000000000E+00 0. -1.
</event>
<event>
 7    1  0.4102844E-008  0.4614232E+02  0.7816164E-02  0.1320468E+00
        -11   -1    0    0    0    0  0.00000000000E+00  0.00000000000E+00  0.45593999997E+02  0.45594000000E+02  0.51100000000E-03 0.  1.
         11   -1    0    0    0    0 -0.00000000000E+00 -0.00000000000E+00 -0.45593999997E+02  0.45594000000E+02  0.51100000000E-03 0. -1.
    9900012    2    1    2    0    0  0.50873378223E+01  0.30670849915E+02 -0.32596494361E+02  0.46142317795E+02  0.10000000312E+02 0.  0.
        -12    1    1    2    0    0 -0.50873378223E+01 -0.30670849915E+02  0.32596494361E+02  0.45045682205E+02  0.00000000000E+00 0.  1.
         11    1    3    3    0    0 -0.30445010326E+00  0.23239173778E+02 -0.22549405199E+02  0.32382519403E+02  0.51100000000E-03 0. -1.
        -11    1    3    3    0    0  0.15913247928E+01  0.11045972780E+01 -0.13942314494E+01  0.23866988370E+01  0.51100000000E-03 0.  1.
         12    1    3    3    0    0  0.38004631328E+01  0.63270788590E+01 -0.86528577124E+01  0.11373099556E+02  0.00000000000E+00 0. -1.
</event>
<event>
 7    1  0.4102844E-008  0.4614232E+02  0.7816164E-02  0.1320468E+00
        -11   -1    0    0    0    0  0.00000000000E+00  0.00000000000E+00  0.45593999997E+02  0.45594000000E+02  0.51100000000E-03 0.  1.
         11   -1    0    0    0    0 -0.00000000000E+00 -0.00000000000E+00 -0.45593999997E+02  0.45594000000E+02  0.51100000000E-03 0. -1.
    9900012    2    1    2    0    0 -0.16619415820E+02  0.20518194031E+02 -0.36495373362E+02  0.46142317129E+02  0.99999942386E+01 0.  0.
        -12    1    1    2    0    0  0.16619415820E+02 -0.20518194031E+02  0.36495373362E+02  0.45045682871E+02  0.00000000000E+00 0.  1.
         11    1    3    3    0    0 -0.53943711877E+01  0.31816473106E+01 -0.10092658362E+02  0.11877873260E+02  0.51100000000E-03 0. -1.
        -11    1    3    3    0    0 -0.83930615808E+01  0.87488871665E+01 -0.10829053036E+02  0.16255918900E+02  0.51100000000E-03 0.  1.
        -12    1    3    3    0    0 -0.28319830519E+01  0.85876595535E+01 -0.15573661964E+02  0.18008524969E+02  0.00000000000E+00 0.  1.
</event>
<event>
 7    1  0.4102844E-008  0.4614232E+02  0.7816164E-02  0.1320468E+00
        -11   -1    0    0    0    0  0.00000000000E+00  0.00000000000E+00  0.45593999997E+02  0.45594000000E+02  0.51100000000E-03 0.  1.
         11   -1    0    0    0    0 -0.00000000000E+00 -0.00000000000E+00 -0.45593999997E+02  0.45594000000E+02  0.51100000000E-03 0. -1.
    9900012    2    1    2    0    0 -0.83467394949E+01  0.32481900358E+02 -0.30072771174E+02  0.46142317886E+02  0.10000001139E+02 0.  0.
        -12    1    1    2    0    0  0.83467394949E+01 -0.32481900358E+02  0.30072771174E+02  0.45045682114E+02  0.00000000000E+00 0.  1.
         11    1    3    3    0    0 -0.18780733523E+01  0.80427733566E+01 -0.85088097267E+01  0.11858043937E+02  0.51100000000E-03 0. -1.
        -11    1    3    3    0    0  0.37259550646E+00  0.14917337168E+02 -0.12460157488E+02  0.19440198057E+02  0.51100000000E-03 0.  1.
        -12    1    3    3    0    0 -0.68412616491E+01  0.95217898332E+01 -0.91038039590E+01  0.14844075893E+02  0.00000000000E+00 0.  1.
</event>
<event>
 7    1  0.4102844E-008  0.4614232E+02  0.7816164E-02  0.1320468E+00
        -11   -1    0    0    0    0  0.00000000000E+00  0.00000000000E+00  0.45593999997E+02  0.45594000000E+02  0.51100000000E-03 0. -1.
         11   -1    0    0    0    0 -0.00000000000E+00 -0.00000000000E+00 -0.45593999997E+02  0.45594000000E+02  0.51100000000E-03 0.  1.
    9900012    2    1    2    0    0 -0.37679029673E+02 -0.19006486451E+02  0.15753015446E+02  0.46142319853E+02  0.10000019073E+02 0.  0.
        -12    1    1    2    0    0  0.37679029673E+02  0.19006486451E+02 -0.15753015446E+02  0.45045680147E+02  0.00000000000E+00 0.  1.
         11    1    3    3    0    0 -0.28548760332E+02 -0.14556097525E+02  0.86949511444E+01  0.33204124252E+02  0.51100000000E-03 0. -1.
        -11    1    3    3    0    0 -0.81433837937E+01 -0.30942249141E+01  0.43114282642E+01  0.97199455435E+01  0.51100000000E-03 0.  1.
         12    1    3    3    0    0 -0.98688554653E+00 -0.13561640118E+01  0.27466360375E+01  0.32182500573E+01  0.00000000000E+00 0. -1.
</event>
<event>
 7    1  0.4102844E-008  0.4614232E+02  0.7816164E-02  0.1320468E+00
        -11   -1    0    0    0    0  0.00000000000E+00  0.00000000000E+00  0.45593999997E+02  0.45594000000E+02  0.51100000000E-03 0.  1.
         11   -1    0    0    0    0 -0.00000000000E+00 -0.00000000000E+00 -0.45593999997E+02  0.45594000000E+02  0.51100000000E-03 0. -1.
    9900012    2    1    2    0    0  0.25107728540E+02  0.38724685218E+00 -0.37397399888E+02  0.46142317511E+02  0.99999977173E+01 0.  0.
        -12    1    1    2    0    0 -0.25107728540E+02 -0.38724685218E+00  0.37397399888E+02  0.45045682489E+02  0.00000000000E+00 0.  1.
         11    1    3    3    0    0  0.12404013204E+02  0.11663103944E+01 -0.11212493573E+02  0.16761259973E+02  0.51100000000E-03 0. -1.
        -11    1    3    3    0    0  0.92916163853E+01 -0.12532843090E+01 -0.15107577752E+02  0.17780432008E+02  0.51100000000E-03 0.  1.
        -12    1    3    3    0    0  0.34120989505E+01  0.47422076675E+00 -0.11077328563E+02  0.11600625529E+02  0.00000000000E+00 0.  1.
</event>
<event>
 7    1  0.4102844E-008  0.4614232E+02  0.7816164E-02  0.1320468E+00
        -11   -1    0    0    0    0  0.00000000000E+00  0.00000000000E+00  0.45593999997E+02  0.45594000000E+02  0.51100000000E-03 0.  1.
         11   -1    0    0    0    0 -0.00000000000E+00 -0.00000000000E+00 -0.45593999997E+02  0.45594000000E+02  0.51100000000E-03 0. -1.
    9900012    2    1    2    0    0 -0.94191613021E+01  0.29487849634E+02 -0.32723992894E+02  0.46142316671E+02  0.99999900580E+01 0.  0.
        -12    1    1    2    0    0  0.94191613021E+01 -0.29487849634E+02  0.32723992894E+02  0.45045683329E+02  0.00000000000E+00 0.  1.
         11    1    3    3    0    0  0.44694947208E+00  0.97170248027E+00 -0.36389605913E+01  0.37928886073E+01  0.51100000000E-03 0. -1.
        -11    1    3    3    0    0 -0.13524611977E+01  0.40818967086E+00 -0.12949942452E+01  0.19164499615E+01  0.51100000000E-03 0.  1.
         12    1    3    3    0    0 -0.85136495764E+01  0.28107957483E+02 -0.27790038057E+02  0.40432978102E+02  0.00000000000E+00 0. -1.
</event>
<event>
 7    1  0.4102844E-008  0.4614232E+02  0.7816164E-02  0.1320468E+00
        -11   -1    0    0    0    0  0.00000000000E+00  0.00000000000E+00  0.45593999997E+02  0.45594000000E+02  0.51100000000E-03 0. -1.
         11   -1    0    0    0    0 -0.00000000000E+00 -0.00000000000E+00 -0.45593999997E+02  0.45594000000E+02  0.51100000000E-03 0.  1.
    9900012    2    1    2    0    0 -0.57165031863E+01 -0.92663935673E+01  0.43710056563E+02  0.46142317597E+02  0.99999985048E+01 0.  0.
        -12    1    1    2    0    0  0.57165031863E+01  0.92663935673E+01 -0.43710056563E+02  0.45045682403E+02  0.00000000000E+00 0.  1.
         11    1    3    3    0    0 -0.17299035547E+01 -0.63481875753E+01  0.37015681206E+02  0.37595913438E+02  0.51100000000E-03 0. -1.
        -11    1    3    3    0    0 -0.31707461591E+01 -0.14378158684E+01  0.53664621374E+01  0.63968634353E+01  0.51100000000E-03 0.  1.
         12    1    3    3    0    0 -0.81585347249E+00 -0.14803901236E+01  0.13279132189E+01  0.21495407239E+01  0.00000000000E+00 0. -1.
</event>
<event>
 7    1  0.4102844E-008  0.4614232E+02  0.7816164E-02  0.1320468E+00
        -11   -1    0    0    0    0  0.00000000000E+00  0.00000000000E+00  0.45593999997E+02  0.45594000000E+02  0.51100000000E-03 0.  1.
         11   -1    0    0    0    0 -0.00000000000E+00 -0.00000000000E+00 -0.45593999997E+02  0.45594000000E+02  0.51100000000E-03 0. -1.
    9900012    2    1    2    0    0  0.40864151403E+01 -0.12909797991E+02 -0.42962212587E+02  0.46142318928E+02  0.10000010640E+02 0.  0.
        -12    1    1    2    0    0 -0.40864151403E+01  0.12909797991E+02  0.42962212587E+02  0.45045681072E+02  0.00000000000E+00 0.  1.
         11    1    3    3    0    0 -0.28102923288E+00 -0.25768339775E+01 -0.85834563253E+01  0.89663132628E+01  0.51100000000E-03 0. -1.
        -11    1    3    3    0    0  0.65385976078E+01 -0.64608142212E+01 -0.18067126403E+02  0.20271073869E+02  0.51100000000E-03 0.  1.
        -12    1    3    3    0    0 -0.21711532346E+01 -0.38721497925E+01 -0.16311629859E+02  0.16904931796E+02  0.00000000000E+00 0.  1.
</event>
<event>
 7    1  0.4102844E-008  0.4614232E+02  0.7816164E-02  0.1320468E+00
        -11   -1    0    0    0    0  0.00000000000E+00  0.00000000000E+00  0.45593999997E+02  0.45594000000E+02  0.51100000000E-03 0.  1.
         11   -1    0    0    0    0 -0.00000000000E+00 -0.00000000000E+00 -0.45593999997E+02  0.45594000000E+02  0.51100000000E-03 0. -1.
    9900012    2    1    2    0    0  0.17785136674E+02 -0.24015263741E+02 -0.33705630521E+02  0.46142317545E+02  0.99999980249E+01 0.  0.
        -12    1    1    2    0    0 -0.17785136674E+02  0.24015263741E+02  0.33705630521E+02  0.45045682455E+02  0.00000000000E+00 0.  1.
         11    1    3    3    0    0  0.23549371895E+01 -0.86892657222E+01 -0.11523496183E+02  0.14623270240E+02  0.51100000000E-03 0. -1.
        -11    1    3    3    0    0  0.93907532811E+01 -0.56483095398E+01 -0.11626930057E+02  0.15977332401E+02  0.51100000000E-03 0.  1.
         12    1    3    3    0    0  0.60394462031E+01 -0.96776884786E+01 -0.10555204281E+02  0.15541714903E+02  0.00000000000E+00 0. -1.
</event>
<event>
 7    1  0.4102844E-008  0.4614232E+02  0.7816164E-02  0.1320468E+00
        -11   -1    0    0    0    0  0.00000000000E+00  0.00000000000E+00  0.45593999997E+02  0.45594000000E+02  0.51100000000E-03 0.  1.
         11   -1    0    0    0    0 -0.00000000000E+00 -0.00000000000E+00 -0.45593999997E+02  0.45594000000E+02  0.51100000000E-03 0. -1.
    9900012    2    1    2    0    0 -0.65178188988E+01  0.99482633076E+01 -0.43447250355E+02  0.46142317971E+02  0.10000001915E+02 0.  0.
        -12    1    1    2    0    0  0.65178188988E+01 -0.99482633076E+01  0.43447250355E+02  0.45045682029E+02  0.00000000000E+00 0.  1.
         11    1    3    3    0    0 -0.47762808627E+01  0.90388254725E+01 -0.21973401322E+02  0.24235172595E+02  0.51100000000E-03 0. -1.
        -11    1    3    3    0    0  0.75936654331E+00 -0.38944339717E+00 -0.14234449088E+01  0.16596684537E+01  0.51100000000E-03 0.  1.
         12    1    3    3    0    0 -0.25009045793E+01  0.12988812322E+01 -0.20050404125E+02  0.20247476923E+02  0.00000000000E+00 0. -1.
</event>
<event>
 7    1  0.4102844E-008  0.4614232E+02  0.7816164E-02  0.1320468E+00
        -11   -1    0    0    0    0  0.00000000000E+00  0.00000000000E+00  0.45593999997E+02  0.45594000000E+02  0.51100000000E-03 0.  1.
         11   -1    0    0    0    0 -0.00000000000E+00 -0.00000000000E+00 -0.45593999997E+02  0.45594000000E+02  0.51100000000E-03 0. -1.
    9900012    2    1    2    0    0  0.24624392905E+02  0.37714227405E+02 -0.62438882299E+00  0.46142317231E+02  0.99999951652E+01 0.  0.
        -12    1    1    2    0    0 -0.24624392905E+02 -0.37714227405E+02  0.62438882299E+00  0.45045682769E+02  0.00000000000E+00 0.  1.
         11    1    3    3    0    0  0.96001919378E+01  0.13740929445E+02 -0.34976667567E+00  0.16766012175E+02  0.51100000000E-03 0. -1.
        -11    1    3    3    0    0  0.15481196224E+02  0.19702391138E+02 -0.64330094535E+00  0.25065224704E+02  0.51100000000E-03 0.  1.
        -12    1    3    3    0    0 -0.45699525651E+00  0.42709068224E+01  0.36867879803E+00  0.43110803526E+01  0.00000000000E+00 0.  1.
</event>
<event>
 7    1  0.4102844E-008  0.4614232E+02  0.7816164E-02  0.1320468E+00
        -11   -1    0    0    0    0  0.00000000000E+00  0.00000000000E+00  0.45593999997E+02  0.45594000000E+02  0.51100000000E-03 0.  1.
         11   -1    0    0    0    0 -0.00000000000E+00 -0.00000000000E+00 -0.45593999997E+02  0.45594000000E+02  0.51100000000E-03 0. -1.
    9900012    2    1    2    0    0  0.37362904427E+02 -0.17016335520E+02 -0.18535675528E+02  0.46142316866E+02  0.99999918360E+01 0.  0.
        -12    1    1    2    0    0 -0.37362904427E+02  0.17016335520E+02  0.18535675528E+02  0.45045683134E+02  0.00000000000E+00 0.  1.
         11    1    3    3    0    0  0.15027308008E+02 -0.65605643038E+01 -0.10719840142E+02  0.19590200685E+02  0.51100000000E-03 0. -1.
        -11    1    3    3    0    0  0.58542371982E+00  0.79519378379E-01 -0.14420283800E+01  0.15583614385E+01  0.51100000000E-03 0.  1.
         12    1    3    3    0    0  0.21750172700E+02 -0.10535290594E+02 -0.63738070055E+01  0.24993754742E+02  0.00000000000E+00 0. -1.
</event>
<event>
 7    1  0.4102844E-008  0.4614232E+02  0.7816164E-02  0.1320468E+00
        -11   -1    0    0    0    0  0.00000000000E+00  0.00000000000E+00  0.45593999997E+02  0.45594000000E+02  0.51100000000E-03 0.  1.
         11   -1    0    0    0    0 -0.00000000000E+00 -0.00000000000E+00 -0.45593999997E+02  0.45594000000E+02  0.51100000000E-03 0. -1.
    9900012    2    1    2    0    0  0.19921333858E+02  0.26521858534E+02 -0.30476956928E+02  0.46142318449E+02  0.10000006274E+02 0.  0.
        -12    1    1    2    0    0 -0.19921333858E+02 -0.26521858534E+02  0.30476956928E+02  0.45045681551E+02  0.00000000000E+00 0.  1.
         11    1    3    3    0    0  0.12663295022E+02  0.13134793863E+02 -0.16773213330E+02  0.24783513397E+02  0.51100000000E-03 0. -1.
        -11    1    3    3    0    0  0.28918713086E+01  0.13222576200E+01 -0.47378342555E+01  0.57059932153E+01  0.51100000000E-03 0.  1.
        -12    1    3    3    0    0  0.43661675276E+01  0.12064807051E+02 -0.89659093425E+01  0.15652811837E+02  0.00000000000E+00 0.  1.
</event>
<event>
 7    1  0.4102844E-008  0.4614232E+02  0.7816164E-02  0.1320468E+00
        -11   -1    0    0    0    0  0.00000000000E+00  0.00000000000E+00  0.45593999997E+02  0.45594000000E+02  0.51100000000E-03 0.  1.
         11   -1    0    0    0    0 -0.00000000000E+00 -0.00000000000E+00 -0.45593999997E+02  0.45594000000E+02  0.51100000000E-03 0. -1.
    9900012    2    1    2    0    0  0.26481267321E+02 -0.36126429174E+02 -0.47683483956E+01  0.46142317075E+02  0.99999937406E+01 0.  0.
        -12    1    1    2    0    0 -0.26481267321E+02  0.36126429174E+02  0.47683483956E+01  0.45045682925E+02  0.00000000000E+00 0.  1.
         11    1    3    3    0    0  0.20618481828E+01 -0.73174524179E+01 -0.65415187182E+00  0.76304811611E+01  0.51100000000E-03 0. -1.
        -11    1    3    3    0    0  0.19791441771E+02 -0.24848135208E+02 -0.12782403506E+01  0.31792528829E+02  0.51100000000E-03 0.  1.
         12    1    3    3    0    0  0.46279773677E+01 -0.39608415481E+01 -0.28359561731E+01  0.67193070849E+01  0.00000000000E+00 0. -1.
</event>
<event>
 7    1  0.4102844E-008  0.4614232E+02  0.7816164E-02  0.1320468E+00
        -11   -1    0    0    0    0  0.00000000000E+00  0.00000000000E+00  0.45593999997E+02  0.45594000000E+02  0.51100000000E-03 0.  1.
         11   -1    0    0    0    0 -0.00000000000E+00 -0.00000000000E+00 -0.45593999997E+02  0.45594000000E+02  0.51100000000E-03 0. -1.
    9900012    2    1    2    0    0  0.40639287071E+02  0.16912739243E+02  0.95666590861E+01  0.46142319093E+02  0.10000012144E+02 0.  0.
        -12    1    1    2    0    0 -0.40639287071E+02 -0.16912739243E+02 -0.95666590861E+01  0.45045680907E+02  0.00000000000E+00 0.  1.
         11    1    3    3    0    0  0.24667883722E+02  0.13313620604E+02  0.38499945528E+01  0.28294512528E+02  0.51100000000E-03 0. -1.
        -11    1    3    3    0    0  0.19919586900E+01 -0.61245342894E+00  0.17425537504E+01  0.27165221257E+01  0.51100000000E-03 0.  1.
         12    1    3    3    0    0  0.13979444659E+02  0.42115720681E+01  0.39741107829E+01  0.15131284439E+02  0.00000000000E+00 0. -1.
</event>
<event>
 7    1  0.4102844E-008  0.4614232E+02  0.7816164E-02  0.1320468E+00
        -11   -1    0    0    0    0  0.00000000000E+00  0.00000000000E+00  0.45593999997E+02  0.45594000000E+02  0.51100000000E-03 0.  1.
         11   -1    0    0    0    0 -0.00000000000E+00 -0.00000000000E+00 -0.45593999997E+02  0.45594000000E+02  0.51100000000E-03 0. -1.
    9900012    2    1    2    0    0 -0.12150738539E+02  0.18087164236E+02 -0.39424959735E+02  0.46142318662E+02  0.10000008216E+02 0.  0.
        -12    1    1    2    0    0  0.12150738539E+02 -0.18087164236E+02  0.39424959735E+02  0.45045681338E+02  0.00000000000E+00 0.  1.
         11    1    3    3    0    0 -0.52256840790E+01  0.20955553168E+01 -0.99370084130E+01  0.11421176062E+02  0.51100000000E-03 0. -1.
        -11    1    3    3    0    0 -0.33832234164E+01  0.21541147135E+01 -0.55916143967E+01  0.68813198375E+01  0.51100000000E-03 0.  1.
         12    1    3    3    0    0 -0.35418310434E+01  0.13837494205E+02 -0.23896336925E+02  0.27839822763E+02  0.00000000000E+00 0. -1.
</event>
<event>
 7    1  0.4102844E-008  0.4614232E+02  0.7816164E-02  0.1320468E+00
        -11   -1    0    0    0    0  0.00000000000E+00  0.00000000000E+00  0.45593999997E+02  0.45594000000E+02  0.51100000000E-03 0.  1.
         11   -1    0    0    0    0 -0.00000000000E+00 -0.00000000000E+00 -0.45593999997E+02  0.45594000000E+02  0.51100000000E-03 0. -1.
    9900012    2    1    2    0    0  0.17712152098E+02 -0.13643623789E+02 -0.39105557021E+02  0.46142318831E+02  0.10000009755E+02 0.  0.
        -12    1    1    2    0    0 -0.17712152098E+02  0.13643623789E+02  0.39105557021E+02  0.45045681169E+02  0.00000000000E+00 0.  1.
         11    1    3    3    0    0  0.76163265775E+01 -0.49566315064E+01 -0.18272244456E+02  0.20407144439E+02  0.51100000000E-03 0. -1.
        -11    1    3    3    0    0  0.95250187506E+00 -0.37523076317E+01 -0.10007444330E+02  0.10730145137E+02  0.51100000000E-03 0.  1.
         12    1    3    3    0    0  0.91433236457E+01 -0.49346846504E+01 -0.10825868235E+02  0.15005029254E+02  0.00000000000E+00 0. -1.
</event>
<event>
 7    1  0.4102844E-008  0.4614232E+02  0.7816164E-02  0.1320468E+00
        -11   -1    0    0    0    0  0.00000000000E+00  0.00000000000E+00  0.45593999997E+02  0.45594000000E+02  0.51100000000E-03 0. -1.
         11   -1    0    0    0    0 -0.00000000000E+00 -0.00000000000E+00 -0.45593999997E+02  0.45594000000E+02  0.51100000000E-03 0.  1.
    9900012    2    1    2    0    0 -0.20504705258E+02  0.38905967482E+02 -0.97466027400E+01  0.46142317539E+02  0.99999979740E+01 0.  0.
        -12    1    1    2    0    0  0.20504705258E+02 -0.38905967482E+02  0.97466027400E+01  0.45045682461E+02  0.00000000000E+00 0.  1.
         11    1    3    3    0    0 -0.11110042393E+02  0.17144605106E+02 -0.97613220382E+00  0.20452954812E+02  0.51100000000E-03 0. -1.
        -11    1    3    3    0    0 -0.69684655822E+01  0.15431401365E+02 -0.83980779175E+01  0.18900142159E+02  0.51100000000E-03 0.  1.
        -12    1    3    3    0    0 -0.24261972831E+01  0.63299610111E+01 -0.37239261865E+00  0.67892205680E+01  0.00000000000E+00 0.  1.
</event>
<event>
 7    1  0.4102844E-008  0.4614232E+02  0.7816164E-02  0.1320468E+00
        -11   -1    0    0    0    0  0.00000000000E+00  0.00000000000E+00  0.45593999997E+02  0.45594000000E+02  0.51100000000E-03 0. -1.
         11   -1    0    0    0    0 -0.00000000000E+00 -0.00000000000E+00 -0.45593999997E+02  0.45594000000E+02  0.51100000000E-03 0.  1.
    9900012    2    1    2    0    0  0.21098395059E+02  0.33944061138E+02  0.20779122352E+02  0.46142317783E+02  0.10000000204E+02 0.  0.
        -12    1    1    2    0    0 -0.21098395059E+02 -0.33944061138E+02 -0.20779122352E+02  0.45045682217E+02  0.00000000000E+00 0.  1.
         11    1    3    3    0    0  0.42343560484E+01  0.56251914548E+01  0.42329468864E+00  0.70534905332E+01  0.51100000000E-03 0. -1.
        -11    1    3    3    0    0  0.91567334019E+01  0.16794592968E+02  0.14660720465E+02  0.24100639916E+02  0.51100000000E-03 0.  1.
         12    1    3    3    0    0  0.77073056087E+01  0.11524276716E+02  0.56951071989E+01  0.14988187334E+02  0.00000000000E+00 0. -1.
</event>
<event>
 7    1  0.4102844E-008  0.4614232E+02  0.7816164E-02  0.1320468E+00
        -11   -1    0    0    0    0  0.00000000000E+00  0.00000000000E+00  0.45593999997E+02  0.45594000000E+02  0.51100000000E-03 0.  1.
         11   -1    0    0    0    0 -0.00000000000E+00 -0.00000000000E+00 -0.45593999997E+02  0.45594000000E+02  0.51100000000E-03 0. -1.
    9900012    2    1    2    0    0  0.74348987950E+00  0.32702404231E+02 -0.30969559089E+02  0.46142316413E+02  0.99999877086E+01 0.  0.
        -12    1    1    2    0    0 -0.74348987950E+00 -0.32702404231E+02  0.30969559089E+02  0.45045683587E+02  0.00000000000E+00 0.  1.
         11    1    3    3    0    0  0.76068303423E-01  0.53231014587E+01 -0.10159219514E+02  0.11469565681E+02  0.51100000000E-03 0. -1.
        -11    1    3    3    0    0 -0.81687496412E+00  0.92876179346E+00 -0.80728695729E+00  0.14770225687E+01  0.51100000000E-03 0.  1.
         12    1    3    3    0    0  0.14842965402E+01  0.26450540978E+02 -0.20003052618E+02  0.33195728163E+02  0.00000000000E+00 0. -1.
</event>
<event>
 7    1  0.4102844E-008  0.4614232E+02  0.7816164E-02  0.1320468E+00
        -11   -1    0    0    0    0  0.00000000000E+00  0.00000000000E+00  0.45593999997E+02  0.45594000000E+02  0.51100000000E-03 0.  1.
         11   -1    0    0    0    0 -0.00000000000E+00 -0.00000000000E+00 -0.45593999997E+02  0.45594000000E+02  0.51100000000E-03 0. -1.
    9900012    2    1    2    0    0 -0.78611217057E+01 -0.10977631462E+02 -0.42974502728E+02  0.46142317502E+02  0.99999976376E+01 0.  0.
        -12    1    1    2    0    0  0.78611217057E+01  0.10977631462E+02  0.42974502728E+02  0.45045682498E+02  0.00000000000E+00 0.  1.
         11    1    3    3    0    0 -0.60326488596E+01 -0.77043531447E+01 -0.23855233966E+02  0.25784144303E+02  0.51100000000E-03 0. -1.
        -11    1    3    3    0    0  0.67014813049E+00 -0.21645407581E+01 -0.16204437235E+02  0.16362094046E+02  0.51100000000E-03 0.  1.
         12    1    3    3    0    0 -0.24986209766E+01 -0.11087375595E+01 -0.29148315272E+01  0.39960791525E+01  0.00000000000E+00 0. -1.
</event>
<event>
 7    1  0.4102844E-008  0.4614232E+02  0.7816164E-02  0.1320468E+00
        -11   -1    0    0    0    0  0.00000000000E+00  0.00000000000E+00  0.45593999997E+02  0.45594000000E+02  0.51100000000E-03 0.  1.
         11   -1    0    0    0    0 -0.00000000000E+00 -0.00000000000E+00 -0.45593999997E+02  0.45594000000E+02  0.51100000000E-03 0. -1.
    9900012    2    1    2    0    0  0.23640170371E+02 -0.30360787885E+02 -0.23419616884E+02  0.46142317065E+02  0.99999936505E+01 0.  0.
        -12    1    1    2    0    0 -0.23640170371E+02  0.30360787885E+02  0.23419616884E+02  0.45045682935E+02  0.00000000000E+00 0.  1.
         11    1    3    3    0    0  0.18037231141E+02 -0.22338076954E+02 -0.17401989268E+02  0.33573212834E+02  0.51100000000E-03 0. -1.
        -11    1    3    3    0    0  0.20345635057E+01  0.14230512682E+00 -0.54149620942E+00  0.21101937858E+01  0.51100000000E-03 0.  1.
         12    1    3    3    0    0  0.35683757242E+01 -0.81650160574E+01 -0.54761314062E+01  0.10458910445E+02  0.00000000000E+00 0. -1.
</event>
<event>
 7    1  0.4102844E-008  0.4614232E+02  0.7816164E-02  0.1320468E+00
        -11   -1    0    0    0    0  0.00000000000E+00  0.00000000000E+00  0.45593999997E+02  0.45594000000E+02  0.51100000000E-03 0. -1.
         11   -1    0    0    0    0 -0.00000000000E+00 -0.00000000000E+00 -0.45593999997E+02  0.45594000000E+02  0.51100000000E-03 0.  1.
    9900012    2    1    2    0    0  0.13202410225E+02 -0.14723827122E+01  0.43042326991E+02  0.46142318083E+02  0.10000002933E+02 0.  0.
        -12    1    1    2    0    0 -0.13202410225E+02  0.14723827122E+01 -0.43042326991E+02  0.45045681917E+02  0.00000000000E+00 0.  1.
         11    1    3    3    0    0  0.77838308355E-01  0.35753306362E+00 -0.77934981791E-01  0.37411604662E+00  0.51100000000E-03 0. -1.
        -11    1    3    3    0    0  0.12426150269E+01  0.23981624605E+01  0.87328719821E+01  0.91410244835E+01  0.51100000000E-03 0.  1.
         12    1    3    3    0    0  0.11881956890E+02 -0.42280782363E+01  0.34387389990E+02  0.36627177553E+02  0.00000000000E+00 0. -1.
</event>
<event>
 7    1  0.4102844E-008  0.4614232E+02  0.7816164E-02  0.1320468E+00
        -11   -1    0    0    0    0  0.00000000000E+00  0.00000000000E+00  0.45593999997E+02  0.45594000000E+02  0.51100000000E-03 0.  1.
         11   -1    0    0    0    0 -0.00000000000E+00 -0.00000000000E+00 -0.45593999997E+02  0.45594000000E+02  0.51100000000E-03 0. -1.
    9900012    2    1    2    0    0  0.36516161071E+01 -0.18929330768E+02 -0.40711909818E+02  0.46142318025E+02  0.10000002408E+02 0.  0.
        -12    1    1    2    0    0 -0.36516161071E+01  0.18929330768E+02  0.40711909818E+02  0.45045681975E+02  0.00000000000E+00 0.  1.
         11    1    3    3    0    0 -0.10038394875E+01 -0.32030375907E+01 -0.61785699534E+01  0.70314913393E+01  0.51100000000E-03 0. -1.
        -11    1    3    3    0    0  0.59526239457E+01 -0.11013613894E+02 -0.29727112884E+02  0.32255769461E+02  0.51100000000E-03 0.  1.
        -12    1    3    3    0    0 -0.12971683511E+01 -0.47126792842E+01 -0.48062269806E+01  0.68550572248E+01  0.00000000000E+00 0.  1.
</event>
<event>
 7    1  0.4102844E-008  0.4614232E+02  0.7816164E-02  0.1320468E+00
        -11   -1    0    0    0    0  0.00000000000E+00  0.00000000000E+00  0.45593999997E+02  0.45594000000E+02  0.51100000000E-03 0. -1.
         11   -1    0    0    0    0 -0.00000000000E+00 -0.00000000000E+00 -0.45593999997E+02  0.45594000000E+02  0.51100000000E-03 0.  1.
    9900012    2    1    2    0    0 -0.33279445787E+01 -0.37009170995E+02  0.25462904320E+02  0.46142318195E+02  0.10000003955E+02 0.  0.
        -12    1    1    2    0    0  0.33279445787E+01  0.37009170995E+02 -0.25462904320E+02  0.45045681805E+02  0.00000000000E+00 0.  1.
         11    1    3    3    0    0 -0.12805652156E+01 -0.15652969214E+01  0.44466996290E+01  0.48849912564E+01  0.51100000000E-03 0.  1.
        -11    1    3    3    0    0 -0.10945966639E+01 -0.19854749503E+02  0.11699969289E+02  0.23071595119E+02  0.51100000000E-03 0. -1.
        -12    1    3    3    0    0 -0.95278269921E+00 -0.15589124571E+02  0.93162354021E+01  0.18185731820E+02  0.00000000000E+00 0.  1.
</event>
<event>
 7    1  0.4102844E-008  0.4614232E+02  0.7816164E-02  0.1320468E+00
        -11   -1    0    0    0    0  0.00000000000E+00  0.00000000000E+00  0.45593999997E+02  0.45594000000E+02  0.51100000000E-03 0.  1.
         11   -1    0    0    0    0 -0.00000000000E+00 -0.00000000000E+00 -0.45593999997E+02  0.45594000000E+02  0.51100000000E-03 0. -1.
    9900012    2    1    2    0    0 -0.17817094695E+02  0.11604318467E+02 -0.39711514416E+02  0.46142318213E+02  0.10000004121E+02 0.  0.
        -12    1    1    2    0    0  0.17817094695E+02 -0.11604318467E+02  0.39711514416E+02  0.45045681787E+02  0.00000000000E+00 0.  1.
         11    1    3    3    0    0 -0.26165779451E+01  0.36082821737E+01 -0.43786208749E+01  0.62480798182E+01  0.51100000000E-03 0.  1.
        -11    1    3    3    0    0 -0.11446661513E+02  0.45207474186E+01 -0.17873237823E+02  0.21700595557E+02  0.51100000000E-03 0. -1.
         12    1    3    3    0    0 -0.37538552372E+01  0.34752888748E+01 -0.17459655718E+02  0.18193642838E+02  0.00000000000E+00 0. -1.
</event>
<event>
 7    1  0.4102844E-008  0.4614232E+02  0.7816164E-02  0.1320468E+00
        -11   -1    0    0    0    0  0.00000000000E+00  0.00000000000E+00  0.45593999997E+02  0.45594000000E+02  0.51100000000E-03 0.  1.
         11   -1    0    0    0    0 -0.00000000000E+00 -0.00000000000E+00 -0.45593999997E+02  0.45594000000E+02  0.51100000000E-03 0. -1.
    9900012    2    1    2    0    0 -0.50301542561E+01 -0.28200207668E+02 -0.34764339184E+02  0.46142318262E+02  0.10000004570E+02 0.  0.
        -12    1    1    2    0    0  0.50301542561E+01  0.28200207668E+02  0.34764339184E+02  0.45045681738E+02  0.00000000000E+00 0.  1.
         11    1    3    3    0    0 -0.67223722257E+00 -0.21996059140E+01 -0.10319581745E+01  0.25209337546E+01  0.51100000000E-03 0.  1.
        -11    1    3    3    0    0 -0.86323960292E+00 -0.16998407994E+02 -0.26746225457E+02  0.31702549320E+02  0.51100000000E-03 0. -1.
         12    1    3    3    0    0 -0.34946774306E+01 -0.90021937596E+01 -0.69861555526E+01  0.11918835188E+02  0.00000000000E+00 0. -1.
</event>
<event>
 7    1  0.4102844E-008  0.4614232E+02  0.7816164E-02  0.1320468E+00
        -11   -1    0    0    0    0  0.00000000000E+00  0.00000000000E+00  0.45593999997E+02  0.45594000000E+02  0.51100000000E-03 0.  1.
         11   -1    0    0    0    0 -0.00000000000E+00 -0.00000000000E+00 -0.45593999997E+02  0.45594000000E+02  0.51100000000E-03 0. -1.
    9900012    2    1    2    0    0 -0.69933485433E+01 -0.13529505729E+02 -0.42392911401E+02  0.46142318895E+02  0.10000010344E+02 0.  0.
        -12    1    1    2    0    0  0.69933485433E+01  0.13529505729E+02  0.42392911401E+02  0.45045681105E+02  0.00000000000E+00 0.  1.
         11    1    3    3    0    0 -0.11262389709E+01 -0.12556548521E+01 -0.35282792235E+00  0.17232443620E+01  0.51100000000E-03 0.  1.
        -11    1    3    3    0    0 -0.15524379274E+01 -0.10775888536E+01 -0.27430444945E+01  0.33309990417E+01  0.51100000000E-03 0. -1.
        -12    1    3    3    0    0 -0.43146716449E+01 -0.11196262024E+02 -0.39297038984E+02  0.41088075492E+02  0.00000000000E+00 0.  1.
</event>
<event>
 7    1  0.4102844E-008  0.4614232E+02  0.7816164E-02  0.1320468E+00
        -11   -1    0    0    0    0  0.00000000000E+00  0.00000000000E+00  0.45593999997E+02  0.45594000000E+02  0.51100000000E-03 0.  1.
         11   -1    0    0    0    0 -0.00000000000E+00 -0.00000000000E+00 -0.45593999997E+02  0.45594000000E+02  0.51100000000E-03 0. -1.
    9900012    2    1    2    0    0 -0.29740468920E+02  0.29521869507E+02 -0.16525048245E+02  0.46142317740E+02  0.99999998117E+01 0.  0.
        -12    1    1    2    0    0  0.29740468920E+02 -0.29521869507E+02  0.16525048245E+02  0.45045682260E+02  0.00000000000E+00 0.  1.
         11    1    3    3    0    0 -0.81791451324E+01  0.11330793954E+02 -0.20256882342E+01  0.14120507066E+02  0.51100000000E-03 0. -1.
        -11    1    3    3    0    0 -0.29305826614E+01  0.17874531617E+01 -0.35296882506E+00  0.34507811859E+01  0.51100000000E-03 0.  1.
        -12    1    3    3    0    0 -0.18630741126E+02  0.16403622391E+02 -0.14146391186E+02  0.28571029489E+02  0.00000000000E+00 0.  1.
</event>
<event>
 7    1  0.4102844E-008  0.4614232E+02  0.7816164E-02  0.1320468E+00
        -11   -1    0    0    0    0  0.00000000000E+00  0.00000000000E+00  0.45593999997E+02  0.45594000000E+02  0.51100000000E-03 0.  1.
         11   -1    0    0    0    0 -0.00000000000E+00 -0.00000000000E+00 -0.45593999997E+02  0.45594000000E+02  0.51100000000E-03 0. -1.
    9900012    2    1    2    0    0  0.37666247522E+02  0.23328321276E+02 -0.81336775885E+01  0.46142317775E+02  0.10000000130E+02 0.  0.
        -12    1    1    2    0    0 -0.37666247522E+02 -0.23328321276E+02  0.81336775885E+01  0.45045682225E+02  0.00000000000E+00 0.  1.
         11    1    3    3    0    0  0.49300043231E+01  0.30562260848E+01 -0.18008638501E+01  0.60735962473E+01  0.51100000000E-03 0. -1.
        -11    1    3    3    0    0  0.75530385745E+00  0.82912852823E+00  0.14575848080E+01  0.18391551776E+01  0.51100000000E-03 0.  1.
         12    1    3    3    0    0  0.31980939342E+02  0.19442966663E+02 -0.77903985465E+01  0.38229566351E+02  0.00000000000E+00 0. -1.
</event>
<event>
 7    1  0.4102844E-008  0.4614232E+02  0.7816164E-02  0.1320468E+00
        -11   -1    0    0    0    0  0.00000000000E+00  0.00000000000E+00  0.45593999997E+02  0.45594000000E+02  0.51100000000E-03 0.  1.
         11   -1    0    0    0    0 -0.00000000000E+00 -0.00000000000E+00 -0.45593999997E+02  0.45594000000E+02  0.51100000000E-03 0. -1.
    9900012    2    1    2    0    0  0.30051417608E+01 -0.32456079729E+02 -0.31091566244E+02  0.46142317855E+02  0.10000000853E+02 0.  0.
        -12    1    1    2    0    0 -0.30051417608E+01  0.32456079729E+02  0.31091566244E+02  0.45045682145E+02  0.00000000000E+00 0.  1.
         11    1    3    3    0    0  0.40430169891E+01 -0.75302761593E+01 -0.99843075582E+01  0.13142961732E+02  0.51100000000E-03 0. -1.
        -11    1    3    3    0    0  0.16615017077E+01 -0.82382849243E+01 -0.80716409005E+01  0.11652523911E+02  0.51100000000E-03 0.  1.
         12    1    3    3    0    0 -0.26993769360E+01 -0.16687518646E+02 -0.13035617786E+02  0.21346832211E+02  0.00000000000E+00 0. -1.
</event>
<event>
 7    1  0.4102844E-008  0.4614232E+02  0.7816164E-02  0.1320468E+00
        -11   -1    0    0    0    0  0.00000000000E+00  0.00000000000E+00  0.45593999997E+02  0.45594000000E+02  0.51100000000E-03 0. -1.
         11   -1    0    0    0    0 -0.00000000000E+00 -0.00000000000E+00 -0.45593999997E+02  0.45594000000E+02  0.51100000000E-03 0.  1.
    9900012    2    1    2    0    0  0.73359272393E-01  0.14496783502E+02  0.42649165464E+02  0.46142318429E+02  0.10000006086E+02 0.  0.
        -12    1    1    2    0    0 -0.73359272393E-01 -0.14496783502E+02 -0.42649165464E+02  0.45045681571E+02  0.00000000000E+00 0.  1.
         11    1    3    3    0    0  0.38134713198E+00  0.34391587130E+01  0.51996135702E+01  0.62457361319E+01  0.51100000000E-03 0. -1.
        -11    1    3    3    0    0  0.15327808749E+01  0.45928896989E+01  0.58683994531E+01  0.76080329521E+01  0.51100000000E-03 0.  1.
         12    1    3    3    0    0 -0.18407687345E+01  0.64647350905E+01  0.31581152440E+02  0.32288549345E+02  0.00000000000E+00 0. -1.
</event>
<event>
 7    1  0.4102844E-008  0.4614232E+02  0.7816164E-02  0.1320468E+00
        -11   -1    0    0    0    0  0.00000000000E+00  0.00000000000E+00  0.45593999997E+02  0.45594000000E+02  0.51100000000E-03 0. -1.
         11   -1    0    0    0    0 -0.00000000000E+00 -0.00000000000E+00 -0.45593999997E+02  0.45594000000E+02  0.51100000000E-03 0.  1.
    9900012    2    1    2    0    0 -0.16443765831E+01  0.10468606332E+02  0.43781476451E+02  0.46142319041E+02  0.10000011670E+02 0.  0.
        -12    1    1    2    0    0  0.16443765831E+01 -0.10468606332E+02 -0.43781476451E+02  0.45045680959E+02  0.00000000000E+00 0.  1.
         11    1    3    3    0    0  0.46498444029E+00  0.25173001442E+01  0.29206823026E+02  0.29318791280E+02  0.51100000000E-03 0. -1.
        -11    1    3    3    0    0 -0.14151767572E+01  0.23186841658E+01  0.51336451675E+01  0.58080405028E+01  0.51100000000E-03 0.  1.
         12    1    3    3    0    0 -0.69418426625E+00  0.56326220219E+01  0.94410082568E+01  0.11015487258E+02  0.00000000000E+00 0. -1.
</event>
<event>
 7    1  0.4102844E-008  0.4614231E+02  0.7816164E-02  0.1320468E+00
        -11   -1    0    0    0    0  0.00000000000E+00  0.00000000000E+00  0.45593999997E+02  0.45594000000E+02  0.51100000000E-03 0. -1.
         11   -1    0    0    0    0 -0.00000000000E+00 -0.00000000000E+00 -0.45593999997E+02  0.45594000000E+02  0.51100000000E-03 0.  1.
    9900012    2    1    2    0    0  0.35453220402E+02  0.21656040691E+02  0.17412612324E+02  0.46142312046E+02  0.99999478833E+01 0.  0.
        -12    1    1    2    0    0 -0.35453220402E+02 -0.21656040691E+02 -0.17412612324E+02  0.45045687954E+02  0.00000000000E+00 0.  1.
         11    1    3    3    0    0  0.19546468549E+02  0.16377660558E+02  0.12204593125E+02  0.28270908929E+02  0.51100000000E-03 0. -1.
        -11    1    3    3    0    0  0.10785037639E+02  0.32270029102E+01  0.18385358101E+01  0.11406612066E+02  0.51100000000E-03 0.  1.
        -12    1    3    3    0    0  0.51217142152E+01  0.20513772226E+01  0.33694833889E+01  0.64647910500E+01  0.00000000000E+00 0.  1.
</event>
<event>
 7    1  0.4102844E-008  0.4614231E+02  0.7816164E-02  0.1320468E+00
        -11   -1    0    0    0    0  0.00000000000E+00  0.00000000000E+00  0.45593999997E+02  0.45594000000E+02  0.51100000000E-03 0. -1.
         11   -1    0    0    0    0 -0.00000000000E+00 -0.00000000000E+00 -0.45593999997E+02  0.45594000000E+02  0.51100000000E-03 0.  1.
    9900012    2    1    2    0    0 -0.28963134137E+02 -0.31033048853E+02  0.15073173769E+02  0.46142313995E+02  0.99999656590E+01 0.  0.
        -12    1    1    2    0    0  0.28963134137E+02  0.31033048853E+02 -0.15073173769E+02  0.45045686005E+02  0.00000000000E+00 0.  1.
         11    1    3    3    0    0 -0.10710934216E+02 -0.12233926732E+02  0.72378143055E+01  0.17798287312E+02  0.51100000000E-03 0. -1.
        -11    1    3    3    0    0 -0.33644137385E+01 -0.39888495580E+01 -0.14005884143E+01  0.54029481552E+01  0.51100000000E-03 0.  1.
        -12    1    3    3    0    0 -0.14887786183E+02 -0.14810272563E+02  0.92359478781E+01  0.22941078528E+02  0.00000000000E+00 0.  1.
</event>
<event>
 7    1  0.4102844E-008  0.4614232E+02  0.7816164E-02  0.1320468E+00
        -11   -1    0    0    0    0  0.00000000000E+00  0.00000000000E+00  0.45593999997E+02  0.45594000000E+02  0.51100000000E-03 0. -1.
         11   -1    0    0    0    0 -0.00000000000E+00 -0.00000000000E+00 -0.45593999997E+02  0.45594000000E+02  0.51100000000E-03 0.  1.
    9900012    2    1    2    0    0 -0.38601907134E+02  0.21848174270E+02  0.78526158547E+01  0.46142317310E+02  0.99999958827E+01 0.  0.
        -12    1    1    2    0    0  0.38601907134E+02 -0.21848174270E+02 -0.78526158547E+01  0.45045682690E+02  0.00000000000E+00 0.  1.
         11    1    3    3    0    0 -0.45279463701E+01  0.47856078638E+01  0.34758112397E+01  0.74488660206E+01  0.51100000000E-03 0. -1.
        -11    1    3    3    0    0 -0.15609558590E+02  0.10134268182E+02  0.36061553345E+01  0.18956953013E+02  0.51100000000E-03 0.  1.
         12    1    3    3    0    0 -0.18464402173E+02  0.69282982239E+01  0.77064928045E+00  0.19736498276E+02  0.00000000000E+00 0. -1.
</event>
<event>
 7    1  0.4102844E-008  0.4614232E+02  0.7816164E-02  0.1320468E+00
        -11   -1    0    0    0    0  0.00000000000E+00  0.00000000000E+00  0.45593999997E+02  0.45594000000E+02  0.51100000000E-03 0. -1.
         11   -1    0    0    0    0 -0.00000000000E+00 -0.00000000000E+00 -0.45593999997E+02  0.45594000000E+02  0.51100000000E-03 0.  1.
    9900012    2    1    2    0    0 -0.19727908289E+02  0.24572571416E+02  0.32188691618E+02  0.46142317637E+02  0.99999988690E+01 0.  0.
        -12    1    1    2    0    0  0.19727908289E+02 -0.24572571416E+02 -0.32188691618E+02  0.45045682363E+02  0.00000000000E+00 0.  1.
         11    1    3    3    0    0 -0.16790957629E+02  0.17274910649E+02  0.27880976021E+02  0.36847084283E+02  0.51100000000E-03 0. -1.
        -11    1    3    3    0    0 -0.16979808566E+01  0.13731962456E+01  0.11010431394E+01  0.24456294025E+01  0.51100000000E-03 0.  1.
        -12    1    3    3    0    0 -0.12389698028E+01  0.59244645215E+01  0.32066724585E+01  0.68496039517E+01  0.00000000000E+00 0.  1.
</event>
<event>
 7    1  0.4102844E-008  0.4614232E+02  0.7816164E-02  0.1320468E+00
        -11   -1    0    0    0    0  0.00000000000E+00  0.00000000000E+00  0.45593999997E+02  0.45594000000E+02  0.51100000000E-03 0.  1.
         11   -1    0    0    0    0 -0.00000000000E+00 -0.00000000000E+00 -0.45593999997E+02  0.45594000000E+02  0.51100000000E-03 0. -1.
    9900012    2    1    2    0    0  0.31395985503E+02  0.98529020016E+01 -0.30762408720E+02  0.46142319033E+02  0.10000011594E+02 0.  0.
        -12    1    1    2    0    0 -0.31395985503E+02 -0.98529020016E+01  0.30762408720E+02  0.45045680967E+02  0.00000000000E+00 0.  1.
         11    1    3    3    0    0  0.36525749373E+01  0.29276026013E+01 -0.27525917150E+01  0.54303703442E+01  0.51100000000E-03 0. -1.
        -11    1    3    3    0    0  0.18824550426E+02  0.81830119586E+01 -0.19992380245E+02  0.28653457934E+02  0.51100000000E-03 0.  1.
         12    1    3    3    0    0  0.89188601398E+01 -0.12577125584E+01 -0.80174367596E+01  0.12058490754E+02  0.00000000000E+00 0. -1.
</event>
<event>
 7    1  0.4102844E-008  0.4614232E+02  0.7816164E-02  0.1320468E+00
        -11   -1    0    0    0    0  0.00000000000E+00  0.00000000000E+00  0.45593999997E+02  0.45594000000E+02  0.51100000000E-03 0. -1.
         11   -1    0    0    0    0 -0.00000000000E+00 -0.00000000000E+00 -0.45593999997E+02  0.45594000000E+02  0.51100000000E-03 0.  1.
    9900012    2    1    2    0    0  0.44540781300E+01 -0.29624620938E+02  0.33640103153E+02  0.46142317434E+02  0.99999970192E+01 0.  0.
        -12    1    1    2    0    0 -0.44540781300E+01  0.29624620938E+02 -0.33640103153E+02  0.45045682566E+02  0.00000000000E+00 0.  1.
         11    1    3    3    0    0  0.50051014564E+01 -0.16865342356E+02  0.19487154814E+02  0.26253381046E+02  0.51100000000E-03 0. -1.
        -11    1    3    3    0    0 -0.13527035000E+01 -0.67511571556E+00  0.40022219714E+00  0.15638945158E+01  0.51100000000E-03 0.  1.
        -12    1    3    3    0    0  0.80168017361E+00 -0.12084162866E+02  0.13752726142E+02  0.18325041872E+02  0.00000000000E+00 0.  1.
</event>
<event>
 7    1  0.4102844E-008  0.4614232E+02  0.7816164E-02  0.1320468E+00
        -11   -1    0    0    0    0  0.00000000000E+00  0.00000000000E+00  0.45593999997E+02  0.45594000000E+02  0.51100000000E-03 0. -1.
         11   -1    0    0    0    0 -0.00000000000E+00 -0.00000000000E+00 -0.45593999997E+02  0.45594000000E+02  0.51100000000E-03 0.  1.
    9900012    2    1    2    0    0  0.39228371489E+02 -0.16281677950E+02 -0.15005173112E+02  0.46142318890E+02  0.10000010297E+02 0.  0.
        -12    1    1    2    0    0 -0.39228371489E+02  0.16281677950E+02  0.15005173112E+02  0.45045681110E+02  0.00000000000E+00 0.  1.
         11    1    3    3    0    0  0.29998952112E+02 -0.13044246153E+02 -0.10062282717E+02  0.34224830449E+02  0.51100000000E-03 0. -1.
        -11    1    3    3    0    0  0.44504304851E+01 -0.39642780217E+01 -0.32960847637E+01  0.68107273302E+01  0.51100000000E-03 0.  1.
         12    1    3    3    0    0  0.47789888919E+01  0.72684622484E+00 -0.16468056311E+01  0.51067611115E+01  0.00000000000E+00 0. -1.
</event>
<event>
 7    1  0.4102844E-008  0.4614232E+02  0.7816164E-02  0.1320468E+00
        -11   -1    0    0    0    0  0.00000000000E+00  0.00000000000E+00  0.45593999997E+02  0.45594000000E+02  0.51100000000E-03 0.  1.
         11   -1    0    0    0    0 -0.00000000000E+00 -0.00000000000E+00 -0.45593999997E+02  0.45594000000E+02  0.51100000000E-03 0. -1.
    9900012    2    1    2    0    0 -0.25142758800E+02  0.35791337034E+02 -0.10767328222E+02  0.46142317812E+02  0.10000000462E+02 0.  0.
        -12    1    1    2    0    0  0.25142758800E+02 -0.35791337034E+02  0.10767328222E+02  0.45045682188E+02  0.00000000000E+00 0.  1.
         11    1    3    3    0    0 -0.92223585480E+01  0.17085497962E+02 -0.43595559704E+01  0.19899041844E+02  0.51100000000E-03 0. -1.
        -11    1    3    3    0    0 -0.24773019351E+01  0.89214543687E+00 -0.24133200227E+01  0.35717029764E+01  0.51100000000E-03 0.  1.
        -12    1    3    3    0    0 -0.13443098317E+02  0.17813693636E+02 -0.39944522290E+01  0.22671572992E+02  0.00000000000E+00 0.  1.
</event>
<event>
 7    1  0.4102844E-008  0.4614232E+02  0.7816164E-02  0.1320468E+00
        -11   -1    0    0    0    0  0.00000000000E+00  0.00000000000E+00  0.45593999997E+02  0.45594000000E+02  0.51100000000E-03 0. -1.
         11   -1    0    0    0    0 -0.00000000000E+00 -0.00000000000E+00 -0.45593999997E+02  0.45594000000E+02  0.51100000000E-03 0.  1.
    9900012    2    1    2    0    0 -0.34972669450E+02  0.16543105142E+01  0.28342356188E+02  0.46142317565E+02  0.99999982146E+01 0.  0.
        -12    1    1    2    0    0  0.34972669450E+02 -0.16543105142E+01 -0.28342356188E+02  0.45045682435E+02  0.00000000000E+00 0.  1.
         11    1    3    3    0    0 -0.51672677807E+01  0.10404196054E+01  0.26648574239E+01  0.59063181952E+01  0.51100000000E-03 0. -1.
        -11    1    3    3    0    0 -0.37036181346E+01  0.19277288704E+01  0.68630037907E+01  0.80332899348E+01  0.51100000000E-03 0.  1.
        -12    1    3    3    0    0 -0.26101783534E+02 -0.13138379616E+01  0.18814494974E+02  0.32202709435E+02  0.00000000000E+00 0.  1.
</event>
<event>
 7    1  0.4102844E-008  0.4614232E+02  0.7816164E-02  0.1320468E+00
        -11   -1    0    0    0    0  0.00000000000E+00  0.00000000000E+00  0.45593999997E+02  0.45594000000E+02  0.51100000000E-03 0.  1.
         11   -1    0    0    0    0 -0.00000000000E+00 -0.00000000000E+00 -0.45593999997E+02  0.45594000000E+02  0.51100000000E-03 0. -1.
    9900012    2    1    2    0    0 -0.25997577873E+02  0.11683520627E+02 -0.34881725514E+02  0.46142317806E+02  0.10000000408E+02 0.  0.
        -12    1    1    2    0    0  0.25997577873E+02 -0.11683520627E+02  0.34881725514E+02  0.45045682194E+02  0.00000000000E+00 0.  1.
         11    1    3    3    0    0 -0.18885907569E+02  0.90206002903E+01 -0.25173658759E+02  0.32737773747E+02  0.51100000000E-03 0. -1.
        -11    1    3    3    0    0 -0.28633247560E+01  0.37773151541E+01 -0.60699707808E+01  0.77013819522E+01  0.51100000000E-03 0.  1.
        -12    1    3    3    0    0 -0.42483455479E+01 -0.11143948172E+01 -0.36380959740E+01  0.57031621071E+01  0.00000000000E+00 0.  1.
</event>
<event>
 7    1  0.4102844E-008  0.4614232E+02  0.7816164E-02  0.1320468E+00
        -11   -1    0    0    0    0  0.00000000000E+00  0.00000000000E+00  0.45593999997E+02  0.45594000000E+02  0.51100000000E-03 0. -1.
         11   -1    0    0    0    0 -0.00000000000E+00 -0.00000000000E+00 -0.45593999997E+02  0.45594000000E+02  0.51100000000E-03 0.  1.
    9900012    2    1    2    0    0  0.11024464275E+02 -0.24922784327E+02  0.35866830163E+02  0.46142317664E+02  0.99999991103E+01 0.  0.
        -12    1    1    2    0    0 -0.11024464275E+02  0.24922784327E+02 -0.35866830163E+02  0.45045682336E+02  0.00000000000E+00 0.  1.
         11    1    3    3    0    0  0.23513800963E+01 -0.26895938072E+01  0.97163126886E+01  0.10352276838E+02  0.51100000000E-03 0.  1.
        -11    1    3    3    0    0  0.72576928231E+01 -0.14434322255E+02  0.20267931471E+02  0.25919352045E+02  0.51100000000E-03 0. -1.
        -12    1    3    3    0    0  0.14153913558E+01 -0.77988682647E+01  0.58825860040E+01  0.98706887802E+01  0.00000000000E+00 0.  1.
</event>
<event>
 7    1  0.4102844E-008  0.4614232E+02  0.7816164E-02  0.1320468E+00
        -11   -1    0    0    0    0  0.00000000000E+00  0.00000000000E+00  0.45593999997E+02  0.45594000000E+02  0.51100000000E-03 0.  1.
         11   -1    0    0    0    0 -0.00000000000E+00 -0.00000000000E+00 -0.45593999997E+02  0.45594000000E+02  0.51100000000E-03 0. -1.
    9900012    2    1    2    0    0  0.37642049328E+02  0.10918723600E+02 -0.22202955318E+02  0.46142316217E+02  0.99999859167E+01 0.  0.
        -12    1    1    2    0    0 -0.37642049328E+02 -0.10918723600E+02  0.22202955318E+02  0.45045683783E+02  0.00000000000E+00 0.  1.
         11    1    3    3    0    0  0.16937687381E+02  0.49322167692E+01 -0.76086463356E+01  0.19212066921E+02  0.51100000000E-03 0. -1.
        -11    1    3    3    0    0  0.12147178321E+02  0.46242845385E+01 -0.48060227847E+01  0.13857698363E+02  0.51100000000E-03 0.  1.
        -12    1    3    3    0    0  0.85571836259E+01  0.13622222920E+01 -0.97882861981E+01  0.13072550932E+02  0.00000000000E+00 0.  1.
</event>
<event>
 7    1  0.4102844E-008  0.4614232E+02  0.7816164E-02  0.1320468E+00
        -11   -1    0    0    0    0  0.00000000000E+00  0.00000000000E+00  0.45593999997E+02  0.45594000000E+02  0.51100000000E-03 0.  1.
         11   -1    0    0    0    0 -0.00000000000E+00 -0.00000000000E+00 -0.45593999997E+02  0.45594000000E+02  0.51100000000E-03 0. -1.
    9900012    2    1    2    0    0  0.20254518226E+02  0.39962334137E+02  0.46775871282E+01  0.46142317859E+02  0.10000000892E+02 0.  0.
        -12    1    1    2    0    0 -0.20254518226E+02 -0.39962334137E+02 -0.46775871282E+01  0.45045682141E+02  0.00000000000E+00 0.  1.
         11    1    3    3    0    0  0.22561904992E+01  0.15909013348E+01 -0.79630164007E+00  0.28732314889E+01  0.51100000000E-03 0. -1.
        -11    1    3    3    0    0  0.12811307087E+02  0.28210947267E+02  0.69857497222E+01  0.31761420536E+02  0.51100000000E-03 0.  1.
        -12    1    3    3    0    0  0.51870206398E+01  0.10160485534E+02 -0.15118609539E+01  0.11507665834E+02  0.00000000000E+00 0.  1.
</event>
<event>
 7    1  0.4102844E-008  0.4614232E+02  0.7816164E-02  0.1320468E+00
        -11   -1    0    0    0    0  0.00000000000E+00  0.00000000000E+00  0.45593999997E+02  0.45594000000E+02  0.51100000000E-03 0.  1.
         11   -1    0    0    0    0 -0.00000000000E+00 -0.00000000000E+00 -0.45593999997E+02  0.45594000000E+02  0.51100000000E-03 0. -1.
    9900012    2    1    2    0    0 -0.20566101896E+01 -0.90733222564E+01 -0.44074466540E+02  0.46142318487E+02  0.10000006618E+02 0.  0.
        -12    1    1    2    0    0  0.20566101896E+01  0.90733222564E+01  0.44074466540E+02  0.45045681513E+02  0.00000000000E+00 0.  1.
         11    1    3    3    0    0 -0.32490747466E+01 -0.82283607568E+01 -0.35132076477E+02  0.36228789730E+02  0.51100000000E-03 0. -1.
        -11    1    3    3    0    0 -0.14759987607E+01 -0.38310378389E+00 -0.39461084996E+01  0.42304980088E+01  0.51100000000E-03 0.  1.
        -12    1    3    3    0    0  0.26684633177E+01 -0.46185771567E+00 -0.49962815630E+01  0.56830307481E+01  0.00000000000E+00 0.  1.
</event>
<event>
 7    1  0.4102844E-008  0.4614232E+02  0.7816164E-02  0.1320468E+00
        -11   -1    0    0    0    0  0.00000000000E+00  0.00000000000E+00  0.45593999997E+02  0.45594000000E+02  0.51100000000E-03 0. -1.
         11   -1    0    0    0    0 -0.00000000000E+00 -0.00000000000E+00 -0.45593999997E+02  0.45594000000E+02  0.51100000000E-03 0.  1.
    9900012    2    1    2    0    0  0.35492256936E+02  0.21010688524E+02 -0.18109782208E+02  0.46142317118E+02  0.99999941353E+01 0.  0.
        -12    1    1    2    0    0 -0.35492256936E+02 -0.21010688524E+02  0.18109782208E+02  0.45045682882E+02  0.00000000000E+00 0.  1.
         11    1    3    3    0    0  0.19676903671E+02  0.10193880480E+02 -0.10017592256E+02  0.24319701729E+02  0.51100000000E-03 0. -1.
        -11    1    3    3    0    0  0.15658095775E+02  0.96458355276E+01 -0.88598924130E+01  0.20413618007E+02  0.51100000000E-03 0.  1.
        -12    1    3    3    0    0  0.15725749052E+00  0.11709725168E+01  0.76770246098E+00  0.14089973818E+01  0.00000000000E+00 0.  1.
</event>
<event>
 7    1  0.4102844E-008  0.4614232E+02  0.7816164E-02  0.1320468E+00
        -11   -1    0    0    0    0  0.00000000000E+00  0.00000000000E+00  0.45593999997E+02  0.45594000000E+02  0.51100000000E-03 0.  1.
         11   -1    0    0    0    0 -0.00000000000E+00 -0.00000000000E+00 -0.45593999997E+02  0.45594000000E+02  0.51100000000E-03 0. -1.
    9900012    2    1    2    0    0 -0.39669628984E+01  0.43790114693E+02 -0.97878845313E+01  0.46142316266E+02  0.99999863636E+01 0.  0.
        -12    1    1    2    0    0  0.39669628984E+01 -0.43790114693E+02  0.97878845313E+01  0.45045683734E+02  0.00000000000E+00 0.  1.
         11    1    3    3    0    0 -0.57325683741E+01  0.25596935991E+02 -0.68041598304E+01  0.27099115549E+02  0.51100000000E-03 0. -1.
        -11    1    3    3    0    0 -0.25679858767E-01  0.11940106463E+02 -0.13177614945E+00  0.11940861234E+02  0.51100000000E-03 0.  1.
        -12    1    3    3    0    0  0.17912853344E+01  0.62530722396E+01 -0.28519485515E+01  0.71023394824E+01  0.00000000000E+00 0.  1.
</event>
<event>
 7    1  0.4102844E-008  0.4614232E+02  0.7816164E-02  0.1320468E+00
        -11   -1    0    0    0    0  0.00000000000E+00  0.00000000000E+00  0.45593999997E+02  0.45594000000E+02  0.51100000000E-03 0. -1.
         11   -1    0    0    0    0 -0.00000000000E+00 -0.00000000000E+00 -0.45593999997E+02  0.45594000000E+02  0.51100000000E-03 0.  1.
    9900012    2    1    2    0    0 -0.10312127290E+02  0.21105999031E+02  0.38435794469E+02  0.46142318067E+02  0.10000002790E+02 0.  0.
        -12    1    1    2    0    0  0.10312127290E+02 -0.21105999031E+02 -0.38435794469E+02  0.45045681933E+02  0.00000000000E+00 0.  1.
         11    1    3    3    0    0 -0.86238754559E+01  0.86037789437E+01  0.21540242685E+02  0.24746278411E+02  0.51100000000E-03 0. -1.
        -11    1    3    3    0    0 -0.21809535028E+01  0.11547459986E+02  0.13834780405E+02  0.18152177264E+02  0.51100000000E-03 0.  1.
        -12    1    3    3    0    0  0.49270166854E+00  0.95476010118E+00  0.30607713784E+01  0.32438623916E+01  0.00000000000E+00 0.  1.
</event>
<event>
 7    1  0.4102844E-008  0.4614232E+02  0.7816164E-02  0.1320468E+00
        -11   -1    0    0    0    0  0.00000000000E+00  0.00000000000E+00  0.45593999997E+02  0.45594000000E+02  0.51100000000E-03 0.  1.
         11   -1    0    0    0    0 -0.00000000000E+00 -0.00000000000E+00 -0.45593999997E+02  0.45594000000E+02  0.51100000000E-03 0. -1.
    9900012    2    1    2    0    0 -0.17163344253E+02  0.10740450817E+02 -0.40238984692E+02  0.46142316980E+02  0.99999928748E+01 0.  0.
        -12    1    1    2    0    0  0.17163344253E+02 -0.10740450817E+02  0.40238984692E+02  0.45045683020E+02  0.00000000000E+00 0.  1.
         11    1    3    3    0    0  0.31248796340E+00 -0.12485997475E+01 -0.26386667216E+01  0.29358495169E+01  0.51100000000E-03 0.  1.
        -11    1    3    3    0    0 -0.40120266423E+01  0.37834480703E+01 -0.94666553680E+01  0.10955747405E+02  0.51100000000E-03 0. -1.
        -12    1    3    3    0    0 -0.13463805574E+02  0.82056024940E+01 -0.28133662603E+02  0.32250720058E+02  0.00000000000E+00 0.  1.
</event>
<event>
 7    1  0.4102844E-008  0.4614232E+02  0.7816164E-02  0.1320468E+00
        -11   -1    0    0    0    0  0.00000000000E+00  0.00000000000E+00  0.45593999997E+02  0.45594000000E+02  0.51100000000E-03 0.  1.
         11   -1    0    0    0    0 -0.00000000000E+00 -0.00000000000E+00 -0.45593999997E+02  0.45594000000E+02  0.51100000000E-03 0. -1.
    9900012    2    1    2    0    0 -0.25001384522E+02 -0.24796213256E+02 -0.28092562226E+02  0.46142317940E+02  0.10000001632E+02 0.  0.
        -12    1    1    2    0    0  0.25001384522E+02  0.24796213256E+02  0.28092562226E+02  0.45045682060E+02  0.00000000000E+00 0.  1.
         11    1    3    3    0    0 -0.10496226771E+02 -0.12412414669E+02 -0.97148533843E+01  0.18937190681E+02  0.51100000000E-03 0. -1.
        -11    1    3    3    0    0 -0.11396002199E+01  0.45454513836E+00 -0.19514291381E+00  0.12423288461E+01  0.51100000000E-03 0.  1.
        -12    1    3    3    0    0 -0.13365557531E+02 -0.12838343725E+02 -0.18182565928E+02  0.25962798413E+02  0.00000000000E+00 0.  1.
</event>
<event>
 7    1  0.4102844E-008  0.4614230E+02  0.7816164E-02  0.1320468E+00
        -11   -1    0    0    0    0  0.00000000000E+00  0.00000000000E+00  0.45593999997E+02  0.45594000000E+02  0.51100000000E-03 0. -1.
         11   -1    0    0    0    0 -0.00000000000E+00 -0.00000000000E+00 -0.45593999997E+02  0.45594000000E+02  0.51100000000E-03 0.  1.
    9900012    2    1    2    0    0  0.33444880345E+02  0.47975632382E+01  0.29791579988E+02  0.46142302397E+02  0.99998598967E+01 0.  0.
        -12    1    1    2    0    0 -0.33444880345E+02 -0.47975632382E+01 -0.29791579988E+02  0.45045697603E+02  0.00000000000E+00 0.  1.
         11    1    3    3    0    0  0.33798013112E+01  0.42994998662E+00  0.24945968774E+01  0.42226683194E+01  0.51100000000E-03 0. -1.
        -11    1    3    3    0    0  0.14883206849E+02  0.68923691575E+01  0.13303834193E+02  0.21118868418E+02  0.51100000000E-03 0.  1.
        -12    1    3    3    0    0  0.15181872185E+02 -0.25247559060E+01  0.13993148917E+02  0.20800765660E+02  0.00000000000E+00 0.  1.
</event>
<event>
 7    1  0.4102844E-008  0.4614232E+02  0.7816164E-02  0.1320468E+00
        -11   -1    0    0    0    0  0.00000000000E+00  0.00000000000E+00  0.45593999997E+02  0.45594000000E+02  0.51100000000E-03 0. -1.
         11   -1    0    0    0    0 -0.00000000000E+00 -0.00000000000E+00 -0.45593999997E+02  0.45594000000E+02  0.51100000000E-03 0.  1.
    9900012    2    1    2    0    0 -0.27212000591E+02 -0.31178870186E+02  0.17790407970E+02  0.46142317210E+02  0.99999949762E+01 0.  0.
        -12    1    1    2    0    0  0.27212000591E+02  0.31178870186E+02 -0.17790407970E+02  0.45045682790E+02  0.00000000000E+00 0.  1.
         11    1    3    3    0    0 -0.11527517774E+02 -0.88638842242E+01  0.65718693102E+01  0.15957492787E+02  0.51100000000E-03 0. -1.
        -11    1    3    3    0    0 -0.76881186092E+01 -0.91364718462E+01  0.16822141427E+01  0.12058695212E+02  0.51100000000E-03 0.  1.
        -12    1    3    3    0    0 -0.79963642076E+01 -0.13178514116E+02  0.95363245172E+01  0.18126129210E+02  0.00000000000E+00 0.  1.
</event>
<event>
 7    1  0.4102844E-008  0.4614231E+02  0.7816164E-02  0.1320468E+00
        -11   -1    0    0    0    0  0.00000000000E+00  0.00000000000E+00  0.45593999997E+02  0.45594000000E+02  0.51100000000E-03 0.  1.
         11   -1    0    0    0    0 -0.00000000000E+00 -0.00000000000E+00 -0.45593999997E+02  0.45594000000E+02  0.51100000000E-03 0. -1.
    9900012    2    1    2    0    0  0.31259252437E+02 -0.22416034188E+02 -0.23441298718E+02  0.46142312779E+02  0.99999545680E+01 0.  0.
        -12    1    1    2    0    0 -0.31259252437E+02  0.22416034188E+02  0.23441298718E+02  0.45045687221E+02  0.00000000000E+00 0.  1.
         11    1    3    3    0    0  0.16203859815E+02 -0.93804239689E+01 -0.12179291940E+02  0.22335903366E+02  0.51100000000E-03 0. -1.
        -11    1    3    3    0    0  0.13777739478E+02 -0.13431238752E+02 -0.91488346966E+01  0.21305526422E+02  0.51100000000E-03 0.  1.
        -12    1    3    3    0    0  0.12776531434E+01  0.39562853269E+00 -0.21131720811E+01  0.25008829911E+01  0.00000000000E+00 0.  1.
</event>
<event>
 7    1  0.4102844E-008  0.4614232E+02  0.7816164E-02  0.1320468E+00
        -11   -1    0    0    0    0  0.00000000000E+00  0.00000000000E+00  0.45593999997E+02  0.45594000000E+02  0.51100000000E-03 0.  1.
         11   -1    0    0    0    0 -0.00000000000E+00 -0.00000000000E+00 -0.45593999997E+02  0.45594000000E+02  0.51100000000E-03 0. -1.
    9900012    2    1    2    0    0  0.30765132338E+02 -0.20749533033E+02 -0.25535797747E+02  0.46142318126E+02  0.10000003330E+02 0.  0.
        -12    1    1    2    0    0 -0.30765132338E+02  0.20749533033E+02  0.25535797747E+02  0.45045681874E+02  0.00000000000E+00 0.  1.
         11    1    3    3    0    0  0.97449804200E+01 -0.68159992474E+01 -0.65351561218E+01  0.13569478801E+02  0.51100000000E-03 0. -1.
        -11    1    3    3    0    0  0.30667925511E+00  0.78139485643E+00  0.10628460582E-01  0.83948991207E+00  0.51100000000E-03 0.  1.
        -12    1    3    3    0    0  0.20713472663E+02 -0.14714928642E+02 -0.19011270086E+02  0.31733349413E+02  0.00000000000E+00 0.  1.
</event>
<event>
 7    1  0.4102844E-008  0.4614232E+02  0.7816164E-02  0.1320468E+00
        -11   -1    0    0    0    0  0.00000000000E+00  0.00000000000E+00  0.45593999997E+02  0.45594000000E+02  0.51100000000E-03 0.  1.
         11   -1    0    0    0    0 -0.00000000000E+00 -0.00000000000E+00 -0.45593999997E+02  0.45594000000E+02  0.51100000000E-03 0. -1.
    9900012    2    1    2    0    0  0.92077291488E+01 -0.43925551073E+02 -0.38570922491E+01  0.46142317923E+02  0.10000001475E+02 0.  0.
        -12    1    1    2    0    0 -0.92077291488E+01  0.43925551073E+02  0.38570922491E+01  0.45045682077E+02  0.00000000000E+00 0.  1.
         11    1    3    3    0    0  0.82111520989E+01 -0.25569208697E+02 -0.79679211058E+00  0.26867123592E+02  0.51100000000E-03 0.  1.
        -11    1    3    3    0    0  0.28232038828E+01 -0.10079786163E+02 -0.26065057577E+01  0.10787327833E+02  0.51100000000E-03 0. -1.
        -12    1    3    3    0    0 -0.18266268328E+01 -0.82765562135E+01 -0.45379438075E+00  0.84878664976E+01  0.00000000000E+00 0.  1.
</event>
<event>
 7    1  0.4102844E-008  0.4614230E+02  0.7816164E-02  0.1320468E+00
        -11   -1    0    0    0    0  0.00000000000E+00  0.00000000000E+00  0.45593999997E+02  0.45594000000E+02  0.51100000000E-03 0.  1.
         11   -1    0    0    0    0 -0.00000000000E+00 -0.00000000000E+00 -0.45593999997E+02  0.45594000000E+02  0.51100000000E-03 0. -1.
    9900012    2    1    2    0    0  0.43426305655E+02  0.39336818221E+01 -0.11304723237E+02  0.46142304945E+02  0.99998831307E+01 0.  0.
        -12    1    1    2    0    0 -0.43426305655E+02 -0.39336818221E+01  0.11304723237E+02  0.45045695055E+02  0.00000000000E+00 0.  1.
         11    1    3    3    0    0  0.11105891039E+02  0.39594515579E+01 -0.45922550476E+01  0.12653334703E+02  0.51100000000E-03 0.  1.
        -11    1    3    3    0    0  0.31827469588E+02  0.80835423625E+00 -0.65868655841E+01  0.32511967880E+02  0.51100000000E-03 0. -1.
         12    1    3    3    0    0  0.49294502784E+00 -0.83412397204E+00 -0.12560260562E+00  0.97700236220E+00  0.00000000000E+00 0. -1.
</event>
<event>
 7    1  0.4102844E-008  0.4614232E+02  0.7816164E-02  0.1320468E+00
        -11   -1    0    0    0    0  0.00000000000E+00  0.00000000000E+00  0.45593999997E+02  0.45594000000E+02  0.51100000000E-03 0.  1.
         11   -1    0    0    0    0 -0.00000000000E+00 -0.00000000000E+00 -0.45593999997E+02  0.45594000000E+02  0.51100000000E-03 0. -1.
    9900012    2    1    2    0    0 -0.27976865398E+02  0.34812195476E+02  0.58753266631E+01  0.46142318578E+02  0.10000007451E+02 0.  0.
        -12    1    1    2    0    0  0.27976865398E+02 -0.34812195476E+02 -0.58753266631E+01  0.45045681422E+02  0.00000000000E+00 0.  1.
         11    1    3    3    0    0 -0.15591407537E+02  0.17652352863E+02  0.14493199758E+01  0.23596569226E+02  0.51100000000E-03 0. -1.
        -11    1    3    3    0    0 -0.63705647374E+01  0.86275500220E+01  0.54974981759E+01  0.12051605740E+02  0.51100000000E-03 0.  1.
         12    1    3    3    0    0 -0.60148931233E+01  0.85322925909E+01 -0.10714914885E+01  0.10494143612E+02  0.00000000000E+00 0. -1.
</event>
<event>
 7    1  0.4102844E-008  0.4614232E+02  0.7816164E-02  0.1320468E+00
        -11   -1    0    0    0    0  0.00000000000E+00  0.00000000000E+00  0.45593999997E+02  0.45594000000E+02  0.51100000000E-03 0.  1.
         11   -1    0    0    0    0 -0.00000000000E+00 -0.00000000000E+00 -0.45593999997E+02  0.45594000000E+02  0.51100000000E-03 0. -1.
    9900012    2    1    2    0    0  0.41861976312E+02 -0.13321884369E+02 -0.99607130730E+01  0.46142317979E+02  0.10000001984E+02 0.  0.
        -12    1    1    2    0    0 -0.41861976312E+02  0.13321884369E+02  0.99607130730E+01  0.45045682021E+02  0.00000000000E+00 0.  1.
         11    1    3    3    0    0  0.14648240902E+02 -0.52838905727E+01 -0.40973153680E+01  0.16102125778E+02  0.51100000000E-03 0. -1.
        -11    1    3    3    0    0  0.12540030536E+02 -0.68722372629E+01 -0.29641014780E+00  0.14302722471E+02  0.51100000000E-03 0.  1.
        -12    1    3    3    0    0  0.14673704874E+02 -0.11657565330E+01 -0.55669875572E+01  0.15737469730E+02  0.00000000000E+00 0.  1.
</event>
<event>
 7    1  0.4102844E-008  0.4614232E+02  0.7816164E-02  0.1320468E+00
        -11   -1    0    0    0    0  0.00000000000E+00  0.00000000000E+00  0.45593999997E+02  0.45594000000E+02  0.51100000000E-03 0. -1.
         11   -1    0    0    0    0 -0.00000000000E+00 -0.00000000000E+00 -0.45593999997E+02  0.45594000000E+02  0.51100000000E-03 0.  1.
    9900012    2    1    2    0    0 -0.30792804012E+02 -0.26722428994E+02  0.19152766755E+02  0.46142318025E+02  0.10000002404E+02 0.  0.
        -12    1    1    2    0    0  0.30792804012E+02  0.26722428994E+02 -0.19152766755E+02  0.45045681975E+02  0.00000000000E+00 0.  1.
         11    1    3    3    0    0 -0.30485897851E+01 -0.48647115606E+01  0.40924466054E+01  0.70503501846E+01  0.51100000000E-03 0.  1.
        -11    1    3    3    0    0 -0.28000074423E+02 -0.20544752918E+02  0.14654483651E+02  0.37694096772E+02  0.51100000000E-03 0. -1.
         12    1    3    3    0    0  0.25586019596E+00 -0.13129645157E+01  0.40583649856E+00  0.13978710680E+01  0.00000000000E+00 0. -1.
</event>
<event>
 7    1  0.4102844E-008  0.4614232E+02  0.7816164E-02  0.1320468E+00
        -11   -1    0    0    0    0  0.00000000000E+00  0.00000000000E+00  0.45593999997E+02  0.45594000000E+02  0.51100000000E-03 0.  1.
         11   -1    0    0    0    0 -0.00000000000E+00 -0.00000000000E+00 -0.45593999997E+02  0.45594000000E+02  0.51100000000E-03 0. -1.
    9900012    2    1    2    0    0 -0.16236221354E+02 -0.79773037641E+00 -0.42010262847E+02  0.46142318275E+02  0.10000004683E+02 0.  0.
        -12    1    1    2    0    0  0.16236221354E+02  0.79773037641E+00  0.42010262847E+02  0.45045681725E+02  0.00000000000E+00 0.  1.
         11    1    3    3    0    0 -0.56920483063E+01  0.15228161809E+01 -0.90113548912E+01  0.10766749755E+02  0.51100000000E-03 0.  1.
        -11    1    3    3    0    0 -0.48698414818E+00  0.91148321924E+00 -0.10154346152E+02  0.10206796817E+02  0.51100000000E-03 0. -1.
        -12    1    3    3    0    0 -0.10057188900E+02 -0.32320297765E+01 -0.22844561804E+02  0.25168771703E+02  0.00000000000E+00 0.  1.
</event>
<event>
 7    1  0.4102844E-008  0.4614232E+02  0.7816164E-02  0.1320468E+00
        -11   -1    0    0    0    0  0.00000000000E+00  0.00000000000E+00  0.45593999997E+02  0.45594000000E+02  0.51100000000E-03 0.  1.
         11   -1    0    0    0    0 -0.00000000000E+00 -0.00000000000E+00 -0.45593999997E+02  0.45594000000E+02  0.51100000000E-03 0. -1.
    9900012    2    1    2    0    0  0.10202355070E+01 -0.29151990545E+01 -0.44939674204E+02  0.46142316704E+02  0.99999903629E+01 0.  0.
        -12    1    1    2    0    0 -0.10202355070E+01  0.29151990545E+01  0.44939674204E+02  0.45045683296E+02  0.00000000000E+00 0.  1.
         11    1    3    3    0    0  0.30177144884E+01 -0.36445864464E+00 -0.88826676584E+01  0.93883553314E+01  0.51100000000E-03 0. -1.
        -11    1    3    3    0    0 -0.38421444673E+01 -0.31515000467E+01 -0.21415583703E+02  0.21984568503E+02  0.51100000000E-03 0.  1.
         12    1    3    3    0    0  0.18446654859E+01  0.60075963683E+00 -0.14641422842E+02  0.14769392870E+02  0.00000000000E+00 0. -1.
</event>
<event>
 7    1  0.4102844E-008  0.4614232E+02  0.7816164E-02  0.1320468E+00
        -11   -1    0    0    0    0  0.00000000000E+00  0.00000000000E+00  0.45593999997E+02  0.45594000000E+02  0.51100000000E-03 0. -1.
         11   -1    0    0    0    0 -0.00000000000E+00 -0.00000000000E+00 -0.45593999997E+02  0.45594000000E+02  0.51100000000E-03 0.  1.
    9900012    2    1    2    0    0  0.36832170651E+02 -0.52113772707E+01  0.25403665945E+02  0.46142317728E+02  0.99999996970E+01 0.  0.
        -12    1    1    2    0    0 -0.36832170651E+02  0.52113772707E+01 -0.25403665945E+02  0.45045682272E+02  0.00000000000E+00 0.  1.
         11    1    3    3    0    0  0.42277703906E+01 -0.19689921840E+01  0.29792214752E+01  0.55341425312E+01  0.51100000000E-03 0. -1.
        -11    1    3    3    0    0  0.68523816247E+00 -0.14865547908E+01  0.23376470779E+01  0.28537677915E+01  0.51100000000E-03 0.  1.
        -12    1    3    3    0    0  0.31919162098E+02 -0.17558302959E+01  0.20086797392E+02  0.37754407405E+02  0.00000000000E+00 0.  1.
</event>
<event>
 7    1  0.4102844E-008  0.4614232E+02  0.7816164E-02  0.1320468E+00
        -11   -1    0    0    0    0  0.00000000000E+00  0.00000000000E+00  0.45593999997E+02  0.45594000000E+02  0.51100000000E-03 0.  1.
         11   -1    0    0    0    0 -0.00000000000E+00 -0.00000000000E+00 -0.45593999997E+02  0.45594000000E+02  0.51100000000E-03 0. -1.
    9900012    2    1    2    0    0  0.40604835523E+01  0.41201870398E+02 -0.17749134242E+02  0.46142318549E+02  0.10000007188E+02 0.  0.
        -12    1    1    2    0    0 -0.40604835523E+01 -0.41201870398E+02  0.17749134242E+02  0.45045681451E+02  0.00000000000E+00 0.  1.
         11    1    3    3    0    0 -0.92587994530E+00  0.61745311527E+01 -0.42658430018E+01  0.75617131264E+01  0.51100000000E-03 0.  1.
        -11    1    3    3    0    0  0.12506460610E+01  0.28735136696E+02 -0.11684707015E+02  0.31045202122E+02  0.51100000000E-03 0. -1.
         12    1    3    3    0    0  0.37357174366E+01  0.62922025492E+01 -0.17985842256E+01  0.75354033006E+01  0.00000000000E+00 0. -1.
</event>
<event>
 7    1  0.4102844E-008  0.4614232E+02  0.7816164E-02  0.1320468E+00
        -11   -1    0    0    0    0  0.00000000000E+00  0.00000000000E+00  0.45593999997E+02  0.45594000000E+02  0.51100000000E-03 0.  1.
         11   -1    0    0    0    0 -0.00000000000E+00 -0.00000000000E+00 -0.45593999997E+02  0.45594000000E+02  0.51100000000E-03 0. -1.
    9900012    2    1    2    0    0  0.32018596018E+01  0.41608355616E+02 -0.16958957781E+02  0.46142318620E+02  0.10000007830E+02 0.  0.
        -12    1    1    2    0    0 -0.32018596018E+01 -0.41608355616E+02  0.16958957781E+02  0.45045681380E+02  0.00000000000E+00 0.  1.
         11    1    3    3    0    0 -0.55615322498E+00  0.73016964497E+01 -0.60880395035E+01  0.95230406231E+01  0.51100000000E-03 0. -1.
        -11    1    3    3    0    0 -0.40933712203E+00  0.43820126236E+01 -0.32168893835E+01  0.54514189969E+01  0.51100000000E-03 0.  1.
        -12    1    3    3    0    0  0.41673499488E+01  0.29924646543E+02 -0.76540288941E+01  0.31167859000E+02  0.00000000000E+00 0.  1.
</event>
<event>
 7    1  0.4102844E-008  0.4614232E+02  0.7816164E-02  0.1320468E+00
        -11   -1    0    0    0    0  0.00000000000E+00  0.00000000000E+00  0.45593999997E+02  0.45594000000E+02  0.51100000000E-03 0.  1.
         11   -1    0    0    0    0 -0.00000000000E+00 -0.00000000000E+00 -0.45593999997E+02  0.45594000000E+02  0.51100000000E-03 0. -1.
    9900012    2    1    2    0    0  0.14428540125E+02 -0.41552633577E+02 -0.97113004286E+01  0.46142317817E+02  0.10000000512E+02 0.  0.
        -12    1    1    2    0    0 -0.14428540125E+02  0.41552633577E+02  0.97113004286E+01  0.45045682183E+02  0.00000000000E+00 0.  1.
         11    1    3    3    0    0  0.34652212905E+01 -0.80405611197E+01 -0.43988528965E+01  0.97983819470E+01  0.51100000000E-03 0. -1.
        -11    1    3    3    0    0 -0.60427749086E+00 -0.69724356814E+01 -0.82037757378E+00  0.70464906330E+01  0.51100000000E-03 0.  1.
         12    1    3    3    0    0  0.11567596325E+02 -0.26539636775E+02 -0.44920699583E+01  0.29297445237E+02  0.00000000000E+00 0. -1.
</event>
<event>
 7    1  0.4102844E-008  0.4614232E+02  0.7816164E-02  0.1320468E+00
        -11   -1    0    0    0    0  0.00000000000E+00  0.00000000000E+00  0.45593999997E+02  0.45594000000E+02  0.51100000000E-03 0.  1.
         11   -1    0    0    0    0 -0.00000000000E+00 -0.00000000000E+00 -0.45593999997E+02  0.45594000000E+02  0.51100000000E-03 0. -1.
    9900012    2    1    2    0    0 -0.10959074956E+02 -0.25232670256E+02 -0.35669657879E+02  0.46142318017E+02  0.10000002330E+02 0.  0.
        -12    1    1    2    0    0  0.10959074956E+02  0.25232670256E+02  0.35669657879E+02  0.45045681983E+02  0.00000000000E+00 0.  1.
         11    1    3    3    0    0 -0.20102401789E+01 -0.21833553331E+01 -0.66213789077E+01  0.72560846872E+01  0.51100000000E-03 0. -1.
        -11    1    3    3    0    0 -0.63921581409E+01 -0.22124464803E+02 -0.26967038919E+02  0.35462273148E+02  0.51100000000E-03 0.  1.
        -12    1    3    3    0    0 -0.25566766364E+01 -0.92485011989E+00 -0.20812400525E+01  0.34239601814E+01  0.00000000000E+00 0.  1.
</event>
<event>
 7    1  0.4102844E-008  0.4614232E+02  0.7816164E-02  0.1320468E+00
        -11   -1    0    0    0    0  0.00000000000E+00  0.00000000000E+00  0.45593999997E+02  0.45594000000E+02  0.51100000000E-03 0.  1.
         11   -1    0    0    0    0 -0.00000000000E+00 -0.00000000000E+00 -0.45593999997E+02  0.45594000000E+02  0.51100000000E-03 0. -1.
    9900012    2    1    2    0    0 -0.44785274073E+02 -0.32825743842E+01  0.35521187409E+01  0.46142316345E+02  0.99999870877E+01 0.  0.
        -12    1    1    2    0    0  0.44785274073E+02  0.32825743842E+01 -0.35521187409E+01  0.45045683655E+02  0.00000000000E+00 0.  1.
         11    1    3    3    0    0 -0.72540902247E+01  0.30631306237E+01  0.11745975231E+01  0.79614241068E+01  0.51100000000E-03 0.  1.
        -11    1    3    3    0    0 -0.10078362983E+02 -0.14639459730E+01  0.14035964866E+01  0.10280399875E+02  0.51100000000E-03 0. -1.
        -12    1    3    3    0    0 -0.27452820865E+02 -0.48817590349E+01  0.97392473125E+00  0.27900492363E+02  0.00000000000E+00 0.  1.
</event>
<event>
 7    1  0.4102844E-008  0.4614232E+02  0.7816164E-02  0.1320468E+00
        -11   -1    0    0    0    0  0.00000000000E+00  0.00000000000E+00  0.45593999997E+02  0.45594000000E+02  0.51100000000E-03 0.  1.
         11   -1    0    0    0    0 -0.00000000000E+00 -0.00000000000E+00 -0.45593999997E+02  0.45594000000E+02  0.51100000000E-03 0. -1.
    9900012    2    1    2    0    0 -0.19900262440E+02 -0.14841999274E+02 -0.37587342440E+02  0.46142315420E+02  0.99999786482E+01 0.  0.
        -12    1    1    2    0    0  0.19900262440E+02  0.14841999274E+02  0.37587342440E+02  0.45045684580E+02  0.00000000000E+00 0.  1.
         11    1    3    3    0    0 -0.10941389119E+02 -0.61060534419E+01 -0.25647671685E+02  0.28544718384E+02  0.51100000000E-03 0. -1.
        -11    1    3    3    0    0 -0.36419402245E+00  0.13684421778E+00 -0.10869103397E+01  0.11544427112E+01  0.51100000000E-03 0.  1.
         12    1    3    3    0    0 -0.85946792988E+01 -0.88727900495E+01 -0.10852760415E+02  0.16443154325E+02  0.00000000000E+00 0. -1.
</event>
<event>
 7    1  0.4102844E-008  0.4614232E+02  0.7816164E-02  0.1320468E+00
        -11   -1    0    0    0    0  0.00000000000E+00  0.00000000000E+00  0.45593999997E+02  0.45594000000E+02  0.51100000000E-03 0. -1.
         11   -1    0    0    0    0 -0.00000000000E+00 -0.00000000000E+00 -0.45593999997E+02  0.45594000000E+02  0.51100000000E-03 0.  1.
    9900012    2    1    2    0    0 -0.30172887187E+02  0.30687320570E+02  0.13304087415E+02  0.46142317555E+02  0.99999981232E+01 0.  0.
        -12    1    1    2    0    0  0.30172887187E+02 -0.30687320570E+02 -0.13304087415E+02  0.45045682445E+02  0.00000000000E+00 0.  1.
         11    1    3    3    0    0 -0.14808669680E+02  0.10597104437E+02  0.43170825248E+01  0.18714500312E+02  0.51100000000E-03 0. -1.
        -11    1    3    3    0    0 -0.18149544505E+01  0.34733139089E+01 -0.55800271906E+00  0.39584512707E+01  0.51100000000E-03 0.  1.
         12    1    3    3    0    0 -0.13549263057E+02  0.16616902224E+02  0.95450076091E+01  0.23469365972E+02  0.00000000000E+00 0. -1.
</event>
<event>
 7    1  0.4102844E-008  0.4614232E+02  0.7816164E-02  0.1320468E+00
        -11   -1    0    0    0    0  0.00000000000E+00  0.00000000000E+00  0.45593999997E+02  0.45594000000E+02  0.51100000000E-03 0.  1.
         11   -1    0    0    0    0 -0.00000000000E+00 -0.00000000000E+00 -0.45593999997E+02  0.45594000000E+02  0.51100000000E-03 0. -1.
    9900012    2    1    2    0    0  0.36021796734E+02 -0.18380290489E+02 -0.19842095683E+02  0.46142315639E+02  0.99999806506E+01 0.  0.
        -12    1    1    2    0    0 -0.36021796734E+02  0.18380290489E+02  0.19842095683E+02  0.45045684361E+02  0.00000000000E+00 0.  1.
         11    1    3    3    0    0  0.40744950028E+01 -0.41890190823E+01 -0.42007050068E+01  0.71968960819E+01  0.51100000000E-03 0.  1.
        -11    1    3    3    0    0  0.10470214853E+02 -0.24120717894E+01 -0.76126830200E+01  0.13168007913E+02  0.51100000000E-03 0. -1.
         12    1    3    3    0    0  0.21477086879E+02 -0.11779199618E+02 -0.80287076559E+01  0.25777411644E+02  0.00000000000E+00 0. -1.
</event>
<event>
 7    1  0.4102844E-008  0.4614232E+02  0.7816164E-02  0.1320468E+00
        -11   -1    0    0    0    0  0.00000000000E+00  0.00000000000E+00  0.45593999997E+02  0.45594000000E+02  0.51100000000E-03 0. -1.
         11   -1    0    0    0    0 -0.00000000000E+00 -0.00000000000E+00 -0.45593999997E+02  0.45594000000E+02  0.51100000000E-03 0.  1.
    9900012    2    1    2    0    0 -0.31163350058E+02  0.19429299759E+02  0.26085655400E+02  0.46142317703E+02  0.99999994679E+01 0.  0.
        -12    1    1    2    0    0  0.31163350058E+02 -0.19429299759E+02 -0.26085655400E+02  0.45045682297E+02  0.00000000000E+00 0.  1.
         11    1    3    3    0    0 -0.16162373751E+02  0.61934424573E+01  0.11455067349E+02  0.20755713020E+02  0.51100000000E-03 0. -1.
        -11    1    3    3    0    0 -0.53178092486E+00 -0.47332302432E+00  0.97392124289E-01  0.71854792769E+00  0.51100000000E-03 0.  1.
        -12    1    3    3    0    0 -0.14469195382E+02  0.13709180326E+02  0.14533195927E+02  0.24668056755E+02  0.00000000000E+00 0.  1.
</event>
<event>
 7    1  0.4102844E-008  0.4614232E+02  0.7816164E-02  0.1320468E+00
        -11   -1    0    0    0    0  0.00000000000E+00  0.00000000000E+00  0.45593999997E+02  0.45594000000E+02  0.51100000000E-03 0.  1.
         11   -1    0    0    0    0 -0.00000000000E+00 -0.00000000000E+00 -0.45593999997E+02  0.45594000000E+02  0.51100000000E-03 0. -1.
    9900012    2    1    2    0    0 -0.32951633704E+02  0.26665164990E+02  0.15240480637E+02  0.46142318323E+02  0.10000005124E+02 0.  0.
        -12    1    1    2    0    0  0.32951633704E+02 -0.26665164990E+02 -0.15240480637E+02  0.45045681677E+02  0.00000000000E+00 0.  1.
         11    1    3    3    0    0 -0.11270619788E+02  0.13307426341E+02  0.62642008866E+01  0.18529832143E+02  0.51100000000E-03 0. -1.
        -11    1    3    3    0    0 -0.30727030870E+01  0.45115623220E+01  0.25872425282E+01  0.60406558425E+01  0.51100000000E-03 0.  1.
        -12    1    3    3    0    0 -0.18608310828E+02  0.88461763275E+01  0.63890372224E+01  0.21571830338E+02  0.00000000000E+00 0.  1.
</event>
<event>
 7    1  0.4102844E-008  0.4614232E+02  0.7816164E-02  0.1320468E+00
        -11   -1    0    0    0    0  0.00000000000E+00  0.00000000000E+00  0.45593999997E+02  0.45594000000E+02  0.51100000000E-03 0. -1.
         11   -1    0    0    0    0 -0.00000000000E+00 -0.00000000000E+00 -0.45593999997E+02  0.45594000000E+02  0.51100000000E-03 0.  1.
    9900012    2    1    2    0    0  0.23016746424E+00 -0.69370591583E+01  0.44507728318E+02  0.46142316001E+02  0.99999839545E+01 0.  0.
        -12    1    1    2    0    0 -0.23016746424E+00  0.69370591583E+01 -0.44507728318E+02  0.45045683999E+02  0.00000000000E+00 0.  1.
         11    1    3    3    0    0  0.41758957554E+00 -0.31222768390E+01  0.20730078870E+02  0.20968051028E+02  0.51100000000E-03 0. -1.
        -11    1    3    3    0    0  0.15567476778E+01 -0.53483218675E+01  0.19796077799E+02  0.20564841517E+02  0.51100000000E-03 0.  1.
        -12    1    3    3    0    0 -0.17441697891E+01  0.15335395481E+01  0.39815716493E+01  0.46094234561E+01  0.00000000000E+00 0.  1.
</event>
<event>
 7    1  0.4102844E-008  0.4614232E+02  0.7816164E-02  0.1320468E+00
        -11   -1    0    0    0    0  0.00000000000E+00  0.00000000000E+00  0.45593999997E+02  0.45594000000E+02  0.51100000000E-03 0. -1.
         11   -1    0    0    0    0 -0.00000000000E+00 -0.00000000000E+00 -0.45593999997E+02  0.45594000000E+02  0.51100000000E-03 0.  1.
    9900012    2    1    2    0    0  0.56114775354E+01 -0.17082977009E+02  0.41301285798E+02  0.46142323269E+02  0.10000050223E+02 0.  0.
        -12    1    1    2    0    0 -0.56114775354E+01  0.17082977009E+02 -0.41301285798E+02  0.45045676731E+02  0.00000000000E+00 0.  1.
         11    1    3    3    0    0  0.32760975316E+01 -0.81918530016E+01  0.29571942489E+02  0.30859991145E+02  0.51100000000E-03 0. -1.
        -11    1    3    3    0    0 -0.14007008840E+00 -0.78271722643E+00 -0.17929905359E-01  0.79535377591E+00  0.51100000000E-03 0.  1.
         12    1    3    3    0    0  0.24754500922E+01 -0.81084067806E+01  0.11747273215E+02  0.14486978348E+02  0.00000000000E+00 0. -1.
</event>
<event>
 7    1  0.4102844E-008  0.4614232E+02  0.7816164E-02  0.1320468E+00
        -11   -1    0    0    0    0  0.00000000000E+00  0.00000000000E+00  0.45593999997E+02  0.45594000000E+02  0.51100000000E-03 0. -1.
         11   -1    0    0    0    0 -0.00000000000E+00 -0.00000000000E+00 -0.45593999997E+02  0.45594000000E+02  0.51100000000E-03 0.  1.
    9900012    2    1    2    0    0  0.19413565309E+02  0.16912084464E+01  0.40612396480E+02  0.46142318167E+02  0.10000003697E+02 0.  0.
        -12    1    1    2    0    0 -0.19413565309E+02 -0.16912084464E+01 -0.40612396480E+02  0.45045681833E+02  0.00000000000E+00 0.  1.
         11    1    3    3    0    0 -0.22670846875E+00 -0.80039359494E+00  0.53014867084E+01  0.53663570714E+01  0.51100000000E-03 0. -1.
        -11    1    3    3    0    0  0.69515012193E+00  0.10623628210E+01  0.35027071804E+01  0.37256954127E+01  0.51100000000E-03 0.  1.
         12    1    3    3    0    0  0.18945123656E+02  0.14292392203E+01  0.31808202591E+02  0.37050265682E+02  0.00000000000E+00 0. -1.
</event>
<event>
 7    1  0.4102844E-008  0.4614232E+02  0.7816164E-02  0.1320468E+00
        -11   -1    0    0    0    0  0.00000000000E+00  0.00000000000E+00  0.45593999997E+02  0.45594000000E+02  0.51100000000E-03 0.  1.
         11   -1    0    0    0    0 -0.00000000000E+00 -0.00000000000E+00 -0.45593999997E+02  0.45594000000E+02  0.51100000000E-03 0. -1.
    9900012    2    1    2    0    0  0.20851332526E+02 -0.41908517161E+00 -0.39926928824E+02  0.46142319344E+02  0.10000014430E+02 0.  0.
        -12    1    1    2    0    0 -0.20851332526E+02  0.41908517161E+00  0.39926928824E+02  0.45045680656E+02  0.00000000000E+00 0.  1.
         11    1    3    3    0    0  0.17110026463E+02 -0.30864102832E+01 -0.26308615999E+02  0.31534460674E+02  0.51100000000E-03 0. -1.
        -11    1    3    3    0    0  0.73282611763E+00  0.25834453067E+00 -0.47408889622E+00  0.91023983535E+00  0.51100000000E-03 0.  1.
         12    1    3    3    0    0  0.30084799456E+01  0.24089805809E+01 -0.13144223929E+02  0.13697618834E+02  0.00000000000E+00 0. -1.
</event>
<event>
 7    1  0.4102844E-008  0.4614232E+02  0.7816164E-02  0.1320468E+00
        -11   -1    0    0    0    0  0.00000000000E+00  0.00000000000E+00  0.45593999997E+02  0.45594000000E+02  0.51100000000E-03 0.  1.
         11   -1    0    0    0    0 -0.00000000000E+00 -0.00000000000E+00 -0.45593999997E+02  0.45594000000E+02  0.51100000000E-03 0. -1.
    9900012    2    1    2    0    0  0.30941470002E+02 -0.69019109692E+01 -0.32001603122E+02  0.46142317152E+02  0.99999944413E+01 0.  0.
        -12    1    1    2    0    0 -0.30941470002E+02  0.69019109692E+01  0.32001603122E+02  0.45045682848E+02  0.00000000000E+00 0.  1.
         11    1    3    3    0    0  0.14917185624E+02 -0.71923915032E+01 -0.15189387322E+02  0.22471546675E+02  0.51100000000E-03 0.  1.
        -11    1    3    3    0    0  0.13820993216E+02 -0.93794578674E-01 -0.11766410090E+02  0.18151502901E+02  0.51100000000E-03 0. -1.
         12    1    3    3    0    0  0.22032911614E+01  0.38427511271E+00 -0.50458057104E+01  0.55192675756E+01  0.00000000000E+00 0. -1.
</event>
<event>
 7    1  0.4102844E-008  0.4614232E+02  0.7816164E-02  0.1320468E+00
        -11   -1    0    0    0    0  0.00000000000E+00  0.00000000000E+00  0.45593999997E+02  0.45594000000E+02  0.51100000000E-03 0.  1.
         11   -1    0    0    0    0 -0.00000000000E+00 -0.00000000000E+00 -0.45593999997E+02  0.45594000000E+02  0.51100000000E-03 0. -1.
    9900012    2    1    2    0    0  0.19754899993E+02 -0.34868318323E+02 -0.20568368248E+02  0.46142317978E+02  0.10000001978E+02 0.  0.
        -12    1    1    2    0    0 -0.19754899993E+02  0.34868318323E+02  0.20568368248E+02  0.45045682022E+02  0.00000000000E+00 0.  1.
         11    1    3    3    0    0  0.63790544946E+01 -0.11957029625E+02 -0.61454218424E+01  0.14880494064E+02  0.51100000000E-03 0. -1.
        -11    1    3    3    0    0 -0.70647505128E+00 -0.33471346689E+01 -0.31520822902E+01  0.46516707230E+01  0.51100000000E-03 0.  1.
         12    1    3    3    0    0  0.14082320550E+02 -0.19564154029E+02 -0.11270864115E+02  0.26610153191E+02  0.00000000000E+00 0. -1.
</event>
<event>
 7    1  0.4102844E-008  0.4614232E+02  0.7816164E-02  0.1320468E+00
        -11   -1    0    0    0    0  0.00000000000E+00  0.00000000000E+00  0.45593999997E+02  0.45594000000E+02  0.51100000000E-03 0.  1.
         11   -1    0    0    0    0 -0.00000000000E+00 -0.00000000000E+00 -0.45593999997E+02  0.45594000000E+02  0.51100000000E-03 0. -1.
    9900012    2    1    2    0    0  0.22508454141E+02  0.24615689254E+02 -0.30274589891E+02  0.46142318095E+02  0.10000003041E+02 0.  0.
        -12    1    1    2    0    0 -0.22508454141E+02 -0.24615689254E+02  0.30274589891E+02  0.45045681905E+02  0.00000000000E+00 0.  1.
         11    1    3    3    0    0  0.74819236291E+01  0.46115257338E+01 -0.99943442679E+01  0.13309104718E+02  0.51100000000E-03 0.  1.
        -11    1    3    3    0    0  0.14756042108E+02  0.15855470560E+02 -0.17226751750E+02  0.27674856847E+02  0.51100000000E-03 0. -1.
        -12    1    3    3    0    0  0.27048840324E+00  0.41486929605E+01 -0.30534938734E+01  0.51583565301E+01  0.00000000000E+00 0.  1.
</event>
<event>
 7    1  0.4102844E-008  0.4614232E+02  0.7816164E-02  0.1320468E+00
        -11   -1    0    0    0    0  0.00000000000E+00  0.00000000000E+00  0.45593999997E+02  0.45594000000E+02  0.51100000000E-03 0.  1.
         11   -1    0    0    0    0 -0.00000000000E+00 -0.00000000000E+00 -0.45593999997E+02  0.45594000000E+02  0.51100000000E-03 0. -1.
    9900012    2    1    2    0    0  0.15246175953E+02  0.48956405538E+01 -0.42103447651E+02  0.46142317834E+02  0.10000000669E+02 0.  0.
        -12    1    1    2    0    0 -0.15246175953E+02 -0.48956405538E+01  0.42103447651E+02  0.45045682166E+02  0.00000000000E+00 0.  1.
         11    1    3    3    0    0  0.20662242357E+01 -0.20394368107E+00 -0.13107501212E+02  0.13270925510E+02  0.51100000000E-03 0. -1.
        -11    1    3    3    0    0  0.55451653733E+01  0.54115486795E+01 -0.12779756923E+02  0.14945096366E+02  0.51100000000E-03 0.  1.
        -12    1    3    3    0    0  0.76347863438E+01 -0.31196444468E+00 -0.16216189517E+02  0.17926295958E+02  0.00000000000E+00 0.  1.
</event>
<event>
 7    1  0.4102844E-008  0.4614232E+02  0.7816164E-02  0.1320468E+00
        -11   -1    0    0    0    0  0.00000000000E+00  0.00000000000E+00  0.45593999997E+02  0.45594000000E+02  0.51100000000E-03 0.  1.
         11   -1    0    0    0    0 -0.00000000000E+00 -0.00000000000E+00 -0.45593999997E+02  0.45594000000E+02  0.51100000000E-03 0. -1.
    9900012    2    1    2    0    0  0.27452697179E+00 -0.42709512856E+02  0.14315572139E+02  0.46142318086E+02  0.10000002964E+02 0.  0.
        -12    1    1    2    0    0 -0.27452697179E+00  0.42709512856E+02 -0.14315572139E+02  0.45045681914E+02  0.00000000000E+00 0.  1.
         11    1    3    3    0    0  0.18434960329E+01 -0.15442157407E+02  0.63879122290E+01  0.16812618057E+02  0.51100000000E-03 0. -1.
        -11    1    3    3    0    0 -0.11566740115E+01 -0.10466062348E+02  0.66955375395E+01  0.12478244230E+02  0.51100000000E-03 0.  1.
        -12    1    3    3    0    0 -0.41229504962E+00 -0.16801293100E+02  0.12321223701E+01  0.16851455800E+02  0.00000000000E+00 0.  1.
</event>
<event>
 7    1  0.4102844E-008  0.4614232E+02  0.7816164E-02  0.1320468E+00
        -11   -1    0    0    0    0  0.00000000000E+00  0.00000000000E+00  0.45593999997E+02  0.45594000000E+02  0.51100000000E-03 0. -1.
         11   -1    0    0    0    0 -0.00000000000E+00 -0.00000000000E+00 -0.45593999997E+02  0.45594000000E+02  0.51100000000E-03 0.  1.
    9900012    2    1    2    0    0  0.16193810458E+02 -0.37105294600E+02  0.19750217344E+02  0.46142317969E+02  0.10000001894E+02 0.  0.
        -12    1    1    2    0    0 -0.16193810458E+02  0.37105294600E+02 -0.19750217344E+02  0.45045682031E+02  0.00000000000E+00 0.  1.
         11    1    3    3    0    0  0.10611505223E+02 -0.19649279011E+02  0.72223970056E+01  0.23470433049E+02  0.51100000000E-03 0. -1.
        -11    1    3    3    0    0  0.54663711315E+01 -0.97473815820E+01  0.70285499747E+01  0.13202014091E+02  0.51100000000E-03 0.  1.
        -12    1    3    3    0    0  0.11593410364E+00 -0.77086340068E+01  0.54992703641E+01  0.94698708283E+01  0.00000000000E+00 0.  1.
</event>
<event>
 7    1  0.4102844E-008  0.4614232E+02  0.7816164E-02  0.1320468E+00
        -11   -1    0    0    0    0  0.00000000000E+00  0.00000000000E+00  0.45593999997E+02  0.45594000000E+02  0.51100000000E-03 0.  1.
         11   -1    0    0    0    0 -0.00000000000E+00 -0.00000000000E+00 -0.45593999997E+02  0.45594000000E+02  0.51100000000E-03 0. -1.
    9900012    2    1    2    0    0 -0.28681946268E+01  0.82347463644E+01 -0.44193619255E+02  0.46142316844E+02  0.99999916398E+01 0.  0.
        -12    1    1    2    0    0  0.28681946268E+01 -0.82347463644E+01  0.44193619255E+02  0.45045683156E+02  0.00000000000E+00 0.  1.
         11    1    3    3    0    0 -0.23502383232E+01  0.81596728541E+01 -0.26808097444E+02  0.28120774707E+02  0.51100000000E-03 0. -1.
        -11    1    3    3    0    0  0.78763219265E+00  0.15353597991E+01 -0.26890475129E+01  0.31951010894E+01  0.51100000000E-03 0.  1.
         12    1    3    3    0    0 -0.13055884962E+01 -0.14602862889E+01 -0.14696474298E+02  0.14826441048E+02  0.00000000000E+00 0. -1.
</event>
<event>
 7    1  0.4102844E-008  0.4614232E+02  0.7816164E-02  0.1320468E+00
        -11   -1    0    0    0    0  0.00000000000E+00  0.00000000000E+00  0.45593999997E+02  0.45594000000E+02  0.51100000000E-03 0.  1.
         11   -1    0    0    0    0 -0.00000000000E+00 -0.00000000000E+00 -0.45593999997E+02  0.45594000000E+02  0.51100000000E-03 0. -1.
    9900012    2    1    2    0    0 -0.79060840827E+01  0.43842067339E+02  0.66693721838E+01  0.46142316973E+02  0.99999928134E+01 0.  0.
        -12    1    1    2    0    0  0.79060840827E+01 -0.43842067339E+02 -0.66693721838E+01  0.45045683027E+02  0.00000000000E+00 0.  1.
         11    1    3    3    0    0  0.28181661939E+00  0.13647452700E+02  0.58089187156E+00  0.13662716473E+02  0.51100000000E-03 0. -1.
        -11    1    3    3    0    0 -0.71166273732E+01  0.16288414435E+02  0.51233166690E+01  0.18498843314E+02  0.51100000000E-03 0.  1.
        -12    1    3    3    0    0 -0.10712733290E+01  0.13906200203E+02  0.96516364327E+00  0.13980757186E+02  0.00000000000E+00 0.  1.
</event>
<event>
 7    1  0.4102844E-008  0.4614232E+02  0.7816164E-02  0.1320468E+00
        -11   -1    0    0    0    0  0.00000000000E+00  0.00000000000E+00  0.45593999997E+02  0.45594000000E+02  0.51100000000E-03 0.  1.
         11   -1    0    0    0    0 -0.00000000000E+00 -0.00000000000E+00 -0.45593999997E+02  0.45594000000E+02  0.51100000000E-03 0. -1.
    9900012    2    1    2    0    0 -0.18421497131E+02 -0.20818786003E+02 -0.35444888970E+02  0.46142316952E+02  0.99999926240E+01 0.  0.
        -12    1    1    2    0    0  0.18421497131E+02  0.20818786003E+02  0.35444888970E+02  0.45045683048E+02  0.00000000000E+00 0.  1.
         11    1    3    3    0    0 -0.10976474057E+02 -0.97948343428E+01 -0.16020199780E+02  0.21750139397E+02  0.51100000000E-03 0. -1.
        -11    1    3    3    0    0 -0.14974492658E+01 -0.78894155903E+01 -0.10587660958E+02  0.13288483642E+02  0.51100000000E-03 0.  1.
        -12    1    3    3    0    0 -0.59475738079E+01 -0.31345360695E+01 -0.88370282312E+01  0.11103693914E+02  0.00000000000E+00 0.  1.
</event>
<event>
 7    1  0.4102844E-008  0.4614232E+02  0.7816164E-02  0.1320468E+00
        -11   -1    0    0    0    0  0.00000000000E+00  0.00000000000E+00  0.45593999997E+02  0.45594000000E+02  0.51100000000E-03 0.  1.
         11   -1    0    0    0    0 -0.00000000000E+00 -0.00000000000E+00 -0.45593999997E+02  0.45594000000E+02  0.51100000000E-03 0. -1.
    9900012    2    1    2    0    0  0.39899132290E+02 -0.11997481147E+02 -0.17124048283E+02  0.46142319397E+02  0.10000014915E+02 0.  0.
        -12    1    1    2    0    0 -0.39899132290E+02  0.11997481147E+02  0.17124048283E+02  0.45045680603E+02  0.00000000000E+00 0.  1.
         11    1    3    3    0    0  0.99459121491E+01 -0.92836880298E+00 -0.81415415847E+00  0.10022269422E+02  0.51100000000E-03 0. -1.
        -11    1    3    3    0    0  0.22181859093E+02 -0.78257887519E+01 -0.14059990146E+02  0.27403670659E+02  0.51100000000E-03 0.  1.
        -12    1    3    3    0    0  0.77713610482E+01 -0.32433235919E+01 -0.22499039786E+01  0.87163793157E+01  0.00000000000E+00 0.  1.
</event>
<event>
 7    1  0.4102844E-008  0.4614232E+02  0.7816164E-02  0.1320468E+00
        -11   -1    0    0    0    0  0.00000000000E+00  0.00000000000E+00  0.45593999997E+02  0.45594000000E+02  0.51100000000E-03 0.  1.
         11   -1    0    0    0    0 -0.00000000000E+00 -0.00000000000E+00 -0.45593999997E+02  0.45594000000E+02  0.51100000000E-03 0. -1.
    9900012    2    1    2    0    0 -0.10040367678E+02  0.75884355801E+01 -0.43251822490E+02  0.46142317783E+02  0.10000000201E+02 0.  0.
        -12    1    1    2    0    0  0.10040367678E+02 -0.75884355801E+01  0.43251822490E+02  0.45045682217E+02  0.00000000000E+00 0.  1.
         11    1    3    3    0    0 -0.82043466849E+00  0.48166085826E+01 -0.11515283006E+02  0.12508979745E+02  0.51100000000E-03 0. -1.
        -11    1    3    3    0    0  0.41973019962E+00 -0.49978018182E-01 -0.58687968833E+01  0.58839993509E+01  0.51100000000E-03 0.  1.
         12    1    3    3    0    0 -0.96396632095E+01  0.28218050156E+01 -0.25867742601E+02  0.27749338688E+02  0.00000000000E+00 0. -1.
</event>
<event>
 7    1  0.4102844E-008  0.4614232E+02  0.7816164E-02  0.1320468E+00
        -11   -1    0    0    0    0  0.00000000000E+00  0.00000000000E+00  0.45593999997E+02  0.45594000000E+02  0.51100000000E-03 0.  1.
         11   -1    0    0    0    0 -0.00000000000E+00 -0.00000000000E+00 -0.45593999997E+02  0.45594000000E+02  0.51100000000E-03 0. -1.
    9900012    2    1    2    0    0 -0.18677124088E+01  0.24241611519E+02 -0.37920567352E+02  0.46142317554E+02  0.99999981159E+01 0.  0.
        -12    1    1    2    0    0  0.18677124088E+01 -0.24241611519E+02  0.37920567352E+02  0.45045682446E+02  0.00000000000E+00 0.  1.
         11    1    3    3    0    0 -0.16989915720E+00  0.19616219560E+01 -0.14289731001E+01  0.24328565111E+01  0.51100000000E-03 0. -1.
        -11    1    3    3    0    0  0.25156901754E+01  0.28494661271E+01 -0.33762413938E+01  0.50840102752E+01  0.51100000000E-03 0.  1.
         12    1    3    3    0    0 -0.42135034270E+01  0.19430523436E+02 -0.33115352858E+02  0.38625450768E+02  0.00000000000E+00 0. -1.
</event>
<event>
 7    1  0.4102844E-008  0.4614232E+02  0.7816164E-02  0.1320468E+00
        -11   -1    0    0    0    0  0.00000000000E+00  0.00000000000E+00  0.45593999997E+02  0.45594000000E+02  0.51100000000E-03 0. -1.
         11   -1    0    0    0    0 -0.00000000000E+00 -0.00000000000E+00 -0.45593999997E+02  0.45594000000E+02  0.51100000000E-03 0.  1.
    9900012    2    1    2    0    0  0.39776081813E+02 -0.29723840360E+01  0.20931824498E+02  0.46142322870E+02  0.10000046591E+02 0.  0.
        -12    1    1    2    0    0 -0.39776081813E+02  0.29723840360E+01 -0.20931824498E+02  0.45045677130E+02  0.00000000000E+00 0.  1.
         11    1    3    3    0    0  0.20082463960E+02 -0.23109618156E+01  0.78672892526E+01  0.21691937296E+02  0.51100000000E-03 0. -1.
        -11    1    3    3    0    0  0.13080161356E+02 -0.17377575997E+01  0.11650351220E+02  0.17602304008E+02  0.51100000000E-03 0.  1.
        -12    1    3    3    0    0  0.66134564967E+01  0.10763353793E+01  0.14141840257E+01  0.68480815665E+01  0.00000000000E+00 0.  1.
</event>
<event>
 7    1  0.4102844E-008  0.4614232E+02  0.7816164E-02  0.1320468E+00
        -11   -1    0    0    0    0  0.00000000000E+00  0.00000000000E+00  0.45593999997E+02  0.45594000000E+02  0.51100000000E-03 0.  1.
         11   -1    0    0    0    0 -0.00000000000E+00 -0.00000000000E+00 -0.45593999997E+02  0.45594000000E+02  0.51100000000E-03 0. -1.
    9900012    2    1    2    0    0 -0.18789011054E+02  0.22250258643E+02 -0.34365863167E+02  0.46142317662E+02  0.99999990979E+01 0.  0.
        -12    1    1    2    0    0  0.18789011054E+02 -0.22250258643E+02  0.34365863167E+02  0.45045682338E+02  0.00000000000E+00 0.  1.
         11    1    3    3    0    0 -0.30662094789E+01  0.66802432709E+01 -0.50530744505E+01  0.89196890299E+01  0.51100000000E-03 0. -1.
        -11    1    3    3    0    0 -0.49704233090E+01  0.23285031171E+01 -0.10361519761E+02  0.11725533107E+02  0.51100000000E-03 0.  1.
         12    1    3    3    0    0 -0.10752378266E+02  0.13241512255E+02 -0.18951268956E+02  0.25497095525E+02  0.00000000000E+00 0. -1.
</event>
<event>
 7    1  0.4102844E-008  0.4614232E+02  0.7816164E-02  0.1320468E+00
        -11   -1    0    0    0    0  0.00000000000E+00  0.00000000000E+00  0.45593999997E+02  0.45594000000E+02  0.51100000000E-03 0. -1.
         11   -1    0    0    0    0 -0.00000000000E+00 -0.00000000000E+00 -0.45593999997E+02  0.45594000000E+02  0.51100000000E-03 0.  1.
    9900012    2    1    2    0    0  0.41912383805E+02  0.14365579625E+02  0.81299255877E+01  0.46142317807E+02  0.10000000421E+02 0.  0.
        -12    1    1    2    0    0 -0.41912383805E+02 -0.14365579625E+02 -0.81299255877E+01  0.45045682193E+02  0.00000000000E+00 0.  1.
         11    1    3    3    0    0  0.32841468873E+02  0.11248176407E+02  0.47964239952E+01  0.35044104120E+02  0.51100000000E-03 0. -1.
        -11    1    3    3    0    0  0.48185857658E+01  0.39754610922E+01  0.18973226120E+01  0.65286210667E+01  0.51100000000E-03 0.  1.
        -12    1    3    3    0    0  0.42523291662E+01 -0.85805787390E+00  0.14361789805E+01  0.45695926205E+01  0.00000000000E+00 0.  1.
</event>
<event>
 7    1  0.4102844E-008  0.4614232E+02  0.7816164E-02  0.1320468E+00
        -11   -1    0    0    0    0  0.00000000000E+00  0.00000000000E+00  0.45593999997E+02  0.45594000000E+02  0.51100000000E-03 0.  1.
         11   -1    0    0    0    0 -0.00000000000E+00 -0.00000000000E+00 -0.45593999997E+02  0.45594000000E+02  0.51100000000E-03 0. -1.
    9900012    2    1    2    0    0 -0.49340799525E+01  0.44109370663E+02 -0.76897238749E+01  0.46142316761E+02  0.99999908763E+01 0.  0.
        -12    1    1    2    0    0  0.49340799525E+01 -0.44109370663E+02  0.76897238749E+01  0.45045683239E+02  0.00000000000E+00 0.  1.
         11    1    3    3    0    0 -0.44496208134E+01  0.22009652847E+02 -0.38212053469E+01  0.22777742522E+02  0.51100000000E-03 0. -1.
        -11    1    3    3    0    0 -0.60544425380E+00  0.19189123248E+01 -0.23973302760E+01  0.31298530266E+01  0.51100000000E-03 0.  1.
         12    1    3    3    0    0  0.12098511467E+00  0.20180805491E+02 -0.14711882520E+01  0.20234721212E+02  0.00000000000E+00 0. -1.
</event>
<event>
 7    1  0.4102844E-008  0.4614232E+02  0.7816164E-02  0.1320468E+00
        -11   -1    0    0    0    0  0.00000000000E+00  0.00000000000E+00  0.45593999997E+02  0.45594000000E+02  0.51100000000E-03 0.  1.
         11   -1    0    0    0    0 -0.00000000000E+00 -0.00000000000E+00 -0.45593999997E+02  0.45594000000E+02  0.51100000000E-03 0. -1.
    9900012    2    1    2    0    0  0.38515601388E+02 -0.13386551864E+02 -0.19143201435E+02  0.46142317829E+02  0.10000000619E+02 0.  0.
        -12    1    1    2    0    0 -0.38515601388E+02  0.13386551864E+02  0.19143201435E+02  0.45045682171E+02  0.00000000000E+00 0.  1.
         11    1    3    3    0    0  0.26911868422E+02 -0.93534555042E+01 -0.88418779201E+01  0.29831436392E+02  0.51100000000E-03 0. -1.
        -11    1    3    3    0    0  0.35418769622E+01 -0.52007069193E+00 -0.15390080107E+01  0.38966539310E+01  0.51100000000E-03 0.  1.
        -12    1    3    3    0    0  0.80618560039E+01 -0.35130256676E+01 -0.87623155039E+01  0.12414227506E+02  0.00000000000E+00 0.  1.
</event>
<event>
 7    1  0.4102844E-008  0.4614232E+02  0.7816164E-02  0.1320468E+00
        -11   -1    0    0    0    0  0.00000000000E+00  0.00000000000E+00  0.45593999997E+02  0.45594000000E+02  0.51100000000E-03 0.  1.
         11   -1    0    0    0    0 -0.00000000000E+00 -0.00000000000E+00 -0.45593999997E+02  0.45594000000E+02  0.51100000000E-03 0. -1.
    9900012    2    1    2    0    0  0.21462131702E+02 -0.23016328376E+02 -0.32229474075E+02  0.46142317984E+02  0.10000002034E+02 0.  0.
        -12    1    1    2    0    0 -0.21462131702E+02  0.23016328376E+02  0.32229474075E+02  0.45045682016E+02  0.00000000000E+00 0.  1.
         11    1    3    3    0    0  0.17347785849E+02 -0.15712112312E+02 -0.23590352522E+02  0.33231323771E+02  0.51100000000E-03 0. -1.
        -11    1    3    3    0    0  0.12322666357E+01 -0.40651914404E+01 -0.71688274864E+01  0.83328476704E+01  0.51100000000E-03 0.  1.
         12    1    3    3    0    0  0.28820792169E+01 -0.32390246239E+01 -0.14702940669E+01  0.45781465431E+01  0.00000000000E+00 0. -1.
</event>
<event>
 7    1  0.4102844E-008  0.4614232E+02  0.7816164E-02  0.1320468E+00
        -11   -1    0    0    0    0  0.00000000000E+00  0.00000000000E+00  0.45593999997E+02  0.45594000000E+02  0.51100000000E-03 0.  1.
         11   -1    0    0    0    0 -0.00000000000E+00 -0.00000000000E+00 -0.45593999997E+02  0.45594000000E+02  0.51100000000E-03 0. -1.
    9900012    2    1    2    0    0  0.26235014688E+02 -0.33648867914E+02 -0.14442682335E+02  0.46142318957E+02  0.10000010909E+02 0.  0.
        -12    1    1    2    0    0 -0.26235014688E+02  0.33648867914E+02  0.14442682335E+02  0.45045681043E+02  0.00000000000E+00 0.  1.
         11    1    3    3    0    0  0.12439683676E+02 -0.13392308273E+02 -0.44440484723E+01  0.18810880307E+02  0.51100000000E-03 0. -1.
        -11    1    3    3    0    0  0.13107103912E+02 -0.19209204211E+02 -0.73292887229E+01  0.24382538277E+02  0.51100000000E-03 0.  1.
         12    1    3    3    0    0  0.68822709912E+00 -0.10473554301E+01 -0.26693451395E+01  0.29489003731E+01  0.00000000000E+00 0. -1.
</event>
<event>
 7    1  0.4102844E-008  0.4614232E+02  0.7816164E-02  0.1320468E+00
        -11   -1    0    0    0    0  0.00000000000E+00  0.00000000000E+00  0.45593999997E+02  0.45594000000E+02  0.51100000000E-03 0. -1.
         11   -1    0    0    0    0 -0.00000000000E+00 -0.00000000000E+00 -0.45593999997E+02  0.45594000000E+02  0.51100000000E-03 0.  1.
    9900012    2    1    2    0    0 -0.22387178331E+02 -0.38670212552E+02  0.57045990284E+01  0.46142317160E+02  0.99999945215E+01 0.  0.
        -12    1    1    2    0    0  0.22387178331E+02  0.38670212552E+02 -0.57045990284E+01  0.45045682840E+02  0.00000000000E+00 0.  1.
         11    1    3    3    0    0 -0.16372945843E+02 -0.30309437136E+02  0.30229630768E+01  0.34581406003E+02  0.51100000000E-03 0. -1.
        -11    1    3    3    0    0 -0.39589612191E+01 -0.81613987819E+01  0.27981570725E+01  0.94927070572E+01  0.51100000000E-03 0.  1.
        -12    1    3    3    0    0 -0.20552712684E+01 -0.19937663366E+00 -0.11652112090E+00  0.20682041003E+01  0.00000000000E+00 0.  1.
</event>
<event>
 7    1  0.4102844E-008  0.4614232E+02  0.7816164E-02  0.1320468E+00
        -11   -1    0    0    0    0  0.00000000000E+00  0.00000000000E+00  0.45593999997E+02  0.45594000000E+02  0.51100000000E-03 0. -1.
         11   -1    0    0    0    0 -0.00000000000E+00 -0.00000000000E+00 -0.45593999997E+02  0.45594000000E+02  0.51100000000E-03 0.  1.
    9900012    2    1    2    0    0 -0.20550309941E+01  0.38084953056E+02  0.23967202066E+02  0.46142316783E+02  0.99999910773E+01 0.  0.
        -12    1    1    2    0    0  0.20550309941E+01 -0.38084953056E+02 -0.23967202066E+02  0.45045683217E+02  0.00000000000E+00 0.  1.
         11    1    3    3    0    0 -0.14762387185E+01  0.11332804594E+02  0.60390214983E+01  0.12926001765E+02  0.51100000000E-03 0. -1.
        -11    1    3    3    0    0 -0.13506861248E+01  0.13820228300E+02  0.45967452055E+01  0.14627136768E+02  0.51100000000E-03 0.  1.
         12    1    3    3    0    0  0.77189384924E+00  0.12931920162E+02  0.13331435362E+02  0.18589178250E+02  0.00000000000E+00 0. -1.
</event>
<event>
 7    1  0.4102844E-008  0.4614232E+02  0.7816164E-02  0.1320468E+00
        -11   -1    0    0    0    0  0.00000000000E+00  0.00000000000E+00  0.45593999997E+02  0.45594000000E+02  0.51100000000E-03 0.  1.
         11   -1    0    0    0    0 -0.00000000000E+00 -0.00000000000E+00 -0.45593999997E+02  0.45594000000E+02  0.51100000000E-03 0. -1.
    9900012    2    1    2    0    0 -0.21114332424E+02  0.20967572300E+02 -0.33818033798E+02  0.46142317278E+02  0.99999955984E+01 0.  0.
        -12    1    1    2    0    0  0.21114332424E+02 -0.20967572300E+02  0.33818033798E+02  0.45045682722E+02  0.00000000000E+00 0.  1.
         11    1    3    3    0    0 -0.18990534071E+01  0.26390108904E+01 -0.13242996421E+01  0.35106341487E+01  0.51100000000E-03 0. -1.
        -11    1    3    3    0    0 -0.15955879423E+02  0.17769573542E+02 -0.25745090894E+02  0.35116342882E+02  0.51100000000E-03 0.  1.
        -12    1    3    3    0    0 -0.32593995940E+01  0.55898786696E+00 -0.67486432626E+01  0.75153402474E+01  0.00000000000E+00 0.  1.
</event>
<event>
 7    1  0.4102844E-008  0.4614232E+02  0.7816164E-02  0.1320468E+00
        -11   -1    0    0    0    0  0.00000000000E+00  0.00000000000E+00  0.45593999997E+02  0.45594000000E+02  0.51100000000E-03 0.  1.
         11   -1    0    0    0    0 -0.00000000000E+00 -0.00000000000E+00 -0.45593999997E+02  0.45594000000E+02  0.51100000000E-03 0. -1.
    9900012    2    1    2    0    0  0.11314660939E+01  0.25000791553E+02 -0.37453885726E+02  0.46142319299E+02  0.10000014026E+02 0.  0.
        -12    1    1    2    0    0 -0.11314660939E+01 -0.25000791553E+02  0.37453885726E+02  0.45045680701E+02  0.00000000000E+00 0.  1.
         11    1    3    3    0    0  0.28753092969E+01  0.50241589581E+01 -0.12827495302E+02  0.14073173514E+02  0.51100000000E-03 0. -1.
        -11    1    3    3    0    0  0.81793144951E+00  0.10760659586E+02 -0.15183985305E+02  0.18628317599E+02  0.51100000000E-03 0.  1.
        -12    1    3    3    0    0 -0.25617746526E+01  0.92159730085E+01 -0.94424051200E+01  0.13440828186E+02  0.00000000000E+00 0.  1.
</event>
<event>
 7    1  0.4102844E-008  0.4614232E+02  0.7816164E-02  0.1320468E+00
        -11   -1    0    0    0    0  0.00000000000E+00  0.00000000000E+00  0.45593999997E+02  0.45594000000E+02  0.51100000000E-03 0.  1.
         11   -1    0    0    0    0 -0.00000000000E+00 -0.00000000000E+00 -0.45593999997E+02  0.45594000000E+02  0.51100000000E-03 0. -1.
    9900012    2    1    2    0    0  0.42335910818E+01 -0.16475070253E+02 -0.41710458610E+02  0.46142316624E+02  0.99999896351E+01 0.  0.
        -12    1    1    2    0    0 -0.42335910818E+01  0.16475070253E+02  0.41710458610E+02  0.45045683376E+02  0.00000000000E+00 0.  1.
         11    1    3    3    0    0  0.97168728124E+00 -0.51406354991E+01 -0.15181508739E+02  0.16057662263E+02  0.51100000000E-03 0. -1.
        -11    1    3    3    0    0 -0.28105157955E+00 -0.10429137565E+02 -0.21109036493E+02  0.23546492781E+02  0.51100000000E-03 0.  1.
        -12    1    3    3    0    0  0.35429553801E+01 -0.90529718850E+00 -0.54199133782E+01  0.65381615804E+01  0.00000000000E+00 0.  1.
</event>
<event>
 7    1  0.4102844E-008  0.4614232E+02  0.7816164E-02  0.1320468E+00
        -11   -1    0    0    0    0  0.00000000000E+00  0.00000000000E+00  0.45593999997E+02  0.45594000000E+02  0.51100000000E-03 0.  1.
         11   -1    0    0    0    0 -0.00000000000E+00 -0.00000000000E+00 -0.45593999997E+02  0.45594000000E+02  0.51100000000E-03 0. -1.
    9900012    2    1    2    0    0 -0.16895640889E+02 -0.37545763561E+02 -0.18274749246E+02  0.46142317605E+02  0.99999985765E+01 0.  0.
        -12    1    1    2    0    0  0.16895640889E+02  0.37545763561E+02  0.18274749246E+02  0.45045682395E+02  0.00000000000E+00 0.  1.
         11    1    3    3    0    0 -0.12213617834E+02 -0.26278378226E+02 -0.14818107970E+02  0.32546919160E+02  0.51100000000E-03 0. -1.
        -11    1    3    3    0    0 -0.37687372713E+01 -0.37296912816E+01 -0.27412365581E+01  0.59689493049E+01  0.51100000000E-03 0.  1.
        -12    1    3    3    0    0 -0.91328578368E+00 -0.75376940539E+01 -0.71540471818E+00  0.76264491400E+01  0.00000000000E+00 0.  1.
</event>
<event>
 7    1  0.4102844E-008  0.4614232E+02  0.7816164E-02  0.1320468E+00
        -11   -1    0    0    0    0  0.00000000000E+00  0.00000000000E+00  0.45593999997E+02  0.45594000000E+02  0.51100000000E-03 0.  1.
         11   -1    0    0    0    0 -0.00000000000E+00 -0.00000000000E+00 -0.45593999997E+02  0.45594000000E+02  0.51100000000E-03 0. -1.
    9900012    2    1    2    0    0  0.10136129020E+02 -0.43648687365E+02 -0.46004806670E+01  0.46142318269E+02  0.10000004634E+02 0.  0.
        -12    1    1    2    0    0 -0.10136129020E+02  0.43648687365E+02  0.46004806670E+01  0.45045681731E+02  0.00000000000E+00 0.  1.
         11    1    3    3    0    0  0.35256568413E+01 -0.17075221969E+02 -0.40496144383E+01  0.17899520631E+02  0.51100000000E-03 0. -1.
        -11    1    3    3    0    0  0.70723026184E+00 -0.66681583068E+01 -0.29820215051E+01  0.73387302966E+01  0.51100000000E-03 0.  1.
        -12    1    3    3    0    0  0.59032419171E+01 -0.19905307089E+02  0.24311552764E+01  0.20904067342E+02  0.00000000000E+00 0.  1.
</event>
<event>
 7    1  0.4102844E-008  0.4614232E+02  0.7816164E-02  0.1320468E+00
        -11   -1    0    0    0    0  0.00000000000E+00  0.00000000000E+00  0.45593999997E+02  0.45594000000E+02  0.51100000000E-03 0. -1.
         11   -1    0    0    0    0 -0.00000000000E+00 -0.00000000000E+00 -0.45593999997E+02  0.45594000000E+02  0.51100000000E-03 0.  1.
    9900012    2    1    2    0    0  0.24921019879E+02  0.18844706445E+02  0.32448933863E+02  0.46142317614E+02  0.99999986569E+01 0.  0.
        -12    1    1    2    0    0 -0.24921019879E+02 -0.18844706445E+02 -0.32448933863E+02  0.45045682386E+02  0.00000000000E+00 0.  1.
         11    1    3    3    0    0  0.40637721102E+01  0.11240916597E+01  0.23126065528E+01  0.48089474059E+01  0.51100000000E-03 0. -1.
        -11    1    3    3    0    0  0.44655359046E+01  0.60343217243E+01  0.45544685533E+01  0.87805030409E+01  0.51100000000E-03 0.  1.
         12    1    3    3    0    0  0.16391711864E+02  0.11686293061E+02  0.25581858757E+02  0.32552867167E+02  0.00000000000E+00 0. -1.
</event>
<event>
 7    1  0.4102844E-008  0.4614232E+02  0.7816164E-02  0.1320468E+00
        -11   -1    0    0    0    0  0.00000000000E+00  0.00000000000E+00  0.45593999997E+02  0.45594000000E+02  0.51100000000E-03 0.  1.
         11   -1    0    0    0    0 -0.00000000000E+00 -0.00000000000E+00 -0.45593999997E+02  0.45594000000E+02  0.51100000000E-03 0. -1.
    9900012    2    1    2    0    0  0.25651242819E+02 -0.19223481644E+02 -0.31647827737E+02  0.46142317575E+02  0.99999983006E+01 0.  0.
        -12    1    1    2    0    0 -0.25651242819E+02  0.19223481644E+02  0.31647827737E+02  0.45045682425E+02  0.00000000000E+00 0.  1.
         11    1    3    3    0    0  0.55237046508E+01 -0.40611394842E+01 -0.33063526782E+01  0.76115790262E+01  0.51100000000E-03 0.  1.
        -11    1    3    3    0    0  0.19691448330E+02 -0.12346064326E+02 -0.24876733903E+02  0.34044534533E+02  0.51100000000E-03 0. -1.
        -12    1    3    3    0    0  0.43608983844E+00 -0.28162778343E+01 -0.34647411563E+01  0.44862040154E+01  0.00000000000E+00 0.  1.
</event>
<event>
 7    1  0.4102844E-008  0.4614232E+02  0.7816164E-02  0.1320468E+00
        -11   -1    0    0    0    0  0.00000000000E+00  0.00000000000E+00  0.45593999997E+02  0.45594000000E+02  0.51100000000E-03 0. -1.
         11   -1    0    0    0    0 -0.00000000000E+00 -0.00000000000E+00 -0.45593999997E+02  0.45594000000E+02  0.51100000000E-03 0.  1.
    9900012    2    1    2    0    0  0.39455170652E+02  0.18505673548E+02 -0.11399264435E+02  0.46142315697E+02  0.99999811822E+01 0.  0.
        -12    1    1    2    0    0 -0.39455170652E+02 -0.18505673548E+02  0.11399264435E+02  0.45045684303E+02  0.00000000000E+00 0.  1.
         11    1    3    3    0    0  0.17981107983E+01  0.25027732308E+01  0.77350419914E+00  0.31773236056E+01  0.51100000000E-03 0. -1.
        -11    1    3    3    0    0  0.83932886274E+01  0.14583053304E+01 -0.22077290848E+01  0.88004554651E+01  0.51100000000E-03 0.  1.
         12    1    3    3    0    0  0.29263771226E+02  0.14544594987E+02 -0.99650395497E+01  0.34164536627E+02  0.00000000000E+00 0. -1.
</event>
<event>
 7    1  0.4102844E-008  0.4614232E+02  0.7816164E-02  0.1320468E+00
        -11   -1    0    0    0    0  0.00000000000E+00  0.00000000000E+00  0.45593999997E+02  0.45594000000E+02  0.51100000000E-03 0.  1.
         11   -1    0    0    0    0 -0.00000000000E+00 -0.00000000000E+00 -0.45593999997E+02  0.45594000000E+02  0.51100000000E-03 0. -1.
    9900012    2    1    2    0    0  0.17393730924E+02 -0.40222280749E+02  0.10427835635E+02  0.46142317630E+02  0.99999988088E+01 0.  0.
        -12    1    1    2    0    0 -0.17393730924E+02  0.40222280749E+02 -0.10427835635E+02  0.45045682370E+02  0.00000000000E+00 0.  1.
         11    1    3    3    0    0  0.99965536613E+01 -0.19058479777E+02  0.35818465958E+01  0.21817111674E+02  0.51100000000E-03 0. -1.
        -11    1    3    3    0    0  0.26676530852E+01 -0.66217732963E+01  0.54273638447E+01  0.89677496138E+01  0.51100000000E-03 0.  1.
        -12    1    3    3    0    0  0.47295241778E+01 -0.14542027676E+02  0.14186251943E+01  0.15357456343E+02  0.00000000000E+00 0.  1.
</event>
<event>
 7    1  0.4102844E-008  0.4614232E+02  0.7816164E-02  0.1320468E+00
        -11   -1    0    0    0    0  0.00000000000E+00  0.00000000000E+00  0.45593999997E+02  0.45594000000E+02  0.51100000000E-03 0.  1.
         11   -1    0    0    0    0 -0.00000000000E+00 -0.00000000000E+00 -0.45593999997E+02  0.45594000000E+02  0.51100000000E-03 0. -1.
    9900012    2    1    2    0    0  0.40379550203E+02  0.34852094350E+01 -0.19658551513E+02  0.46142318664E+02  0.10000008234E+02 0.  0.
        -12    1    1    2    0    0 -0.40379550203E+02 -0.34852094350E+01  0.19658551513E+02  0.45045681336E+02  0.00000000000E+00 0.  1.
         11    1    3    3    0    0  0.16950701502E+02 -0.12174840243E+01 -0.53313579038E+01  0.17811005758E+02  0.51100000000E-03 0.  1.
        -11    1    3    3    0    0  0.21404622638E+02  0.32847524870E+01 -0.14118430969E+02  0.25851065016E+02  0.51100000000E-03 0. -1.
        -12    1    3    3    0    0  0.20242260634E+01  0.14179409723E+01 -0.20876264059E+00  0.24802478902E+01  0.00000000000E+00 0.  1.
</event>
<event>
 7    1  0.4102844E-008  0.4614232E+02  0.7816164E-02  0.1320468E+00
        -11   -1    0    0    0    0  0.00000000000E+00  0.00000000000E+00  0.45593999997E+02  0.45594000000E+02  0.51100000000E-03 0.  1.
         11   -1    0    0    0    0 -0.00000000000E+00 -0.00000000000E+00 -0.45593999997E+02  0.45594000000E+02  0.51100000000E-03 0. -1.
    9900012    2    1    2    0    0  0.52546511493E+01  0.11736670633E+02 -0.43171202832E+02  0.46142317074E+02  0.99999937359E+01 0.  0.
        -12    1    1    2    0    0 -0.52546511493E+01 -0.11736670633E+02  0.43171202832E+02  0.45045682926E+02  0.00000000000E+00 0.  1.
         11    1    3    3    0    0 -0.47204146607E+00  0.96985571152E+00 -0.21272305753E+01  0.23850688519E+01  0.51100000000E-03 0. -1.
        -11    1    3    3    0    0  0.28438927294E+01  0.86847769736E+01 -0.15707705037E+02  0.18172646332E+02  0.51100000000E-03 0.  1.
         12    1    3    3    0    0  0.28827998860E+01  0.20820379481E+01 -0.25336267220E+02  0.25584601890E+02  0.00000000000E+00 0. -1.
</event>
<event>
 7    1  0.4102844E-008  0.4614232E+02  0.7816164E-02  0.1320468E+00
        -11   -1    0    0    0    0  0.00000000000E+00  0.00000000000E+00  0.45593999997E+02  0.45594000000E+02  0.51100000000E-03 0. -1.
         11   -1    0    0    0    0 -0.00000000000E+00 -0.00000000000E+00 -0.45593999997E+02  0.45594000000E+02  0.51100000000E-03 0.  1.
    9900012    2    1    2    0    0 -0.39189063924E+02 -0.15485815198E+02  0.15922320990E+02  0.46142317529E+02  0.99999978792E+01 0.  0.
        -12    1    1    2    0    0  0.39189063924E+02  0.15485815198E+02 -0.15922320990E+02  0.45045682471E+02  0.00000000000E+00 0.  1.
         11    1    3    3    0    0 -0.13239180935E+02 -0.58619705801E+01  0.88092584613E+01  0.16948204796E+02  0.51100000000E-03 0.  1.
        -11    1    3    3    0    0 -0.36318255856E+01  0.59063144891E+00  0.17315320782E+01  0.40665963891E+01  0.51100000000E-03 0. -1.
         12    1    3    3    0    0 -0.22318057403E+02 -0.10214476067E+02  0.53815304505E+01  0.25127516343E+02  0.00000000000E+00 0. -1.
</event>
<event>
 7    1  0.4102844E-008  0.4614232E+02  0.7816164E-02  0.1320468E+00
        -11   -1    0    0    0    0  0.00000000000E+00  0.00000000000E+00  0.45593999997E+02  0.45594000000E+02  0.51100000000E-03 0.  1.
         11   -1    0    0    0    0 -0.00000000000E+00 -0.00000000000E+00 -0.45593999997E+02  0.45594000000E+02  0.51100000000E-03 0. -1.
    9900012    2    1    2    0    0  0.48287300227E+01 -0.31157882987E+02 -0.32171153700E+02  0.46142318340E+02  0.10000005278E+02 0.  0.
        -12    1    1    2    0    0 -0.48287300227E+01  0.31157882987E+02  0.32171153700E+02  0.45045681660E+02  0.00000000000E+00 0.  1.
         11    1    3    3    0    0  0.53819128085E+00 -0.12312730479E+02 -0.14759876924E+02  0.19228805183E+02  0.51100000000E-03 0. -1.
        -11    1    3    3    0    0  0.31985526926E+01 -0.16995363366E+02 -0.11883667446E+02  0.20983199649E+02  0.51100000000E-03 0.  1.
        -12    1    3    3    0    0  0.10919860493E+01 -0.18497891416E+01 -0.55276093295E+01  0.59303135077E+01  0.00000000000E+00 0.  1.
</event>
<event>
 7    1  0.4102844E-008  0.4614232E+02  0.7816164E-02  0.1320468E+00
        -11   -1    0    0    0    0  0.00000000000E+00  0.00000000000E+00  0.45593999997E+02  0.45594000000E+02  0.51100000000E-03 0.  1.
         11   -1    0    0    0    0 -0.00000000000E+00 -0.00000000000E+00 -0.45593999997E+02  0.45594000000E+02  0.51100000000E-03 0. -1.
    9900012    2    1    2    0    0  0.53104415336E+01  0.42016841635E+02 -0.15345936225E+02  0.46142317312E+02  0.99999959019E+01 0.  0.
        -12    1    1    2    0    0 -0.53104415336E+01 -0.42016841635E+02  0.15345936225E+02  0.45045682688E+02  0.00000000000E+00 0.  1.
         11    1    3    3    0    0 -0.78587866271E+00  0.68438898167E+01 -0.51025599393E+01  0.85727796712E+01  0.51100000000E-03 0.  1.
        -11    1    3    3    0    0  0.79896988657E+00  0.18585225577E+02 -0.36945161699E+01  0.18965716770E+02  0.51100000000E-03 0. -1.
        -12    1    3    3    0    0  0.52973503097E+01  0.16587726241E+02 -0.65488601153E+01  0.18603820870E+02  0.00000000000E+00 0.  1.
</event>
<event>
 7    1  0.4102844E-008  0.4614232E+02  0.7816164E-02  0.1320468E+00
        -11   -1    0    0    0    0  0.00000000000E+00  0.00000000000E+00  0.45593999997E+02  0.45594000000E+02  0.51100000000E-03 0.  1.
         11   -1    0    0    0    0 -0.00000000000E+00 -0.00000000000E+00 -0.45593999997E+02  0.45594000000E+02  0.51100000000E-03 0. -1.
    9900012    2    1    2    0    0 -0.24157448154E+02 -0.38004632112E+02  0.10858886698E+01  0.46142317438E+02  0.99999970569E+01 0.  0.
        -12    1    1    2    0    0  0.24157448154E+02  0.38004632112E+02 -0.10858886698E+01  0.45045682562E+02  0.00000000000E+00 0.  1.
         11    1    3    3    0    0 -0.13403859339E+02 -0.23452229461E+02 -0.27122126227E+00  0.27013775617E+02  0.51100000000E-03 0. -1.
        -11    1    3    3    0    0 -0.99511266032E+01 -0.99429517065E+01 -0.54525394337E+00  0.14077802081E+02  0.51100000000E-03 0.  1.
         12    1    3    3    0    0 -0.80246221201E+00 -0.46094509439E+01  0.19023638755E+01  0.50507397399E+01  0.00000000000E+00 0. -1.
</event>
<event>
 7    1  0.4102844E-008  0.4614232E+02  0.7816164E-02  0.1320468E+00
        -11   -1    0    0    0    0  0.00000000000E+00  0.00000000000E+00  0.45593999997E+02  0.45594000000E+02  0.51100000000E-03 0.  1.
         11   -1    0    0    0    0 -0.00000000000E+00 -0.00000000000E+00 -0.45593999997E+02  0.45594000000E+02  0.51100000000E-03 0. -1.
    9900012    2    1    2    0    0  0.38036432183E+02 -0.24061680105E+02 -0.18381401122E+01  0.46142318944E+02  0.10000010791E+02 0.  0.
        -12    1    1    2    0    0 -0.38036432183E+02  0.24061680105E+02  0.18381401122E+01  0.45045681056E+02  0.00000000000E+00 0.  1.
         11    1    3    3    0    0  0.91482439223E+01 -0.51647623227E+01 -0.71426031488E+00  0.10529734316E+02  0.51100000000E-03 0. -1.
        -11    1    3    3    0    0  0.77908484548E+01 -0.17536310797E+01 -0.25718074535E+01  0.83896802947E+01  0.51100000000E-03 0.  1.
        -12    1    3    3    0    0  0.21097339806E+02 -0.17143286702E+02  0.14479276562E+01  0.27222904333E+02  0.00000000000E+00 0.  1.
</event>
<event>
 7    1  0.4102844E-008  0.4614232E+02  0.7816164E-02  0.1320468E+00
        -11   -1    0    0    0    0  0.00000000000E+00  0.00000000000E+00  0.45593999997E+02  0.45594000000E+02  0.51100000000E-03 0.  1.
         11   -1    0    0    0    0 -0.00000000000E+00 -0.00000000000E+00 -0.45593999997E+02  0.45594000000E+02  0.51100000000E-03 0. -1.
    9900012    2    1    2    0    0 -0.13084990509E+02 -0.39601222927E+02 -0.17018801968E+02  0.46142318139E+02  0.10000003444E+02 0.  0.
        -12    1    1    2    0    0  0.13084990509E+02  0.39601222927E+02  0.17018801968E+02  0.45045681861E+02  0.00000000000E+00 0.  1.
         11    1    3    3    0    0 -0.32628994708E+01 -0.13487624883E+02 -0.49212873576E+01  0.14723505271E+02  0.51100000000E-03 0. -1.
        -11    1    3    3    0    0 -0.90103053893E+01 -0.21415760532E+02 -0.66233284745E+01  0.24159654027E+02  0.51100000000E-03 0.  1.
        -12    1    3    3    0    0 -0.81178564893E+00 -0.46978375113E+01 -0.54741861354E+01  0.72591588403E+01  0.00000000000E+00 0.  1.
</event>
<event>
 7    1  0.4102844E-008  0.4614232E+02  0.7816164E-02  0.1320468E+00
        -11   -1    0    0    0    0  0.00000000000E+00  0.00000000000E+00  0.45593999997E+02  0.45594000000E+02  0.51100000000E-03 0. -1.
         11   -1    0    0    0    0 -0.00000000000E+00 -0.00000000000E+00 -0.45593999997E+02  0.45594000000E+02  0.51100000000E-03 0.  1.
    9900012    2    1    2    0    0 -0.16350261330E+01 -0.19587602070E+01  0.44973361530E+02  0.46142319860E+02  0.10000019135E+02 0.  0.
        -12    1    1    2    0    0  0.16350261330E+01  0.19587602070E+01 -0.44973361530E+02  0.45045680140E+02  0.00000000000E+00 0.  1.
         11    1    3    3    0    0  0.13719703882E+01 -0.25813864371E+00  0.10841054409E+02  0.10930571772E+02  0.51100000000E-03 0. -1.
        -11    1    3    3    0    0 -0.15044128017E+01 -0.32569286543E+00  0.32665691306E+02  0.32701937595E+02  0.51100000000E-03 0.  1.
        -12    1    3    3    0    0 -0.15025837194E+01 -0.13749286978E+01  0.14666158150E+01  0.25098104922E+01  0.00000000000E+00 0.  1.
</event>
<event>
 7    1  0.4102844E-008  0.4614232E+02  0.7816164E-02  0.1320468E+00
        -11   -1    0    0    0    0  0.00000000000E+00  0.00000000000E+00  0.45593999997E+02  0.45594000000E+02  0.51100000000E-03 0.  1.
         11   -1    0    0    0    0 -0.00000000000E+00 -0.00000000000E+00 -0.45593999997E+02  0.45594000000E+02  0.51100000000E-03 0. -1.
    9900012    2    1    2    0    0  0.53729317467E+01 -0.94498724932E+01 -0.43714358305E+02  0.46142316436E+02  0.99999879201E+01 0.  0.
        -12    1    1    2    0    0 -0.53729317467E+01  0.94498724932E+01  0.43714358305E+02  0.45045683564E+02  0.00000000000E+00 0.  1.
         11    1    3    3    0    0  0.59683990025E+01 -0.20726756807E+01 -0.17675059483E+02  0.18770335615E+02  0.51100000000E-03 0. -1.
        -11    1    3    3    0    0 -0.10425845790E+01 -0.92715766749E+00 -0.97023692664E+01  0.98021718811E+01  0.51100000000E-03 0.  1.
        -12    1    3    3    0    0  0.44711732325E+00 -0.64500391450E+01 -0.16336929556E+02  0.17569808940E+02  0.00000000000E+00 0.  1.
</event>
<event>
 7    1  0.4102844E-008  0.4614232E+02  0.7816164E-02  0.1320468E+00
        -11   -1    0    0    0    0  0.00000000000E+00  0.00000000000E+00  0.45593999997E+02  0.45594000000E+02  0.51100000000E-03 0.  1.
         11   -1    0    0    0    0 -0.00000000000E+00 -0.00000000000E+00 -0.45593999997E+02  0.45594000000E+02  0.51100000000E-03 0. -1.
    9900012    2    1    2    0    0 -0.29281815697E+02 -0.32700994761E+02 -0.10116013671E+02  0.46142317394E+02  0.99999966506E+01 0.  0.
        -12    1    1    2    0    0  0.29281815697E+02  0.32700994761E+02  0.10116013671E+02  0.45045682606E+02  0.00000000000E+00 0.  1.
         11    1    3    3    0    0 -0.38605982881E+01 -0.37084427574E+01  0.50801648380E+00  0.53772528149E+01  0.51100000000E-03 0. -1.
        -11    1    3    3    0    0 -0.15352245313E+02 -0.11586162088E+02 -0.57350314720E+01  0.20070405435E+02  0.51100000000E-03 0.  1.
         12    1    3    3    0    0 -0.10068972096E+02 -0.17406389916E+02 -0.48889986825E+01  0.20694659144E+02  0.00000000000E+00 0. -1.
</event>
<event>
 7    1  0.4102844E-008  0.4614232E+02  0.7816164E-02  0.1320468E+00
        -11   -1    0    0    0    0  0.00000000000E+00  0.00000000000E+00  0.45593999997E+02  0.45594000000E+02  0.51100000000E-03 0.  1.
         11   -1    0    0    0    0 -0.00000000000E+00 -0.00000000000E+00 -0.45593999997E+02  0.45594000000E+02  0.51100000000E-03 0. -1.
    9900012    2    1    2    0    0 -0.13686446854E+02 -0.27863719680E+01 -0.42825585823E+02  0.46142317662E+02  0.99999990981E+01 0.  0.
        -12    1    1    2    0    0  0.13686446854E+02  0.27863719680E+01  0.42825585823E+02  0.45045682338E+02  0.00000000000E+00 0.  1.
         11    1    3    3    0    0 -0.41943482545E+01  0.76477613929E-01 -0.90540287059E+01  0.99786693589E+01  0.51100000000E-03 0. -1.
        -11    1    3    3    0    0 -0.69085144988E+01  0.17700037134E+01 -0.24098189414E+02  0.25131319484E+02  0.51100000000E-03 0.  1.
        -12    1    3    3    0    0 -0.25835841006E+01 -0.46328532953E+01 -0.96733677025E+01  0.11032328819E+02  0.00000000000E+00 0.  1.
</event>
<event>
 7    1  0.4102844E-008  0.4614232E+02  0.7816164E-02  0.1320468E+00
        -11   -1    0    0    0    0  0.00000000000E+00  0.00000000000E+00  0.45593999997E+02  0.45594000000E+02  0.51100000000E-03 0.  1.
         11   -1    0    0    0    0 -0.00000000000E+00 -0.00000000000E+00 -0.45593999997E+02  0.45594000000E+02  0.51100000000E-03 0. -1.
    9900012    2    1    2    0    0  0.12732126613E+02  0.42603807019E+02 -0.72056928699E+01  0.46142318405E+02  0.10000005874E+02 0.  0.
        -12    1    1    2    0    0 -0.12732126613E+02 -0.42603807019E+02  0.72056928699E+01  0.45045681595E+02  0.00000000000E+00 0.  1.
         11    1    3    3    0    0  0.45445734028E+01  0.81140450404E+01 -0.10873599278E+01  0.93633982188E+01  0.51100000000E-03 0. -1.
        -11    1    3    3    0    0  0.33676152990E+01  0.19662840779E+02  0.21669159119E+00  0.19950315682E+02  0.51100000000E-03 0.  1.
         12    1    3    3    0    0  0.48199379117E+01  0.14826921199E+02 -0.63350245333E+01  0.16828604504E+02  0.00000000000E+00 0. -1.
</event>
<event>
 7    1  0.4102844E-008  0.4614232E+02  0.7816164E-02  0.1320468E+00
        -11   -1    0    0    0    0  0.00000000000E+00  0.00000000000E+00  0.45593999997E+02  0.45594000000E+02  0.51100000000E-03 0.  1.
         11   -1    0    0    0    0 -0.00000000000E+00 -0.00000000000E+00 -0.45593999997E+02  0.45594000000E+02  0.51100000000E-03 0. -1.
    9900012    2    1    2    0    0  0.42157727360E+02  0.95993229211E+01 -0.12636947893E+02  0.46142318423E+02  0.10000006036E+02 0.  0.
        -12    1    1    2    0    0 -0.42157727360E+02 -0.95993229211E+01  0.12636947893E+02  0.45045681577E+02  0.00000000000E+00 0.  1.
         11    1    3    3    0    0  0.10989484560E+02  0.42158797039E+01 -0.62375573271E+01  0.13321018513E+02  0.51100000000E-03 0. -1.
        -11    1    3    3    0    0  0.15633444654E+02  0.99388608038E+00 -0.56774628087E+01  0.16662112276E+02  0.51100000000E-03 0.  1.
        -12    1    3    3    0    0  0.15534798146E+02  0.43895571368E+01 -0.72192775743E+00  0.16159187634E+02  0.00000000000E+00 0.  1.
</event>
<event>
 7    1  0.4102844E-008  0.4614232E+02  0.7816164E-02  0.1320468E+00
        -11   -1    0    0    0    0  0.00000000000E+00  0.00000000000E+00  0.45593999997E+02  0.45594000000E+02  0.51100000000E-03 0. -1.
         11   -1    0    0    0    0 -0.00000000000E+00 -0.00000000000E+00 -0.45593999997E+02  0.45594000000E+02  0.51100000000E-03 0.  1.
    9900012    2    1    2    0    0 -0.29589176001E+02  0.33931092620E+02 -0.15084107445E+01  0.46142315569E+02  0.99999800134E+01 0.  0.
        -12    1    1    2    0    0  0.29589176001E+02 -0.33931092620E+02  0.15084107445E+01  0.45045684431E+02  0.00000000000E+00 0.  1.
         11    1    3    3    0    0 -0.19723358639E+02  0.23288494887E+02 -0.13224054439E+01  0.30546908624E+02  0.51100000000E-03 0. -1.
        -11    1    3    3    0    0 -0.96815379612E+01  0.11025187141E+02  0.61851411608E+00  0.14685689931E+02  0.51100000000E-03 0.  1.
        -12    1    3    3    0    0 -0.18427940142E+00 -0.38258940757E+00 -0.80451941676E+00  0.90971701342E+00  0.00000000000E+00 0.  1.
</event>
<event>
 7    1  0.4102844E-008  0.4614232E+02  0.7816164E-02  0.1320468E+00
        -11   -1    0    0    0    0  0.00000000000E+00  0.00000000000E+00  0.45593999997E+02  0.45594000000E+02  0.51100000000E-03 0.  1.
         11   -1    0    0    0    0 -0.00000000000E+00 -0.00000000000E+00 -0.45593999997E+02  0.45594000000E+02  0.51100000000E-03 0. -1.
    9900012    2    1    2    0    0  0.31503869810E+02 -0.18983757694E+02 -0.26004549533E+02  0.46142318014E+02  0.10000002306E+02 0.  0.
        -12    1    1    2    0    0 -0.31503869810E+02  0.18983757694E+02  0.26004549533E+02  0.45045681986E+02  0.00000000000E+00 0.  1.
         11    1    3    3    0    0  0.12872894957E+02 -0.10599212511E+02 -0.74021305575E+01  0.18244074859E+02  0.51100000000E-03 0. -1.
        -11    1    3    3    0    0  0.42432556745E+01 -0.76879037519E+00 -0.55757476826E+01  0.70487743503E+01  0.51100000000E-03 0.  1.
         12    1    3    3    0    0  0.14387719178E+02 -0.76157548076E+01 -0.13026671293E+02  0.20849468804E+02  0.00000000000E+00 0. -1.
</event>
<event>
 7    1  0.4102844E-008  0.4614232E+02  0.7816164E-02  0.1320468E+00
        -11   -1    0    0    0    0  0.00000000000E+00  0.00000000000E+00  0.45593999997E+02  0.45594000000E+02  0.51100000000E-03 0.  1.
         11   -1    0    0    0    0 -0.00000000000E+00 -0.00000000000E+00 -0.45593999997E+02  0.45594000000E+02  0.51100000000E-03 0. -1.
    9900012    2    1    2    0    0  0.42694795826E+02 -0.45121515755E+01 -0.13634828171E+02  0.46142316060E+02  0.99999844840E+01 0.  0.
        -12    1    1    2    0    0 -0.42694795826E+02  0.45121515755E+01  0.13634828171E+02  0.45045683940E+02  0.00000000000E+00 0.  1.
         11    1    3    3    0    0  0.11415249241E+02 -0.35458821673E+00 -0.64807320597E+01  0.13131395064E+02  0.51100000000E-03 0. -1.
        -11    1    3    3    0    0  0.19372654855E+02 -0.29627414412E+00 -0.66466802103E+01  0.20483307657E+02  0.51100000000E-03 0.  1.
         12    1    3    3    0    0  0.11906891730E+02 -0.38612892147E+01 -0.50741590044E+00  0.12527613339E+02  0.00000000000E+00 0. -1.
</event>
<event>
 7    1  0.4102844E-008  0.4614232E+02  0.7816164E-02  0.1320468E+00
        -11   -1    0    0    0    0  0.00000000000E+00  0.00000000000E+00  0.45593999997E+02  0.45594000000E+02  0.51100000000E-03 0.  1.
         11   -1    0    0    0    0 -0.00000000000E+00 -0.00000000000E+00 -0.45593999997E+02  0.45594000000E+02  0.51100000000E-03 0. -1.
    9900012    2    1    2    0    0  0.35703395435E+02 -0.16243778054E+02 -0.22147703773E+02  0.46142317038E+02  0.99999934078E+01 0.  0.
        -12    1    1    2    0    0 -0.35703395435E+02  0.16243778054E+02  0.22147703773E+02  0.45045682962E+02  0.00000000000E+00 0.  1.
         11    1    3    3    0    0  0.13382198306E+02 -0.10112180284E+02 -0.63353182242E+01  0.17929742855E+02  0.51100000000E-03 0.  1.
        -11    1    3    3    0    0  0.10905236442E+02 -0.24364795547E+01 -0.58271957299E+01  0.12602254751E+02  0.51100000000E-03 0. -1.
         12    1    3    3    0    0  0.11415960687E+02 -0.36951182158E+01 -0.99851898193E+01  0.15610319432E+02  0.00000000000E+00 0. -1.
</event>
<event>
 7    1  0.4102844E-008  0.4614232E+02  0.7816164E-02  0.1320468E+00
        -11   -1    0    0    0    0  0.00000000000E+00  0.00000000000E+00  0.45593999997E+02  0.45594000000E+02  0.51100000000E-03 0.  1.
         11   -1    0    0    0    0 -0.00000000000E+00 -0.00000000000E+00 -0.45593999997E+02  0.45594000000E+02  0.51100000000E-03 0. -1.
    9900012    2    1    2    0    0 -0.37360548314E+02  0.11055154102E+02 -0.22607221271E+02  0.46142318119E+02  0.10000003265E+02 0.  0.
        -12    1    1    2    0    0  0.37360548314E+02 -0.11055154102E+02  0.22607221271E+02  0.45045681881E+02  0.00000000000E+00 0.  1.
         11    1    3    3    0    0 -0.10152284136E+02  0.53821408110E+01 -0.63098597322E+01  0.13109181629E+02  0.51100000000E-03 0. -1.
        -11    1    3    3    0    0 -0.26112109586E+02  0.65605500758E+01 -0.16545277566E+02  0.31601096410E+02  0.51100000000E-03 0.  1.
        -12    1    3    3    0    0 -0.10961545915E+01 -0.88753678521E+00  0.24791602694E+00  0.14320400797E+01  0.00000000000E+00 0.  1.
</event>
<event>
 7    1  0.4102844E-008  0.4614232E+02  0.7816164E-02  0.1320468E+00
        -11   -1    0    0    0    0  0.00000000000E+00  0.00000000000E+00  0.45593999997E+02  0.45594000000E+02  0.51100000000E-03 0.  1.
         11   -1    0    0    0    0 -0.00000000000E+00 -0.00000000000E+00 -0.45593999997E+02  0.45594000000E+02  0.51100000000E-03 0. -1.
    9900012    2    1    2    0    0 -0.43419807957E+02 -0.56254757448E+01  0.10591879064E+02  0.46142316495E+02  0.99999884509E+01 0.  0.
        -12    1    1    2    0    0  0.43419807957E+02  0.56254757448E+01 -0.10591879064E+02  0.45045683505E+02  0.00000000000E+00 0.  1.
         11    1    3    3    0    0 -0.14045262363E+02 -0.19615023752E+01  0.47101134653E+01  0.14943294667E+02  0.51100000000E-03 0. -1.
        -11    1    3    3    0    0 -0.25937966045E+01 -0.29386372639E+00  0.31172126991E+01  0.40658519388E+01  0.51100000000E-03 0.  1.
        -12    1    3    3    0    0 -0.26780748990E+02 -0.33701096432E+01  0.27645528998E+01  0.27133169888E+02  0.00000000000E+00 0.  1.
</event>
<event>
 7    1  0.4102844E-008  0.4614232E+02  0.7816164E-02  0.1320468E+00
        -11   -1    0    0    0    0  0.00000000000E+00  0.00000000000E+00  0.45593999997E+02  0.45594000000E+02  0.51100000000E-03 0.  1.
         11   -1    0    0    0    0 -0.00000000000E+00 -0.00000000000E+00 -0.45593999997E+02  0.45594000000E+02  0.51100000000E-03 0. -1.
    9900012    2    1    2    0    0  0.80685175042E+01 -0.26635115998E+02 -0.35420094292E+02  0.46142318092E+02  0.10000003015E+02 0.  0.
        -12    1    1    2    0    0 -0.80685175042E+01  0.26635115998E+02  0.35420094292E+02  0.45045681908E+02  0.00000000000E+00 0.  1.
         11    1    3    3    0    0  0.16594886976E+01 -0.14868772396E+02 -0.18886852039E+02  0.24094552818E+02  0.51100000000E-03 0. -1.
        -11    1    3    3    0    0  0.30996694935E+01 -0.61858586904E+01 -0.41508819301E+01  0.80686194461E+01  0.51100000000E-03 0.  1.
         12    1    3    3    0    0  0.33093593131E+01 -0.55804849117E+01 -0.12382360322E+02  0.13979145827E+02  0.00000000000E+00 0. -1.
</event>
<event>
 7    1  0.4102844E-008  0.4614232E+02  0.7816164E-02  0.1320468E+00
        -11   -1    0    0    0    0  0.00000000000E+00  0.00000000000E+00  0.45593999997E+02  0.45594000000E+02  0.51100000000E-03 0. -1.
         11   -1    0    0    0    0 -0.00000000000E+00 -0.00000000000E+00 -0.45593999997E+02  0.45594000000E+02  0.51100000000E-03 0.  1.
    9900012    2    1    2    0    0  0.31829069117E+01  0.17034891635E+02  0.41578779428E+02  0.46142319539E+02  0.10000016212E+02 0.  0.
        -12    1    1    2    0    0 -0.31829069117E+01 -0.17034891635E+02 -0.41578779428E+02  0.45045680461E+02  0.00000000000E+00 0.  1.
         11    1    3    3    0    0 -0.16128978839E+01  0.12237907714E+01  0.15121056471E+01  0.25269679826E+01  0.51100000000E-03 0. -1.
        -11    1    3    3    0    0  0.21098908770E+01  0.28071934945E+01  0.49255283952E+01  0.60491987123E+01  0.51100000000E-03 0.  1.
         12    1    3    3    0    0  0.26859139186E+01  0.13003907369E+02  0.35141145386E+02  0.37566152844E+02  0.00000000000E+00 0. -1.
</event>
<event>
 7    1  0.4102844E-008  0.4614232E+02  0.7816164E-02  0.1320468E+00
        -11   -1    0    0    0    0  0.00000000000E+00  0.00000000000E+00  0.45593999997E+02  0.45594000000E+02  0.51100000000E-03 0. -1.
         11   -1    0    0    0    0 -0.00000000000E+00 -0.00000000000E+00 -0.45593999997E+02  0.45594000000E+02  0.51100000000E-03 0.  1.
    9900012    2    1    2    0    0  0.18436261466E+02  0.20458989041E+02  0.35646141578E+02  0.46142318977E+02  0.10000011090E+02 0.  0.
        -12    1    1    2    0    0 -0.18436261466E+02 -0.20458989041E+02 -0.35646141578E+02  0.45045681023E+02  0.00000000000E+00 0.  1.
         11    1    3    3    0    0  0.15391453318E+01  0.64769773377E+01  0.10732291315E+02  0.12629421242E+02  0.51100000000E-03 0.  1.
        -11    1    3    3    0    0  0.79004950793E+01  0.82850029329E+01  0.15704694143E+02  0.19434415723E+02  0.51100000000E-03 0. -1.
        -12    1    3    3    0    0  0.89966210546E+01  0.56970087708E+01  0.92091561199E+01  0.14078482012E+02  0.00000000000E+00 0.  1.
</event>
<event>
 7    1  0.4102844E-008  0.4614232E+02  0.7816164E-02  0.1320468E+00
        -11   -1    0    0    0    0  0.00000000000E+00  0.00000000000E+00  0.45593999997E+02  0.45594000000E+02  0.51100000000E-03 0. -1.
         11   -1    0    0    0    0 -0.00000000000E+00 -0.00000000000E+00 -0.45593999997E+02  0.45594000000E+02  0.51100000000E-03 0.  1.
    9900012    2    1    2    0    0  0.24896216953E+02  0.33585749530E+02  0.16771680846E+02  0.46142317982E+02  0.10000002012E+02 0.  0.
        -12    1    1    2    0    0 -0.24896216953E+02 -0.33585749530E+02 -0.16771680846E+02  0.45045682018E+02  0.00000000000E+00 0.  1.
         11    1    3    3    0    0  0.30722313193E+01  0.78832975918E+00  0.24011521210E+01  0.39781403769E+01  0.51100000000E-03 0. -1.
        -11    1    3    3    0    0  0.67679614036E+01  0.11683998072E+02  0.69783801208E+01  0.15199305967E+02  0.51100000000E-03 0.  1.
         12    1    3    3    0    0  0.15056024230E+02  0.21113421699E+02  0.73921486039E+01  0.26964871638E+02  0.00000000000E+00 0. -1.
</event>
<event>
 7    1  0.4102844E-008  0.4614231E+02  0.7816164E-02  0.1320468E+00
        -11   -1    0    0    0    0  0.00000000000E+00  0.00000000000E+00  0.45593999997E+02  0.45594000000E+02  0.51100000000E-03 0.  1.
         11   -1    0    0    0    0 -0.00000000000E+00 -0.00000000000E+00 -0.45593999997E+02  0.45594000000E+02  0.51100000000E-03 0. -1.
    9900012    2    1    2    0    0 -0.13726353053E+02 -0.32735055257E+02 -0.27732965882E+02  0.46142311999E+02  0.99999474586E+01 0.  0.
        -12    1    1    2    0    0  0.13726353053E+02  0.32735055257E+02  0.27732965882E+02  0.45045688001E+02  0.00000000000E+00 0.  1.
         11    1    3    3    0    0 -0.16629384471E+01 -0.10335005630E+02 -0.39769716295E+01  0.11197946654E+02  0.51100000000E-03 0. -1.
        -11    1    3    3    0    0 -0.59113510773E+01 -0.78699219576E+01 -0.94871228147E+01  0.13670597746E+02  0.51100000000E-03 0.  1.
        -12    1    3    3    0    0 -0.61520635289E+01 -0.14530127669E+02 -0.14268871438E+02  0.21273767599E+02  0.00000000000E+00 0.  1.
</event>
<event>
 7    1  0.4102844E-008  0.4614232E+02  0.7816164E-02  0.1320468E+00
        -11   -1    0    0    0    0  0.00000000000E+00  0.00000000000E+00  0.45593999997E+02  0.45594000000E+02  0.51100000000E-03 0. -1.
         11   -1    0    0    0    0 -0.00000000000E+00 -0.00000000000E+00 -0.45593999997E+02  0.45594000000E+02  0.51100000000E-03 0.  1.
    9900012    2    1    2    0    0  0.20848968379E+02 -0.35979560386E+02  0.17317772325E+02  0.46142317783E+02  0.10000000203E+02 0.  0.
        -12    1    1    2    0    0 -0.20848968379E+02  0.35979560386E+02 -0.17317772325E+02  0.45045682217E+02  0.00000000000E+00 0.  1.
         11    1    3    3    0    0  0.15497552913E+02 -0.28564857539E+02  0.15338512568E+02  0.35935987541E+02  0.51100000000E-03 0. -1.
        -11    1    3    3    0    0  0.58146103552E+01 -0.57150617760E+01  0.21632488703E+01  0.84351212571E+01  0.51100000000E-03 0.  1.
         12    1    3    3    0    0 -0.46319488840E+00 -0.16996410713E+01 -0.18398911299E+00  0.17712089853E+01  0.00000000000E+00 0. -1.
</event>
<event>
 7    1  0.4102844E-008  0.4614232E+02  0.7816164E-02  0.1320468E+00
        -11   -1    0    0    0    0  0.00000000000E+00  0.00000000000E+00  0.45593999997E+02  0.45594000000E+02  0.51100000000E-03 0.  1.
         11   -1    0    0    0    0 -0.00000000000E+00 -0.00000000000E+00 -0.45593999997E+02  0.45594000000E+02  0.51100000000E-03 0. -1.
    9900012    2    1    2    0    0 -0.32048061128E+02 -0.53419403918E+01 -0.31200944478E+02  0.46142317792E+02  0.10000000286E+02 0.  0.
        -12    1    1    2    0    0  0.32048061128E+02  0.53419403918E+01  0.31200944478E+02  0.45045682208E+02  0.00000000000E+00 0.  1.
         11    1    3    3    0    0 -0.82234806256E+00 -0.80246918390E+00 -0.28793039246E+01  0.31000974950E+01  0.51100000000E-03 0. -1.
        -11    1    3    3    0    0 -0.13445356693E+02 -0.51546670404E+01 -0.15184895474E+02  0.20926759417E+02  0.51100000000E-03 0.  1.
         12    1    3    3    0    0 -0.17780356373E+02  0.61519583252E+00 -0.13136745079E+02  0.22115460880E+02  0.00000000000E+00 0. -1.
</event>
<event>
 7    1  0.4102844E-008  0.4614232E+02  0.7816164E-02  0.1320468E+00
        -11   -1    0    0    0    0  0.00000000000E+00  0.00000000000E+00  0.45593999997E+02  0.45594000000E+02  0.51100000000E-03 0. -1.
         11   -1    0    0    0    0 -0.00000000000E+00 -0.00000000000E+00 -0.45593999997E+02  0.45594000000E+02  0.51100000000E-03 0.  1.
    9900012    2    1    2    0    0 -0.18062824666E+02  0.41244030685E+02  0.13333409612E+01  0.46142317630E+02  0.99999988039E+01 0.  0.
        -12    1    1    2    0    0  0.18062824666E+02 -0.41244030685E+02 -0.13333409612E+01  0.45045682370E+02  0.00000000000E+00 0.  1.
         11    1    3    3    0    0 -0.10047481580E+02  0.15265382047E+02  0.25295075210E+01  0.18449449414E+02  0.51100000000E-03 0. -1.
        -11    1    3    3    0    0 -0.42326857174E+01  0.61274905351E+01 -0.67525345638E+00  0.74778162676E+01  0.51100000000E-03 0.  1.
        -12    1    3    3    0    0 -0.37826573693E+01  0.19851158103E+02 -0.52091310335E+00  0.20215051948E+02  0.00000000000E+00 0.  1.
</event>
<event>
 7    1  0.4102844E-008  0.4614232E+02  0.7816164E-02  0.1320468E+00
        -11   -1    0    0    0    0  0.00000000000E+00  0.00000000000E+00  0.45593999997E+02  0.45594000000E+02  0.51100000000E-03 0.  1.
         11   -1    0    0    0    0 -0.00000000000E+00 -0.00000000000E+00 -0.45593999997E+02  0.45594000000E+02  0.51100000000E-03 0. -1.
    9900012    2    1    2    0    0 -0.27526099708E+02 -0.15966696061E+01 -0.35621306315E+02  0.46142323376E+02  0.10000051196E+02 0.  0.
        -12    1    1    2    0    0  0.27526099708E+02  0.15966696061E+01  0.35621306315E+02  0.45045676624E+02  0.00000000000E+00 0.  1.
         11    1    3    3    0    0 -0.21457957892E+01  0.22201363503E+01 -0.25332456789E+01  0.39938426251E+01  0.51100000000E-03 0. -1.
        -11    1    3    3    0    0  0.15515212507E+00 -0.29000979939E+00 -0.47979640265E+00  0.58170672574E+00  0.51100000000E-03 0.  1.
        -12    1    3    3    0    0 -0.25535456044E+02 -0.35267961569E+01 -0.32608264233E+02  0.41566774025E+02  0.00000000000E+00 0.  1.
</event>
<event>
 7    1  0.4102844E-008  0.4614232E+02  0.7816164E-02  0.1320468E+00
        -11   -1    0    0    0    0  0.00000000000E+00  0.00000000000E+00  0.45593999997E+02  0.45594000000E+02  0.51100000000E-03 0.  1.
         11   -1    0    0    0    0 -0.00000000000E+00 -0.00000000000E+00 -0.45593999997E+02  0.45594000000E+02  0.51100000000E-03 0. -1.
    9900012    2    1    2    0    0  0.25725019502E+02  0.35249161102E+02 -0.11172889831E+02  0.46142318143E+02  0.10000003484E+02 0.  0.
        -12    1    1    2    0    0 -0.25725019502E+02 -0.35249161102E+02  0.11172889831E+02  0.45045681857E+02  0.00000000000E+00 0.  1.
         11    1    3    3    0    0  0.11175703582E+02  0.12453640722E+02 -0.45374689031E+01  0.17337189567E+02  0.51100000000E-03 0. -1.
        -11    1    3    3    0    0  0.12348044475E+02  0.21864145490E+02 -0.43230973918E+01  0.25479486488E+02  0.51100000000E-03 0.  1.
        -12    1    3    3    0    0  0.22012714452E+01  0.93137488936E+00 -0.23123235359E+01  0.33256420876E+01  0.00000000000E+00 0.  1.
</event>
<event>
 7    1  0.4102844E-008  0.4614232E+02  0.7816164E-02  0.1320468E+00
        -11   -1    0    0    0    0  0.00000000000E+00  0.00000000000E+00  0.45593999997E+02  0.45594000000E+02  0.51100000000E-03 0.  1.
         11   -1    0    0    0    0 -0.00000000000E+00 -0.00000000000E+00 -0.45593999997E+02  0.45594000000E+02  0.51100000000E-03 0. -1.
    9900012    2    1    2    0    0 -0.12135668702E+02 -0.31325467337E+02 -0.30009234869E+02  0.46142317231E+02  0.99999951622E+01 0.  0.
        -12    1    1    2    0    0  0.12135668702E+02  0.31325467337E+02  0.30009234869E+02  0.45045682769E+02  0.00000000000E+00 0.  1.
         11    1    3    3    0    0 -0.22421683547E-01 -0.57127170991E+01 -0.71454763724E+01  0.91484136459E+01  0.51100000000E-03 0. -1.
        -11    1    3    3    0    0 -0.24880918732E+01 -0.17255730927E+01 -0.42483366129E+01  0.52169500578E+01  0.51100000000E-03 0.  1.
        -12    1    3    3    0    0 -0.96251551456E+01 -0.23887177145E+02 -0.18615421884E+02  0.31776953527E+02  0.00000000000E+00 0.  1.
</event>
<event>
 7    1  0.4102844E-008  0.4614233E+02  0.7816164E-02  0.1320468E+00
        -11   -1    0    0    0    0  0.00000000000E+00  0.00000000000E+00  0.45593999997E+02  0.45594000000E+02  0.51100000000E-03 0.  1.
         11   -1    0    0    0    0 -0.00000000000E+00 -0.00000000000E+00 -0.45593999997E+02  0.45594000000E+02  0.51100000000E-03 0. -1.
    9900012    2    1    2    0    0 -0.14011022038E+02  0.33179823538E+02  0.27053709350E+02  0.46142327420E+02  0.10000088077E+02 0.  0.
        -12    1    1    2    0    0  0.14011022038E+02 -0.33179823538E+02 -0.27053709350E+02  0.45045672580E+02  0.00000000000E+00 0.  1.
         11    1    3    3    0    0 -0.27313553100E+01  0.12089948952E+02  0.96678331490E+01  0.15719229165E+02  0.51100000000E-03 0. -1.
        -11    1    3    3    0    0  0.29829736770E+00  0.45232143553E+00 -0.51812833630E+00  0.74968875850E+00  0.51100000000E-03 0.  1.
         12    1    3    3    0    0 -0.11577964096E+02  0.20637553151E+02  0.17904004537E+02  0.29673409496E+02  0.00000000000E+00 0. -1.
</event>
<event>
 7    1  0.4102844E-008  0.4614233E+02  0.7816164E-02  0.1320468E+00
        -11   -1    0    0    0    0  0.00000000000E+00  0.00000000000E+00  0.45593999997E+02  0.45594000000E+02  0.51100000000E-03 0. -1.
         11   -1    0    0    0    0 -0.00000000000E+00 -0.00000000000E+00 -0.45593999997E+02  0.45594000000E+02  0.51100000000E-03 0.  1.
    9900012    2    1    2    0    0 -0.19279830124E+01  0.10089290365E+02  0.43858886619E+02  0.46142325025E+02  0.10000066235E+02 0.  0.
        -12    1    1    2    0    0  0.19279830124E+01 -0.10089290365E+02 -0.43858886619E+02  0.45045674975E+02  0.00000000000E+00 0.  1.
         11    1    3    3    0    0 -0.57412698858E+00  0.23760159970E+01  0.18947895828E+02  0.19104916393E+02  0.51100000000E-03 0. -1.
        -11    1    3    3    0    0  0.25635224675E+01  0.28467324033E+01  0.59762833243E+01  0.70986967431E+01  0.51100000000E-03 0.  1.
        -12    1    3    3    0    0 -0.39173784913E+01  0.48665419648E+01  0.18934707466E+02  0.19938711888E+02  0.00000000000E+00 0.  1.
</event>
<event>
 7    1  0.4102844E-008  0.4614232E+02  0.7816164E-02  0.1320468E+00
        -11   -1    0    0    0    0  0.00000000000E+00  0.00000000000E+00  0.45593999997E+02  0.45594000000E+02  0.51100000000E-03 0.  1.
         11   -1    0    0    0    0 -0.00000000000E+00 -0.00000000000E+00 -0.45593999997E+02  0.45594000000E+02  0.51100000000E-03 0. -1.
    9900012    2    1    2    0    0 -0.37494787908E+02 -0.73775236752E+01 -0.23850084116E+02  0.46142317763E+02  0.10000000020E+02 0.  0.
        -12    1    1    2    0    0  0.37494787908E+02  0.73775236752E+01  0.23850084116E+02  0.45045682237E+02  0.00000000000E+00 0.  1.
         11    1    3    3    0    0 -0.99949654527E+01 -0.89829098052E+00 -0.94720619652E+01  0.13799500687E+02  0.51100000000E-03 0.  1.
        -11    1    3    3    0    0 -0.78840926861E+01 -0.15436667115E+01 -0.74658336345E+01  0.10967246533E+02  0.51100000000E-03 0. -1.
         12    1    3    3    0    0 -0.19615729769E+02 -0.49355659832E+01 -0.69121885159E+01  0.21375570543E+02  0.00000000000E+00 0. -1.
</event>
<event>
 7    1  0.4102844E-008  0.4614232E+02  0.7816164E-02  0.1320468E+00
        -11   -1    0    0    0    0  0.00000000000E+00  0.00000000000E+00  0.45593999997E+02  0.45594000000E+02  0.51100000000E-03 0. -1.
         11   -1    0    0    0    0 -0.00000000000E+00 -0.00000000000E+00 -0.45593999997E+02  0.45594000000E+02  0.51100000000E-03 0.  1.
    9900012    2    1    2    0    0 -0.27073288828E+01  0.35145213625E+02  0.28046353678E+02  0.46142316244E+02  0.99999861624E+01 0.  0.
        -12    1    1    2    0    0  0.27073288828E+01 -0.35145213625E+02 -0.28046353678E+02  0.45045683756E+02  0.00000000000E+00 0.  1.
         11    1    3    3    0    0 -0.37904210553E+01  0.14458690940E+02  0.14361960006E+02  0.20728891214E+02  0.51100000000E-03 0. -1.
        -11    1    3    3    0    0  0.32800787008E+00  0.21636901179E+00  0.15629809746E+01  0.16116185964E+01  0.51100000000E-03 0.  1.
         12    1    3    3    0    0  0.75508430242E+00  0.20470153673E+02  0.12121412698E+02  0.23801806434E+02  0.00000000000E+00 0. -1.
</event>
<event>
 7    1  0.4102844E-008  0.4614232E+02  0.7816164E-02  0.1320468E+00
        -11   -1    0    0    0    0  0.00000000000E+00  0.00000000000E+00  0.45593999997E+02  0.45594000000E+02  0.51100000000E-03 0.  1.
         11   -1    0    0    0    0 -0.00000000000E+00 -0.00000000000E+00 -0.45593999997E+02  0.45594000000E+02  0.51100000000E-03 0. -1.
    9900012    2    1    2    0    0  0.41789381021E+02  0.15767572831E+02 -0.58433536905E+01  0.46142317616E+02  0.99999986811E+01 0.  0.
        -12    1    1    2    0    0 -0.41789381021E+02 -0.15767572831E+02  0.58433536905E+01  0.45045682384E+02  0.00000000000E+00 0.  1.
         11    1    3    3    0    0  0.26555494985E+02  0.68687253436E+01 -0.59499427810E+01  0.28067339045E+02  0.51100000000E-03 0. -1.
        -11    1    3    3    0    0  0.87548379390E+01  0.39288779837E+01  0.17266863912E+01  0.97501136252E+01  0.51100000000E-03 0.  1.
         12    1    3    3    0    0  0.64790480968E+01  0.49699695033E+01 -0.16200973007E+01  0.83248649459E+01  0.00000000000E+00 0. -1.
</event>
<event>
 7    1  0.4102844E-008  0.4614232E+02  0.7816164E-02  0.1320468E+00
        -11   -1    0    0    0    0  0.00000000000E+00  0.00000000000E+00  0.45593999997E+02  0.45594000000E+02  0.51100000000E-03 0.  1.
         11   -1    0    0    0    0 -0.00000000000E+00 -0.00000000000E+00 -0.45593999997E+02  0.45594000000E+02  0.51100000000E-03 0. -1.
    9900012    2    1    2    0    0  0.41225159789E+00  0.44825907415E+02  0.44251001483E+01  0.46142318317E+02  0.10000005067E+02 0.  0.
        -12    1    1    2    0    0 -0.41225159789E+00 -0.44825907415E+02 -0.44251001483E+01  0.45045681683E+02  0.00000000000E+00 0.  1.
         11    1    3    3    0    0 -0.63978034032E+00  0.14931080454E+01 -0.61952963124E+00  0.17385360923E+01  0.51100000000E-03 0. -1.
        -11    1    3    3    0    0  0.10179829938E+01  0.79610408823E+01  0.41161582761E+01  0.90198237522E+01  0.51100000000E-03 0.  1.
         12    1    3    3    0    0  0.34048944418E-01  0.35371758488E+02  0.92847150336E+00  0.35383958472E+02  0.00000000000E+00 0. -1.
</event>
<event>
 7    1  0.4102844E-008  0.4614232E+02  0.7816164E-02  0.1320468E+00
        -11   -1    0    0    0    0  0.00000000000E+00  0.00000000000E+00  0.45593999997E+02  0.45594000000E+02  0.51100000000E-03 0.  1.
         11   -1    0    0    0    0 -0.00000000000E+00 -0.00000000000E+00 -0.45593999997E+02  0.45594000000E+02  0.51100000000E-03 0. -1.
    9900012    2    1    2    0    0 -0.11909885040E+02  0.42250826676E+02  0.10106223028E+02  0.46142318072E+02  0.10000002838E+02 0.  0.
        -12    1    1    2    0    0  0.11909885040E+02 -0.42250826676E+02 -0.10106223028E+02  0.45045681928E+02  0.00000000000E+00 0.  1.
         11    1    3    3    0    0 -0.83761289473E+01  0.26902910833E+02  0.51742557916E+01  0.28647845829E+02  0.51100000000E-03 0. -1.
        -11    1    3    3    0    0 -0.27929426429E+01  0.15492327049E+02  0.39035754037E+01  0.16218835568E+02  0.51100000000E-03 0.  1.
        -12    1    3    3    0    0 -0.74081344942E+00 -0.14441120582E+00  0.10283918332E+01  0.12756366747E+01  0.00000000000E+00 0.  1.
</event>
<event>
 7    1  0.4102844E-008  0.4614232E+02  0.7816164E-02  0.1320468E+00
        -11   -1    0    0    0    0  0.00000000000E+00  0.00000000000E+00  0.45593999997E+02  0.45594000000E+02  0.51100000000E-03 0.  1.
         11   -1    0    0    0    0 -0.00000000000E+00 -0.00000000000E+00 -0.45593999997E+02  0.45594000000E+02  0.51100000000E-03 0. -1.
    9900012    2    1    2    0    0 -0.10597687919E+02 -0.30653359064E+02 -0.31259783369E+02  0.46142317994E+02  0.10000002120E+02 0.  0.
        -12    1    1    2    0    0  0.10597687919E+02  0.30653359064E+02  0.31259783369E+02  0.45045682006E+02  0.00000000000E+00 0.  1.
         11    1    3    3    0    0 -0.21272629933E+01 -0.20359106979E+02 -0.18791078122E+02  0.27787103162E+02  0.51100000000E-03 0.  1.
        -11    1    3    3    0    0 -0.29763544402E+01 -0.38201725765E+01 -0.58165550983E+01  0.75686668404E+01  0.51100000000E-03 0. -1.
        -12    1    3    3    0    0 -0.54940704858E+01 -0.64740795086E+01 -0.66521501478E+01  0.10786547992E+02  0.00000000000E+00 0.  1.
</event>
<event>
 7    1  0.4102844E-008  0.4614232E+02  0.7816164E-02  0.1320468E+00
        -11   -1    0    0    0    0  0.00000000000E+00  0.00000000000E+00  0.45593999997E+02  0.45594000000E+02  0.51100000000E-03 0. -1.
         11   -1    0    0    0    0 -0.00000000000E+00 -0.00000000000E+00 -0.45593999997E+02  0.45594000000E+02  0.51100000000E-03 0.  1.
    9900012    2    1    2    0    0  0.79173679635E+01 -0.24207838997E+02  0.37153860350E+02  0.46142317373E+02  0.99999964616E+01 0.  0.
        -12    1    1    2    0    0 -0.79173679635E+01  0.24207838997E+02 -0.37153860350E+02  0.45045682627E+02  0.00000000000E+00 0.  1.
         11    1    3    3    0    0  0.24024076901E+01 -0.84843715617E+01  0.15203704362E+02  0.17575800126E+02  0.51100000000E-03 0. -1.
        -11    1    3    3    0    0  0.85696116009E+00 -0.96375569957E+01  0.76206938257E+01  0.12316325017E+02  0.51100000000E-03 0.  1.
        -12    1    3    3    0    0  0.46579991133E+01 -0.60859104399E+01  0.14329462163E+02  0.16250192230E+02  0.00000000000E+00 0.  1.
</event>
<event>
 7    1  0.4102844E-008  0.4614232E+02  0.7816164E-02  0.1320468E+00
        -11   -1    0    0    0    0  0.00000000000E+00  0.00000000000E+00  0.45593999997E+02  0.45594000000E+02  0.51100000000E-03 0.  1.
         11   -1    0    0    0    0 -0.00000000000E+00 -0.00000000000E+00 -0.45593999997E+02  0.45594000000E+02  0.51100000000E-03 0. -1.
    9900012    2    1    2    0    0 -0.31741225898E+02  0.27912112570E+02 -0.15573118117E+02  0.46142318103E+02  0.10000003121E+02 0.  0.
        -12    1    1    2    0    0  0.31741225898E+02 -0.27912112570E+02  0.15573118117E+02  0.45045681897E+02  0.00000000000E+00 0.  1.
         11    1    3    3    0    0 -0.17920102821E+02  0.14362108008E+02 -0.83927468073E+01  0.24450734770E+02  0.51100000000E-03 0. -1.
        -11    1    3    3    0    0 -0.43387290091E+01  0.57756628059E+01 -0.59673574275E+01  0.93697494733E+01  0.51100000000E-03 0.  1.
         12    1    3    3    0    0 -0.94823940681E+01  0.77743417560E+01 -0.12130138821E+01  0.12321833860E+02  0.00000000000E+00 0. -1.
</event>
<event>
 7    1  0.4102844E-008  0.4614232E+02  0.7816164E-02  0.1320468E+00
        -11   -1    0    0    0    0  0.00000000000E+00  0.00000000000E+00  0.45593999997E+02  0.45594000000E+02  0.51100000000E-03 0.  1.
         11   -1    0    0    0    0 -0.00000000000E+00 -0.00000000000E+00 -0.45593999997E+02  0.45594000000E+02  0.51100000000E-03 0. -1.
    9900012    2    1    2    0    0  0.12316776348E+02 -0.46282767157E+01 -0.43081198245E+02  0.46142316886E+02  0.99999920205E+01 0.  0.
        -12    1    1    2    0    0 -0.12316776348E+02  0.46282767157E+01  0.43081198245E+02  0.45045683114E+02  0.00000000000E+00 0.  1.
         11    1    3    3    0    0 -0.47391782403E+00  0.46813230206E+00 -0.27771744567E+01  0.28559489107E+01  0.51100000000E-03 0. -1.
        -11    1    3    3    0    0 -0.77362145940E+00 -0.14352620234E+01 -0.59772044275E+01  0.61955984592E+01  0.51100000000E-03 0.  1.
         12    1    3    3    0    0  0.13564315632E+02 -0.36611469943E+01 -0.34326819361E+02  0.37090769516E+02  0.00000000000E+00 0. -1.
</event>
<event>
 7    1  0.4102844E-008  0.4614232E+02  0.7816164E-02  0.1320468E+00
        -11   -1    0    0    0    0  0.00000000000E+00  0.00000000000E+00  0.45593999997E+02  0.45594000000E+02  0.51100000000E-03 0. -1.
         11   -1    0    0    0    0 -0.00000000000E+00 -0.00000000000E+00 -0.45593999997E+02  0.45594000000E+02  0.51100000000E-03 0.  1.
    9900012    2    1    2    0    0 -0.19752007765E+02  0.18359659244E+02  0.36081778373E+02  0.46142316202E+02  0.99999857828E+01 0.  0.
        -12    1    1    2    0    0  0.19752007765E+02 -0.18359659244E+02 -0.36081778373E+02  0.45045683798E+02  0.00000000000E+00 0.  1.
         11    1    3    3    0    0 -0.50087463004E+01  0.69062421001E+01  0.18136280157E+02  0.20042663936E+02  0.51100000000E-03 0. -1.
        -11    1    3    3    0    0 -0.39656712780E+01  0.48947218366E+01  0.52368271409E+01  0.81920210759E+01  0.51100000000E-03 0.  1.
         12    1    3    3    0    0 -0.10777590187E+02  0.65586953069E+01  0.12708671075E+02  0.17907631190E+02  0.00000000000E+00 0. -1.
</event>
<event>
 7    1  0.4102844E-008  0.4614232E+02  0.7816164E-02  0.1320468E+00
        -11   -1    0    0    0    0  0.00000000000E+00  0.00000000000E+00  0.45593999997E+02  0.45594000000E+02  0.51100000000E-03 0. -1.
         11   -1    0    0    0    0 -0.00000000000E+00 -0.00000000000E+00 -0.45593999997E+02  0.45594000000E+02  0.51100000000E-03 0.  1.
    9900012    2    1    2    0    0  0.26246186470E+01 -0.23540428164E+02  0.38315442500E+02  0.46142317464E+02  0.99999972928E+01 0.  0.
        -12    1    1    2    0    0 -0.26246186470E+01  0.23540428164E+02 -0.38315442500E+02  0.45045682536E+02  0.00000000000E+00 0.  1.
         11    1    3    3    0    0  0.29406375632E+01 -0.45141108927E+01  0.65519856820E+01  0.84825151381E+01  0.51100000000E-03 0. -1.
        -11    1    3    3    0    0  0.95284573182E+00 -0.54214922455E+01  0.43000246423E+01  0.69850343837E+01  0.51100000000E-03 0.  1.
        -12    1    3    3    0    0 -0.12688646480E+01 -0.13604825025E+02  0.27463432175E+02  0.30674767942E+02  0.00000000000E+00 0.  1.
</event>
<event>
 7    1  0.4102844E-008  0.4614232E+02  0.7816164E-02  0.1320468E+00
        -11   -1    0    0    0    0  0.00000000000E+00  0.00000000000E+00  0.45593999997E+02  0.45594000000E+02  0.51100000000E-03 0.  1.
         11   -1    0    0    0    0 -0.00000000000E+00 -0.00000000000E+00 -0.45593999997E+02  0.45594000000E+02  0.51100000000E-03 0. -1.
    9900012    2    1    2    0    0 -0.20771705931E+02  0.10127080522E+02 -0.38666419168E+02  0.46142317649E+02  0.99999989733E+01 0.  0.
        -12    1    1    2    0    0  0.20771705931E+02 -0.10127080522E+02  0.38666419168E+02  0.45045682351E+02  0.00000000000E+00 0.  1.
         11    1    3    3    0    0 -0.14100774239E+02  0.74533461400E+01 -0.28842450435E+02  0.32958627856E+02  0.51100000000E-03 0. -1.
        -11    1    3    3    0    0 -0.45486130826E+01  0.29036165925E+01 -0.33141918240E+01  0.63328301729E+01  0.51100000000E-03 0.  1.
         12    1    3    3    0    0 -0.21223186100E+01 -0.22988221019E+00 -0.65097769096E+01  0.68508596195E+01  0.00000000000E+00 0. -1.
</event>
<event>
 7    1  0.4102844E-008  0.4614232E+02  0.7816164E-02  0.1320468E+00
        -11   -1    0    0    0    0  0.00000000000E+00  0.00000000000E+00  0.45593999997E+02  0.45594000000E+02  0.51100000000E-03 0. -1.
         11   -1    0    0    0    0 -0.00000000000E+00 -0.00000000000E+00 -0.45593999997E+02  0.45594000000E+02  0.51100000000E-03 0.  1.
    9900012    2    1    2    0    0  0.11149242004E+02 -0.32482592062E+02  0.29149428369E+02  0.46142316982E+02  0.99999928962E+01 0.  0.
        -12    1    1    2    0    0 -0.11149242004E+02  0.32482592062E+02 -0.29149428369E+02  0.45045683018E+02  0.00000000000E+00 0.  1.
         11    1    3    3    0    0  0.49587606731E+01 -0.16850399299E+02  0.16027115431E+02  0.23778008605E+02  0.51100000000E-03 0. -1.
        -11    1    3    3    0    0  0.47848705196E+01 -0.43013574724E+01  0.65900348176E+01  0.92100608658E+01  0.51100000000E-03 0.  1.
         12    1    3    3    0    0  0.14056108111E+01 -0.11330835290E+02  0.65322781208E+01  0.13154247511E+02  0.00000000000E+00 0. -1.
</event>
<event>
 7    1  0.4102844E-008  0.4614232E+02  0.7816164E-02  0.1320468E+00
        -11   -1    0    0    0    0  0.00000000000E+00  0.00000000000E+00  0.45593999997E+02  0.45594000000E+02  0.51100000000E-03 0.  1.
         11   -1    0    0    0    0 -0.00000000000E+00 -0.00000000000E+00 -0.45593999997E+02  0.45594000000E+02  0.51100000000E-03 0. -1.
    9900012    2    1    2    0    0 -0.16407711910E+02  0.39046517558E+02 -0.15338512708E+02  0.46142317459E+02  0.99999972427E+01 0.  0.
        -12    1    1    2    0    0  0.16407711910E+02 -0.39046517558E+02  0.15338512708E+02  0.45045682541E+02  0.00000000000E+00 0.  1.
         11    1    3    3    0    0 -0.11580484455E+02  0.26192565036E+02 -0.13381263986E+02  0.31610382939E+02  0.51100000000E-03 0. -1.
        -11    1    3    3    0    0 -0.35658828369E+01  0.37335611798E+01 -0.11502938533E+01  0.52894400176E+01  0.51100000000E-03 0.  1.
         12    1    3    3    0    0 -0.12613446184E+01  0.91203913415E+01 -0.80695486847E+00  0.92424945024E+01  0.00000000000E+00 0. -1.
</event>
<event>
 7    1  0.4102844E-008  0.4614232E+02  0.7816164E-02  0.1320468E+00
        -11   -1    0    0    0    0  0.00000000000E+00  0.00000000000E+00  0.45593999997E+02  0.45594000000E+02  0.51100000000E-03 0.  1.
         11   -1    0    0    0    0 -0.00000000000E+00 -0.00000000000E+00 -0.45593999997E+02  0.45594000000E+02  0.51100000000E-03 0. -1.
    9900012    2    1    2    0    0  0.10802660904E+02 -0.32045179224E+02 -0.29757728869E+02  0.46142318502E+02  0.10000006758E+02 0.  0.
        -12    1    1    2    0    0 -0.10802660904E+02  0.32045179224E+02  0.29757728869E+02  0.45045681498E+02  0.00000000000E+00 0.  1.
         11    1    3    3    0    0  0.49857529071E+01 -0.20090535044E+02 -0.15832424325E+02  0.26060563898E+02  0.51100000000E-03 0. -1.
        -11    1    3    3    0    0  0.81610992572E+00 -0.20416121516E+01  0.91131389892E-01  0.22005728299E+01  0.51100000000E-03 0.  1.
         12    1    3    3    0    0  0.50007980716E+01 -0.99130320289E+01 -0.14016435934E+02  0.17881181775E+02  0.00000000000E+00 0. -1.
</event>
<event>
 7    1  0.4102844E-008  0.4614232E+02  0.7816164E-02  0.1320468E+00
        -11   -1    0    0    0    0  0.00000000000E+00  0.00000000000E+00  0.45593999997E+02  0.45594000000E+02  0.51100000000E-03 0.  1.
         11   -1    0    0    0    0 -0.00000000000E+00 -0.00000000000E+00 -0.45593999997E+02  0.45594000000E+02  0.51100000000E-03 0. -1.
    9900012    2    1    2    0    0 -0.40282005819E+01  0.37775679592E+02 -0.24205065030E+02  0.46142317169E+02  0.99999946037E+01 0.  0.
        -12    1    1    2    0    0  0.40282005819E+01 -0.37775679592E+02  0.24205065030E+02  0.45045682831E+02  0.00000000000E+00 0.  1.
         11    1    3    3    0    0 -0.18023603129E+01  0.75992421393E+01 -0.51640805430E+01  0.93629435492E+01  0.51100000000E-03 0. -1.
        -11    1    3    3    0    0 -0.41161514882E+01  0.64333372270E+01 -0.42061162208E+01  0.87190564211E+01  0.51100000000E-03 0.  1.
        -12    1    3    3    0    0  0.18903112192E+01  0.23743100226E+02 -0.14834868266E+02  0.28060317199E+02  0.00000000000E+00 0.  1.
</event>
<event>
 7    1  0.4102844E-008  0.4614232E+02  0.7816164E-02  0.1320468E+00
        -11   -1    0    0    0    0  0.00000000000E+00  0.00000000000E+00  0.45593999997E+02  0.45594000000E+02  0.51100000000E-03 0. -1.
         11   -1    0    0    0    0 -0.00000000000E+00 -0.00000000000E+00 -0.45593999997E+02  0.45594000000E+02  0.51100000000E-03 0.  1.
    9900012    2    1    2    0    0  0.49661707943E+00 -0.41114015319E+02  0.18398495803E+02  0.46142317277E+02  0.99999955871E+01 0.  0.
        -12    1    1    2    0    0 -0.49661707943E+00  0.41114015319E+02 -0.18398495803E+02  0.45045682723E+02  0.00000000000E+00 0.  1.
         11    1    3    3    0    0 -0.11044411157E+01 -0.18357265696E+02  0.80967452139E+01  0.20093936333E+02  0.51100000000E-03 0. -1.
        -11    1    3    3    0    0  0.10740683347E+01 -0.15512726913E+02  0.31709614173E+01  0.15869887070E+02  0.51100000000E-03 0.  1.
         12    1    3    3    0    0  0.52698986040E+00 -0.72440227099E+01  0.71307891719E+01  0.10178493874E+02  0.00000000000E+00 0. -1.
</event>
<event>
 7    1  0.4102844E-008  0.4614232E+02  0.7816164E-02  0.1320468E+00
        -11   -1    0    0    0    0  0.00000000000E+00  0.00000000000E+00  0.45593999997E+02  0.45594000000E+02  0.51100000000E-03 0.  1.
         11   -1    0    0    0    0 -0.00000000000E+00 -0.00000000000E+00 -0.45593999997E+02  0.45594000000E+02  0.51100000000E-03 0. -1.
    9900012    2    1    2    0    0 -0.10647154921E+02  0.38536915806E+00 -0.43767602608E+02  0.46142318127E+02  0.10000003339E+02 0.  0.
        -12    1    1    2    0    0  0.10647154921E+02 -0.38536915806E+00  0.43767602608E+02  0.45045681873E+02  0.00000000000E+00 0.  1.
         11    1    3    3    0    0 -0.70199327722E+01 -0.44608453039E+01 -0.25595318389E+02  0.26912802170E+02  0.51100000000E-03 0. -1.
        -11    1    3    3    0    0 -0.30590040951E+00  0.16409359934E+01 -0.51074356300E+01  0.53732806525E+01  0.51100000000E-03 0.  1.
         12    1    3    3    0    0 -0.33213217391E+01  0.32052784686E+01 -0.13064848589E+02  0.13856235304E+02  0.00000000000E+00 0. -1.
</event>
<event>
 7    1  0.4102844E-008  0.4614232E+02  0.7816164E-02  0.1320468E+00
        -11   -1    0    0    0    0  0.00000000000E+00  0.00000000000E+00  0.45593999997E+02  0.45594000000E+02  0.51100000000E-03 0.  1.
         11   -1    0    0    0    0 -0.00000000000E+00 -0.00000000000E+00 -0.45593999997E+02  0.45594000000E+02  0.51100000000E-03 0. -1.
    9900012    2    1    2    0    0  0.11317575281E+02 -0.39110912656E+02 -0.19270766080E+02  0.46142318472E+02  0.10000006478E+02 0.  0.
        -12    1    1    2    0    0 -0.11317575281E+02  0.39110912656E+02  0.19270766080E+02  0.45045681528E+02  0.00000000000E+00 0.  1.
         11    1    3    3    0    0 -0.14878548553E+01 -0.65819180362E+01 -0.18870916073E+01  0.70068874760E+01  0.51100000000E-03 0. -1.
        -11    1    3    3    0    0  0.75861519004E+01 -0.15625408916E+02 -0.88230247579E+01  0.19482014028E+02  0.51100000000E-03 0.  1.
        -12    1    3    3    0    0  0.52192782354E+01 -0.16903585704E+02 -0.85606497151E+01  0.19653416968E+02  0.00000000000E+00 0.  1.
</event>
<event>
 7    1  0.4102844E-008  0.4614232E+02  0.7816164E-02  0.1320468E+00
        -11   -1    0    0    0    0  0.00000000000E+00  0.00000000000E+00  0.45593999997E+02  0.45594000000E+02  0.51100000000E-03 0.  1.
         11   -1    0    0    0    0 -0.00000000000E+00 -0.00000000000E+00 -0.45593999997E+02  0.45594000000E+02  0.51100000000E-03 0. -1.
    9900012    2    1    2    0    0  0.21987503856E+02  0.15021509632E+01 -0.39286215565E+02  0.46142317446E+02  0.99999971242E+01 0.  0.
        -12    1    1    2    0    0 -0.21987503856E+02 -0.15021509632E+01  0.39286215565E+02  0.45045682554E+02  0.00000000000E+00 0.  1.
         11    1    3    3    0    0  0.13690421561E+02  0.29927866175E+01 -0.30527108411E+02  0.33590009860E+02  0.51100000000E-03 0. -1.
        -11    1    3    3    0    0  0.26171104423E+00 -0.61568749277E+00 -0.16777814356E+01  0.18062432190E+01  0.51100000000E-03 0.  1.
         12    1    3    3    0    0  0.80353712508E+01 -0.87494816152E+00 -0.70813257192E+01  0.10746064366E+02  0.00000000000E+00 0. -1.
</event>
<event>
 7    1  0.4102844E-008  0.4614232E+02  0.7816164E-02  0.1320468E+00
        -11   -1    0    0    0    0  0.00000000000E+00  0.00000000000E+00  0.45593999997E+02  0.45594000000E+02  0.51100000000E-03 0.  1.
         11   -1    0    0    0    0 -0.00000000000E+00 -0.00000000000E+00 -0.45593999997E+02  0.45594000000E+02  0.51100000000E-03 0. -1.
    9900012    2    1    2    0    0  0.29196362291E+02 -0.12564944727E+02 -0.31918772225E+02  0.46142318439E+02  0.10000006178E+02 0.  0.
        -12    1    1    2    0    0 -0.29196362291E+02  0.12564944727E+02  0.31918772225E+02  0.45045681561E+02  0.00000000000E+00 0.  1.
         11    1    3    3    0    0  0.72749386626E+01 -0.41195737328E+01 -0.12156756999E+02  0.14754062535E+02  0.51100000000E-03 0. -1.
        -11    1    3    3    0    0  0.21995329856E+02 -0.88235532210E+01 -0.19932409277E+02  0.30966926983E+02  0.51100000000E-03 0.  1.
         12    1    3    3    0    0 -0.73906227573E-01  0.37818222715E+00  0.17039405086E+00  0.42132892136E+00  0.00000000000E+00 0. -1.
</event>
<event>
 7    1  0.4102844E-008  0.4614232E+02  0.7816164E-02  0.1320468E+00
        -11   -1    0    0    0    0  0.00000000000E+00  0.00000000000E+00  0.45593999997E+02  0.45594000000E+02  0.51100000000E-03 0.  1.
         11   -1    0    0    0    0 -0.00000000000E+00 -0.00000000000E+00 -0.45593999997E+02  0.45594000000E+02  0.51100000000E-03 0. -1.
    9900012    2    1    2    0    0 -0.34786395993E+02 -0.18818952003E+02 -0.21560776341E+02  0.46142318996E+02  0.10000011259E+02 0.  0.
        -12    1    1    2    0    0  0.34786395993E+02  0.18818952003E+02  0.21560776341E+02  0.45045681004E+02  0.00000000000E+00 0.  1.
         11    1    3    3    0    0 -0.15767099754E+02 -0.55485978261E+01 -0.48536111358E+01  0.17405341530E+02  0.51100000000E-03 0. -1.
        -11    1    3    3    0    0 -0.13736935058E+02 -0.81205829419E+01 -0.12254614225E+02  0.20120209297E+02  0.51100000000E-03 0.  1.
        -12    1    3    3    0    0 -0.52823611820E+01 -0.51497712348E+01 -0.44525509805E+01  0.86167681681E+01  0.00000000000E+00 0.  1.
</event>
<event>
 7    1  0.4102844E-008  0.4614232E+02  0.7816164E-02  0.1320468E+00
        -11   -1    0    0    0    0  0.00000000000E+00  0.00000000000E+00  0.45593999997E+02  0.45594000000E+02  0.51100000000E-03 0. -1.
         11   -1    0    0    0    0 -0.00000000000E+00 -0.00000000000E+00 -0.45593999997E+02  0.45594000000E+02  0.51100000000E-03 0.  1.
    9900012    2    1    2    0    0  0.31835001363E+02  0.22289332379E+02  0.22777875590E+02  0.46142320229E+02  0.10000022506E+02 0.  0.
        -12    1    1    2    0    0 -0.31835001363E+02 -0.22289332379E+02 -0.22777875590E+02  0.45045679771E+02  0.00000000000E+00 0.  1.
         11    1    3    3    0    0 -0.22823807575E+00 -0.56437250526E+00  0.73132718042E+00  0.95155065544E+00  0.51100000000E-03 0.  1.
        -11    1    3    3    0    0  0.11714727632E+02  0.92609942679E+01  0.73252672802E+01  0.16633111534E+02  0.51100000000E-03 0. -1.
        -12    1    3    3    0    0  0.20348511807E+02  0.13592710616E+02  0.14721281129E+02  0.28557658040E+02  0.00000000000E+00 0.  1.
</event>
<event>
 7    1  0.4102844E-008  0.4614231E+02  0.7816164E-02  0.1320468E+00
        -11   -1    0    0    0    0  0.00000000000E+00  0.00000000000E+00  0.45593999997E+02  0.45594000000E+02  0.51100000000E-03 0.  1.
         11   -1    0    0    0    0 -0.00000000000E+00 -0.00000000000E+00 -0.45593999997E+02  0.45594000000E+02  0.51100000000E-03 0. -1.
    9900012    2    1    2    0    0 -0.43381500039E+02  0.53323495602E+01  0.10896121279E+02  0.46142312566E+02  0.99999526272E+01 0.  0.
        -12    1    1    2    0    0  0.43381500039E+02 -0.53323495602E+01 -0.10896121279E+02  0.45045687434E+02  0.00000000000E+00 0.  1.
         11    1    3    3    0    0 -0.29051430976E+02  0.17689972990E+01  0.59278217900E+01  0.29702761902E+02  0.51100000000E-03 0. -1.
        -11    1    3    3    0    0 -0.91986332266E+01  0.46922812112E+01  0.24494687430E+01  0.10612834380E+02  0.51100000000E-03 0.  1.
        -12    1    3    3    0    0 -0.51314358368E+01 -0.11289289500E+01  0.25188307462E+01  0.58267162836E+01  0.00000000000E+00 0.  1.
</event>
<event>
 7    1  0.4102844E-008  0.4614232E+02  0.7816164E-02  0.1320468E+00
        -11   -1    0    0    0    0  0.00000000000E+00  0.00000000000E+00  0.45593999997E+02  0.45594000000E+02  0.51100000000E-03 0.  1.
         11   -1    0    0    0    0 -0.00000000000E+00 -0.00000000000E+00 -0.45593999997E+02  0.45594000000E+02  0.51100000000E-03 0. -1.
    9900012    2    1    2    0    0 -0.28947516994E+02 -0.12600635317E+01 -0.34490100281E+02  0.46142317436E+02  0.99999970371E+01 0.  0.
        -12    1    1    2    0    0  0.28947516994E+02  0.12600635317E+01  0.34490100281E+02  0.45045682564E+02  0.00000000000E+00 0.  1.
         11    1    3    3    0    0 -0.72676127690E+01 -0.25028032067E+01 -0.11693976482E+02  0.13993973898E+02  0.51100000000E-03 0. -1.
        -11    1    3    3    0    0 -0.87120180642E+01  0.14958037493E+01 -0.13708003785E+02  0.16310918296E+02  0.51100000000E-03 0.  1.
         12    1    3    3    0    0 -0.12967886161E+02 -0.25306407431E+00 -0.90881200140E+01  0.15837425242E+02  0.00000000000E+00 0. -1.
</event>
<event>
 7    1  0.4102844E-008  0.4614232E+02  0.7816164E-02  0.1320468E+00
        -11   -1    0    0    0    0  0.00000000000E+00  0.00000000000E+00  0.45593999997E+02  0.45594000000E+02  0.51100000000E-03 0.  1.
         11   -1    0    0    0    0 -0.00000000000E+00 -0.00000000000E+00 -0.45593999997E+02  0.45594000000E+02  0.51100000000E-03 0. -1.
    9900012    2    1    2    0    0  0.10760527265E+02 -0.21604126405E+02 -0.38034015523E+02  0.46142316948E+02  0.99999925890E+01 0.  0.
        -12    1    1    2    0    0 -0.10760527265E+02  0.21604126405E+02  0.38034015523E+02  0.45045683052E+02  0.00000000000E+00 0.  1.
         11    1    3    3    0    0  0.32592351334E+00 -0.27935579239E+01 -0.94944342840E+01  0.99022459394E+01  0.51100000000E-03 0. -1.
        -11    1    3    3    0    0 -0.91646029064E-01 -0.15245073082E+01 -0.40104011596E+00  0.15790360867E+01  0.51100000000E-03 0.  1.
        -12    1    3    3    0    0  0.10526249781E+02 -0.17286061173E+02 -0.28138541124E+02  0.34661034922E+02  0.00000000000E+00 0.  1.
</event>
<event>
 7    1  0.4102844E-008  0.4614232E+02  0.7816164E-02  0.1320468E+00
        -11   -1    0    0    0    0  0.00000000000E+00  0.00000000000E+00  0.45593999997E+02  0.45594000000E+02  0.51100000000E-03 0. -1.
         11   -1    0    0    0    0 -0.00000000000E+00 -0.00000000000E+00 -0.45593999997E+02  0.45594000000E+02  0.51100000000E-03 0.  1.
    9900012    2    1    2    0    0 -0.10851100676E+02 -0.32540651165E+02  0.29197143568E+02  0.46142317003E+02  0.99999930869E+01 0.  0.
        -12    1    1    2    0    0  0.10851100676E+02  0.32540651165E+02 -0.29197143568E+02  0.45045682997E+02  0.00000000000E+00 0.  1.
         11    1    3    3    0    0 -0.93720288360E+00 -0.10603150911E+01  0.28308442833E+01  0.31648533860E+01  0.51100000000E-03 0. -1.
        -11    1    3    3    0    0 -0.29678586293E+01 -0.18724671368E+02  0.11399157701E+02  0.22121534740E+02  0.51100000000E-03 0.  1.
         12    1    3    3    0    0 -0.69460391631E+01 -0.12755664706E+02  0.14967141584E+02  0.20855928877E+02  0.00000000000E+00 0. -1.
</event>
<event>
 7    1  0.4102844E-008  0.4614232E+02  0.7816164E-02  0.1320468E+00
        -11   -1    0    0    0    0  0.00000000000E+00  0.00000000000E+00  0.45593999997E+02  0.45594000000E+02  0.51100000000E-03 0. -1.
         11   -1    0    0    0    0 -0.00000000000E+00 -0.00000000000E+00 -0.45593999997E+02  0.45594000000E+02  0.51100000000E-03 0.  1.
    9900012    2    1    2    0    0 -0.14892874202E+02  0.12146307110E+01  0.42495181254E+02  0.46142318081E+02  0.10000002914E+02 0.  0.
        -12    1    1    2    0    0  0.14892874202E+02 -0.12146307110E+01 -0.42495181254E+02  0.45045681919E+02  0.00000000000E+00 0.  1.
         11    1    3    3    0    0 -0.91858667794E+01  0.15140627859E+01  0.29981631536E+02  0.31393801369E+02  0.51100000000E-03 0. -1.
        -11    1    3    3    0    0 -0.45126710678E+01  0.20348127099E+01  0.63584623466E+01  0.80582074065E+01  0.51100000000E-03 0.  1.
         12    1    3    3    0    0 -0.11943363552E+01 -0.23342447848E+01  0.61550873715E+01  0.66903093050E+01  0.00000000000E+00 0. -1.
</event>
<event>
 7    1  0.4102844E-008  0.4614232E+02  0.7816164E-02  0.1320468E+00
        -11   -1    0    0    0    0  0.00000000000E+00  0.00000000000E+00  0.45593999997E+02  0.45594000000E+02  0.51100000000E-03 0.  1.
         11   -1    0    0    0    0 -0.00000000000E+00 -0.00000000000E+00 -0.45593999997E+02  0.45594000000E+02  0.51100000000E-03 0. -1.
    9900012    2    1    2    0    0 -0.11899876553E+02 -0.12135510156E+02 -0.41716134028E+02  0.46142317555E+02  0.99999981179E+01 0.  0.
        -12    1    1    2    0    0  0.11899876553E+02  0.12135510156E+02  0.41716134028E+02  0.45045682445E+02  0.00000000000E+00 0.  1.
         11    1    3    3    0    0 -0.34251156476E+01 -0.80960969448E+01 -0.18983072322E+02  0.20919733220E+02  0.51100000000E-03 0. -1.
        -11    1    3    3    0    0 -0.61141392279E+01 -0.18036324232E+01 -0.19946992860E+02  0.20940828848E+02  0.51100000000E-03 0.  1.
         12    1    3    3    0    0 -0.23606216776E+01 -0.22357807881E+01 -0.27860688456E+01  0.42817554869E+01  0.00000000000E+00 0. -1.
</event>
<event>
 7    1  0.4102844E-008  0.4614232E+02  0.7816164E-02  0.1320468E+00
        -11   -1    0    0    0    0  0.00000000000E+00  0.00000000000E+00  0.45593999997E+02  0.45594000000E+02  0.51100000000E-03 0. -1.
         11   -1    0    0    0    0 -0.00000000000E+00 -0.00000000000E+00 -0.45593999997E+02  0.45594000000E+02  0.51100000000E-03 0.  1.
    9900012    2    1    2    0    0 -0.57442938851E+01 -0.16095906352E+02  0.41677795285E+02  0.46142315042E+02  0.99999752065E+01 0.  0.
        -12    1    1    2    0    0  0.57442938851E+01  0.16095906352E+02 -0.41677795285E+02  0.45045684958E+02  0.00000000000E+00 0.  1.
         11    1    3    3    0    0  0.21719930354E+00 -0.10938939181E+02  0.26745784886E+02  0.28897137840E+02  0.51100000000E-03 0. -1.
        -11    1    3    3    0    0 -0.15962162334E+01 -0.11248614018E+01  0.73882669684E+01  0.76419701971E+01  0.51100000000E-03 0.  1.
        -12    1    3    3    0    0 -0.43652769552E+01 -0.40321057695E+01  0.75437434303E+01  0.96032070047E+01  0.00000000000E+00 0.  1.
</event>
<event>
 7    1  0.4102844E-008  0.4614232E+02  0.7816164E-02  0.1320468E+00
        -11   -1    0    0    0    0  0.00000000000E+00  0.00000000000E+00  0.45593999997E+02  0.45594000000E+02  0.51100000000E-03 0.  1.
         11   -1    0    0    0    0 -0.00000000000E+00 -0.00000000000E+00 -0.45593999997E+02  0.45594000000E+02  0.51100000000E-03 0. -1.
    9900012    2    1    2    0    0  0.38474731174E+02  0.10300133644E+02  0.21040813590E+02  0.46142317315E+02  0.99999959343E+01 0.  0.
        -12    1    1    2    0    0 -0.38474731174E+02 -0.10300133644E+02 -0.21040813590E+02  0.45045682685E+02  0.00000000000E+00 0.  1.
         11    1    3    3    0    0  0.65511756459E+01 -0.47013153317E+00  0.87511811139E+00  0.66260665535E+01  0.51100000000E-03 0. -1.
        -11    1    3    3    0    0  0.20513227713E+02  0.46443979927E+01  0.12395373634E+02  0.24413279823E+02  0.51100000000E-03 0.  1.
         12    1    3    3    0    0  0.11410327815E+02  0.61258671844E+01  0.77703218443E+01  0.15102970939E+02  0.00000000000E+00 0. -1.
</event>
<event>
 7    1  0.4102844E-008  0.4614231E+02  0.7816164E-02  0.1320468E+00
        -11   -1    0    0    0    0  0.00000000000E+00  0.00000000000E+00  0.45593999997E+02  0.45594000000E+02  0.51100000000E-03 0. -1.
         11   -1    0    0    0    0 -0.00000000000E+00 -0.00000000000E+00 -0.45593999997E+02  0.45594000000E+02  0.51100000000E-03 0.  1.
    9900012    2    1    2    0    0  0.37715159034E+02 -0.13949581019E+02  0.20300002833E+02  0.46142310455E+02  0.99999333761E+01 0.  0.
        -12    1    1    2    0    0 -0.37715159034E+02  0.13949581019E+02 -0.20300002833E+02  0.45045689545E+02  0.00000000000E+00 0.  1.
         11    1    3    3    0    0  0.13004377125E+02 -0.76363113641E+01  0.77506338912E+01  0.16955807313E+02  0.51100000000E-03 0. -1.
        -11    1    3    3    0    0  0.22834869025E+02 -0.65138388137E+01  0.13227902036E+02  0.27181588107E+02  0.51100000000E-03 0.  1.
        -12    1    3    3    0    0  0.18759128841E+01  0.20056915876E+00 -0.67853309473E+00  0.20049150348E+01  0.00000000000E+00 0.  1.
</event>
<event>
 7    1  0.4102844E-008  0.4614232E+02  0.7816164E-02  0.1320468E+00
        -11   -1    0    0    0    0  0.00000000000E+00  0.00000000000E+00  0.45593999997E+02  0.45594000000E+02  0.51100000000E-03 0.  1.
         11   -1    0    0    0    0 -0.00000000000E+00 -0.00000000000E+00 -0.45593999997E+02  0.45594000000E+02  0.51100000000E-03 0. -1.
    9900012    2    1    2    0    0  0.24850781487E+02  0.47897679439E+01 -0.37264058497E+02  0.46142320150E+02  0.10000021781E+02 0.  0.
        -12    1    1    2    0    0 -0.24850781487E+02 -0.47897679439E+01  0.37264058497E+02  0.45045679850E+02  0.00000000000E+00 0.  1.
         11    1    3    3    0    0  0.10195304179E+02  0.61773685564E+00 -0.15774210712E+02  0.18792326891E+02  0.51100000000E-03 0. -1.
        -11    1    3    3    0    0  0.53267076322E+01 -0.86497827819E+00 -0.33874277465E+01  0.63715515080E+01  0.51100000000E-03 0.  1.
        -12    1    3    3    0    0  0.93287696763E+01  0.50370093665E+01 -0.18102420039E+02  0.20978441751E+02  0.00000000000E+00 0.  1.
</event>
<event>
 7    1  0.4102844E-008  0.4614232E+02  0.7816164E-02  0.1320468E+00
        -11   -1    0    0    0    0  0.00000000000E+00  0.00000000000E+00  0.45593999997E+02  0.45594000000E+02  0.51100000000E-03 0.  1.
         11   -1    0    0    0    0 -0.00000000000E+00 -0.00000000000E+00 -0.45593999997E+02  0.45594000000E+02  0.51100000000E-03 0. -1.
    9900012    2    1    2    0    0 -0.28690418081E+02 -0.26941246840E+02 -0.21912155759E+02  0.46142318288E+02  0.10000004804E+02 0.  0.
        -12    1    1    2    0    0  0.28690418081E+02  0.26941246840E+02  0.21912155759E+02  0.45045681712E+02  0.00000000000E+00 0.  1.
         11    1    3    3    0    0 -0.10404684289E+02 -0.76052947953E+01 -0.95385047347E+01  0.16033746814E+02  0.51100000000E-03 0. -1.
        -11    1    3    3    0    0  0.11122764257E+00 -0.11166935138E+01 -0.18415915489E+01  0.21565796267E+01  0.51100000000E-03 0.  1.
         12    1    3    3    0    0 -0.18396961434E+02 -0.18219258530E+02 -0.10532059475E+02  0.27951991847E+02  0.00000000000E+00 0. -1.
</event>
<event>
 7    1  0.4102844E-008  0.4614232E+02  0.7816164E-02  0.1320468E+00
        -11   -1    0    0    0    0  0.00000000000E+00  0.00000000000E+00  0.45593999997E+02  0.45594000000E+02  0.51100000000E-03 0. -1.
         11   -1    0    0    0    0 -0.00000000000E+00 -0.00000000000E+00 -0.45593999997E+02  0.45594000000E+02  0.51100000000E-03 0.  1.
    9900012    2    1    2    0    0 -0.38528730699E+02 -0.76716815165E+01  0.22040774016E+02  0.46142317568E+02  0.99999982412E+01 0.  0.
        -12    1    1    2    0    0  0.38528730699E+02  0.76716815165E+01 -0.22040774016E+02  0.45045682432E+02  0.00000000000E+00 0.  1.
         11    1    3    3    0    0 -0.15364202724E+02 -0.40430913432E+00  0.12514352235E+02  0.19819969812E+02  0.51100000000E-03 0. -1.
        -11    1    3    3    0    0 -0.13765426259E+01 -0.12178168490E+01  0.13371494810E+01  0.22728652565E+01  0.51100000000E-03 0.  1.
         12    1    3    3    0    0 -0.21787985349E+02 -0.60495555332E+01  0.81892722992E+01  0.24049482500E+02  0.00000000000E+00 0. -1.
</event>
<event>
 7    1  0.4102844E-008  0.4614232E+02  0.7816164E-02  0.1320468E+00
        -11   -1    0    0    0    0  0.00000000000E+00  0.00000000000E+00  0.45593999997E+02  0.45594000000E+02  0.51100000000E-03 0.  1.
         11   -1    0    0    0    0 -0.00000000000E+00 -0.00000000000E+00 -0.45593999997E+02  0.45594000000E+02  0.51100000000E-03 0. -1.
    9900012    2    1    2    0    0  0.22702415110E+02 -0.27408721891E+02 -0.27612966243E+02  0.46142316608E+02  0.99999894885E+01 0.  0.
        -12    1    1    2    0    0 -0.22702415110E+02  0.27408721891E+02  0.27612966243E+02  0.45045683392E+02  0.00000000000E+00 0.  1.
         11    1    3    3    0    0  0.11195396832E+02 -0.18129212230E+02 -0.17111351181E+02  0.27327707292E+02  0.51100000000E-03 0. -1.
        -11    1    3    3    0    0  0.40383630889E-01 -0.16879773838E+01 -0.35703843794E+00  0.17257969733E+01  0.51100000000E-03 0.  1.
         12    1    3    3    0    0  0.11466634647E+02 -0.75915322767E+01 -0.10144576623E+02  0.17088812343E+02  0.00000000000E+00 0. -1.
</event>
<event>
 7    1  0.4102844E-008  0.4614232E+02  0.7816164E-02  0.1320468E+00
        -11   -1    0    0    0    0  0.00000000000E+00  0.00000000000E+00  0.45593999997E+02  0.45594000000E+02  0.51100000000E-03 0. -1.
         11   -1    0    0    0    0 -0.00000000000E+00 -0.00000000000E+00 -0.45593999997E+02  0.45594000000E+02  0.51100000000E-03 0.  1.
    9900012    2    1    2    0    0 -0.21317069126E+02 -0.42142290044E+01  0.39458032458E+02  0.46142317769E+02  0.10000000071E+02 0.  0.
        -12    1    1    2    0    0  0.21317069126E+02  0.42142290044E+01 -0.39458032458E+02  0.45045682231E+02  0.00000000000E+00 0.  1.
         11    1    3    3    0    0 -0.79956513718E+01 -0.25765743467E+01  0.19345118124E+02  0.21090347833E+02  0.51100000000E-03 0. -1.
        -11    1    3    3    0    0 -0.13762004385E+02 -0.86984465200E+00  0.17419731967E+02  0.22217030775E+02  0.51100000000E-03 0.  1.
        -12    1    3    3    0    0  0.44058663064E+00 -0.76781000570E+00  0.26931823664E+01  0.28349391604E+01  0.00000000000E+00 0.  1.
</event>
<event>
 7    1  0.4102844E-008  0.4614232E+02  0.7816164E-02  0.1320468E+00
        -11   -1    0    0    0    0  0.00000000000E+00  0.00000000000E+00  0.45593999997E+02  0.45594000000E+02  0.51100000000E-03 0.  1.
         11   -1    0    0    0    0 -0.00000000000E+00 -0.00000000000E+00 -0.45593999997E+02  0.45594000000E+02  0.51100000000E-03 0. -1.
    9900012    2    1    2    0    0  0.18665381263E+02 -0.37416823666E+02 -0.16754051990E+02  0.46142318642E+02  0.10000008030E+02 0.  0.
        -12    1    1    2    0    0 -0.18665381263E+02  0.37416823666E+02  0.16754051990E+02  0.45045681358E+02  0.00000000000E+00 0.  1.
         11    1    3    3    0    0  0.50669776228E+00 -0.64460185454E+01 -0.31030428810E+01  0.71719434669E+01  0.51100000000E-03 0. -1.
        -11    1    3    3    0    0 -0.24160628164E-01 -0.18436587687E+01 -0.19772340654E+01  0.27035377197E+01  0.51100000000E-03 0.  1.
        -12    1    3    3    0    0  0.18182844129E+02 -0.29127146352E+02 -0.11673775044E+02  0.36266837455E+02  0.00000000000E+00 0.  1.
</event>
<event>
 7    1  0.4102844E-008  0.4614232E+02  0.7816164E-02  0.1320468E+00
        -11   -1    0    0    0    0  0.00000000000E+00  0.00000000000E+00  0.45593999997E+02  0.45594000000E+02  0.51100000000E-03 0.  1.
         11   -1    0    0    0    0 -0.00000000000E+00 -0.00000000000E+00 -0.45593999997E+02  0.45594000000E+02  0.51100000000E-03 0. -1.
    9900012    2    1    2    0    0  0.37501550688E+02 -0.21510513689E+01 -0.24862024219E+02  0.46142316807E+02  0.99999913031E+01 0.  0.
        -12    1    1    2    0    0 -0.37501550688E+02  0.21510513689E+01  0.24862024219E+02  0.45045683193E+02  0.00000000000E+00 0.  1.
         11    1    3    3    0    0  0.22901680642E+02 -0.16839212814E+01 -0.16645736354E+02  0.28362001095E+02  0.51100000000E-03 0. -1.
        -11    1    3    3    0    0  0.50315263082E+01  0.90247673207E+00 -0.59650729694E+01  0.78557505710E+01  0.51100000000E-03 0.  1.
        -12    1    3    3    0    0  0.95683437381E+01 -0.13696068196E+01 -0.22512148958E+01  0.99245651410E+01  0.00000000000E+00 0.  1.
</event>
<event>
 7    1  0.4102844E-008  0.4614232E+02  0.7816164E-02  0.1320468E+00
        -11   -1    0    0    0    0  0.00000000000E+00  0.00000000000E+00  0.45593999997E+02  0.45594000000E+02  0.51100000000E-03 0.  1.
         11   -1    0    0    0    0 -0.00000000000E+00 -0.00000000000E+00 -0.45593999997E+02  0.45594000000E+02  0.51100000000E-03 0. -1.
    9900012    2    1    2    0    0 -0.25324630114E+02 -0.34138318542E+02 -0.14911467859E+02  0.46142316999E+02  0.99999930500E+01 0.  0.
        -12    1    1    2    0    0  0.25324630114E+02  0.34138318542E+02  0.14911467859E+02  0.45045683001E+02  0.00000000000E+00 0.  1.
         11    1    3    3    0    0 -0.54290368993E+01 -0.98524791991E+01 -0.95234200318E+00  0.11289497047E+02  0.51100000000E-03 0. -1.
        -11    1    3    3    0    0 -0.19394545877E+02 -0.24510116775E+02 -0.14096247635E+02  0.34287000915E+02  0.51100000000E-03 0.  1.
        -12    1    3    3    0    0 -0.50104733753E+00  0.22427743138E+00  0.13712177853E+00  0.56581903717E+00  0.00000000000E+00 0.  1.
</event>
<event>
 7    1  0.4102844E-008  0.4614232E+02  0.7816164E-02  0.1320468E+00
        -11   -1    0    0    0    0  0.00000000000E+00  0.00000000000E+00  0.45593999997E+02  0.45594000000E+02  0.51100000000E-03 0.  1.
         11   -1    0    0    0    0 -0.00000000000E+00 -0.00000000000E+00 -0.45593999997E+02  0.45594000000E+02  0.51100000000E-03 0. -1.
    9900012    2    1    2    0    0  0.22612167698E+02 -0.13663466166E+02 -0.36484421410E+02  0.46142318283E+02  0.10000004762E+02 0.  0.
        -12    1    1    2    0    0 -0.22612167698E+02  0.13663466166E+02  0.36484421410E+02  0.45045681717E+02  0.00000000000E+00 0.  1.
         11    1    3    3    0    0  0.17684704383E+02 -0.10029331640E+02 -0.30782580091E+02  0.36890425581E+02  0.51100000000E-03 0. -1.
        -11    1    3    3    0    0  0.19982343433E+01 -0.26626486812E+01 -0.74270807226E+00  0.34109022314E+01  0.51100000000E-03 0.  1.
         12    1    3    3    0    0  0.29292289717E+01 -0.97148584479E+00 -0.49591332474E+01  0.58409904708E+01  0.00000000000E+00 0. -1.
</event>
<event>
 7    1  0.4102844E-008  0.4614232E+02  0.7816164E-02  0.1320468E+00
        -11   -1    0    0    0    0  0.00000000000E+00  0.00000000000E+00  0.45593999997E+02  0.45594000000E+02  0.51100000000E-03 0.  1.
         11   -1    0    0    0    0 -0.00000000000E+00 -0.00000000000E+00 -0.45593999997E+02  0.45594000000E+02  0.51100000000E-03 0. -1.
    9900012    2    1    2    0    0  0.19408522059E+01  0.21254528022E+02 -0.39668520923E+02  0.46142318510E+02  0.10000006825E+02 0.  0.
        -12    1    1    2    0    0 -0.19408522059E+01 -0.21254528022E+02  0.39668520923E+02  0.45045681490E+02  0.00000000000E+00 0.  1.
         11    1    3    3    0    0 -0.66233212918E+00  0.44511916438E+01 -0.14780553711E+02  0.15450454982E+02  0.51100000000E-03 0. -1.
        -11    1    3    3    0    0  0.26544000843E+01  0.28238858606E+01 -0.68567828416E+01  0.78762708409E+01  0.51100000000E-03 0.  1.
         12    1    3    3    0    0 -0.51215749272E-01  0.13979450518E+02 -0.18031184370E+02  0.22815592686E+02  0.00000000000E+00 0. -1.
</event>
<event>
 7    1  0.4102844E-008  0.4614232E+02  0.7816164E-02  0.1320468E+00
        -11   -1    0    0    0    0  0.00000000000E+00  0.00000000000E+00  0.45593999997E+02  0.45594000000E+02  0.51100000000E-03 0.  1.
         11   -1    0    0    0    0 -0.00000000000E+00 -0.00000000000E+00 -0.45593999997E+02  0.45594000000E+02  0.51100000000E-03 0. -1.
    9900012    2    1    2    0    0  0.21062375195E+02  0.21031833327E+02 -0.33810530352E+02  0.46142316249E+02  0.99999862081E+01 0.  0.
        -12    1    1    2    0    0 -0.21062375195E+02 -0.21031833327E+02  0.33810530352E+02  0.45045683751E+02  0.00000000000E+00 0.  1.
         11    1    3    3    0    0  0.91510222343E+01  0.13214580079E+02 -0.17917206405E+02  0.24070575818E+02  0.51100000000E-03 0. -1.
        -11    1    3    3    0    0  0.60544215331E+01  0.68199964404E+01 -0.76082246431E+01  0.11876592694E+02  0.51100000000E-03 0.  1.
         12    1    3    3    0    0  0.58569314272E+01  0.99725680759E+00 -0.82850993040E+01  0.10195147736E+02  0.00000000000E+00 0. -1.
</event>
<event>
 7    1  0.4102844E-008  0.4614232E+02  0.7816164E-02  0.1320468E+00
        -11   -1    0    0    0    0  0.00000000000E+00  0.00000000000E+00  0.45593999997E+02  0.45594000000E+02  0.51100000000E-03 0.  1.
         11   -1    0    0    0    0 -0.00000000000E+00 -0.00000000000E+00 -0.45593999997E+02  0.45594000000E+02  0.51100000000E-03 0. -1.
    9900012    2    1    2    0    0  0.35489395130E+02 -0.27119199260E+02 -0.58451089142E+01  0.46142318372E+02  0.10000005567E+02 0.  0.
        -12    1    1    2    0    0 -0.35489395130E+02  0.27119199260E+02  0.58451089142E+01  0.45045681628E+02  0.00000000000E+00 0.  1.
         11    1    3    3    0    0  0.23129303325E+02 -0.17052268929E+02 -0.19909786834E+01  0.28804661850E+02  0.51100000000E-03 0. -1.
        -11    1    3    3    0    0  0.59073563411E+01 -0.15872961838E+01 -0.24526213278E+01  0.65902746342E+01  0.51100000000E-03 0.  1.
        -12    1    3    3    0    0  0.64527354637E+01 -0.84796341468E+01 -0.14015089030E+01  0.10747381887E+02  0.00000000000E+00 0.  1.
</event>
<event>
 7    1  0.4102844E-008  0.4614232E+02  0.7816164E-02  0.1320468E+00
        -11   -1    0    0    0    0  0.00000000000E+00  0.00000000000E+00  0.45593999997E+02  0.45594000000E+02  0.51100000000E-03 0.  1.
         11   -1    0    0    0    0 -0.00000000000E+00 -0.00000000000E+00 -0.45593999997E+02  0.45594000000E+02  0.51100000000E-03 0. -1.
    9900012    2    1    2    0    0 -0.16790917570E+02 -0.31076758386E+02 -0.27953777420E+02  0.46142317668E+02  0.99999991536E+01 0.  0.
        -12    1    1    2    0    0  0.16790917570E+02  0.31076758386E+02  0.27953777420E+02  0.45045682332E+02  0.00000000000E+00 0.  1.
         11    1    3    3    0    0 -0.86152803644E+01 -0.13678782706E+02 -0.87059534733E+01  0.18360985219E+02  0.51100000000E-03 0.  1.
        -11    1    3    3    0    0 -0.87135446974E+00 -0.78610174605E+01 -0.90937469850E+01  0.12052015956E+02  0.51100000000E-03 0. -1.
         12    1    3    3    0    0 -0.73042827362E+01 -0.95369582202E+01 -0.10154076962E+02  0.15729316493E+02  0.00000000000E+00 0. -1.
</event>
<event>
 7    1  0.4102844E-008  0.4614232E+02  0.7816164E-02  0.1320468E+00
        -11   -1    0    0    0    0  0.00000000000E+00  0.00000000000E+00  0.45593999997E+02  0.45594000000E+02  0.51100000000E-03 0.  1.
         11   -1    0    0    0    0 -0.00000000000E+00 -0.00000000000E+00 -0.45593999997E+02  0.45594000000E+02  0.51100000000E-03 0. -1.
    9900012    2    1    2    0    0 -0.21231215964E+02  0.28496605308E+02 -0.27681987956E+02  0.46142317603E+02  0.99999985595E+01 0.  0.
        -12    1    1    2    0    0  0.21231215964E+02 -0.28496605308E+02  0.27681987956E+02  0.45045682397E+02  0.00000000000E+00 0.  1.
         11    1    3    3    0    0 -0.14749092758E+02  0.21127754351E+02 -0.15333965453E+02  0.29984133102E+02  0.51100000000E-03 0. -1.
        -11    1    3    3    0    0 -0.91543395754E+00  0.45364570166E+00 -0.34138134100E+01  0.35634163401E+01  0.51100000000E-03 0.  1.
        -12    1    3    3    0    0 -0.55666892476E+01  0.69152052556E+01 -0.89342090928E+01  0.12594768161E+02  0.00000000000E+00 0.  1.
</event>
<event>
 7    1  0.4102844E-008  0.4614232E+02  0.7816164E-02  0.1320468E+00
        -11   -1    0    0    0    0  0.00000000000E+00  0.00000000000E+00  0.45593999997E+02  0.45594000000E+02  0.51100000000E-03 0.  1.
         11   -1    0    0    0    0 -0.00000000000E+00 -0.00000000000E+00 -0.45593999997E+02  0.45594000000E+02  0.51100000000E-03 0. -1.
    9900012    2    1    2    0    0 -0.14730788962E+02  0.29190897058E+01 -0.42468769783E+02  0.46142316133E+02  0.99999851525E+01 0.  0.
        -12    1    1    2    0    0  0.14730788962E+02 -0.29190897058E+01  0.42468769783E+02  0.45045683867E+02  0.00000000000E+00 0.  1.
         11    1    3    3    0    0 -0.11859399064E+02  0.11568202080E+01 -0.25106194179E+02  0.27790368216E+02  0.51100000000E-03 0. -1.
        -11    1    3    3    0    0 -0.13205591112E+01 -0.15548758879E+01 -0.89055598168E+01  0.91362197492E+01  0.51100000000E-03 0.  1.
        -12    1    3    3    0    0 -0.15508307875E+01  0.33171453857E+01 -0.84570157872E+01  0.92157281680E+01  0.00000000000E+00 0.  1.
</event>
<event>
 7    1  0.4102844E-008  0.4614232E+02  0.7816164E-02  0.1320468E+00
        -11   -1    0    0    0    0  0.00000000000E+00  0.00000000000E+00  0.45593999997E+02  0.45594000000E+02  0.51100000000E-03 0. -1.
         11   -1    0    0    0    0 -0.00000000000E+00 -0.00000000000E+00 -0.45593999997E+02  0.45594000000E+02  0.51100000000E-03 0.  1.
    9900012    2    1    2    0    0  0.30424685405E+02  0.33009872339E+02 -0.37148741615E+01  0.46142318255E+02  0.10000004500E+02 0.  0.
        -12    1    1    2    0    0 -0.30424685405E+02 -0.33009872339E+02  0.37148741615E+01  0.45045681745E+02  0.00000000000E+00 0.  1.
         11    1    3    3    0    0  0.56556344705E+01  0.86948642109E+01 -0.74316733396E+00  0.10398998166E+02  0.51100000000E-03 0. -1.
        -11    1    3    3    0    0  0.10428082207E+02  0.12301742650E+02 -0.51017202487E+01  0.16914648104E+02  0.51100000000E-03 0.  1.
        -12    1    3    3    0    0  0.14340968728E+02  0.12013265479E+02  0.21300134212E+01  0.18828671985E+02  0.00000000000E+00 0.  1.
</event>
<event>
 7    1  0.4102844E-008  0.4614232E+02  0.7816164E-02  0.1320468E+00
        -11   -1    0    0    0    0  0.00000000000E+00  0.00000000000E+00  0.45593999997E+02  0.45594000000E+02  0.51100000000E-03 0. -1.
         11   -1    0    0    0    0 -0.00000000000E+00 -0.00000000000E+00 -0.45593999997E+02  0.45594000000E+02  0.51100000000E-03 0.  1.
    9900012    2    1    2    0    0  0.13555815638E+02  0.18119396723E+02  0.38949209115E+02  0.46142316900E+02  0.99999921465E+01 0.  0.
        -12    1    1    2    0    0 -0.13555815638E+02 -0.18119396723E+02 -0.38949209115E+02  0.45045683100E+02  0.00000000000E+00 0.  1.
         11    1    3    3    0    0  0.52264884957E+01  0.21558952332E+01  0.55346440703E+01  0.79117856075E+01  0.51100000000E-03 0.  1.
        -11    1    3    3    0    0  0.87760256839E+01  0.13869741232E+02  0.28943365743E+02  0.33273213994E+02  0.51100000000E-03 0. -1.
        -12    1    3    3    0    0 -0.44669854116E+00  0.20937602581E+01  0.44711993017E+01  0.49573172988E+01  0.00000000000E+00 0.  1.
</event>
<event>
 7    1  0.4102844E-008  0.4614232E+02  0.7816164E-02  0.1320468E+00
        -11   -1    0    0    0    0  0.00000000000E+00  0.00000000000E+00  0.45593999997E+02  0.45594000000E+02  0.51100000000E-03 0. -1.
         11   -1    0    0    0    0 -0.00000000000E+00 -0.00000000000E+00 -0.45593999997E+02  0.45594000000E+02  0.51100000000E-03 0.  1.
    9900012    2    1    2    0    0  0.33632270460E+02 -0.99892956632E+01  0.28252397392E+02  0.46142316494E+02  0.99999884410E+01 0.  0.
        -12    1    1    2    0    0 -0.33632270460E+02  0.99892956632E+01 -0.28252397392E+02  0.45045683506E+02  0.00000000000E+00 0.  1.
         11    1    3    3    0    0  0.17791568379E+02 -0.32864094566E+01  0.13433496710E+02  0.22534400960E+02  0.51100000000E-03 0. -1.
        -11    1    3    3    0    0  0.15753250825E+02 -0.56187873665E+01  0.11995341854E+02  0.20582125971E+02  0.51100000000E-03 0.  1.
        -12    1    3    3    0    0  0.87451255179E-01 -0.10840988402E+01  0.28235588280E+01  0.30257895618E+01  0.00000000000E+00 0.  1.
</event>
<event>
 7    1  0.4102844E-008  0.4614232E+02  0.7816164E-02  0.1320468E+00
        -11   -1    0    0    0    0  0.00000000000E+00  0.00000000000E+00  0.45593999997E+02  0.45594000000E+02  0.51100000000E-03 0.  1.
         11   -1    0    0    0    0 -0.00000000000E+00 -0.00000000000E+00 -0.45593999997E+02  0.45594000000E+02  0.51100000000E-03 0. -1.
    9900012    2    1    2    0    0  0.40356943534E+02 -0.13791594090E+02 -0.14499052317E+02  0.46142317887E+02  0.10000001147E+02 0.  0.
        -12    1    1    2    0    0 -0.40356943534E+02  0.13791594090E+02  0.14499052317E+02  0.45045682113E+02  0.00000000000E+00 0.  1.
         11    1    3    3    0    0  0.21761929156E+02 -0.51934716482E+01 -0.88693416021E+01  0.24066967592E+02  0.51100000000E-03 0. -1.
        -11    1    3    3    0    0  0.89467212609E+01 -0.57214349832E+01 -0.56032731046E+01  0.12007302334E+02  0.51100000000E-03 0.  1.
         12    1    3    3    0    0  0.96482931171E+01 -0.28766874583E+01 -0.26437610670E-01  0.10068047961E+02  0.00000000000E+00 0. -1.
</event>
<event>
 7    1  0.4102844E-008  0.4614232E+02  0.7816164E-02  0.1320468E+00
        -11   -1    0    0    0    0  0.00000000000E+00  0.00000000000E+00  0.45593999997E+02  0.45594000000E+02  0.51100000000E-03 0.  1.
         11   -1    0    0    0    0 -0.00000000000E+00 -0.00000000000E+00 -0.45593999997E+02  0.45594000000E+02  0.51100000000E-03 0. -1.
    9900012    2    1    2    0    0  0.23649478120E+02  0.51231513646E+01 -0.37994328455E+02  0.46142317743E+02  0.99999998360E+01 0.  0.
        -12    1    1    2    0    0 -0.23649478120E+02 -0.51231513646E+01  0.37994328455E+02  0.45045682257E+02  0.00000000000E+00 0.  1.
         11    1    3    3    0    0  0.23567168572E+02  0.46294725826E+01 -0.35450819859E+02  0.42820603450E+02  0.51100000000E-03 0. -1.
        -11    1    3    3    0    0  0.60617245677E+00 -0.62369339566E+00 -0.13430651073E+01  0.16000820738E+01  0.51100000000E-03 0.  1.
         12    1    3    3    0    0 -0.52386290829E+00  0.11173721776E+01 -0.12004434883E+01  0.17216322193E+01  0.00000000000E+00 0. -1.
</event>
<event>
 7    1  0.4102844E-008  0.4614232E+02  0.7816164E-02  0.1320468E+00
        -11   -1    0    0    0    0  0.00000000000E+00  0.00000000000E+00  0.45593999997E+02  0.45594000000E+02  0.51100000000E-03 0. -1.
         11   -1    0    0    0    0 -0.00000000000E+00 -0.00000000000E+00 -0.45593999997E+02  0.45594000000E+02  0.51100000000E-03 0.  1.
    9900012    2    1    2    0    0 -0.84113099710E+01 -0.33701032201E+02  0.28681071279E+02  0.46142317004E+02  0.99999930977E+01 0.  0.
        -12    1    1    2    0    0  0.84113099710E+01  0.33701032201E+02 -0.28681071279E+02  0.45045682996E+02  0.00000000000E+00 0.  1.
         11    1    3    3    0    0 -0.59860715165E+01 -0.23759837986E+02  0.20992236592E+02  0.32265104226E+02  0.51100000000E-03 0. -1.
        -11    1    3    3    0    0 -0.21344305401E+01 -0.17440150844E+01  0.40618052193E+01  0.49087314294E+01  0.51100000000E-03 0.  1.
        -12    1    3    3    0    0 -0.29080791432E+00 -0.81971791307E+01  0.36270294679E+01  0.89684813489E+01  0.00000000000E+00 0.  1.
</event>
<event>
 7    1  0.4102844E-008  0.4614232E+02  0.7816164E-02  0.1320468E+00
        -11   -1    0    0    0    0  0.00000000000E+00  0.00000000000E+00  0.45593999997E+02  0.45594000000E+02  0.51100000000E-03 0.  1.
         11   -1    0    0    0    0 -0.00000000000E+00 -0.00000000000E+00 -0.45593999997E+02  0.45594000000E+02  0.51100000000E-03 0. -1.
    9900012    2    1    2    0    0 -0.21211943482E+02  0.30579701029E+02 -0.25378116972E+02  0.46142317828E+02  0.10000000611E+02 0.  0.
        -12    1    1    2    0    0  0.21211943482E+02 -0.30579701029E+02  0.25378116972E+02  0.45045682172E+02  0.00000000000E+00 0.  1.
         11    1    3    3    0    0 -0.57735216334E+01  0.11714242467E+02 -0.49802854078E+01  0.13977133885E+02  0.51100000000E-03 0. -1.
        -11    1    3    3    0    0 -0.37755758680E+00  0.28302603169E+01 -0.27198774193E+01  0.39434320877E+01  0.51100000000E-03 0.  1.
         12    1    3    3    0    0 -0.15060864262E+02  0.16035198245E+02 -0.17677954144E+02  0.28221751856E+02  0.00000000000E+00 0. -1.
</event>
<event>
 7    1  0.4102844E-008  0.4614232E+02  0.7816164E-02  0.1320468E+00
        -11   -1    0    0    0    0  0.00000000000E+00  0.00000000000E+00  0.45593999997E+02  0.45594000000E+02  0.51100000000E-03 0.  1.
         11   -1    0    0    0    0 -0.00000000000E+00 -0.00000000000E+00 -0.45593999997E+02  0.45594000000E+02  0.51100000000E-03 0. -1.
    9900012    2    1    2    0    0  0.49356555056E+01  0.25126653643E+02 -0.37059466938E+02  0.46142317540E+02  0.99999979800E+01 0.  0.
        -12    1    1    2    0    0 -0.49356555056E+01 -0.25126653643E+02  0.37059466938E+02  0.45045682460E+02  0.00000000000E+00 0.  1.
         11    1    3    3    0    0  0.46205986883E+01  0.18566864257E+02 -0.30400343742E+02  0.35920179293E+02  0.51100000000E-03 0. -1.
        -11    1    3    3    0    0  0.93326246194E+00  0.66122882622E+01 -0.46969997535E+01  0.81642600295E+01  0.51100000000E-03 0.  1.
         12    1    3    3    0    0 -0.61820564462E+00 -0.52498875509E-01 -0.19621234425E+01  0.20578782166E+01  0.00000000000E+00 0. -1.
</event>
<event>
 7    1  0.4102844E-008  0.4614231E+02  0.7816164E-02  0.1320468E+00
        -11   -1    0    0    0    0  0.00000000000E+00  0.00000000000E+00  0.45593999997E+02  0.45594000000E+02  0.51100000000E-03 0.  1.
         11   -1    0    0    0    0 -0.00000000000E+00 -0.00000000000E+00 -0.45593999997E+02  0.45594000000E+02  0.51100000000E-03 0. -1.
    9900012    2    1    2    0    0 -0.38285939849E+02  0.13531459287E+02 -0.19498728969E+02  0.46142311949E+02  0.99999470012E+01 0.  0.
        -12    1    1    2    0    0  0.38285939849E+02 -0.13531459287E+02  0.19498728969E+02  0.45045688051E+02  0.00000000000E+00 0.  1.
         11    1    3    3    0    0 -0.10675836911E+02  0.40928431472E+01 -0.31243786448E+01  0.11852704373E+02  0.51100000000E-03 0. -1.
        -11    1    3    3    0    0 -0.56568150478E+01  0.42397386538E+01 -0.13854564405E+01  0.72037788796E+01  0.51100000000E-03 0.  1.
         12    1    3    3    0    0 -0.21953287891E+02  0.51988774860E+01 -0.14988893884E+02  0.27085828697E+02  0.00000000000E+00 0. -1.
</event>
<event>
 7    1  0.4102844E-008  0.4614232E+02  0.7816164E-02  0.1320468E+00
        -11   -1    0    0    0    0  0.00000000000E+00  0.00000000000E+00  0.45593999997E+02  0.45594000000E+02  0.51100000000E-03 0. -1.
         11   -1    0    0    0    0 -0.00000000000E+00 -0.00000000000E+00 -0.45593999997E+02  0.45594000000E+02  0.51100000000E-03 0.  1.
    9900012    2    1    2    0    0  0.72276389121E+00  0.31945493899E+02  0.31750220794E+02  0.46142317759E+02  0.99999999832E+01 0.  0.
        -12    1    1    2    0    0 -0.72276389121E+00 -0.31945493899E+02 -0.31750220794E+02  0.45045682241E+02  0.00000000000E+00 0.  1.
         11    1    3    3    0    0 -0.34580205357E+01  0.67011038918E+01  0.84490554204E+01  0.11324717972E+02  0.51100000000E-03 0. -1.
        -11    1    3    3    0    0  0.32498174478E+01  0.22818090473E+02  0.22180415259E+02  0.31987456723E+02  0.51100000000E-03 0.  1.
        -12    1    3    3    0    0  0.93096697908E+00  0.24262995337E+01  0.11207501146E+01  0.28301430640E+01  0.00000000000E+00 0.  1.
</event>
<event>
 7    1  0.4102844E-008  0.4614232E+02  0.7816164E-02  0.1320468E+00
        -11   -1    0    0    0    0  0.00000000000E+00  0.00000000000E+00  0.45593999997E+02  0.45594000000E+02  0.51100000000E-03 0.  1.
         11   -1    0    0    0    0 -0.00000000000E+00 -0.00000000000E+00 -0.45593999997E+02  0.45594000000E+02  0.51100000000E-03 0. -1.
    9900012    2    1    2    0    0 -0.18865268686E+02 -0.19586738960E+02 -0.35910650920E+02  0.46142317019E+02  0.99999932351E+01 0.  0.
        -12    1    1    2    0    0  0.18865268686E+02  0.19586738960E+02  0.35910650920E+02  0.45045682981E+02  0.00000000000E+00 0.  1.
         11    1    3    3    0    0 -0.27328267064E+01 -0.13705147758E+01 -0.92677379296E+01  0.97589763373E+01  0.51100000000E-03 0. -1.
        -11    1    3    3    0    0 -0.88141425230E+01 -0.13085663764E+02 -0.15751755200E+02  0.22294427481E+02  0.51100000000E-03 0.  1.
         12    1    3    3    0    0 -0.73182994569E+01 -0.51305604194E+01 -0.10891157790E+02  0.14088913201E+02  0.00000000000E+00 0. -1.
</event>
<event>
 7    1  0.4102844E-008  0.4614232E+02  0.7816164E-02  0.1320468E+00
        -11   -1    0    0    0    0  0.00000000000E+00  0.00000000000E+00  0.45593999997E+02  0.45594000000E+02  0.51100000000E-03 0. -1.
         11   -1    0    0    0    0 -0.00000000000E+00 -0.00000000000E+00 -0.45593999997E+02  0.45594000000E+02  0.51100000000E-03 0.  1.
    9900012    2    1    2    0    0  0.15450117680E+02  0.39438842899E+02  0.15329222495E+02  0.46142317323E+02  0.99999960047E+01 0.  0.
        -12    1    1    2    0    0 -0.15450117680E+02 -0.39438842899E+02 -0.15329222495E+02  0.45045682677E+02  0.00000000000E+00 0.  1.
         11    1    3    3    0    0  0.11018978808E+02  0.26929088185E+02  0.12788781171E+02  0.31782803661E+02  0.51100000000E-03 0. -1.
        -11    1    3    3    0    0  0.51505709816E+01  0.10912363711E+02  0.32059564047E+01  0.12485440318E+02  0.51100000000E-03 0.  1.
        -12    1    3    3    0    0 -0.71943210927E+00  0.15973910029E+01 -0.66551508119E+00  0.18740733442E+01  0.00000000000E+00 0.  1.
</event>
<event>
 7    1  0.4102844E-008  0.4614232E+02  0.7816164E-02  0.1320468E+00
        -11   -1    0    0    0    0  0.00000000000E+00  0.00000000000E+00  0.45593999997E+02  0.45594000000E+02  0.51100000000E-03 0.  1.
         11   -1    0    0    0    0 -0.00000000000E+00 -0.00000000000E+00 -0.45593999997E+02  0.45594000000E+02  0.51100000000E-03 0. -1.
    9900012    2    1    2    0    0  0.27690980205E+02  0.34577804289E+02 -0.81669188077E+01  0.46142317666E+02  0.99999991315E+01 0.  0.
        -12    1    1    2    0    0 -0.27690980205E+02 -0.34577804289E+02  0.81669188077E+01  0.45045682334E+02  0.00000000000E+00 0.  1.
         11    1    3    3    0    0  0.31819602146E+01  0.57284042970E+01 -0.16786703476E+01  0.67644231827E+01  0.51100000000E-03 0. -1.
        -11    1    3    3    0    0  0.16737960742E+02  0.18167197005E+02 -0.82667524138E+01  0.26048907320E+02  0.51100000000E-03 0.  1.
         12    1    3    3    0    0  0.77710592479E+01  0.10682202987E+02  0.17785039537E+01  0.13328987163E+02  0.00000000000E+00 0. -1.
</event>
<event>
 7    1  0.4102844E-008  0.4614232E+02  0.7816164E-02  0.1320468E+00
        -11   -1    0    0    0    0  0.00000000000E+00  0.00000000000E+00  0.45593999997E+02  0.45594000000E+02  0.51100000000E-03 0.  1.
         11   -1    0    0    0    0 -0.00000000000E+00 -0.00000000000E+00 -0.45593999997E+02  0.45594000000E+02  0.51100000000E-03 0. -1.
    9900012    2    1    2    0    0 -0.44739844863E+02  0.52050745286E+01  0.60591164964E+00  0.46142315988E+02  0.99999838293E+01 0.  0.
        -12    1    1    2    0    0  0.44739844863E+02 -0.52050745286E+01 -0.60591164964E+00  0.45045684012E+02  0.00000000000E+00 0.  1.
         11    1    3    3    0    0 -0.29323414592E+02  0.32140412796E+01 -0.33274970477E-01  0.29499047649E+02  0.51100000000E-03 0. -1.
        -11    1    3    3    0    0 -0.76396229556E+01 -0.14956010017E+01  0.19379525871E+01  0.80222391980E+01  0.51100000000E-03 0.  1.
        -12    1    3    3    0    0 -0.77768073149E+01  0.34866342507E+01 -0.12987659669E+01  0.86210291409E+01  0.00000000000E+00 0.  1.
</event>
<event>
 7    1  0.4102844E-008  0.4614232E+02  0.7816164E-02  0.1320468E+00
        -11   -1    0    0    0    0  0.00000000000E+00  0.00000000000E+00  0.45593999997E+02  0.45594000000E+02  0.51100000000E-03 0.  1.
         11   -1    0    0    0    0 -0.00000000000E+00 -0.00000000000E+00 -0.45593999997E+02  0.45594000000E+02  0.51100000000E-03 0. -1.
    9900012    2    1    2    0    0 -0.17647232193E+01  0.44492686689E+02 -0.68117758736E+01  0.46142315330E+02  0.99999778316E+01 0.  0.
        -12    1    1    2    0    0  0.17647232193E+01 -0.44492686689E+02  0.68117758736E+01  0.45045684670E+02  0.00000000000E+00 0.  1.
         11    1    3    3    0    0 -0.24311867981E+00  0.16960609175E+02  0.61256821167E+00  0.16973408920E+02  0.51100000000E-03 0. -1.
        -11    1    3    3    0    0  0.11462080269E+01  0.20962944347E+02 -0.43463933194E+01  0.21439448773E+02  0.51100000000E-03 0.  1.
         12    1    3    3    0    0 -0.26678125664E+01  0.65691331669E+01 -0.30779507658E+01  0.77294576376E+01  0.00000000000E+00 0. -1.
</event>
<event>
 7    1  0.4102844E-008  0.4614232E+02  0.7816164E-02  0.1320468E+00
        -11   -1    0    0    0    0  0.00000000000E+00  0.00000000000E+00  0.45593999997E+02  0.45594000000E+02  0.51100000000E-03 0.  1.
         11   -1    0    0    0    0 -0.00000000000E+00 -0.00000000000E+00 -0.45593999997E+02  0.45594000000E+02  0.51100000000E-03 0. -1.
    9900012    2    1    2    0    0  0.24228598008E+02  0.24240967036E+02  0.29231212253E+02  0.46142320806E+02  0.10000027767E+02 0.  0.
        -12    1    1    2    0    0 -0.24228598008E+02 -0.24240967036E+02 -0.29231212253E+02  0.45045679194E+02  0.00000000000E+00 0.  1.
         11    1    3    3    0    0  0.74479310614E+01  0.57139191019E+01  0.11451704219E+02  0.14807500747E+02  0.51100000000E-03 0. -1.
        -11    1    3    3    0    0  0.57915763781E+01  0.10757039898E+02  0.10013089685E+02  0.15796146036E+02  0.51100000000E-03 0.  1.
         12    1    3    3    0    0  0.10989090568E+02  0.77700080361E+01  0.77664183494E+01  0.15538674023E+02  0.00000000000E+00 0. -1.
</event>
<event>
 7    1  0.4102844E-008  0.4614232E+02  0.7816164E-02  0.1320468E+00
        -11   -1    0    0    0    0  0.00000000000E+00  0.00000000000E+00  0.45593999997E+02  0.45594000000E+02  0.51100000000E-03 0. -1.
         11   -1    0    0    0    0 -0.00000000000E+00 -0.00000000000E+00 -0.45593999997E+02  0.45594000000E+02  0.51100000000E-03 0.  1.
    9900012    2    1    2    0    0  0.35831092043E+02  0.13541662964E+02  0.23703791435E+02  0.46142317396E+02  0.99999966743E+01 0.  0.
        -12    1    1    2    0    0 -0.35831092043E+02 -0.13541662964E+02 -0.23703791435E+02  0.45045682604E+02  0.00000000000E+00 0.  1.
         11    1    3    3    0    0  0.50045893598E+00 -0.32664296216E+00  0.81043883771E+00  0.10069588582E+01  0.51100000000E-03 0. -1.
        -11    1    3    3    0    0  0.19284022887E+02  0.31330956770E+01  0.12716255542E+02  0.23310791117E+02  0.51100000000E-03 0.  1.
         12    1    3    3    0    0  0.16046610220E+02  0.10735210250E+02  0.10177097055E+02  0.21824567422E+02  0.00000000000E+00 0. -1.
</event>
<event>
 7    1  0.4102844E-008  0.4614232E+02  0.7816164E-02  0.1320468E+00
        -11   -1    0    0    0    0  0.00000000000E+00  0.00000000000E+00  0.45593999997E+02  0.45594000000E+02  0.51100000000E-03 0.  1.
         11   -1    0    0    0    0 -0.00000000000E+00 -0.00000000000E+00 -0.45593999997E+02  0.45594000000E+02  0.51100000000E-03 0. -1.
    9900012    2    1    2    0    0  0.17457913130E+02 -0.38078268158E+02 -0.16564424325E+02  0.46142318853E+02  0.10000009956E+02 0.  0.
        -12    1    1    2    0    0 -0.17457913130E+02  0.38078268158E+02  0.16564424325E+02  0.45045681147E+02  0.00000000000E+00 0.  1.
         11    1    3    3    0    0  0.20047672911E+01 -0.62948784212E+01 -0.17878793705E+01  0.68440557518E+01  0.51100000000E-03 0. -1.
        -11    1    3    3    0    0  0.17142355303E+01 -0.72815969648E+01 -0.67685170656E+01  0.10088264536E+02  0.51100000000E-03 0.  1.
        -12    1    3    3    0    0  0.13738910309E+02 -0.24501792772E+02 -0.80080278885E+01  0.29209998565E+02  0.00000000000E+00 0.  1.
</event>
<event>
 7    1  0.4102844E-008  0.4614232E+02  0.7816164E-02  0.1320468E+00
        -11   -1    0    0    0    0  0.00000000000E+00  0.00000000000E+00  0.45593999997E+02  0.45594000000E+02  0.51100000000E-03 0. -1.
         11   -1    0    0    0    0 -0.00000000000E+00 -0.00000000000E+00 -0.45593999997E+02  0.45594000000E+02  0.51100000000E-03 0.  1.
    9900012    2    1    2    0    0  0.44370251588E+02 -0.49540433900E+01 -0.59876296630E+01  0.46142317845E+02  0.10000000761E+02 0.  0.
        -12    1    1    2    0    0 -0.44370251588E+02  0.49540433900E+01  0.59876296630E+01  0.45045682155E+02  0.00000000000E+00 0.  1.
         11    1    3    3    0    0  0.14299084335E+02 -0.18853415130E+01 -0.41751530314E+01  0.15015000117E+02  0.51100000000E-03 0. -1.
        -11    1    3    3    0    0  0.24478772528E+02 -0.13660894225E+01 -0.40858596116E+01  0.24854994545E+02  0.51100000000E-03 0.  1.
        -12    1    3    3    0    0  0.55923947248E+01 -0.17026124545E+01  0.22733829800E+01  0.62723231822E+01  0.00000000000E+00 0.  1.
</event>
<event>
 7    1  0.4102844E-008  0.4614232E+02  0.7816164E-02  0.1320468E+00
        -11   -1    0    0    0    0  0.00000000000E+00  0.00000000000E+00  0.45593999997E+02  0.45594000000E+02  0.51100000000E-03 0.  1.
         11   -1    0    0    0    0 -0.00000000000E+00 -0.00000000000E+00 -0.45593999997E+02  0.45594000000E+02  0.51100000000E-03 0. -1.
    9900012    2    1    2    0    0  0.16772513356E+02 -0.38969450796E+02 -0.15138628542E+02  0.46142319033E+02  0.10000011598E+02 0.  0.
        -12    1    1    2    0    0 -0.16772513356E+02  0.38969450796E+02  0.15138628542E+02  0.45045680967E+02  0.00000000000E+00 0.  1.
         11    1    3    3    0    0  0.13936952817E+02 -0.29397903782E+02 -0.13876977204E+02  0.35370127187E+02  0.51100000000E-03 0. -1.
        -11    1    3    3    0    0  0.27915629947E+01 -0.54688002630E+01  0.77979596259E+00  0.61894008009E+01  0.51100000000E-03 0.  1.
        -12    1    3    3    0    0  0.43997544795E-01 -0.41027467510E+01 -0.20414473006E+01  0.45827910456E+01  0.00000000000E+00 0.  1.
</event>
<event>
 7    1  0.4102844E-008  0.4614232E+02  0.7816164E-02  0.1320468E+00
        -11   -1    0    0    0    0  0.00000000000E+00  0.00000000000E+00  0.45593999997E+02  0.45594000000E+02  0.51100000000E-03 0.  1.
         11   -1    0    0    0    0 -0.00000000000E+00 -0.00000000000E+00 -0.45593999997E+02  0.45594000000E+02  0.51100000000E-03 0. -1.
    9900012    2    1    2    0    0 -0.11589271672E+02  0.43208785806E+02 -0.52728602374E+01  0.46142318256E+02  0.10000004509E+02 0.  0.
        -12    1    1    2    0    0  0.11589271672E+02 -0.43208785806E+02  0.52728602374E+01  0.45045681744E+02  0.00000000000E+00 0.  1.
         11    1    3    3    0    0 -0.73719514097E+00  0.55538206655E+00 -0.29519752844E-01  0.92345957824E+00  0.51100000000E-03 0. -1.
        -11    1    3    3    0    0 -0.47399071506E+01  0.22414351212E+02  0.16818762411E+01  0.22971690578E+02  0.51100000000E-03 0.  1.
         12    1    3    3    0    0 -0.61121693800E+01  0.20239052528E+02 -0.69252167256E+01  0.22247168100E+02  0.00000000000E+00 0. -1.
</event>
<event>
 7    1  0.4102844E-008  0.4614232E+02  0.7816164E-02  0.1320468E+00
        -11   -1    0    0    0    0  0.00000000000E+00  0.00000000000E+00  0.45593999997E+02  0.45594000000E+02  0.51100000000E-03 0.  1.
         11   -1    0    0    0    0 -0.00000000000E+00 -0.00000000000E+00 -0.45593999997E+02  0.45594000000E+02  0.51100000000E-03 0. -1.
    9900012    2    1    2    0    0  0.25508617262E+01  0.85631885115E+01 -0.44150633284E+02  0.46142317494E+02  0.99999975685E+01 0.  0.
        -12    1    1    2    0    0 -0.25508617262E+01 -0.85631885115E+01  0.44150633284E+02  0.45045682506E+02  0.00000000000E+00 0.  1.
         11    1    3    3    0    0  0.60360338990E+00  0.99861761908E-01 -0.10818961920E+02  0.10836246892E+02  0.51100000000E-03 0. -1.
        -11    1    3    3    0    0 -0.15501723450E+01  0.21671249505E+01 -0.19786398829E+02  0.19964995460E+02  0.51100000000E-03 0.  1.
        -12    1    3    3    0    0  0.34974306813E+01  0.62962017990E+01 -0.13545272535E+02  0.15341075142E+02  0.00000000000E+00 0.  1.
</event>
<event>
 7    1  0.4102844E-008  0.4614232E+02  0.7816164E-02  0.1320468E+00
        -11   -1    0    0    0    0  0.00000000000E+00  0.00000000000E+00  0.45593999997E+02  0.45594000000E+02  0.51100000000E-03 0. -1.
         11   -1    0    0    0    0 -0.00000000000E+00 -0.00000000000E+00 -0.45593999997E+02  0.45594000000E+02  0.51100000000E-03 0.  1.
    9900012    2    1    2    0    0 -0.22561706322E+02  0.27252704383E+02  0.27881412702E+02  0.46142315827E+02  0.99999823643E+01 0.  0.
        -12    1    1    2    0    0  0.22561706322E+02 -0.27252704383E+02 -0.27881412702E+02  0.45045684173E+02  0.00000000000E+00 0.  1.
         11    1    3    3    0    0 -0.18035722455E+02  0.21229315440E+02  0.19771748336E+02  0.34159817784E+02  0.51100000000E-03 0. -1.
        -11    1    3    3    0    0 -0.29562843783E+01  0.61818119081E+01  0.77861289007E+01  0.10371992061E+02  0.51100000000E-03 0.  1.
        -12    1    3    3    0    0 -0.15696994886E+01 -0.15842296547E+00  0.32353546558E+00  0.16105059819E+01  0.00000000000E+00 0.  1.
</event>
<event>
 7    1  0.4102844E-008  0.4614232E+02  0.7816164E-02  0.1320468E+00
        -11   -1    0    0    0    0  0.00000000000E+00  0.00000000000E+00  0.45593999997E+02  0.45594000000E+02  0.51100000000E-03 0. -1.
         11   -1    0    0    0    0 -0.00000000000E+00 -0.00000000000E+00 -0.45593999997E+02  0.45594000000E+02  0.51100000000E-03 0.  1.
    9900012    2    1    2    0    0  0.26630193451E+02 -0.32866320060E+02  0.15483907260E+02  0.46142316727E+02  0.99999905657E+01 0.  0.
        -12    1    1    2    0    0 -0.26630193451E+02  0.32866320060E+02 -0.15483907260E+02  0.45045683273E+02  0.00000000000E+00 0.  1.
         11    1    3    3    0    0  0.19546172554E+01 -0.58006978346E+01  0.46068376306E+00  0.61384732445E+01  0.51100000000E-03 0.  1.
        -11    1    3    3    0    0  0.16735684026E+02 -0.21810753310E+02  0.12163682946E+02  0.30062389507E+02  0.51100000000E-03 0. -1.
        -12    1    3    3    0    0  0.79398921693E+01 -0.52548689156E+01  0.28595405511E+01  0.99414539753E+01  0.00000000000E+00 0.  1.
</event>
<event>
 7    1  0.4102844E-008  0.4614232E+02  0.7816164E-02  0.1320468E+00
        -11   -1    0    0    0    0  0.00000000000E+00  0.00000000000E+00  0.45593999997E+02  0.45594000000E+02  0.51100000000E-03 0. -1.
         11   -1    0    0    0    0 -0.00000000000E+00 -0.00000000000E+00 -0.45593999997E+02  0.45594000000E+02  0.51100000000E-03 0.  1.
    9900012    2    1    2    0    0 -0.46067935275E+01  0.32584779581E+02  0.30759113864E+02  0.46142317714E+02  0.99999995659E+01 0.  0.
        -12    1    1    2    0    0  0.46067935275E+01 -0.32584779581E+02 -0.30759113864E+02  0.45045682286E+02  0.00000000000E+00 0.  1.
         11    1    3    3    0    0 -0.20015513772E+01  0.29595789732E+01  0.33800749350E+01  0.49183556644E+01  0.51100000000E-03 0. -1.
        -11    1    3    3    0    0  0.12306795704E+01  0.15467685628E+02  0.18217561467E+02  0.23929969013E+02  0.51100000000E-03 0.  1.
         12    1    3    3    0    0 -0.38359217207E+01  0.14157514979E+02  0.91614774622E+01  0.17293993036E+02  0.00000000000E+00 0. -1.
</event>
<event>
 7    1  0.4102844E-008  0.4614232E+02  0.7816164E-02  0.1320468E+00
        -11   -1    0    0    0    0  0.00000000000E+00  0.00000000000E+00  0.45593999997E+02  0.45594000000E+02  0.51100000000E-03 0.  1.
         11   -1    0    0    0    0 -0.00000000000E+00 -0.00000000000E+00 -0.45593999997E+02  0.45594000000E+02  0.51100000000E-03 0. -1.
    9900012    2    1    2    0    0  0.14397174150E+02 -0.35412642481E+02 -0.23828127627E+02  0.46142317219E+02  0.99999950563E+01 0.  0.
        -12    1    1    2    0    0 -0.14397174150E+02  0.35412642481E+02  0.23828127627E+02  0.45045682781E+02  0.00000000000E+00 0.  1.
         11    1    3    3    0    0  0.69349140776E+01 -0.27146226140E+02 -0.17495258380E+02  0.33031722524E+02  0.51100000000E-03 0. -1.
        -11    1    3    3    0    0  0.12400615534E+01 -0.23658383244E+01 -0.26989557451E+01  0.37972761301E+01  0.51100000000E-03 0.  1.
         12    1    3    3    0    0  0.62221985185E+01 -0.59005780174E+01 -0.36339135017E+01  0.93133185644E+01  0.00000000000E+00 0. -1.
</event>
<event>
 7    1  0.4102844E-008  0.4614232E+02  0.7816164E-02  0.1320468E+00
        -11   -1    0    0    0    0  0.00000000000E+00  0.00000000000E+00  0.45593999997E+02  0.45594000000E+02  0.51100000000E-03 0.  1.
         11   -1    0    0    0    0 -0.00000000000E+00 -0.00000000000E+00 -0.45593999997E+02  0.45594000000E+02  0.51100000000E-03 0. -1.
    9900012    2    1    2    0    0  0.40071811902E+02 -0.76347258932E+01  0.19106918480E+02  0.46142317828E+02  0.10000000610E+02 0.  0.
        -12    1    1    2    0    0 -0.40071811902E+02  0.76347258932E+01 -0.19106918480E+02  0.45045682172E+02  0.00000000000E+00 0.  1.
         11    1    3    3    0    0  0.74484149439E+01 -0.14334165422E+01  0.23537575382E+01  0.79418979451E+01  0.51100000000E-03 0. -1.
        -11    1    3    3    0    0  0.10916359324E+02 -0.38063875384E+01  0.10152397724E+02  0.15385924307E+02  0.51100000000E-03 0.  1.
        -12    1    3    3    0    0  0.21707037633E+02 -0.23949218126E+01  0.66007632175E+01  0.22814495575E+02  0.00000000000E+00 0.  1.
</event>
<event>
 7    1  0.4102844E-008  0.4614232E+02  0.7816164E-02  0.1320468E+00
        -11   -1    0    0    0    0  0.00000000000E+00  0.00000000000E+00  0.45593999997E+02  0.45594000000E+02  0.51100000000E-03 0. -1.
         11   -1    0    0    0    0 -0.00000000000E+00 -0.00000000000E+00 -0.45593999997E+02  0.45594000000E+02  0.51100000000E-03 0.  1.
    9900012    2    1    2    0    0  0.28001244185E+02  0.11330116103E+01  0.35266983776E+02  0.46142317233E+02  0.99999951888E+01 0.  0.
        -12    1    1    2    0    0 -0.28001244185E+02 -0.11330116103E+01 -0.35266983776E+02  0.45045682767E+02  0.00000000000E+00 0.  1.
         11    1    3    3    0    0  0.76256471350E+01  0.10397605643E+01  0.15869368075E+02  0.17637132409E+02  0.51100000000E-03 0. -1.
        -11    1    3    3    0    0  0.14547618213E+02  0.12077083668E+01  0.16037568161E+02  0.21686294011E+02  0.51100000000E-03 0.  1.
        -12    1    3    3    0    0  0.58279788374E+01 -0.11144573207E+01  0.33600475405E+01  0.68188908133E+01  0.00000000000E+00 0.  1.
</event>
<event>
 7    1  0.4102844E-008  0.4614232E+02  0.7816164E-02  0.1320468E+00
        -11   -1    0    0    0    0  0.00000000000E+00  0.00000000000E+00  0.45593999997E+02  0.45594000000E+02  0.51100000000E-03 0.  1.
         11   -1    0    0    0    0 -0.00000000000E+00 -0.00000000000E+00 -0.45593999997E+02  0.45594000000E+02  0.51100000000E-03 0. -1.
    9900012    2    1    2    0    0  0.41426601322E+02 -0.16281599251E+01 -0.17615316644E+02  0.46142316719E+02  0.99999904961E+01 0.  0.
        -12    1    1    2    0    0 -0.41426601322E+02  0.16281599251E+01  0.17615316644E+02  0.45045683281E+02  0.00000000000E+00 0.  1.
         11    1    3    3    0    0  0.25893761196E+02 -0.30059323708E+01 -0.12883492692E+02  0.29077601045E+02  0.51100000000E-03 0. -1.
        -11    1    3    3    0    0  0.40942476100E+01 -0.14321138336E+01  0.87212827199E-01  0.43383660361E+01  0.51100000000E-03 0.  1.
        -12    1    3    3    0    0  0.11438592516E+02  0.28098862793E+01 -0.48190367788E+01  0.12726349638E+02  0.00000000000E+00 0.  1.
</event>
<event>
 7    1  0.4102844E-008  0.4614231E+02  0.7816164E-02  0.1320468E+00
        -11   -1    0    0    0    0  0.00000000000E+00  0.00000000000E+00  0.45593999997E+02  0.45594000000E+02  0.51100000000E-03 0. -1.
         11   -1    0    0    0    0 -0.00000000000E+00 -0.00000000000E+00 -0.45593999997E+02  0.45594000000E+02  0.51100000000E-03 0.  1.
    9900012    2    1    2    0    0  0.30229419599E+02  0.27832770712E+02  0.18456257711E+02  0.46142307825E+02  0.99999093930E+01 0.  0.
        -12    1    1    2    0    0 -0.30229419599E+02 -0.27832770712E+02 -0.18456257711E+02  0.45045692175E+02  0.00000000000E+00 0.  1.
         11    1    3    3    0    0  0.12401408461E+02  0.10377084625E+02  0.90016595414E+01  0.18506990352E+02  0.51100000000E-03 0. -1.
        -11    1    3    3    0    0 -0.30699714892E-01 -0.35977173354E+00  0.94754104712E+00  0.10140081212E+01  0.51100000000E-03 0.  1.
         12    1    3    3    0    0  0.17858710854E+02  0.17815457821E+02  0.85070571227E+01  0.26621309352E+02  0.00000000000E+00 0. -1.
</event>
<event>
 7    1  0.4102844E-008  0.4614232E+02  0.7816164E-02  0.1320468E+00
        -11   -1    0    0    0    0  0.00000000000E+00  0.00000000000E+00  0.45593999997E+02  0.45594000000E+02  0.51100000000E-03 0.  1.
         11   -1    0    0    0    0 -0.00000000000E+00 -0.00000000000E+00 -0.45593999997E+02  0.45594000000E+02  0.51100000000E-03 0. -1.
    9900012    2    1    2    0    0 -0.19237114865E+01 -0.35968148597E+02 -0.27050048614E+02  0.46142317528E+02  0.99999978726E+01 0.  0.
        -12    1    1    2    0    0  0.19237114865E+01  0.35968148597E+02  0.27050048614E+02  0.45045682472E+02  0.00000000000E+00 0.  1.
         11    1    3    3    0    0 -0.25025099166E+01 -0.15722692484E+02 -0.95256144184E+01  0.18552707219E+02  0.51100000000E-03 0. -1.
        -11    1    3    3    0    0  0.12127146380E+01 -0.60437613461E+00 -0.15773006094E+00  0.13641210865E+01  0.51100000000E-03 0.  1.
         12    1    3    3    0    0 -0.63391620800E+00 -0.19641079978E+02 -0.17366704135E+02  0.26225489222E+02  0.00000000000E+00 0. -1.
</event>
<event>
 7    1  0.4102844E-008  0.4614232E+02  0.7816164E-02  0.1320468E+00
        -11   -1    0    0    0    0  0.00000000000E+00  0.00000000000E+00  0.45593999997E+02  0.45594000000E+02  0.51100000000E-03 0. -1.
         11   -1    0    0    0    0 -0.00000000000E+00 -0.00000000000E+00 -0.45593999997E+02  0.45594000000E+02  0.51100000000E-03 0.  1.
    9900012    2    1    2    0    0 -0.39453864952E+02  0.12562765557E+02  0.17739303918E+02  0.46142318280E+02  0.10000004735E+02 0.  0.
        -12    1    1    2    0    0  0.39453864952E+02 -0.12562765557E+02 -0.17739303918E+02  0.45045681720E+02  0.00000000000E+00 0.  1.
         11    1    3    3    0    0 -0.69670366790E+01  0.17040162051E+01  0.14386961243E+01  0.73152661000E+01  0.51100000000E-03 0. -1.
        -11    1    3    3    0    0 -0.79067556687E+01  0.57935239948E+01  0.22201966921E+01  0.10050421837E+02  0.51100000000E-03 0.  1.
         12    1    3    3    0    0 -0.24580072604E+02  0.50652253570E+01  0.14080411102E+02  0.28776630344E+02  0.00000000000E+00 0. -1.
</event>
<event>
 7    1  0.4102844E-008  0.4614232E+02  0.7816164E-02  0.1320468E+00
        -11   -1    0    0    0    0  0.00000000000E+00  0.00000000000E+00  0.45593999997E+02  0.45594000000E+02  0.51100000000E-03 0. -1.
         11   -1    0    0    0    0 -0.00000000000E+00 -0.00000000000E+00 -0.45593999997E+02  0.45594000000E+02  0.51100000000E-03 0.  1.
    9900012    2    1    2    0    0 -0.40363854699E+02 -0.10322988674E+02  0.17126255360E+02  0.46142317809E+02  0.10000000441E+02 0.  0.
        -12    1    1    2    0    0  0.40363854699E+02  0.10322988674E+02 -0.17126255360E+02  0.45045682191E+02  0.00000000000E+00 0.  1.
         11    1    3    3    0    0 -0.26814525317E+02 -0.91052749987E+01  0.15065796414E+02  0.32076518243E+02  0.51100000000E-03 0. -1.
        -11    1    3    3    0    0 -0.10214444001E+02 -0.25846268426E+00  0.26263602133E+01  0.10549854854E+02  0.51100000000E-03 0.  1.
         12    1    3    3    0    0 -0.33348853820E+01 -0.95925099137E+00 -0.56590126784E+00  0.35159447123E+01  0.00000000000E+00 0. -1.
</event>
<event>
 7    1  0.4102844E-008  0.4614232E+02  0.7816164E-02  0.1320468E+00
        -11   -1    0    0    0    0  0.00000000000E+00  0.00000000000E+00  0.45593999997E+02  0.45594000000E+02  0.51100000000E-03 0. -1.
         11   -1    0    0    0    0 -0.00000000000E+00 -0.00000000000E+00 -0.45593999997E+02  0.45594000000E+02  0.51100000000E-03 0.  1.
    9900012    2    1    2    0    0 -0.69009440588E+01  0.39490425343E+02  0.20542561861E+02  0.46142316850E+02  0.99999916884E+01 0.  0.
        -12    1    1    2    0    0  0.69009440588E+01 -0.39490425343E+02 -0.20542561861E+02  0.45045683150E+02  0.00000000000E+00 0.  1.
         11    1    3    3    0    0 -0.20974533065E+01  0.10303080780E+02  0.57383630386E+01  0.11978380297E+02  0.51100000000E-03 0. -1.
        -11    1    3    3    0    0 -0.59445000154E+01  0.24872502233E+02  0.15087256759E+02  0.29691813089E+02  0.51100000000E-03 0.  1.
        -12    1    3    3    0    0  0.11410092631E+01  0.43148423304E+01 -0.28305793610E+00  0.44721234631E+01  0.00000000000E+00 0.  1.
</event>
<event>
 7    1  0.4102844E-008  0.4614232E+02  0.7816164E-02  0.1320468E+00
        -11   -1    0    0    0    0  0.00000000000E+00  0.00000000000E+00  0.45593999997E+02  0.45594000000E+02  0.51100000000E-03 0. -1.
         11   -1    0    0    0    0 -0.00000000000E+00 -0.00000000000E+00 -0.45593999997E+02  0.45594000000E+02  0.51100000000E-03 0.  1.
    9900012    2    1    2    0    0 -0.24783991148E+02  0.23871995250E+02  0.29068795846E+02  0.46142320225E+02  0.10000022468E+02 0.  0.
        -12    1    1    2    0    0  0.24783991148E+02 -0.23871995250E+02 -0.29068795846E+02  0.45045679775E+02  0.00000000000E+00 0.  1.
         11    1    3    3    0    0 -0.14766682062E+02  0.11879967687E+02  0.14406508319E+02  0.23806217961E+02  0.51100000000E-03 0. -1.
        -11    1    3    3    0    0 -0.40497575803E+01  0.98801867324E+00  0.50811808622E+01  0.65722991847E+01  0.51100000000E-03 0.  1.
         12    1    3    3    0    0 -0.59675515056E+01  0.11004008889E+02  0.95811066644E+01  0.15763803079E+02  0.00000000000E+00 0. -1.
</event>
<event>
 7    1  0.4102844E-008  0.4614232E+02  0.7816164E-02  0.1320468E+00
        -11   -1    0    0    0    0  0.00000000000E+00  0.00000000000E+00  0.45593999997E+02  0.45594000000E+02  0.51100000000E-03 0.  1.
         11   -1    0    0    0    0 -0.00000000000E+00 -0.00000000000E+00 -0.45593999997E+02  0.45594000000E+02  0.51100000000E-03 0. -1.
    9900012    2    1    2    0    0 -0.26034427803E+02  0.11966070513E+01 -0.36740852532E+02  0.46142317141E+02  0.99999943487E+01 0.  0.
        -12    1    1    2    0    0  0.26034427803E+02 -0.11966070513E+01  0.36740852532E+02  0.45045682859E+02  0.00000000000E+00 0.  1.
         11    1    3    3    0    0 -0.54846603332E+01  0.28884286027E+01 -0.52878188875E+01  0.81477326669E+01  0.51100000000E-03 0. -1.
        -11    1    3    3    0    0 -0.65459056401E+01  0.11014182168E+01 -0.67879583071E+01  0.94941234970E+01  0.51100000000E-03 0.  1.
         12    1    3    3    0    0 -0.14003861829E+02 -0.27932397683E+01 -0.24665075337E+02  0.28500460977E+02  0.00000000000E+00 0. -1.
</event>
<event>
 7    1  0.4102844E-008  0.4614232E+02  0.7816164E-02  0.1320468E+00
        -11   -1    0    0    0    0  0.00000000000E+00  0.00000000000E+00  0.45593999997E+02  0.45594000000E+02  0.51100000000E-03 0. -1.
         11   -1    0    0    0    0 -0.00000000000E+00 -0.00000000000E+00 -0.45593999997E+02  0.45594000000E+02  0.51100000000E-03 0.  1.
    9900012    2    1    2    0    0 -0.29250574466E+02 -0.64031942728E+01  0.33652881673E+02  0.46142318205E+02  0.10000004051E+02 0.  0.
        -12    1    1    2    0    0  0.29250574466E+02  0.64031942728E+01 -0.33652881673E+02  0.45045681795E+02  0.00000000000E+00 0.  1.
         11    1    3    3    0    0 -0.10322863361E+02 -0.66389571070E+01  0.12437786235E+02  0.17473860081E+02  0.51100000000E-03 0.  1.
        -11    1    3    3    0    0 -0.54252160065E+01  0.83568996371E+00  0.40537429374E+01  0.68237950216E+01  0.51100000000E-03 0. -1.
        -12    1    3    3    0    0 -0.13502495099E+02 -0.59992712949E+00  0.17161352500E+02  0.21844663103E+02  0.00000000000E+00 0.  1.
</event>
<event>
 7    1  0.4102844E-008  0.4614232E+02  0.7816164E-02  0.1320468E+00
        -11   -1    0    0    0    0  0.00000000000E+00  0.00000000000E+00  0.45593999997E+02  0.45594000000E+02  0.51100000000E-03 0. -1.
         11   -1    0    0    0    0 -0.00000000000E+00 -0.00000000000E+00 -0.45593999997E+02  0.45594000000E+02  0.51100000000E-03 0.  1.
    9900012    2    1    2    0    0 -0.38487054936E+02 -0.18987392201E+02 -0.13687192431E+02  0.46142315447E+02  0.99999788936E+01 0.  0.
        -12    1    1    2    0    0  0.38487054936E+02  0.18987392201E+02  0.13687192431E+02  0.45045684553E+02  0.00000000000E+00 0.  1.
         11    1    3    3    0    0 -0.11229676616E+02 -0.20391195081E+01 -0.32199127554E+01  0.11858814598E+02  0.51100000000E-03 0. -1.
        -11    1    3    3    0    0 -0.38067431194E+01 -0.40679183162E+01 -0.36929389772E+01  0.66840894036E+01  0.51100000000E-03 0.  1.
         12    1    3    3    0    0 -0.23450635201E+02 -0.12880354377E+02 -0.67743406984E+01  0.27599411445E+02  0.00000000000E+00 0. -1.
</event>
<event>
 7    1  0.4102844E-008  0.4614232E+02  0.7816164E-02  0.1320468E+00
        -11   -1    0    0    0    0  0.00000000000E+00  0.00000000000E+00  0.45593999997E+02  0.45594000000E+02  0.51100000000E-03 0.  1.
         11   -1    0    0    0    0 -0.00000000000E+00 -0.00000000000E+00 -0.45593999997E+02  0.45594000000E+02  0.51100000000E-03 0. -1.
    9900012    2    1    2    0    0  0.13155839227E+01 -0.27473978667E+02 -0.35673003848E+02  0.46142317983E+02  0.10000002024E+02 0.  0.
        -12    1    1    2    0    0 -0.13155839227E+01  0.27473978667E+02  0.35673003848E+02  0.45045682017E+02  0.00000000000E+00 0.  1.
         11    1    3    3    0    0  0.14723979792E+01 -0.24087736881E+01 -0.66477932707E+01  0.72224166399E+01  0.51100000000E-03 0. -1.
        -11    1    3    3    0    0 -0.15680904338E+01 -0.74309604675E+01 -0.12970259693E+02  0.15030160273E+02  0.51100000000E-03 0.  1.
         12    1    3    3    0    0  0.14112763774E+01 -0.17634244511E+02 -0.16054950884E+02  0.23889741070E+02  0.00000000000E+00 0. -1.
</event>
<event>
 7    1  0.4102844E-008  0.4614232E+02  0.7816164E-02  0.1320468E+00
        -11   -1    0    0    0    0  0.00000000000E+00  0.00000000000E+00  0.45593999997E+02  0.45594000000E+02  0.51100000000E-03 0.  1.
         11   -1    0    0    0    0 -0.00000000000E+00 -0.00000000000E+00 -0.45593999997E+02  0.45594000000E+02  0.51100000000E-03 0. -1.
    9900012    2    1    2    0    0 -0.16116588610E+02  0.11160292865E+02 -0.40556341134E+02  0.46142319059E+02  0.10000011834E+02 0.  0.
        -12    1    1    2    0    0  0.16116588610E+02 -0.11160292865E+02  0.40556341134E+02  0.45045680941E+02  0.00000000000E+00 0.  1.
         11    1    3    3    0    0 -0.34487029208E+01  0.48213705700E+00 -0.71649441981E+01  0.79663312510E+01  0.51100000000E-03 0. -1.
        -11    1    3    3    0    0 -0.19939904863E+01 -0.13473500509E+01 -0.49509971670E+01  0.55048817815E+01  0.51100000000E-03 0.  1.
         12    1    3    3    0    0 -0.10673895203E+02  0.12025505859E+02 -0.28440399769E+02  0.32671106026E+02  0.00000000000E+00 0. -1.
</event>
<event>
 7    1  0.4102844E-008  0.4614232E+02  0.7816164E-02  0.1320468E+00
        -11   -1    0    0    0    0  0.00000000000E+00  0.00000000000E+00  0.45593999997E+02  0.45594000000E+02  0.51100000000E-03 0.  1.
         11   -1    0    0    0    0 -0.00000000000E+00 -0.00000000000E+00 -0.45593999997E+02  0.45594000000E+02  0.51100000000E-03 0. -1.
    9900012    2    1    2    0    0 -0.21078978215E+02  0.13463203938E+02 -0.37463746438E+02  0.46142317854E+02  0.10000000844E+02 0.  0.
        -12    1    1    2    0    0  0.21078978215E+02 -0.13463203938E+02  0.37463746438E+02  0.45045682146E+02  0.00000000000E+00 0.  1.
         11    1    3    3    0    0 -0.79975298201E+01  0.51904953963E+01 -0.16904080424E+02  0.19407464051E+02  0.51100000000E-03 0. -1.
        -11    1    3    3    0    0 -0.12613944702E+02  0.92933529181E+01 -0.17568556207E+02  0.23540012253E+02  0.51100000000E-03 0.  1.
         12    1    3    3    0    0 -0.46750369233E+00 -0.10206443760E+01 -0.29911098071E+01  0.31948415489E+01  0.00000000000E+00 0. -1.
</event>
<event>
 7    1  0.4102844E-008  0.4614232E+02  0.7816164E-02  0.1320468E+00
        -11   -1    0    0    0    0  0.00000000000E+00  0.00000000000E+00  0.45593999997E+02  0.45594000000E+02  0.51100000000E-03 0.  1.
         11   -1    0    0    0    0 -0.00000000000E+00 -0.00000000000E+00 -0.45593999997E+02  0.45594000000E+02  0.51100000000E-03 0. -1.
    9900012    2    1    2    0    0 -0.14601281485E+02 -0.20825602527E+02 -0.37178090069E+02  0.46142317379E+02  0.99999965163E+01 0.  0.
        -12    1    1    2    0    0  0.14601281485E+02  0.20825602527E+02  0.37178090069E+02  0.45045682621E+02  0.00000000000E+00 0.  1.
         11    1    3    3    0    0 -0.94672973946E+01 -0.19197544787E+02 -0.29177460428E+02  0.36187009314E+02  0.51100000000E-03 0. -1.
        -11    1    3    3    0    0 -0.22015059445E+01 -0.90125448202E+00 -0.56402208820E+01  0.61213544191E+01  0.51100000000E-03 0.  1.
        -12    1    3    3    0    0 -0.29324781457E+01 -0.72680325820E+00 -0.23604087592E+01  0.38339536462E+01  0.00000000000E+00 0.  1.
</event>
<event>
 7    1  0.4102844E-008  0.4614232E+02  0.7816164E-02  0.1320468E+00
        -11   -1    0    0    0    0  0.00000000000E+00  0.00000000000E+00  0.45593999997E+02  0.45594000000E+02  0.51100000000E-03 0.  1.
         11   -1    0    0    0    0 -0.00000000000E+00 -0.00000000000E+00 -0.45593999997E+02  0.45594000000E+02  0.51100000000E-03 0. -1.
    9900012    2    1    2    0    0 -0.31050244963E+02  0.31300532122E+02 -0.92343135220E+01  0.46142316859E+02  0.99999917733E+01 0.  0.
        -12    1    1    2    0    0  0.31050244963E+02 -0.31300532122E+02  0.92343135220E+01  0.45045683141E+02  0.00000000000E+00 0.  1.
         11    1    3    3    0    0 -0.69651391476E+01  0.56707068999E+01 -0.40770379303E+01  0.98636868683E+01  0.51100000000E-03 0. -1.
        -11    1    3    3    0    0 -0.99612043005E+01  0.10603338706E+02  0.14579188027E+01  0.14621282786E+02  0.51100000000E-03 0.  1.
        -12    1    3    3    0    0 -0.14123901515E+02  0.15026486517E+02 -0.66151943943E+01  0.21657347204E+02  0.00000000000E+00 0.  1.
</event>
<event>
 7    1  0.4102844E-008  0.4614232E+02  0.7816164E-02  0.1320468E+00
        -11   -1    0    0    0    0  0.00000000000E+00  0.00000000000E+00  0.45593999997E+02  0.45594000000E+02  0.51100000000E-03 0. -1.
         11   -1    0    0    0    0 -0.00000000000E+00 -0.00000000000E+00 -0.45593999997E+02  0.45594000000E+02  0.51100000000E-03 0.  1.
    9900012    2    1    2    0    0  0.22158006295E+02  0.26968254970E+01  0.39126248906E+02  0.46142318030E+02  0.10000002451E+02 0.  0.
        -12    1    1    2    0    0 -0.22158006295E+02 -0.26968254970E+01 -0.39126248906E+02  0.45045681970E+02  0.00000000000E+00 0.  1.
         11    1    3    3    0    0  0.44660121099E+01 -0.12716806961E+01  0.12010925077E+02  0.12877296200E+02  0.51100000000E-03 0. -1.
        -11    1    3    3    0    0  0.10986205346E+02  0.40777805482E+01  0.21631539056E+02  0.24601798396E+02  0.51100000000E-03 0.  1.
         12    1    3    3    0    0  0.67057888391E+01 -0.10927435506E+00  0.54837847723E+01  0.86632234341E+01  0.00000000000E+00 0. -1.
</event>
