<event>
 7    1  0.2756432E-009  0.4778727E+02  0.7816164E-02  0.1312668E+00
        -11   -1    0    0    0    0  0.00000000000E+00  0.00000000000E+00  0.45593999997E+02  0.45594000000E+02  0.51100000000E-03 0. -1.
         11   -1    0    0    0    0 -0.00000000000E+00 -0.00000000000E+00 -0.45593999997E+02  0.45594000000E+02  0.51100000000E-03 0.  1.
    9900012    2    1    2    0    0 -0.18084237030E+01 -0.24658655071E+02  0.35669366146E+02  0.47787270197E+02  0.19999996137E+02 0.  0.
        -12    1    1    2    0    0  0.18084237030E+01  0.24658655071E+02 -0.35669366146E+02  0.43400729803E+02  0.00000000000E+00 0.  1.
         11    1    3    3    0    0 -0.47732698231E+00 -0.12995751086E+02  0.25712403539E+02  0.28813973752E+02  0.51100000000E-03 0. -1.
        -11    1    3    3    0    0 -0.55197277071E+01 -0.25511058298E+01  0.31056493858E+01  0.68279274516E+01  0.51100000000E-03 0.  1.
        -12    1    3    3    0    0  0.41886309864E+01 -0.91117981547E+01  0.68513132205E+01  0.12145368994E+02  0.00000000000E+00 0.  1.
</event>
<event>
 7    1  0.2756432E-009  0.4778727E+02  0.7816164E-02  0.1312668E+00
        -11   -1    0    0    0    0  0.00000000000E+00  0.00000000000E+00  0.45593999997E+02  0.45594000000E+02  0.51100000000E-03 0.  1.
         11   -1    0    0    0    0 -0.00000000000E+00 -0.00000000000E+00 -0.45593999997E+02  0.45594000000E+02  0.51100000000E-03 0. -1.
    9900012    2    1    2    0    0  0.90742392835E+01 -0.74146849129E+01 -0.41788803192E+02  0.47787269094E+02  0.19999991108E+02 0.  0.
        -12    1    1    2    0    0 -0.90742392835E+01  0.74146849129E+01  0.41788803192E+02  0.43400730906E+02  0.00000000000E+00 0.  1.
         11    1    3    3    0    0 -0.40048397208E+01  0.25951365422E+01 -0.12054614429E+02  0.12964844934E+02  0.51100000000E-03 0. -1.
        -11    1    3    3    0    0  0.22113845282E+01  0.20148797473E+00 -0.90793445998E+01  0.93469416153E+01  0.51100000000E-03 0.  1.
         12    1    3    3    0    0  0.10867694476E+02 -0.10211309430E+02 -0.20654844163E+02  0.25475482545E+02  0.00000000000E+00 0. -1.
</event>
<event>
 7    1  0.2756432E-009  0.4778728E+02  0.7816164E-02  0.1312668E+00
        -11   -1    0    0    0    0  0.00000000000E+00  0.00000000000E+00  0.45593999997E+02  0.45594000000E+02  0.51100000000E-03 0. -1.
         11   -1    0    0    0    0 -0.00000000000E+00 -0.00000000000E+00 -0.45593999997E+02  0.45594000000E+02  0.51100000000E-03 0.  1.
    9900012    2    1    2    0    0  0.35902417048E+02 -0.19614138099E+02  0.14488775675E+02  0.47787278994E+02  0.20000036246E+02 0.  0.
        -12    1    1    2    0    0 -0.35902417048E+02  0.19614138099E+02 -0.14488775675E+02  0.43400721006E+02  0.00000000000E+00 0.  1.
         11    1    3    3    0    0  0.12893218432E+01 -0.25336383343E+01  0.35499237953E+01  0.45479262568E+01  0.51100000000E-03 0. -1.
        -11    1    3    3    0    0  0.53530858640E+00 -0.38103851608E+01 -0.21372639177E+01  0.44015324231E+01  0.51100000000E-03 0.  1.
        -12    1    3    3    0    0  0.34077786618E+02 -0.13270114604E+02  0.13076115798E+02  0.38837820314E+02  0.00000000000E+00 0.  1.
</event>
<event>
 7    1  0.2756432E-009  0.4778731E+02  0.7816164E-02  0.1312668E+00
        -11   -1    0    0    0    0  0.00000000000E+00  0.00000000000E+00  0.45593999997E+02  0.45594000000E+02  0.51100000000E-03 0. -1.
         11   -1    0    0    0    0 -0.00000000000E+00 -0.00000000000E+00 -0.45593999997E+02  0.45594000000E+02  0.51100000000E-03 0.  1.
    9900012    2    1    2    0    0  0.47011785966E+01 -0.36950746111E+02  0.22274681008E+02  0.47787307237E+02  0.20000165014E+02 0.  0.
        -12    1    1    2    0    0 -0.47011785966E+01  0.36950746111E+02 -0.22274681008E+02  0.43400692763E+02  0.00000000000E+00 0.  1.
         11    1    3    3    0    0  0.59562650559E+01 -0.34449152073E+02  0.22045703238E+02  0.41330790018E+02  0.51100000000E-03 0. -1.
        -11    1    3    3    0    0  0.14079080206E+01 -0.30258949216E+01  0.12398485709E+01  0.35602626042E+01  0.51100000000E-03 0.  1.
         12    1    3    3    0    0 -0.26629944798E+01  0.52430088349E+00 -0.10108708015E+01  0.28962546147E+01  0.00000000000E+00 0. -1.
</event>
<event>
 7    1  0.2756432E-009  0.4778728E+02  0.7816164E-02  0.1312668E+00
        -11   -1    0    0    0    0  0.00000000000E+00  0.00000000000E+00  0.45593999997E+02  0.45594000000E+02  0.51100000000E-03 0.  1.
         11   -1    0    0    0    0 -0.00000000000E+00 -0.00000000000E+00 -0.45593999997E+02  0.45594000000E+02  0.51100000000E-03 0. -1.
    9900012    2    1    2    0    0  0.40049721051E+02  0.15610947186E+02 -0.59950175819E+01  0.47787284982E+02  0.20000063546E+02 0.  0.
        -12    1    1    2    0    0 -0.40049721051E+02 -0.15610947186E+02  0.59950175819E+01  0.43400715018E+02  0.00000000000E+00 0.  1.
         11    1    3    3    0    0  0.22750293124E+02  0.36068360109E+00 -0.26015458085E+01  0.22901396698E+02  0.51100000000E-03 0. -1.
        -11    1    3    3    0    0  0.10214040958E+02  0.13416941508E+02 -0.45758989389E+01  0.17472258111E+02  0.51100000000E-03 0.  1.
         12    1    3    3    0    0  0.70853869690E+01  0.18333220765E+01  0.11824271655E+01  0.74136301728E+01  0.00000000000E+00 0. -1.
</event>
<event>
 7    1  0.2756432E-009  0.4778728E+02  0.7816164E-02  0.1312668E+00
        -11   -1    0    0    0    0  0.00000000000E+00  0.00000000000E+00  0.45593999997E+02  0.45594000000E+02  0.51100000000E-03 0.  1.
         11   -1    0    0    0    0 -0.00000000000E+00 -0.00000000000E+00 -0.45593999997E+02  0.45594000000E+02  0.51100000000E-03 0. -1.
    9900012    2    1    2    0    0  0.78669274831E+01  0.33299611372E+02 -0.26699626092E+02  0.47787277667E+02  0.20000030194E+02 0.  0.
        -12    1    1    2    0    0 -0.78669274831E+01 -0.33299611372E+02  0.26699626092E+02  0.43400722333E+02  0.00000000000E+00 0.  1.
         11    1    3    3    0    0  0.92152166473E+01  0.29544071046E+02 -0.16248237976E+02  0.34953935250E+02  0.51100000000E-03 0. -1.
        -11    1    3    3    0    0 -0.35513132918E+01  0.66165031152E+00 -0.44587435461E+01  0.57384668250E+01  0.51100000000E-03 0.  1.
         12    1    3    3    0    0  0.22030241276E+01  0.30938900145E+01 -0.59926445695E+01  0.70948755920E+01  0.00000000000E+00 0. -1.
</event>
<event>
 7    1  0.2756432E-009  0.4778727E+02  0.7816164E-02  0.1312668E+00
        -11   -1    0    0    0    0  0.00000000000E+00  0.00000000000E+00  0.45593999997E+02  0.45594000000E+02  0.51100000000E-03 0.  1.
         11   -1    0    0    0    0 -0.00000000000E+00 -0.00000000000E+00 -0.45593999997E+02  0.45594000000E+02  0.51100000000E-03 0. -1.
    9900012    2    1    2    0    0 -0.18740425175E+02  0.27942694617E+01 -0.39046274895E+02  0.47787273500E+02  0.20000011196E+02 0.  0.
        -12    1    1    2    0    0  0.18740425175E+02 -0.27942694617E+01  0.39046274895E+02  0.43400726500E+02  0.00000000000E+00 0.  1.
         11    1    3    3    0    0 -0.27938756075E+01  0.62529268566E+01 -0.43426972163E+01  0.81094916338E+01  0.51100000000E-03 0. -1.
        -11    1    3    3    0    0 -0.42313840625E+00  0.12661390799E+00 -0.11628725405E+02  0.11637110123E+02  0.51100000000E-03 0.  1.
         12    1    3    3    0    0 -0.15523411161E+02 -0.35852713030E+01 -0.23074852273E+02  0.28040671744E+02  0.00000000000E+00 0. -1.
</event>
<event>
 7    1  0.2756432E-009  0.4778727E+02  0.7816164E-02  0.1312668E+00
        -11   -1    0    0    0    0  0.00000000000E+00  0.00000000000E+00  0.45593999997E+02  0.45594000000E+02  0.51100000000E-03 0.  1.
         11   -1    0    0    0    0 -0.00000000000E+00 -0.00000000000E+00 -0.45593999997E+02  0.45594000000E+02  0.51100000000E-03 0. -1.
    9900012    2    1    2    0    0  0.41726803189E+01 -0.37985836487E+02 -0.20573966267E+02  0.47787272787E+02  0.20000007945E+02 0.  0.
        -12    1    1    2    0    0 -0.41726803189E+01  0.37985836487E+02  0.20573966267E+02  0.43400727213E+02  0.00000000000E+00 0.  1.
         11    1    3    3    0    0  0.91993650613E+01 -0.91905558833E+01 -0.24868264505E+01  0.13239295337E+02  0.51100000000E-03 0. -1.
        -11    1    3    3    0    0 -0.14663858804E+01 -0.14634200398E+02 -0.10670715641E+02  0.18170698429E+02  0.51100000000E-03 0.  1.
         12    1    3    3    0    0 -0.35602988619E+01 -0.14161080205E+02 -0.74164241758E+01  0.16377279021E+02  0.00000000000E+00 0. -1.
</event>
<event>
 7    1  0.2756432E-009  0.4778727E+02  0.7816164E-02  0.1312668E+00
        -11   -1    0    0    0    0  0.00000000000E+00  0.00000000000E+00  0.45593999997E+02  0.45594000000E+02  0.51100000000E-03 0. -1.
         11   -1    0    0    0    0 -0.00000000000E+00 -0.00000000000E+00 -0.45593999997E+02  0.45594000000E+02  0.51100000000E-03 0.  1.
    9900012    2    1    2    0    0  0.36112135301E+02  0.17213994068E+02  0.16828999105E+02  0.47787272833E+02  0.20000008154E+02 0.  0.
        -12    1    1    2    0    0 -0.36112135301E+02 -0.17213994068E+02 -0.16828999105E+02  0.43400727167E+02  0.00000000000E+00 0.  1.
         11    1    3    3    0    0  0.22988107719E+02  0.11506124315E+02  0.47222963719E+01  0.26137025013E+02  0.51100000000E-03 0. -1.
        -11    1    3    3    0    0  0.17377992494E+01  0.61171200430E+01  0.59057140514E+01  0.86785115411E+01  0.51100000000E-03 0.  1.
         12    1    3    3    0    0  0.11386228333E+02 -0.40925029050E+00  0.62009886815E+01  0.12971736278E+02  0.00000000000E+00 0. -1.
</event>
<event>
 7    1  0.2756432E-009  0.4778727E+02  0.7816164E-02  0.1312668E+00
        -11   -1    0    0    0    0  0.00000000000E+00  0.00000000000E+00  0.45593999997E+02  0.45594000000E+02  0.51100000000E-03 0.  1.
         11   -1    0    0    0    0 -0.00000000000E+00 -0.00000000000E+00 -0.45593999997E+02  0.45594000000E+02  0.51100000000E-03 0. -1.
    9900012    2    1    2    0    0  0.40896285024E+02  0.13301714646E+02 -0.58464920077E+01  0.47787271779E+02  0.20000003350E+02 0.  0.
        -12    1    1    2    0    0 -0.40896285024E+02 -0.13301714646E+02  0.58464920077E+01  0.43400728221E+02  0.00000000000E+00 0.  1.
         11    1    3    3    0    0  0.34959470305E+01  0.69946463037E+00 -0.63345102305E+00  0.36210712322E+01  0.51100000000E-03 0. -1.
        -11    1    3    3    0    0  0.72974423344E+01  0.45292156771E+01 -0.93847380907E+01  0.12721626019E+02  0.51100000000E-03 0.  1.
        -12    1    3    3    0    0  0.30102895659E+02  0.80730343386E+01  0.41716971060E+01  0.31444574528E+02  0.00000000000E+00 0.  1.
</event>
<event>
 7    1  0.2756432E-009  0.4778727E+02  0.7816164E-02  0.1312668E+00
        -11   -1    0    0    0    0  0.00000000000E+00  0.00000000000E+00  0.45593999997E+02  0.45594000000E+02  0.51100000000E-03 0.  1.
         11   -1    0    0    0    0 -0.00000000000E+00 -0.00000000000E+00 -0.45593999997E+02  0.45594000000E+02  0.51100000000E-03 0. -1.
    9900012    2    1    2    0    0 -0.60838064159E+01 -0.37183605833E+02  0.21540421957E+02  0.47787273954E+02  0.20000013267E+02 0.  0.
        -12    1    1    2    0    0  0.60838064159E+01  0.37183605833E+02 -0.21540421957E+02  0.43400726046E+02  0.00000000000E+00 0.  1.
         11    1    3    3    0    0  0.39126602961E+01 -0.51527333436E+01  0.77487892586E+01  0.10094716774E+02  0.51100000000E-03 0.  1.
        -11    1    3    3    0    0 -0.62403726402E+01 -0.21616565784E+02  0.38767740172E+01  0.22830846328E+02  0.51100000000E-03 0. -1.
         12    1    3    3    0    0 -0.37560940719E+01 -0.10414306705E+02  0.99148586808E+01  0.14861710853E+02  0.00000000000E+00 0. -1.
</event>
<event>
 7    1  0.2756432E-009  0.4778727E+02  0.7816164E-02  0.1312668E+00
        -11   -1    0    0    0    0  0.00000000000E+00  0.00000000000E+00  0.45593999997E+02  0.45594000000E+02  0.51100000000E-03 0.  1.
         11   -1    0    0    0    0 -0.00000000000E+00 -0.00000000000E+00 -0.45593999997E+02  0.45594000000E+02  0.51100000000E-03 0. -1.
    9900012    2    1    2    0    0 -0.74972745452E+01 -0.17116439355E+02 -0.39171950829E+02  0.47787270126E+02  0.19999995814E+02 0.  0.
        -12    1    1    2    0    0  0.74972745452E+01  0.17116439355E+02  0.39171950829E+02  0.43400729874E+02  0.00000000000E+00 0.  1.
         11    1    3    3    0    0 -0.28946300150E+01 -0.83526643454E+01 -0.29015350338E+02  0.30332102467E+02  0.51100000000E-03 0. -1.
        -11    1    3    3    0    0 -0.60594314800E+01 -0.80018383158E+01 -0.35491255767E+01  0.10646239661E+02  0.51100000000E-03 0.  1.
         12    1    3    3    0    0  0.14567869498E+01 -0.76193669383E+00 -0.66074749145E+01  0.68089279985E+01  0.00000000000E+00 0. -1.
</event>
<event>
 7    1  0.2756432E-009  0.4778727E+02  0.7816164E-02  0.1312668E+00
        -11   -1    0    0    0    0  0.00000000000E+00  0.00000000000E+00  0.45593999997E+02  0.45594000000E+02  0.51100000000E-03 0. -1.
         11   -1    0    0    0    0 -0.00000000000E+00 -0.00000000000E+00 -0.45593999997E+02  0.45594000000E+02  0.51100000000E-03 0.  1.
    9900012    2    1    2    0    0  0.19288437155E+02  0.38798921884E+02  0.24946218217E+01  0.47787270913E+02  0.19999999401E+02 0.  0.
        -12    1    1    2    0    0 -0.19288437155E+02 -0.38798921884E+02 -0.24946218217E+01  0.43400729087E+02  0.00000000000E+00 0.  1.
         11    1    3    3    0    0  0.18683052571E+02  0.32931273286E+02  0.69780466249E+01  0.38499588940E+02  0.51100000000E-03 0. -1.
        -11    1    3    3    0    0 -0.61868404430E+00  0.63187066392E+01 -0.47832907420E+01  0.79491316583E+01  0.51100000000E-03 0.  1.
         12    1    3    3    0    0  0.12240686283E+01 -0.45105804109E+00  0.29986593877E+00  0.13385503145E+01  0.00000000000E+00 0. -1.
</event>
<event>
 7    1  0.2756432E-009  0.4778728E+02  0.7816164E-02  0.1312668E+00
        -11   -1    0    0    0    0  0.00000000000E+00  0.00000000000E+00  0.45593999997E+02  0.45594000000E+02  0.51100000000E-03 0.  1.
         11   -1    0    0    0    0 -0.00000000000E+00 -0.00000000000E+00 -0.45593999997E+02  0.45594000000E+02  0.51100000000E-03 0. -1.
    9900012    2    1    2    0    0 -0.41018661189E+01  0.26087023455E+02 -0.34442191110E+02  0.47787278498E+02  0.20000033983E+02 0.  0.
        -12    1    1    2    0    0  0.41018661189E+01 -0.26087023455E+02  0.34442191110E+02  0.43400721502E+02  0.00000000000E+00 0.  1.
         11    1    3    3    0    0  0.49224255683E+01  0.10382142545E+02 -0.66339043341E+01  0.13267548540E+02  0.51100000000E-03 0.  1.
        -11    1    3    3    0    0  0.14986207747E+01  0.57386062390E+01 -0.89141937603E+01  0.10707021829E+02  0.51100000000E-03 0. -1.
         12    1    3    3    0    0 -0.10522912462E+02  0.99662746717E+01 -0.18894093016E+02  0.23812708128E+02  0.00000000000E+00 0. -1.
</event>
<event>
 7    1  0.2756432E-009  0.4778727E+02  0.7816164E-02  0.1312668E+00
        -11   -1    0    0    0    0  0.00000000000E+00  0.00000000000E+00  0.45593999997E+02  0.45594000000E+02  0.51100000000E-03 0.  1.
         11   -1    0    0    0    0 -0.00000000000E+00 -0.00000000000E+00 -0.45593999997E+02  0.45594000000E+02  0.51100000000E-03 0. -1.
    9900012    2    1    2    0    0 -0.11741464381E+02 -0.38459956165E+02 -0.16327672024E+02  0.47787273189E+02  0.20000009779E+02 0.  0.
        -12    1    1    2    0    0  0.11741464381E+02  0.38459956165E+02  0.16327672024E+02  0.43400726811E+02  0.00000000000E+00 0.  1.
         11    1    3    3    0    0 -0.74043083945E+01 -0.16298507407E+02 -0.13335535275E+02  0.22322670714E+02  0.51100000000E-03 0. -1.
        -11    1    3    3    0    0 -0.52828701625E+01 -0.92099155570E+01  0.31841082526E+01  0.11084665414E+02  0.51100000000E-03 0.  1.
        -12    1    3    3    0    0  0.94571417630E+00 -0.12951533201E+02 -0.61762450013E+01  0.14379937061E+02  0.00000000000E+00 0.  1.
</event>
<event>
 7    1  0.2756432E-009  0.4778727E+02  0.7816164E-02  0.1312668E+00
        -11   -1    0    0    0    0  0.00000000000E+00  0.00000000000E+00  0.45593999997E+02  0.45594000000E+02  0.51100000000E-03 0.  1.
         11   -1    0    0    0    0 -0.00000000000E+00 -0.00000000000E+00 -0.45593999997E+02  0.45594000000E+02  0.51100000000E-03 0. -1.
    9900012    2    1    2    0    0  0.39143902454E+02  0.13026299168E+02 -0.13479381333E+02  0.47787270853E+02  0.19999999128E+02 0.  0.
        -12    1    1    2    0    0 -0.39143902454E+02 -0.13026299168E+02  0.13479381333E+02  0.43400729147E+02  0.00000000000E+00 0.  1.
         11    1    3    3    0    0  0.26390525079E+02  0.12538056970E+02 -0.52683104954E+01  0.29688681046E+02  0.51100000000E-03 0. -1.
        -11    1    3    3    0    0  0.18759226750E+01 -0.25182312926E+01  0.12423722798E+01  0.33769903566E+01  0.51100000000E-03 0.  1.
         12    1    3    3    0    0  0.10877454700E+02  0.30064734913E+01 -0.94534431170E+01  0.14721599450E+02  0.00000000000E+00 0. -1.
</event>
<event>
 7    1  0.2756432E-009  0.4778727E+02  0.7816164E-02  0.1312668E+00
        -11   -1    0    0    0    0  0.00000000000E+00  0.00000000000E+00  0.45593999997E+02  0.45594000000E+02  0.51100000000E-03 0.  1.
         11   -1    0    0    0    0 -0.00000000000E+00 -0.00000000000E+00 -0.45593999997E+02  0.45594000000E+02  0.51100000000E-03 0. -1.
    9900012    2    1    2    0    0  0.58779867646E+00  0.32640755366E+02 -0.28598230397E+02  0.47787271896E+02  0.20000003884E+02 0.  0.
        -12    1    1    2    0    0 -0.58779867646E+00 -0.32640755366E+02  0.28598230397E+02  0.43400728104E+02  0.00000000000E+00 0.  1.
         11    1    3    3    0    0 -0.42796234907E+01  0.26654080611E+02 -0.12185789951E+02  0.29618383944E+02  0.51100000000E-03 0. -1.
        -11    1    3    3    0    0  0.22103337364E+01  0.30823090130E+01 -0.68923505585E+01  0.78670642911E+01  0.51100000000E-03 0.  1.
         12    1    3    3    0    0  0.26570884308E+01  0.29043657416E+01 -0.95200898874E+01  0.10301823662E+02  0.00000000000E+00 0. -1.
</event>
<event>
 7    1  0.2756432E-009  0.4778727E+02  0.7816164E-02  0.1312668E+00
        -11   -1    0    0    0    0  0.00000000000E+00  0.00000000000E+00  0.45593999997E+02  0.45594000000E+02  0.51100000000E-03 0.  1.
         11   -1    0    0    0    0 -0.00000000000E+00 -0.00000000000E+00 -0.45593999997E+02  0.45594000000E+02  0.51100000000E-03 0. -1.
    9900012    2    1    2    0    0  0.33206407891E+02 -0.15791713139E+02 -0.23056009460E+02  0.47787270731E+02  0.19999998571E+02 0.  0.
        -12    1    1    2    0    0 -0.33206407891E+02  0.15791713139E+02  0.23056009460E+02  0.43400729269E+02  0.00000000000E+00 0.  1.
         11    1    3    3    0    0  0.30074021883E+01 -0.35258264781E+01 -0.39645501048E+00  0.46511393349E+01  0.51100000000E-03 0. -1.
        -11    1    3    3    0    0  0.55684535034E+00 -0.46192288846E+01 -0.78600090950E+01  0.91338434116E+01  0.51100000000E-03 0.  1.
        -12    1    3    3    0    0  0.29642160352E+02 -0.76466577760E+01 -0.14799545354E+02  0.34002287984E+02  0.00000000000E+00 0.  1.
</event>
<event>
 7    1  0.2756432E-009  0.4778727E+02  0.7816164E-02  0.1312668E+00
        -11   -1    0    0    0    0  0.00000000000E+00  0.00000000000E+00  0.45593999997E+02  0.45594000000E+02  0.51100000000E-03 0.  1.
         11   -1    0    0    0    0 -0.00000000000E+00 -0.00000000000E+00 -0.45593999997E+02  0.45594000000E+02  0.51100000000E-03 0. -1.
    9900012    2    1    2    0    0 -0.69585770675E+01  0.20316924538E+02 -0.37715038725E+02  0.47787270011E+02  0.19999995289E+02 0.  0.
        -12    1    1    2    0    0  0.69585770675E+01 -0.20316924538E+02  0.37715038725E+02  0.43400729989E+02  0.00000000000E+00 0.  1.
         11    1    3    3    0    0 -0.23271139888E+01 -0.12712389783E+01 -0.10559452810E+02  0.10887311512E+02  0.51100000000E-03 0. -1.
        -11    1    3    3    0    0 -0.54709960592E+01  0.18614093122E+02 -0.15474059465E+02  0.24816582706E+02  0.51100000000E-03 0.  1.
        -12    1    3    3    0    0  0.83953298048E+00  0.29740703952E+01 -0.11681526450E+02  0.12083375792E+02  0.00000000000E+00 0.  1.
</event>
<event>
 7    1  0.2756432E-009  0.4778727E+02  0.7816164E-02  0.1312668E+00
        -11   -1    0    0    0    0  0.00000000000E+00  0.00000000000E+00  0.45593999997E+02  0.45594000000E+02  0.51100000000E-03 0.  1.
         11   -1    0    0    0    0 -0.00000000000E+00 -0.00000000000E+00 -0.45593999997E+02  0.45594000000E+02  0.51100000000E-03 0. -1.
    9900012    2    1    2    0    0 -0.24105395749E+02 -0.72003481183E+01 -0.35365358269E+02  0.47787266334E+02  0.19999978525E+02 0.  0.
        -12    1    1    2    0    0  0.24105395749E+02  0.72003481183E+01  0.35365358269E+02  0.43400733666E+02  0.00000000000E+00 0.  1.
         11    1    3    3    0    0 -0.11928014091E+02  0.25481956341E+01 -0.12928348470E+02  0.17773942038E+02  0.51100000000E-03 0. -1.
        -11    1    3    3    0    0 -0.67454987810E+01 -0.91426842668E+01 -0.21705037923E+02  0.24498961221E+02  0.51100000000E-03 0.  1.
        -12    1    3    3    0    0 -0.54318828765E+01 -0.60585948569E+00 -0.73197187616E+00  0.55143630754E+01  0.00000000000E+00 0.  1.
</event>
<event>
 7    1  0.2756432E-009  0.4778727E+02  0.7816164E-02  0.1312668E+00
        -11   -1    0    0    0    0  0.00000000000E+00  0.00000000000E+00  0.45593999997E+02  0.45594000000E+02  0.51100000000E-03 0.  1.
         11   -1    0    0    0    0 -0.00000000000E+00 -0.00000000000E+00 -0.45593999997E+02  0.45594000000E+02  0.51100000000E-03 0. -1.
    9900012    2    1    2    0    0  0.53712591005E+00 -0.15133486121E+02 -0.40673243525E+02  0.47787266766E+02  0.19999980493E+02 0.  0.
        -12    1    1    2    0    0 -0.53712591005E+00  0.15133486121E+02  0.40673243525E+02  0.43400733234E+02  0.00000000000E+00 0.  1.
         11    1    3    3    0    0 -0.77226685466E+01 -0.64901862981E+01 -0.83568028892E+01  0.13099552758E+02  0.51100000000E-03 0. -1.
        -11    1    3    3    0    0  0.47031737852E+01 -0.25410363251E+01 -0.10971518240E+02  0.12204545137E+02  0.51100000000E-03 0.  1.
         12    1    3    3    0    0  0.35566206715E+01 -0.61022634977E+01 -0.21344922396E+02  0.22483168871E+02  0.00000000000E+00 0. -1.
</event>
<event>
 7    1  0.2756432E-009  0.4778727E+02  0.7816164E-02  0.1312668E+00
        -11   -1    0    0    0    0  0.00000000000E+00  0.00000000000E+00  0.45593999997E+02  0.45594000000E+02  0.51100000000E-03 0.  1.
         11   -1    0    0    0    0 -0.00000000000E+00 -0.00000000000E+00 -0.45593999997E+02  0.45594000000E+02  0.51100000000E-03 0. -1.
    9900012    2    1    2    0    0  0.40082724990E+02  0.14706128089E+02 -0.77928314084E+01  0.47787271120E+02  0.20000000343E+02 0.  0.
        -12    1    1    2    0    0 -0.40082724990E+02 -0.14706128089E+02  0.77928314084E+01  0.43400728880E+02  0.00000000000E+00 0.  1.
         11    1    3    3    0    0  0.56076548839E+01  0.51852856565E+01  0.19579004915E+01  0.78845643654E+01  0.51100000000E-03 0.  1.
        -11    1    3    3    0    0  0.34026264983E+02  0.83825565450E+01 -0.54915682880E+01  0.35471274088E+02  0.51100000000E-03 0. -1.
        -12    1    3    3    0    0  0.44880512307E+00  0.11382858878E+01 -0.42591636119E+01  0.44314326661E+01  0.00000000000E+00 0.  1.
</event>
<event>
 7    1  0.2756432E-009  0.4778727E+02  0.7816164E-02  0.1312668E+00
        -11   -1    0    0    0    0  0.00000000000E+00  0.00000000000E+00  0.45593999997E+02  0.45594000000E+02  0.51100000000E-03 0.  1.
         11   -1    0    0    0    0 -0.00000000000E+00 -0.00000000000E+00 -0.45593999997E+02  0.45594000000E+02  0.51100000000E-03 0. -1.
    9900012    2    1    2    0    0  0.34275345297E+02  0.16326945860E+01 -0.26573636085E+02  0.47787272798E+02  0.20000007997E+02 0.  0.
        -12    1    1    2    0    0 -0.34275345297E+02 -0.16326945860E+01  0.26573636085E+02  0.43400727202E+02  0.00000000000E+00 0.  1.
         11    1    3    3    0    0  0.23664345084E+02 -0.53873080566E+00 -0.25525005214E+02  0.34811167038E+02  0.51100000000E-03 0. -1.
        -11    1    3    3    0    0  0.54895906325E+00  0.25352279118E+01 -0.13060040637E+01  0.29042010078E+01  0.51100000000E-03 0.  1.
         12    1    3    3    0    0  0.10062041150E+02 -0.36380252015E+00  0.25737319286E+00  0.10071904752E+02  0.00000000000E+00 0. -1.
</event>
<event>
 7    1  0.2756432E-009  0.4778727E+02  0.7816164E-02  0.1312668E+00
        -11   -1    0    0    0    0  0.00000000000E+00  0.00000000000E+00  0.45593999997E+02  0.45594000000E+02  0.51100000000E-03 0.  1.
         11   -1    0    0    0    0 -0.00000000000E+00 -0.00000000000E+00 -0.45593999997E+02  0.45594000000E+02  0.51100000000E-03 0. -1.
    9900012    2    1    2    0    0 -0.38711707439E+02 -0.19516692721E+02 -0.20312335112E+01  0.47787268471E+02  0.19999988269E+02 0.  0.
        -12    1    1    2    0    0  0.38711707439E+02  0.19516692721E+02  0.20312335112E+01  0.43400731529E+02  0.00000000000E+00 0.  1.
         11    1    3    3    0    0 -0.20983341705E+02 -0.37009760018E+01  0.22749262614E+00  0.21308439775E+02  0.51100000000E-03 0. -1.
        -11    1    3    3    0    0 -0.42492852487E+01 -0.88048975365E+01  0.32727787811E+01  0.10309884915E+02  0.51100000000E-03 0.  1.
         12    1    3    3    0    0 -0.13479080486E+02 -0.70108191827E+01 -0.55315049184E+01  0.16168943782E+02  0.00000000000E+00 0. -1.
</event>
<event>
 7    1  0.2756432E-009  0.4778727E+02  0.7816164E-02  0.1312668E+00
        -11   -1    0    0    0    0  0.00000000000E+00  0.00000000000E+00  0.45593999997E+02  0.45594000000E+02  0.51100000000E-03 0.  1.
         11   -1    0    0    0    0 -0.00000000000E+00 -0.00000000000E+00 -0.45593999997E+02  0.45594000000E+02  0.51100000000E-03 0. -1.
    9900012    2    1    2    0    0 -0.29968701198E+02 -0.68511527997E+01 -0.30635960377E+02  0.47787269426E+02  0.19999992620E+02 0.  0.
        -12    1    1    2    0    0  0.29968701198E+02  0.68511527997E+01  0.30635960377E+02  0.43400730574E+02  0.00000000000E+00 0.  1.
         11    1    3    3    0    0 -0.15599958749E+02  0.55737356885E+01 -0.14956618022E+02  0.22318729028E+02  0.51100000000E-03 0. -1.
        -11    1    3    3    0    0 -0.88544428840E+01 -0.10356378401E+02 -0.80339159734E+01  0.15817697004E+02  0.51100000000E-03 0.  1.
         12    1    3    3    0    0 -0.55142995642E+01 -0.20685100869E+01 -0.76454263815E+01  0.96508433942E+01  0.00000000000E+00 0. -1.
</event>
<event>
 7    1  0.2756432E-009  0.4778727E+02  0.7816164E-02  0.1312668E+00
        -11   -1    0    0    0    0  0.00000000000E+00  0.00000000000E+00  0.45593999997E+02  0.45594000000E+02  0.51100000000E-03 0. -1.
         11   -1    0    0    0    0 -0.00000000000E+00 -0.00000000000E+00 -0.45593999997E+02  0.45594000000E+02  0.51100000000E-03 0.  1.
    9900012    2    1    2    0    0  0.96915425243E+01 -0.41444468817E+02 -0.84884333248E+01  0.47787268527E+02  0.19999988524E+02 0.  0.
        -12    1    1    2    0    0 -0.96915425243E+01  0.41444468817E+02  0.84884333248E+01  0.43400731473E+02  0.00000000000E+00 0.  1.
         11    1    3    3    0    0  0.10217576553E+02 -0.17121081032E+02  0.34277651599E+00  0.19941107851E+02  0.51100000000E-03 0. -1.
        -11    1    3    3    0    0 -0.47901560673E+01 -0.12790650015E+02 -0.72085387513E+01  0.15443748060E+02  0.51100000000E-03 0.  1.
        -12    1    3    3    0    0  0.42641220385E+01 -0.11532737771E+02 -0.16226710895E+01  0.12402412617E+02  0.00000000000E+00 0.  1.
</event>
<event>
 7    1  0.2756432E-009  0.4778727E+02  0.7816164E-02  0.1312668E+00
        -11   -1    0    0    0    0  0.00000000000E+00  0.00000000000E+00  0.45593999997E+02  0.45594000000E+02  0.51100000000E-03 0. -1.
         11   -1    0    0    0    0 -0.00000000000E+00 -0.00000000000E+00 -0.45593999997E+02  0.45594000000E+02  0.51100000000E-03 0.  1.
    9900012    2    1    2    0    0 -0.27845675148E+02 -0.11015594842E+02  0.31414937848E+02  0.47787271041E+02  0.19999999984E+02 0.  0.
        -12    1    1    2    0    0  0.27845675148E+02  0.11015594842E+02 -0.31414937848E+02  0.43400728959E+02  0.00000000000E+00 0.  1.
         11    1    3    3    0    0 -0.10637624885E+02 -0.11639537464E+02  0.12836201900E+02  0.20332387343E+02  0.51100000000E-03 0. -1.
        -11    1    3    3    0    0 -0.13428709613E+02  0.74172592386E+00  0.19380230205E+02  0.23589695256E+02  0.51100000000E-03 0.  1.
        -12    1    3    3    0    0 -0.37793406496E+01 -0.11778330172E+00 -0.80149425638E+00  0.38651884423E+01  0.00000000000E+00 0.  1.
</event>
<event>
 7    1  0.2756432E-009  0.4778727E+02  0.7816164E-02  0.1312668E+00
        -11   -1    0    0    0    0  0.00000000000E+00  0.00000000000E+00  0.45593999997E+02  0.45594000000E+02  0.51100000000E-03 0. -1.
         11   -1    0    0    0    0 -0.00000000000E+00 -0.00000000000E+00 -0.45593999997E+02  0.45594000000E+02  0.51100000000E-03 0.  1.
    9900012    2    1    2    0    0  0.22659952366E+01  0.42970771717E+02  0.56569733897E+01  0.47787270694E+02  0.19999998402E+02 0.  0.
        -12    1    1    2    0    0 -0.22659952366E+01 -0.42970771717E+02 -0.56569733897E+01  0.43400729306E+02  0.00000000000E+00 0.  1.
         11    1    3    3    0    0  0.83098475278E+01  0.12670722918E+02  0.17408021454E+01  0.15252251558E+02  0.51100000000E-03 0. -1.
        -11    1    3    3    0    0 -0.18023438376E+01  0.97155833473E+01 -0.31351134659E+01  0.10366770943E+02  0.51100000000E-03 0.  1.
         12    1    3    3    0    0 -0.42415084536E+01  0.20584465451E+02  0.70512847102E+01  0.22168248193E+02  0.00000000000E+00 0. -1.
</event>
<event>
 7    1  0.2756432E-009  0.4778725E+02  0.7816164E-02  0.1312668E+00
        -11   -1    0    0    0    0  0.00000000000E+00  0.00000000000E+00  0.45593999997E+02  0.45594000000E+02  0.51100000000E-03 0. -1.
         11   -1    0    0    0    0 -0.00000000000E+00 -0.00000000000E+00 -0.45593999997E+02  0.45594000000E+02  0.51100000000E-03 0.  1.
    9900012    2    1    2    0    0  0.32612364513E+02  0.26947017096E+02  0.96910781080E+01  0.47787250647E+02  0.19999907000E+02 0.  0.
        -12    1    1    2    0    0 -0.32612364513E+02 -0.26947017096E+02 -0.96910781080E+01  0.43400749353E+02  0.00000000000E+00 0.  1.
         11    1    3    3    0    0  0.21874294235E+02  0.15448060102E+02  0.59669369734E+01  0.27435955356E+02  0.51100000000E-03 0. -1.
        -11    1    3    3    0    0 -0.41855697308E+00 -0.15868450334E+01  0.26558224475E+01  0.31219641627E+01  0.51100000000E-03 0.  1.
        -12    1    3    3    0    0  0.11156627252E+02  0.13085802027E+02  0.10683186871E+01  0.17229331129E+02  0.00000000000E+00 0.  1.
</event>
<event>
 7    1  0.2756432E-009  0.4778728E+02  0.7816164E-02  0.1312668E+00
        -11   -1    0    0    0    0  0.00000000000E+00  0.00000000000E+00  0.45593999997E+02  0.45594000000E+02  0.51100000000E-03 0.  1.
         11   -1    0    0    0    0 -0.00000000000E+00 -0.00000000000E+00 -0.45593999997E+02  0.45594000000E+02  0.51100000000E-03 0. -1.
    9900012    2    1    2    0    0  0.26901609669E+01  0.43317142101E+02  0.10392707229E+00  0.47787279192E+02  0.20000037149E+02 0.  0.
        -12    1    1    2    0    0 -0.26901609669E+01 -0.43317142101E+02 -0.10392707229E+00  0.43400720808E+02  0.00000000000E+00 0.  1.
         11    1    3    3    0    0  0.16703634982E+01  0.37259249229E+02  0.24604455488E+01  0.37377741504E+02  0.51100000000E-03 0. -1.
        -11    1    3    3    0    0 -0.24861414718E+01 -0.27723796523E+00  0.62613159228E+00  0.25787208727E+01  0.51100000000E-03 0.  1.
        -12    1    3    3    0    0  0.35059389405E+01  0.63351308367E+01 -0.29826500688E+01  0.78308168160E+01  0.00000000000E+00 0.  1.
</event>
<event>
 7    1  0.2756432E-009  0.4778727E+02  0.7816164E-02  0.1312668E+00
        -11   -1    0    0    0    0  0.00000000000E+00  0.00000000000E+00  0.45593999997E+02  0.45594000000E+02  0.51100000000E-03 0.  1.
         11   -1    0    0    0    0 -0.00000000000E+00 -0.00000000000E+00 -0.45593999997E+02  0.45594000000E+02  0.51100000000E-03 0. -1.
    9900012    2    1    2    0    0  0.31781259992E+02  0.28711876077E+02 -0.70144873193E+01  0.47787270203E+02  0.19999996166E+02 0.  0.
        -12    1    1    2    0    0 -0.31781259992E+02 -0.28711876077E+02  0.70144873193E+01  0.43400729797E+02  0.00000000000E+00 0.  1.
         11    1    3    3    0    0  0.97416817079E+01  0.49293426350E+01  0.26372526981E+01  0.11231824579E+02  0.51100000000E-03 0. -1.
        -11    1    3    3    0    0  0.26326076485E+01 -0.14358673100E+01  0.72466398857E+00  0.30850406999E+01  0.51100000000E-03 0.  1.
         12    1    3    3    0    0  0.19406970635E+02  0.25218400752E+02 -0.10376404006E+02  0.33470404925E+02  0.00000000000E+00 0. -1.
</event>
<event>
 7    1  0.2756432E-009  0.4778727E+02  0.7816164E-02  0.1312668E+00
        -11   -1    0    0    0    0  0.00000000000E+00  0.00000000000E+00  0.45593999997E+02  0.45594000000E+02  0.51100000000E-03 0.  1.
         11   -1    0    0    0    0 -0.00000000000E+00 -0.00000000000E+00 -0.45593999997E+02  0.45594000000E+02  0.51100000000E-03 0. -1.
    9900012    2    1    2    0    0 -0.11115914439E+02  0.37042797842E+00 -0.41951434781E+02  0.47787266701E+02  0.19999980197E+02 0.  0.
        -12    1    1    2    0    0  0.11115914439E+02 -0.37042797842E+00  0.41951434781E+02  0.43400733299E+02  0.00000000000E+00 0.  1.
         11    1    3    3    0    0 -0.11589984502E+02  0.60261895980E+00 -0.14363611450E+02  0.18466299697E+02  0.51100000000E-03 0. -1.
        -11    1    3    3    0    0  0.33404715033E+01 -0.11373883265E+01 -0.25296155305E+02  0.25541101690E+02  0.51100000000E-03 0.  1.
        -12    1    3    3    0    0 -0.28664014402E+01  0.90519734509E+00 -0.22916680269E+01  0.37798653145E+01  0.00000000000E+00 0.  1.
</event>
<event>
 7    1  0.2756432E-009  0.4778727E+02  0.7816164E-02  0.1312668E+00
        -11   -1    0    0    0    0  0.00000000000E+00  0.00000000000E+00  0.45593999997E+02  0.45594000000E+02  0.51100000000E-03 0.  1.
         11   -1    0    0    0    0 -0.00000000000E+00 -0.00000000000E+00 -0.45593999997E+02  0.45594000000E+02  0.51100000000E-03 0. -1.
    9900012    2    1    2    0    0 -0.19237175567E+02  0.34373876514E+02 -0.18220615289E+02  0.47787272680E+02  0.20000007457E+02 0.  0.
        -12    1    1    2    0    0  0.19237175567E+02 -0.34373876514E+02  0.18220615289E+02  0.43400727320E+02  0.00000000000E+00 0.  1.
         11    1    3    3    0    0 -0.12645660329E+02  0.70088880531E+01 -0.25884447709E+01  0.14687997941E+02  0.51100000000E-03 0. -1.
        -11    1    3    3    0    0 -0.63956846778E-01  0.16104276271E+02 -0.96521366191E+01  0.18775397366E+02  0.51100000000E-03 0.  1.
         12    1    3    3    0    0 -0.65275583909E+01  0.11260712190E+02 -0.59800338987E+01  0.14323877373E+02  0.00000000000E+00 0. -1.
</event>
<event>
 7    1  0.2756432E-009  0.4778728E+02  0.7816164E-02  0.1312668E+00
        -11   -1    0    0    0    0  0.00000000000E+00  0.00000000000E+00  0.45593999997E+02  0.45594000000E+02  0.51100000000E-03 0. -1.
         11   -1    0    0    0    0 -0.00000000000E+00 -0.00000000000E+00 -0.45593999997E+02  0.45594000000E+02  0.51100000000E-03 0.  1.
    9900012    2    1    2    0    0 -0.92301669566E+00 -0.24117610182E+02  0.36070926004E+02  0.47787276694E+02  0.20000025756E+02 0.  0.
        -12    1    1    2    0    0  0.92301669566E+00  0.24117610182E+02 -0.36070926004E+02  0.43400723306E+02  0.00000000000E+00 0.  1.
         11    1    3    3    0    0  0.63800021918E+01 -0.17419111790E+02  0.14967499353E+02  0.23836021494E+02  0.51100000000E-03 0. -1.
        -11    1    3    3    0    0 -0.70718464505E+01 -0.50986478888E+01  0.20406752266E+02  0.22191051368E+02  0.51100000000E-03 0.  1.
        -12    1    3    3    0    0 -0.23117243697E+00 -0.15998505032E+01  0.69667438492E+00  0.17602038310E+01  0.00000000000E+00 0.  1.
</event>
<event>
 7    1  0.2756432E-009  0.4778727E+02  0.7816164E-02  0.1312668E+00
        -11   -1    0    0    0    0  0.00000000000E+00  0.00000000000E+00  0.45593999997E+02  0.45594000000E+02  0.51100000000E-03 0.  1.
         11   -1    0    0    0    0 -0.00000000000E+00 -0.00000000000E+00 -0.45593999997E+02  0.45594000000E+02  0.51100000000E-03 0. -1.
    9900012    2    1    2    0    0 -0.18237472292E+02 -0.35813348397E+02 -0.16383581330E+02  0.47787273552E+02  0.20000011434E+02 0.  0.
        -12    1    1    2    0    0  0.18237472292E+02  0.35813348397E+02  0.16383581330E+02  0.43400726448E+02  0.00000000000E+00 0.  1.
         11    1    3    3    0    0 -0.14247195963E+01 -0.21158436037E+02 -0.78101653577E+01  0.22598847861E+02  0.51100000000E-03 0. -1.
        -11    1    3    3    0    0 -0.29847021633E+00 -0.17809035292E+01  0.11086092189E+01  0.21188951157E+01  0.51100000000E-03 0.  1.
         12    1    3    3    0    0 -0.16514282479E+02 -0.12874008831E+02 -0.96820251913E+01  0.23069530575E+02  0.00000000000E+00 0. -1.
</event>
<event>
 7    1  0.2756432E-009  0.4778727E+02  0.7816164E-02  0.1312668E+00
        -11   -1    0    0    0    0  0.00000000000E+00  0.00000000000E+00  0.45593999997E+02  0.45594000000E+02  0.51100000000E-03 0. -1.
         11   -1    0    0    0    0 -0.00000000000E+00 -0.00000000000E+00 -0.45593999997E+02  0.45594000000E+02  0.51100000000E-03 0.  1.
    9900012    2    1    2    0    0  0.99924045646E+01 -0.28557744589E+02  0.31116400074E+02  0.47787270991E+02  0.19999999756E+02 0.  0.
        -12    1    1    2    0    0 -0.99924045646E+01  0.28557744589E+02 -0.31116400074E+02  0.43400729009E+02  0.00000000000E+00 0.  1.
         11    1    3    3    0    0  0.58881110093E+01 -0.78323867441E+01  0.90248405548E+01  0.13321556991E+02  0.51100000000E-03 0. -1.
        -11    1    3    3    0    0  0.29959487820E+01 -0.16783508409E+01  0.12784116957E+02  0.13237304003E+02  0.51100000000E-03 0.  1.
        -12    1    3    3    0    0  0.11083447733E+01 -0.19047007004E+02  0.93074425624E+01  0.21228409997E+02  0.00000000000E+00 0.  1.
</event>
<event>
 7    1  0.2756432E-009  0.4778729E+02  0.7816164E-02  0.1312668E+00
        -11   -1    0    0    0    0  0.00000000000E+00  0.00000000000E+00  0.45593999997E+02  0.45594000000E+02  0.51100000000E-03 0.  1.
         11   -1    0    0    0    0 -0.00000000000E+00 -0.00000000000E+00 -0.45593999997E+02  0.45594000000E+02  0.51100000000E-03 0. -1.
    9900012    2    1    2    0    0 -0.55615665256E+01  0.42952831023E+02 -0.27829645421E+01  0.47787290251E+02  0.20000087570E+02 0.  0.
        -12    1    1    2    0    0  0.55615665256E+01 -0.42952831023E+02  0.27829645421E+01  0.43400709749E+02  0.00000000000E+00 0.  1.
         11    1    3    3    0    0  0.15149243997E+00  0.31825553466E+02 -0.21010707645E+01  0.31895192459E+02  0.51100000000E-03 0. -1.
        -11    1    3    3    0    0 -0.56076885958E+01  0.76425630522E+01  0.38012310750E+01  0.10212947632E+02  0.51100000000E-03 0.  1.
         12    1    3    3    0    0 -0.10537036975E+00  0.34847145047E+01 -0.44831248526E+01  0.56791501598E+01  0.00000000000E+00 0. -1.
</event>
<event>
 7    1  0.2756432E-009  0.4778727E+02  0.7816164E-02  0.1312668E+00
        -11   -1    0    0    0    0  0.00000000000E+00  0.00000000000E+00  0.45593999997E+02  0.45594000000E+02  0.51100000000E-03 0.  1.
         11   -1    0    0    0    0 -0.00000000000E+00 -0.00000000000E+00 -0.45593999997E+02  0.45594000000E+02  0.51100000000E-03 0. -1.
    9900012    2    1    2    0    0  0.23302621211E+02 -0.33658853999E+02 -0.14411547038E+02  0.47787270791E+02  0.19999998845E+02 0.  0.
        -12    1    1    2    0    0 -0.23302621211E+02  0.33658853999E+02  0.14411547038E+02  0.43400729209E+02  0.00000000000E+00 0.  1.
         11    1    3    3    0    0  0.37663329634E+01 -0.12688721175E+02 -0.11103631739E+02  0.17276560627E+02  0.51100000000E-03 0. -1.
        -11    1    3    3    0    0  0.79413569094E+01 -0.14208270970E+02  0.12762142112E+01  0.16326935919E+02  0.51100000000E-03 0.  1.
         12    1    3    3    0    0  0.11594931338E+02 -0.67618618541E+01 -0.45841295104E+01  0.14183774245E+02  0.00000000000E+00 0. -1.
</event>
<event>
 7    1  0.2756432E-009  0.4778727E+02  0.7816164E-02  0.1312668E+00
        -11   -1    0    0    0    0  0.00000000000E+00  0.00000000000E+00  0.45593999997E+02  0.45594000000E+02  0.51100000000E-03 0. -1.
         11   -1    0    0    0    0 -0.00000000000E+00 -0.00000000000E+00 -0.45593999997E+02  0.45594000000E+02  0.51100000000E-03 0.  1.
    9900012    2    1    2    0    0  0.38178884080E+02  0.14949221352E+02 -0.14230837369E+02  0.47787272576E+02  0.20000006985E+02 0.  0.
        -12    1    1    2    0    0 -0.38178884080E+02 -0.14949221352E+02  0.14230837369E+02  0.43400727424E+02  0.00000000000E+00 0.  1.
         11    1    3    3    0    0  0.19952884724E+01 -0.22158154720E+01 -0.38976319300E+01  0.49073973974E+01  0.51100000000E-03 0. -1.
        -11    1    3    3    0    0  0.32811207424E+02  0.18149003441E+02 -0.72179509749E+01  0.38184558071E+02  0.51100000000E-03 0.  1.
        -12    1    3    3    0    0  0.33723881839E+01 -0.98396661687E+00 -0.31152544643E+01  0.46953171078E+01  0.00000000000E+00 0.  1.
</event>
<event>
 7    1  0.2756432E-009  0.4778728E+02  0.7816164E-02  0.1312668E+00
        -11   -1    0    0    0    0  0.00000000000E+00  0.00000000000E+00  0.45593999997E+02  0.45594000000E+02  0.51100000000E-03 0. -1.
         11   -1    0    0    0    0 -0.00000000000E+00 -0.00000000000E+00 -0.45593999997E+02  0.45594000000E+02  0.51100000000E-03 0.  1.
    9900012    2    1    2    0    0 -0.47555036596E+01 -0.28008482160E+02  0.32810561322E+02  0.47787276247E+02  0.20000023722E+02 0.  0.
        -12    1    1    2    0    0  0.47555036596E+01  0.28008482160E+02 -0.32810561322E+02  0.43400723753E+02  0.00000000000E+00 0.  1.
         11    1    3    3    0    0 -0.10021371696E+02 -0.11678027219E+02  0.20944258771E+02  0.25989732322E+02  0.51100000000E-03 0. -1.
        -11    1    3    3    0    0  0.99692066489E+00 -0.11820285211E+02  0.61715667045E+01  0.13371657681E+02  0.51100000000E-03 0.  1.
         12    1    3    3    0    0  0.42689473714E+01 -0.45101697295E+01  0.56947358465E+01  0.84258862448E+01  0.00000000000E+00 0. -1.
</event>
<event>
 7    1  0.2756432E-009  0.4778727E+02  0.7816164E-02  0.1312668E+00
        -11   -1    0    0    0    0  0.00000000000E+00  0.00000000000E+00  0.45593999997E+02  0.45594000000E+02  0.51100000000E-03 0.  1.
         11   -1    0    0    0    0 -0.00000000000E+00 -0.00000000000E+00 -0.45593999997E+02  0.45594000000E+02  0.51100000000E-03 0. -1.
    9900012    2    1    2    0    0  0.22096294638E+02 -0.26174057547E+02 -0.26651376773E+02  0.47787269486E+02  0.19999992896E+02 0.  0.
        -12    1    1    2    0    0 -0.22096294638E+02  0.26174057547E+02  0.26651376773E+02  0.43400730514E+02  0.00000000000E+00 0.  1.
         11    1    3    3    0    0  0.29181245030E+01 -0.71596365847E+01 -0.31457067400E+01  0.83469346347E+01  0.51100000000E-03 0. -1.
        -11    1    3    3    0    0  0.91468177890E+01 -0.17875563535E+02 -0.96011457528E+01  0.22257179681E+02  0.51100000000E-03 0.  1.
        -12    1    3    3    0    0  0.10031352346E+02 -0.11388574275E+01 -0.13904524280E+02  0.17183155170E+02  0.00000000000E+00 0.  1.
</event>
<event>
 7    1  0.2756432E-009  0.4778727E+02  0.7816164E-02  0.1312668E+00
        -11   -1    0    0    0    0  0.00000000000E+00  0.00000000000E+00  0.45593999997E+02  0.45594000000E+02  0.51100000000E-03 0.  1.
         11   -1    0    0    0    0 -0.00000000000E+00 -0.00000000000E+00 -0.45593999997E+02  0.45594000000E+02  0.51100000000E-03 0. -1.
    9900012    2    1    2    0    0  0.86800906069E+01  0.11279654761E+02 -0.41000596325E+02  0.47787268629E+02  0.19999988989E+02 0.  0.
        -12    1    1    2    0    0 -0.86800906069E+01 -0.11279654761E+02  0.41000596325E+02  0.43400731371E+02  0.00000000000E+00 0.  1.
         11    1    3    3    0    0  0.28649419177E+01  0.14197948658E+02 -0.34518147175E+02  0.37433836605E+02  0.51100000000E-03 0. -1.
        -11    1    3    3    0    0 -0.81038592292E-01  0.59167255052E+00  0.33157802231E+00  0.68307240208E+00  0.51100000000E-03 0.  1.
         12    1    3    3    0    0  0.58961872815E+01 -0.35099664476E+01 -0.68140271727E+01  0.96703596226E+01  0.00000000000E+00 0. -1.
</event>
<event>
 7    1  0.2756432E-009  0.4778727E+02  0.7816164E-02  0.1312668E+00
        -11   -1    0    0    0    0  0.00000000000E+00  0.00000000000E+00  0.45593999997E+02  0.45594000000E+02  0.51100000000E-03 0. -1.
         11   -1    0    0    0    0 -0.00000000000E+00 -0.00000000000E+00 -0.45593999997E+02  0.45594000000E+02  0.51100000000E-03 0.  1.
    9900012    2    1    2    0    0  0.17440808085E+02  0.37355692967E+02  0.13564425816E+02  0.47787271533E+02  0.20000002229E+02 0.  0.
        -12    1    1    2    0    0 -0.17440808085E+02 -0.37355692967E+02 -0.13564425816E+02  0.43400728467E+02  0.00000000000E+00 0.  1.
         11    1    3    3    0    0  0.22618778332E+01  0.20422504226E+02  0.10670923827E+02  0.23153042690E+02  0.51100000000E-03 0. -1.
        -11    1    3    3    0    0  0.43368755054E+01  0.19602445522E+01  0.38525651442E+01  0.61231777947E+01  0.51100000000E-03 0.  1.
         12    1    3    3    0    0  0.10842054746E+02  0.14972944189E+02 -0.95906315506E+00  0.18511051049E+02  0.00000000000E+00 0. -1.
</event>
<event>
 7    1  0.2756432E-009  0.4778727E+02  0.7816164E-02  0.1312668E+00
        -11   -1    0    0    0    0  0.00000000000E+00  0.00000000000E+00  0.45593999997E+02  0.45594000000E+02  0.51100000000E-03 0.  1.
         11   -1    0    0    0    0 -0.00000000000E+00 -0.00000000000E+00 -0.45593999997E+02  0.45594000000E+02  0.51100000000E-03 0. -1.
    9900012    2    1    2    0    0 -0.31530417704E+02  0.16103611700E+02 -0.25102385465E+02  0.47787270669E+02  0.19999998290E+02 0.  0.
        -12    1    1    2    0    0  0.31530417704E+02 -0.16103611700E+02  0.25102385465E+02  0.43400729331E+02  0.00000000000E+00 0.  1.
         11    1    3    3    0    0 -0.16256010464E+02  0.11390349927E+02 -0.91873868117E+01  0.21872494699E+02  0.51100000000E-03 0. -1.
        -11    1    3    3    0    0 -0.23413774124E+00  0.18796157065E+01 -0.88634042444E+01  0.90635374301E+01  0.51100000000E-03 0.  1.
        -12    1    3    3    0    0 -0.15040269499E+02  0.28336460666E+01 -0.70515944090E+01  0.16851238540E+02  0.00000000000E+00 0.  1.
</event>
<event>
 7    1  0.2756432E-009  0.4778727E+02  0.7816164E-02  0.1312668E+00
        -11   -1    0    0    0    0  0.00000000000E+00  0.00000000000E+00  0.45593999997E+02  0.45594000000E+02  0.51100000000E-03 0.  1.
         11   -1    0    0    0    0 -0.00000000000E+00 -0.00000000000E+00 -0.45593999997E+02  0.45594000000E+02  0.51100000000E-03 0. -1.
    9900012    2    1    2    0    0  0.41785012197E+02  0.11323761586E+02 -0.30673460898E+01  0.47787269214E+02  0.19999991653E+02 0.  0.
        -12    1    1    2    0    0 -0.41785012197E+02 -0.11323761586E+02  0.30673460898E+01  0.43400730786E+02  0.00000000000E+00 0.  1.
         11    1    3    3    0    0  0.22527272672E+02  0.50792349352E+01 -0.73000189122E+01  0.24219143625E+02  0.51100000000E-03 0. -1.
        -11    1    3    3    0    0  0.53336578558E+01 -0.25892910619E+01 -0.14902792775E+01  0.61133678862E+01  0.51100000000E-03 0.  1.
         12    1    3    3    0    0  0.13924081669E+02  0.88338177127E+01  0.57229520999E+01  0.17454757702E+02  0.00000000000E+00 0. -1.
</event>
<event>
 7    1  0.2756432E-009  0.4778727E+02  0.7816164E-02  0.1312668E+00
        -11   -1    0    0    0    0  0.00000000000E+00  0.00000000000E+00  0.45593999997E+02  0.45594000000E+02  0.51100000000E-03 0.  1.
         11   -1    0    0    0    0 -0.00000000000E+00 -0.00000000000E+00 -0.45593999997E+02  0.45594000000E+02  0.51100000000E-03 0. -1.
    9900012    2    1    2    0    0  0.29544317957E+02 -0.25115606246E+02 -0.19492636855E+02  0.47787270833E+02  0.19999999036E+02 0.  0.
        -12    1    1    2    0    0 -0.29544317957E+02  0.25115606246E+02  0.19492636855E+02  0.43400729167E+02  0.00000000000E+00 0.  1.
         11    1    3    3    0    0  0.86516267290E+01 -0.52784702838E+01 -0.43652160738E+01  0.11034854110E+02  0.51100000000E-03 0. -1.
        -11    1    3    3    0    0  0.13422004011E+01  0.30820642437E+01 -0.12767260799E+01  0.35959215318E+01  0.51100000000E-03 0.  1.
        -12    1    3    3    0    0  0.19550490827E+02 -0.22919200206E+02 -0.13850694701E+02  0.33156495191E+02  0.00000000000E+00 0.  1.
</event>
<event>
 7    1  0.2756432E-009  0.4778727E+02  0.7816164E-02  0.1312668E+00
        -11   -1    0    0    0    0  0.00000000000E+00  0.00000000000E+00  0.45593999997E+02  0.45594000000E+02  0.51100000000E-03 0. -1.
         11   -1    0    0    0    0 -0.00000000000E+00 -0.00000000000E+00 -0.45593999997E+02  0.45594000000E+02  0.51100000000E-03 0.  1.
    9900012    2    1    2    0    0  0.17982223868E+02  0.25150376618E+02 -0.30458517321E+02  0.47787273086E+02  0.20000009309E+02 0.  0.
        -12    1    1    2    0    0 -0.17982223868E+02 -0.25150376618E+02  0.30458517321E+02  0.43400726914E+02  0.00000000000E+00 0.  1.
         11    1    3    3    0    0  0.92357876442E+01  0.41850348216E+01 -0.44470074903E+01  0.11072044335E+02  0.51100000000E-03 0. -1.
        -11    1    3    3    0    0  0.22386399430E+01  0.17484471740E+02 -0.13554344940E+02  0.22235973733E+02  0.51100000000E-03 0.  1.
        -12    1    3    3    0    0  0.65077962805E+01  0.34808700562E+01 -0.12457164891E+02  0.14479255019E+02  0.00000000000E+00 0.  1.
</event>
<event>
 7    1  0.2756432E-009  0.4778727E+02  0.7816164E-02  0.1312668E+00
        -11   -1    0    0    0    0  0.00000000000E+00  0.00000000000E+00  0.45593999997E+02  0.45594000000E+02  0.51100000000E-03 0.  1.
         11   -1    0    0    0    0 -0.00000000000E+00 -0.00000000000E+00 -0.45593999997E+02  0.45594000000E+02  0.51100000000E-03 0. -1.
    9900012    2    1    2    0    0 -0.13768395215E+02  0.25440846546E+02 -0.32354561300E+02  0.47787274007E+02  0.20000013509E+02 0.  0.
        -12    1    1    2    0    0  0.13768395215E+02 -0.25440846546E+02  0.32354561300E+02  0.43400725993E+02  0.00000000000E+00 0.  1.
         11    1    3    3    0    0 -0.51210935867E+00  0.88702104087E+01 -0.84645873864E+01  0.12271598452E+02  0.51100000000E-03 0. -1.
        -11    1    3    3    0    0 -0.77257007099E+01  0.16693282612E+02 -0.10862349593E+02  0.21362180946E+02  0.51100000000E-03 0.  1.
        -12    1    3    3    0    0 -0.55305851460E+01 -0.12264647427E+00 -0.13027624321E+02  0.14153494610E+02  0.00000000000E+00 0.  1.
</event>
<event>
 7    1  0.2756432E-009  0.4778728E+02  0.7816164E-02  0.1312668E+00
        -11   -1    0    0    0    0  0.00000000000E+00  0.00000000000E+00  0.45593999997E+02  0.45594000000E+02  0.51100000000E-03 0.  1.
         11   -1    0    0    0    0 -0.00000000000E+00 -0.00000000000E+00 -0.45593999997E+02  0.45594000000E+02  0.51100000000E-03 0. -1.
    9900012    2    1    2    0    0 -0.18083224148E+02  0.12938819214E+02 -0.37272065308E+02  0.47787275461E+02  0.20000020136E+02 0.  0.
        -12    1    1    2    0    0  0.18083224148E+02 -0.12938819214E+02  0.37272065308E+02  0.43400724539E+02  0.00000000000E+00 0.  1.
         11    1    3    3    0    0 -0.10789048898E+02  0.12292614513E+02 -0.11387812755E+02  0.19929732243E+02  0.51100000000E-03 0. -1.
        -11    1    3    3    0    0 -0.54943961071E+01  0.41054084489E+00 -0.25383515134E+02  0.25974598615E+02  0.51100000000E-03 0.  1.
        -12    1    3    3    0    0 -0.17997791426E+01  0.23566385608E+00 -0.50073741834E+00  0.18829446028E+01  0.00000000000E+00 0.  1.
</event>
<event>
 7    1  0.2756432E-009  0.4778727E+02  0.7816164E-02  0.1312668E+00
        -11   -1    0    0    0    0  0.00000000000E+00  0.00000000000E+00  0.45593999997E+02  0.45594000000E+02  0.51100000000E-03 0. -1.
         11   -1    0    0    0    0 -0.00000000000E+00 -0.00000000000E+00 -0.45593999997E+02  0.45594000000E+02  0.51100000000E-03 0.  1.
    9900012    2    1    2    0    0 -0.36134693880E+02 -0.17097816823E+02 -0.16898878060E+02  0.47787268190E+02  0.19999986988E+02 0.  0.
        -12    1    1    2    0    0  0.36134693880E+02  0.17097816823E+02  0.16898878060E+02  0.43400731810E+02  0.00000000000E+00 0.  1.
         11    1    3    3    0    0 -0.59943190204E+01 -0.25659095436E+01 -0.26823650304E+01  0.70505910903E+01  0.51100000000E-03 0. -1.
        -11    1    3    3    0    0 -0.23000675908E+02 -0.28804855283E+01 -0.36566097907E+01  0.23466978598E+02  0.51100000000E-03 0.  1.
        -12    1    3    3    0    0 -0.71396989516E+01 -0.11651421751E+02 -0.10559903238E+02  0.17269698502E+02  0.00000000000E+00 0.  1.
</event>
<event>
 7    1  0.2756432E-009  0.4778727E+02  0.7816164E-02  0.1312668E+00
        -11   -1    0    0    0    0  0.00000000000E+00  0.00000000000E+00  0.45593999997E+02  0.45594000000E+02  0.51100000000E-03 0.  1.
         11   -1    0    0    0    0 -0.00000000000E+00 -0.00000000000E+00 -0.45593999997E+02  0.45594000000E+02  0.51100000000E-03 0. -1.
    9900012    2    1    2    0    0  0.21306857188E+02  0.34342136743E+02 -0.15819563088E+02  0.47787273098E+02  0.20000009365E+02 0.  0.
        -12    1    1    2    0    0 -0.21306857188E+02 -0.34342136743E+02  0.15819563088E+02  0.43400726902E+02  0.00000000000E+00 0.  1.
         11    1    3    3    0    0  0.35794131360E+01  0.49844774721E+01 -0.93319006256E+01  0.11168777176E+02  0.51100000000E-03 0. -1.
        -11    1    3    3    0    0  0.17960153623E+02  0.20945711094E+02 -0.43095052426E+01  0.27926005212E+02  0.51100000000E-03 0.  1.
        -12    1    3    3    0    0 -0.23270957135E+00  0.84119481764E+01 -0.21781572196E+01  0.86924907098E+01  0.00000000000E+00 0.  1.
</event>
<event>
 7    1  0.2756432E-009  0.4778726E+02  0.7816164E-02  0.1312668E+00
        -11   -1    0    0    0    0  0.00000000000E+00  0.00000000000E+00  0.45593999997E+02  0.45594000000E+02  0.51100000000E-03 0. -1.
         11   -1    0    0    0    0 -0.00000000000E+00 -0.00000000000E+00 -0.45593999997E+02  0.45594000000E+02  0.51100000000E-03 0.  1.
    9900012    2    1    2    0    0 -0.42405637143E+01 -0.21207250899E+02  0.37628369098E+02  0.47787262307E+02  0.19999960162E+02 0.  0.
        -12    1    1    2    0    0  0.42405637143E+01  0.21207250899E+02 -0.37628369098E+02  0.43400737693E+02  0.00000000000E+00 0.  1.
         11    1    3    3    0    0 -0.43804346729E+01 -0.17774956635E+02  0.18296314794E+02  0.25882280166E+02  0.51100000000E-03 0. -1.
        -11    1    3    3    0    0  0.14080619887E+01 -0.47368705752E+01  0.37151908503E+01  0.61824934068E+01  0.51100000000E-03 0.  1.
         12    1    3    3    0    0 -0.12681910301E+01  0.13045763114E+01  0.15616863454E+02  0.15722488734E+02  0.00000000000E+00 0. -1.
</event>
<event>
 7    1  0.2756432E-009  0.4778727E+02  0.7816164E-02  0.1312668E+00
        -11   -1    0    0    0    0  0.00000000000E+00  0.00000000000E+00  0.45593999997E+02  0.45594000000E+02  0.51100000000E-03 0.  1.
         11   -1    0    0    0    0 -0.00000000000E+00 -0.00000000000E+00 -0.45593999997E+02  0.45594000000E+02  0.51100000000E-03 0. -1.
    9900012    2    1    2    0    0  0.73991591535E+01  0.35771582596E+02  0.23436499310E+02  0.47787272155E+02  0.20000005062E+02 0.  0.
        -12    1    1    2    0    0 -0.73991591535E+01 -0.35771582596E+02 -0.23436499310E+02  0.43400727845E+02  0.00000000000E+00 0.  1.
         11    1    3    3    0    0 -0.21090772358E+01 -0.58616825207E-01  0.43657283533E-01  0.21103433224E+01  0.51100000000E-03 0. -1.
        -11    1    3    3    0    0 -0.98081222886E+00 -0.52853604361E+00 -0.12764744029E+00  0.11214442063E+01  0.51100000000E-03 0.  1.
         12    1    3    3    0    0  0.10489048618E+02  0.36358735465E+02  0.23520489467E+02  0.44555484626E+02  0.00000000000E+00 0. -1.
</event>
<event>
 7    1  0.2756432E-009  0.4778727E+02  0.7816164E-02  0.1312668E+00
        -11   -1    0    0    0    0  0.00000000000E+00  0.00000000000E+00  0.45593999997E+02  0.45594000000E+02  0.51100000000E-03 0.  1.
         11   -1    0    0    0    0 -0.00000000000E+00 -0.00000000000E+00 -0.45593999997E+02  0.45594000000E+02  0.51100000000E-03 0. -1.
    9900012    2    1    2    0    0  0.29253539577E+02  0.24170585406E+02 -0.21062679440E+02  0.47787271413E+02  0.20000001681E+02 0.  0.
        -12    1    1    2    0    0 -0.29253539577E+02 -0.24170585406E+02  0.21062679440E+02  0.43400728587E+02  0.00000000000E+00 0.  1.
         11    1    3    3    0    0  0.20171855986E+02  0.55175728032E+01 -0.87900543305E+01  0.22685070839E+02  0.51100000000E-03 0. -1.
        -11    1    3    3    0    0  0.83626698258E+01  0.19058442201E+02 -0.12458083959E+02  0.24256181108E+02  0.51100000000E-03 0.  1.
        -12    1    3    3    0    0  0.71901376465E+00 -0.40542959795E+00  0.18545884911E+00  0.84601946630E+00  0.00000000000E+00 0.  1.
</event>
<event>
 7    1  0.2756432E-009  0.4778726E+02  0.7816164E-02  0.1312668E+00
        -11   -1    0    0    0    0  0.00000000000E+00  0.00000000000E+00  0.45593999997E+02  0.45594000000E+02  0.51100000000E-03 0.  1.
         11   -1    0    0    0    0 -0.00000000000E+00 -0.00000000000E+00 -0.45593999997E+02  0.45594000000E+02  0.51100000000E-03 0. -1.
    9900012    2    1    2    0    0 -0.13841377684E+02 -0.22071189223E+01 -0.41075160658E+02  0.47787263449E+02  0.19999965368E+02 0.  0.
        -12    1    1    2    0    0  0.13841377684E+02  0.22071189223E+01  0.41075160658E+02  0.43400736551E+02  0.00000000000E+00 0.  1.
         11    1    3    3    0    0 -0.62621163381E+01  0.63135649138E+01 -0.18335227296E+02  0.20377825282E+02  0.51100000000E-03 0. -1.
        -11    1    3    3    0    0 -0.98223631436E+01 -0.85975021647E+01 -0.19639413020E+02  0.23581823620E+02  0.51100000000E-03 0.  1.
        -12    1    3    3    0    0  0.22431017980E+01  0.76818328587E-01 -0.31005203410E+01  0.38276145465E+01  0.00000000000E+00 0.  1.
</event>
<event>
 7    1  0.2756432E-009  0.4778727E+02  0.7816164E-02  0.1312668E+00
        -11   -1    0    0    0    0  0.00000000000E+00  0.00000000000E+00  0.45593999997E+02  0.45594000000E+02  0.51100000000E-03 0.  1.
         11   -1    0    0    0    0 -0.00000000000E+00 -0.00000000000E+00 -0.45593999997E+02  0.45594000000E+02  0.51100000000E-03 0. -1.
    9900012    2    1    2    0    0 -0.33686364733E+02 -0.24666876357E+02 -0.11848932422E+02  0.47787272383E+02  0.20000006103E+02 0.  0.
        -12    1    1    2    0    0  0.33686364733E+02  0.24666876357E+02  0.11848932422E+02  0.43400727617E+02  0.00000000000E+00 0.  1.
         11    1    3    3    0    0 -0.75089227035E+01 -0.86701117019E+01 -0.39096420359E+01  0.12117757969E+02  0.51100000000E-03 0. -1.
        -11    1    3    3    0    0 -0.53963228693E+01 -0.12432510622E+02 -0.15691348066E+01  0.13643672716E+02  0.51100000000E-03 0.  1.
        -12    1    3    3    0    0 -0.20781119161E+02 -0.35642540323E+01 -0.63701555796E+01  0.22025841697E+02  0.00000000000E+00 0.  1.
</event>
<event>
 7    1  0.2756432E-009  0.4778727E+02  0.7816164E-02  0.1312668E+00
        -11   -1    0    0    0    0  0.00000000000E+00  0.00000000000E+00  0.45593999997E+02  0.45594000000E+02  0.51100000000E-03 0. -1.
         11   -1    0    0    0    0 -0.00000000000E+00 -0.00000000000E+00 -0.45593999997E+02  0.45594000000E+02  0.51100000000E-03 0.  1.
    9900012    2    1    2    0    0 -0.42529032877E+02  0.17559257133E+01  0.84747441840E+01  0.47787271878E+02  0.20000003800E+02 0.  0.
        -12    1    1    2    0    0  0.42529032877E+02 -0.17559257133E+01 -0.84747441840E+01  0.43400728122E+02  0.00000000000E+00 0.  1.
         11    1    3    3    0    0 -0.91887989263E+01 -0.20078038376E+01  0.25332728705E+01  0.97407789039E+01  0.51100000000E-03 0. -1.
        -11    1    3    3    0    0 -0.29791533306E+02  0.16659160301E+01  0.10747509571E+02  0.31714660572E+02  0.51100000000E-03 0.  1.
        -12    1    3    3    0    0 -0.35487006447E+01  0.20978135208E+01 -0.48060382579E+01  0.63318324022E+01  0.00000000000E+00 0.  1.
</event>
<event>
 7    1  0.2756432E-009  0.4778727E+02  0.7816164E-02  0.1312668E+00
        -11   -1    0    0    0    0  0.00000000000E+00  0.00000000000E+00  0.45593999997E+02  0.45594000000E+02  0.51100000000E-03 0.  1.
         11   -1    0    0    0    0 -0.00000000000E+00 -0.00000000000E+00 -0.45593999997E+02  0.45594000000E+02  0.51100000000E-03 0. -1.
    9900012    2    1    2    0    0 -0.11955475418E+02 -0.10718897474E+02 -0.40321150829E+02  0.47787270056E+02  0.19999995491E+02 0.  0.
        -12    1    1    2    0    0  0.11955475418E+02  0.10718897474E+02  0.40321150829E+02  0.43400729944E+02  0.00000000000E+00 0.  1.
         11    1    3    3    0    0 -0.11521138978E+02 -0.36304498197E+01 -0.34546708634E+02  0.36597703301E+02  0.51100000000E-03 0. -1.
        -11    1    3    3    0    0  0.27383675653E+01 -0.34221436372E+01 -0.42549718430E+01  0.61085603576E+01  0.51100000000E-03 0.  1.
         12    1    3    3    0    0 -0.31727040054E+01 -0.36663040170E+01 -0.15194703525E+01  0.50810063967E+01  0.00000000000E+00 0. -1.
</event>
<event>
 7    1  0.2947373E-009  0.4778726E+02  0.7816164E-02  0.1312668E+00
        -11   -1    0    0    0    0  0.00000000000E+00  0.00000000000E+00  0.45593999997E+02  0.45594000000E+02  0.51100000000E-03 0.  1.
         11   -1    0    0    0    0 -0.00000000000E+00 -0.00000000000E+00 -0.45593999997E+02  0.45594000000E+02  0.51100000000E-03 0. -1.
    9900012    2    1    2    0    0 -0.62843901839E+01  0.31292805724E+02 -0.29409021586E+02  0.47787264975E+02  0.19999972328E+02 0.  0.
        -12    1    1    2    0    0  0.62843901839E+01 -0.31292805724E+02  0.29409021586E+02  0.43400735025E+02  0.00000000000E+00 0.  1.
         11    1    3    3    0    0  0.47473014313E+00  0.15910434064E+02 -0.13147964366E+02  0.20645489775E+02  0.51100000000E-03 0. -1.
        -11    1    3    3    0    0 -0.10772726722E+02  0.13569914295E+02 -0.12839937824E+02  0.21565208522E+02  0.51100000000E-03 0.  1.
        -12    1    3    3    0    0  0.40136063952E+01  0.18124573646E+01 -0.34211193957E+01  0.55765666780E+01  0.00000000000E+00 0.  1.
</event>
<event>
 7    1  0.2756432E-009  0.4778727E+02  0.7816164E-02  0.1312668E+00
        -11   -1    0    0    0    0  0.00000000000E+00  0.00000000000E+00  0.45593999997E+02  0.45594000000E+02  0.51100000000E-03 0.  1.
         11   -1    0    0    0    0 -0.00000000000E+00 -0.00000000000E+00 -0.45593999997E+02  0.45594000000E+02  0.51100000000E-03 0. -1.
    9900012    2    1    2    0    0  0.45938987788E+01  0.15422489215E+02 -0.40307148322E+02  0.47787270912E+02  0.19999999396E+02 0.  0.
        -12    1    1    2    0    0 -0.45938987788E+01 -0.15422489215E+02  0.40307148322E+02  0.43400729088E+02  0.00000000000E+00 0.  1.
         11    1    3    3    0    0  0.56355012169E+01  0.84386656681E+01 -0.62376338754E+01  0.11911256392E+02  0.51100000000E-03 0. -1.
        -11    1    3    3    0    0 -0.16896439532E+01  0.82634163882E+01 -0.19628159810E+02  0.21363604679E+02  0.51100000000E-03 0.  1.
         12    1    3    3    0    0  0.64804151516E+00 -0.12795928417E+01 -0.14441354636E+02  0.14512409841E+02  0.00000000000E+00 0. -1.
</event>
<event>
 7    1  0.2756432E-009  0.4778727E+02  0.7816164E-02  0.1312668E+00
        -11   -1    0    0    0    0  0.00000000000E+00  0.00000000000E+00  0.45593999997E+02  0.45594000000E+02  0.51100000000E-03 0.  1.
         11   -1    0    0    0    0 -0.00000000000E+00 -0.00000000000E+00 -0.45593999997E+02  0.45594000000E+02  0.51100000000E-03 0. -1.
    9900012    2    1    2    0    0 -0.37898450609E+02  0.10197850028E+02  0.18529289320E+02  0.47787271130E+02  0.20000000390E+02 0.  0.
        -12    1    1    2    0    0  0.37898450609E+02 -0.10197850028E+02 -0.18529289320E+02  0.43400728870E+02  0.00000000000E+00 0.  1.
         11    1    3    3    0    0 -0.22763161764E+02 -0.43461309261E+00  0.75016142948E+01  0.23971329528E+02  0.51100000000E-03 0. -1.
        -11    1    3    3    0    0  0.12747219646E+01  0.14989519586E+01  0.25227065840E+01  0.31993470945E+01  0.51100000000E-03 0.  1.
         12    1    3    3    0    0 -0.16410010809E+02  0.91335111617E+01  0.85049684418E+01  0.20616594508E+02  0.00000000000E+00 0. -1.
</event>
<event>
 7    1  0.2756432E-009  0.4778727E+02  0.7816164E-02  0.1312668E+00
        -11   -1    0    0    0    0  0.00000000000E+00  0.00000000000E+00  0.45593999997E+02  0.45594000000E+02  0.51100000000E-03 0.  1.
         11   -1    0    0    0    0 -0.00000000000E+00 -0.00000000000E+00 -0.45593999997E+02  0.45594000000E+02  0.51100000000E-03 0. -1.
    9900012    2    1    2    0    0  0.35480405365E+02 -0.55671239668E+01 -0.24367431783E+02  0.47787265377E+02  0.19999974160E+02 0.  0.
        -12    1    1    2    0    0 -0.35480405365E+02  0.55671239668E+01  0.24367431783E+02  0.43400734623E+02  0.00000000000E+00 0.  1.
         11    1    3    3    0    0  0.28807858426E+02 -0.10104723373E+02 -0.17795710897E+02  0.35336743881E+02  0.51100000000E-03 0. -1.
        -11    1    3    3    0    0  0.11651104612E+01  0.30671268782E+01 -0.58465124742E+01  0.67042119631E+01  0.51100000000E-03 0.  1.
         12    1    3    3    0    0  0.55074364777E+01  0.14704725276E+01 -0.72520841262E+00  0.57463095332E+01  0.00000000000E+00 0. -1.
</event>
<event>
 7    1  0.2756432E-009  0.4778727E+02  0.7816164E-02  0.1312668E+00
        -11   -1    0    0    0    0  0.00000000000E+00  0.00000000000E+00  0.45593999997E+02  0.45594000000E+02  0.51100000000E-03 0.  1.
         11   -1    0    0    0    0 -0.00000000000E+00 -0.00000000000E+00 -0.45593999997E+02  0.45594000000E+02  0.51100000000E-03 0. -1.
    9900012    2    1    2    0    0 -0.13972686186E+02 -0.40870623719E+02 -0.42401956265E+01  0.47787273032E+02  0.20000009062E+02 0.  0.
        -12    1    1    2    0    0  0.13972686186E+02  0.40870623719E+02  0.42401956265E+01  0.43400726968E+02  0.00000000000E+00 0.  1.
         11    1    3    3    0    0  0.24726022652E-01 -0.18447511016E+01  0.42185175390E+01  0.46043032579E+01  0.51100000000E-03 0. -1.
        -11    1    3    3    0    0 -0.10518459063E+02 -0.23232618401E+02 -0.14101211086E+01  0.25541749756E+02  0.51100000000E-03 0.  1.
         12    1    3    3    0    0 -0.34789531461E+01 -0.15793254216E+02 -0.70485920570E+01  0.17641220018E+02  0.00000000000E+00 0. -1.
</event>
<event>
 7    1  0.2756432E-009  0.4778727E+02  0.7816164E-02  0.1312668E+00
        -11   -1    0    0    0    0  0.00000000000E+00  0.00000000000E+00  0.45593999997E+02  0.45594000000E+02  0.51100000000E-03 0. -1.
         11   -1    0    0    0    0 -0.00000000000E+00 -0.00000000000E+00 -0.45593999997E+02  0.45594000000E+02  0.51100000000E-03 0.  1.
    9900012    2    1    2    0    0 -0.25739854149E+02  0.26981878316E+02  0.22204985288E+02  0.47787271657E+02  0.20000002791E+02 0.  0.
        -12    1    1    2    0    0  0.25739854149E+02 -0.26981878316E+02 -0.22204985288E+02  0.43400728343E+02  0.00000000000E+00 0.  1.
         11    1    3    3    0    0 -0.15979534306E+01 -0.13445243081E+01 -0.39771576175E+00  0.21258830799E+01  0.51100000000E-03 0.  1.
        -11    1    3    3    0    0 -0.17773767846E+02  0.17226713280E+02  0.74940331379E+01  0.25861689945E+02  0.51100000000E-03 0. -1.
        -12    1    3    3    0    0 -0.63681328725E+01  0.11099689344E+02  0.15108667912E+02  0.19799698632E+02  0.00000000000E+00 0.  1.
</event>
<event>
 7    1  0.2756432E-009  0.4778727E+02  0.7816164E-02  0.1312668E+00
        -11   -1    0    0    0    0  0.00000000000E+00  0.00000000000E+00  0.45593999997E+02  0.45594000000E+02  0.51100000000E-03 0. -1.
         11   -1    0    0    0    0 -0.00000000000E+00 -0.00000000000E+00 -0.45593999997E+02  0.45594000000E+02  0.51100000000E-03 0.  1.
    9900012    2    1    2    0    0 -0.23017099885E+02 -0.11260846694E+02  0.35028981720E+02  0.47787272866E+02  0.20000008307E+02 0.  0.
        -12    1    1    2    0    0  0.23017099885E+02  0.11260846694E+02 -0.35028981720E+02  0.43400727134E+02  0.00000000000E+00 0.  1.
         11    1    3    3    0    0 -0.89667970783E+01 -0.49181059194E+01  0.28049865484E+01  0.10604676585E+02  0.51100000000E-03 0.  1.
        -11    1    3    3    0    0 -0.12966142729E+01 -0.81029218340E+00 -0.51570876899E+00  0.16136101731E+01  0.51100000000E-03 0. -1.
         12    1    3    3    0    0 -0.12753688534E+02 -0.55324485910E+01  0.32739703941E+02  0.35568986108E+02  0.00000000000E+00 0. -1.
</event>
<event>
 7    1  0.2756432E-009  0.4778726E+02  0.7816164E-02  0.1312668E+00
        -11   -1    0    0    0    0  0.00000000000E+00  0.00000000000E+00  0.45593999997E+02  0.45594000000E+02  0.51100000000E-03 0.  1.
         11   -1    0    0    0    0 -0.00000000000E+00 -0.00000000000E+00 -0.45593999997E+02  0.45594000000E+02  0.51100000000E-03 0. -1.
    9900012    2    1    2    0    0 -0.13075095062E+02 -0.25717517877E+02 -0.32423371074E+02  0.47787264655E+02  0.19999970870E+02 0.  0.
        -12    1    1    2    0    0  0.13075095062E+02  0.25717517877E+02  0.32423371074E+02  0.43400735345E+02  0.00000000000E+00 0.  1.
         11    1    3    3    0    0 -0.46430925136E+01 -0.44939159963E+01 -0.22912225643E+01  0.68558945567E+01  0.51100000000E-03 0. -1.
        -11    1    3    3    0    0 -0.11623866693E+02 -0.15757886264E+02 -0.15448243344E+02  0.24941400905E+02  0.51100000000E-03 0.  1.
        -12    1    3    3    0    0  0.31918641447E+01 -0.54657156168E+01 -0.14683905165E+02  0.15989969194E+02  0.00000000000E+00 0.  1.
</event>
<event>
 7    1  0.2756432E-009  0.4778727E+02  0.7816164E-02  0.1312668E+00
        -11   -1    0    0    0    0  0.00000000000E+00  0.00000000000E+00  0.45593999997E+02  0.45594000000E+02  0.51100000000E-03 0. -1.
         11   -1    0    0    0    0 -0.00000000000E+00 -0.00000000000E+00 -0.45593999997E+02  0.45594000000E+02  0.51100000000E-03 0.  1.
    9900012    2    1    2    0    0 -0.31251847645E+02 -0.22769130287E+02  0.19710708791E+02  0.47787270556E+02  0.19999997775E+02 0.  0.
        -12    1    1    2    0    0  0.31251847645E+02  0.22769130287E+02 -0.19710708791E+02  0.43400729444E+02  0.00000000000E+00 0.  1.
         11    1    3    3    0    0 -0.22234025568E+02 -0.11814456123E+02  0.11769228492E+02  0.27792948854E+02  0.51100000000E-03 0. -1.
        -11    1    3    3    0    0 -0.37446898451E+01 -0.12332819179E+02  0.52703940430E+01  0.13924732837E+02  0.51100000000E-03 0.  1.
         12    1    3    3    0    0 -0.52731322315E+01  0.13781450155E+01  0.26710862554E+01  0.60695888657E+01  0.00000000000E+00 0. -1.
</event>
<event>
 7    1  0.2756432E-009  0.4778727E+02  0.7816164E-02  0.1312668E+00
        -11   -1    0    0    0    0  0.00000000000E+00  0.00000000000E+00  0.45593999997E+02  0.45594000000E+02  0.51100000000E-03 0. -1.
         11   -1    0    0    0    0 -0.00000000000E+00 -0.00000000000E+00 -0.45593999997E+02  0.45594000000E+02  0.51100000000E-03 0.  1.
    9900012    2    1    2    0    0  0.83953796798E+01  0.42495994118E+02 -0.26890990386E+01  0.47787272245E+02  0.20000005473E+02 0.  0.
        -12    1    1    2    0    0 -0.83953796798E+01 -0.42495994118E+02  0.26890990386E+01  0.43400727755E+02  0.00000000000E+00 0.  1.
         11    1    3    3    0    0  0.44976027824E+01  0.38635766787E+02  0.23219242298E+01  0.38965911236E+02  0.51100000000E-03 0. -1.
        -11    1    3    3    0    0  0.48339660016E+01  0.40355068071E+01 -0.45071751133E+01  0.77438472517E+01  0.51100000000E-03 0.  1.
        -12    1    3    3    0    0 -0.93618910423E+00 -0.17527947644E+00 -0.50384815508E+00  0.10775137573E+01  0.00000000000E+00 0.  1.
</event>
<event>
 7    1  0.2756432E-009  0.4778727E+02  0.7816164E-02  0.1312668E+00
        -11   -1    0    0    0    0  0.00000000000E+00  0.00000000000E+00  0.45593999997E+02  0.45594000000E+02  0.51100000000E-03 0.  1.
         11   -1    0    0    0    0 -0.00000000000E+00 -0.00000000000E+00 -0.45593999997E+02  0.45594000000E+02  0.51100000000E-03 0. -1.
    9900012    2    1    2    0    0  0.26362783693E+02 -0.16998851983E+01 -0.34434537711E+02  0.47787270040E+02  0.19999995419E+02 0.  0.
        -12    1    1    2    0    0 -0.26362783693E+02  0.16998851983E+01  0.34434537711E+02  0.43400729960E+02  0.00000000000E+00 0.  1.
         11    1    3    3    0    0  0.25565010115E+02 -0.14186472819E+01 -0.29340832721E+02  0.38941838263E+02  0.51100000000E-03 0. -1.
        -11    1    3    3    0    0 -0.24124550189E+01 -0.23220238312E+01 -0.17366911478E+01  0.37719796254E+01  0.51100000000E-03 0.  1.
         12    1    3    3    0    0  0.32102285976E+01  0.20407859148E+01 -0.33570138417E+01  0.50734521514E+01  0.00000000000E+00 0. -1.
</event>
<event>
 7    1  0.2756432E-009  0.4778727E+02  0.7816164E-02  0.1312668E+00
        -11   -1    0    0    0    0  0.00000000000E+00  0.00000000000E+00  0.45593999997E+02  0.45594000000E+02  0.51100000000E-03 0.  1.
         11   -1    0    0    0    0 -0.00000000000E+00 -0.00000000000E+00 -0.45593999997E+02  0.45594000000E+02  0.51100000000E-03 0. -1.
    9900012    2    1    2    0    0  0.81465077290E+01  0.39401027873E+02 -0.16273182444E+02  0.47787273595E+02  0.20000011630E+02 0.  0.
        -12    1    1    2    0    0 -0.81465077290E+01 -0.39401027873E+02  0.16273182444E+02  0.43400726405E+02  0.00000000000E+00 0.  1.
         11    1    3    3    0    0  0.21896628458E+01  0.35653829482E+02 -0.15247297553E+02  0.38839030151E+02  0.51100000000E-03 0. -1.
        -11    1    3    3    0    0  0.39946002109E+01  0.37599902177E+01  0.15588630575E+01  0.57030177604E+01  0.51100000000E-03 0.  1.
        -12    1    3    3    0    0  0.19622446723E+01 -0.12791827228E-01 -0.25847479482E+01  0.32452256841E+01  0.00000000000E+00 0.  1.
</event>
<event>
 7    1  0.2756432E-009  0.4778728E+02  0.7816164E-02  0.1312668E+00
        -11   -1    0    0    0    0  0.00000000000E+00  0.00000000000E+00  0.45593999997E+02  0.45594000000E+02  0.51100000000E-03 0.  1.
         11   -1    0    0    0    0 -0.00000000000E+00 -0.00000000000E+00 -0.45593999997E+02  0.45594000000E+02  0.51100000000E-03 0. -1.
    9900012    2    1    2    0    0 -0.90498129257E+01  0.30431264270E+02 -0.29591582234E+02  0.47787277677E+02  0.20000030241E+02 0.  0.
        -12    1    1    2    0    0  0.90498129257E+01 -0.30431264270E+02  0.29591582234E+02  0.43400722323E+02  0.00000000000E+00 0.  1.
         11    1    3    3    0    0 -0.18461429073E+01  0.16337297495E+02 -0.15907367545E+02  0.22877060028E+02  0.51100000000E-03 0. -1.
        -11    1    3    3    0    0  0.34753720649E+00 -0.87874586032E+00  0.18335990603E+01  0.20627802045E+01  0.51100000000E-03 0.  1.
        -12    1    3    3    0    0 -0.75512072249E+01  0.14972712635E+02 -0.15517813750E+02  0.22847437444E+02  0.00000000000E+00 0.  1.
</event>
<event>
 7    1  0.2756432E-009  0.4778727E+02  0.7816164E-02  0.1312668E+00
        -11   -1    0    0    0    0  0.00000000000E+00  0.00000000000E+00  0.45593999997E+02  0.45594000000E+02  0.51100000000E-03 0.  1.
         11   -1    0    0    0    0 -0.00000000000E+00 -0.00000000000E+00 -0.45593999997E+02  0.45594000000E+02  0.51100000000E-03 0. -1.
    9900012    2    1    2    0    0  0.17033912667E+01 -0.16419124751E+02 -0.40138931753E+02  0.47787273719E+02  0.20000012196E+02 0.  0.
        -12    1    1    2    0    0 -0.17033912667E+01  0.16419124751E+02  0.40138931753E+02  0.43400726281E+02  0.00000000000E+00 0.  1.
         11    1    3    3    0    0  0.91500623511E+00 -0.61921072503E+01 -0.27498962063E+02  0.28202346417E+02  0.51100000000E-03 0. -1.
        -11    1    3    3    0    0 -0.19836126448E+01 -0.10756706176E+02 -0.62458924519E+01  0.12595738155E+02  0.51100000000E-03 0.  1.
        -12    1    3    3    0    0  0.27719976764E+01  0.52968867541E+00 -0.63940772381E+01  0.69891891474E+01  0.00000000000E+00 0.  1.
</event>
<event>
 7    1  0.2756432E-009  0.4778727E+02  0.7816164E-02  0.1312668E+00
        -11   -1    0    0    0    0  0.00000000000E+00  0.00000000000E+00  0.45593999997E+02  0.45594000000E+02  0.51100000000E-03 0.  1.
         11   -1    0    0    0    0 -0.00000000000E+00 -0.00000000000E+00 -0.45593999997E+02  0.45594000000E+02  0.51100000000E-03 0. -1.
    9900012    2    1    2    0    0 -0.23630225274E+02  0.28867555260E+02 -0.22178826988E+02  0.47787266599E+02  0.19999979733E+02 0.  0.
        -12    1    1    2    0    0  0.23630225274E+02 -0.28867555260E+02  0.22178826988E+02  0.43400733401E+02  0.00000000000E+00 0.  1.
         11    1    3    3    0    0 -0.88521945177E+01  0.51478159287E+01 -0.14546938868E+02  0.17789738258E+02  0.51100000000E-03 0. -1.
        -11    1    3    3    0    0 -0.76827084993E+01  0.10151473415E+02  0.33919680240E+00  0.12735441771E+02  0.51100000000E-03 0.  1.
        -12    1    3    3    0    0 -0.70953222570E+01  0.13568265916E+02 -0.79710849225E+01  0.17262086569E+02  0.00000000000E+00 0.  1.
</event>
<event>
 7    1  0.2756432E-009  0.4778727E+02  0.7816164E-02  0.1312668E+00
        -11   -1    0    0    0    0  0.00000000000E+00  0.00000000000E+00  0.45593999997E+02  0.45594000000E+02  0.51100000000E-03 0. -1.
         11   -1    0    0    0    0 -0.00000000000E+00 -0.00000000000E+00 -0.45593999997E+02  0.45594000000E+02  0.51100000000E-03 0.  1.
    9900012    2    1    2    0    0 -0.82215158627E+01  0.42319329722E+02  0.50104187416E+01  0.47787270892E+02  0.19999999303E+02 0.  0.
        -12    1    1    2    0    0  0.82215158627E+01 -0.42319329722E+02 -0.50104187416E+01  0.43400729108E+02  0.00000000000E+00 0.  1.
         11    1    3    3    0    0 -0.88939591529E+01  0.22609967140E+02  0.96994449313E+01  0.26160893634E+02  0.51100000000E-03 0.  1.
        -11    1    3    3    0    0 -0.33244766045E+01  0.95292531512E+01 -0.12953184913E+01  0.10175296584E+02  0.51100000000E-03 0. -1.
         12    1    3    3    0    0  0.39969198947E+01  0.10180109431E+02 -0.33937076984E+01  0.11451080674E+02  0.00000000000E+00 0. -1.
</event>
<event>
 7    1  0.2756432E-009  0.4778732E+02  0.7816164E-02  0.1312668E+00
        -11   -1    0    0    0    0  0.00000000000E+00  0.00000000000E+00  0.45593999997E+02  0.45594000000E+02  0.51100000000E-03 0.  1.
         11   -1    0    0    0    0 -0.00000000000E+00 -0.00000000000E+00 -0.45593999997E+02  0.45594000000E+02  0.51100000000E-03 0. -1.
    9900012    2    1    2    0    0  0.35141176419E+02  0.25435624184E+02  0.13214287473E+01  0.47787315308E+02  0.20000201815E+02 0.  0.
        -12    1    1    2    0    0 -0.35141176419E+02 -0.25435624184E+02 -0.13214287473E+01  0.43400684692E+02  0.00000000000E+00 0.  1.
         11    1    3    3    0    0  0.42254064297E+01  0.13559065144E+02 -0.12892261539E+01  0.14260589448E+02  0.51100000000E-03 0. -1.
        -11    1    3    3    0    0  0.23177545491E+02  0.82855349561E+01  0.38265186898E+01  0.24909655759E+02  0.51100000000E-03 0.  1.
         12    1    3    3    0    0  0.77382244988E+01  0.35910240842E+01 -0.12158637886E+01  0.86170701007E+01  0.00000000000E+00 0. -1.
</event>
<event>
 7    1  0.2756432E-009  0.4778727E+02  0.7816164E-02  0.1312668E+00
        -11   -1    0    0    0    0  0.00000000000E+00  0.00000000000E+00  0.45593999997E+02  0.45594000000E+02  0.51100000000E-03 0. -1.
         11   -1    0    0    0    0 -0.00000000000E+00 -0.00000000000E+00 -0.45593999997E+02  0.45594000000E+02  0.51100000000E-03 0.  1.
    9900012    2    1    2    0    0 -0.16734042565E+02 -0.34548852889E+02  0.20247758582E+02  0.47787272540E+02  0.20000006817E+02 0.  0.
        -12    1    1    2    0    0  0.16734042565E+02  0.34548852889E+02 -0.20247758582E+02  0.43400727460E+02  0.00000000000E+00 0.  1.
         11    1    3    3    0    0 -0.50843974651E+01 -0.69294493858E+01  0.13278063589E+02  0.15816932045E+02  0.51100000000E-03 0. -1.
        -11    1    3    3    0    0 -0.12269190857E+01 -0.13793097988E+02  0.23031515816E+01  0.14037784370E+02  0.51100000000E-03 0.  1.
         12    1    3    3    0    0 -0.10422726015E+02 -0.13826305515E+02  0.46665434113E+01  0.17932556125E+02  0.00000000000E+00 0. -1.
</event>
<event>
 7    1  0.2756432E-009  0.4778728E+02  0.7816164E-02  0.1312668E+00
        -11   -1    0    0    0    0  0.00000000000E+00  0.00000000000E+00  0.45593999997E+02  0.45594000000E+02  0.51100000000E-03 0. -1.
         11   -1    0    0    0    0 -0.00000000000E+00 -0.00000000000E+00 -0.45593999997E+02  0.45594000000E+02  0.51100000000E-03 0.  1.
    9900012    2    1    2    0    0 -0.34163758140E+02 -0.25560616870E+02  0.79444791788E+01  0.47787282788E+02  0.20000053545E+02 0.  0.
        -12    1    1    2    0    0  0.34163758140E+02  0.25560616870E+02 -0.79444791788E+01  0.43400717212E+02  0.00000000000E+00 0.  1.
         11    1    3    3    0    0 -0.33815880621E+02 -0.19949540015E+02  0.23216342070E+01  0.39330495988E+02  0.51100000000E-03 0. -1.
        -11    1    3    3    0    0  0.12324467803E+01 -0.28250282241E+01  0.31796202064E+01  0.44282834655E+01  0.51100000000E-03 0.  1.
         12    1    3    3    0    0 -0.15803242996E+01 -0.27860486312E+01  0.24432247654E+01  0.40285033352E+01  0.00000000000E+00 0. -1.
</event>
<event>
 7    1  0.2756432E-009  0.4778727E+02  0.7816164E-02  0.1312668E+00
        -11   -1    0    0    0    0  0.00000000000E+00  0.00000000000E+00  0.45593999997E+02  0.45594000000E+02  0.51100000000E-03 0.  1.
         11   -1    0    0    0    0 -0.00000000000E+00 -0.00000000000E+00 -0.45593999997E+02  0.45594000000E+02  0.51100000000E-03 0. -1.
    9900012    2    1    2    0    0  0.17247729506E+02  0.27662306858E+02 -0.28651974358E+02  0.47787273872E+02  0.20000012891E+02 0.  0.
        -12    1    1    2    0    0 -0.17247729506E+02 -0.27662306858E+02  0.28651974358E+02  0.43400726128E+02  0.00000000000E+00 0.  1.
         11    1    3    3    0    0  0.15364505441E+02  0.75499327231E+01 -0.17353415471E+02  0.24376434119E+02  0.51100000000E-03 0. -1.
        -11    1    3    3    0    0 -0.38100584591E-01  0.94542547643E+01 -0.35693876159E+01  0.10105687162E+02  0.51100000000E-03 0.  1.
         12    1    3    3    0    0  0.19213246501E+01  0.10658119371E+02 -0.77291712711E+01  0.13305152591E+02  0.00000000000E+00 0. -1.
</event>
<event>
 7    1  0.2756432E-009  0.4778727E+02  0.7816164E-02  0.1312668E+00
        -11   -1    0    0    0    0  0.00000000000E+00  0.00000000000E+00  0.45593999997E+02  0.45594000000E+02  0.51100000000E-03 0. -1.
         11   -1    0    0    0    0 -0.00000000000E+00 -0.00000000000E+00 -0.45593999997E+02  0.45594000000E+02  0.51100000000E-03 0.  1.
    9900012    2    1    2    0    0  0.18749267486E+02 -0.38808611685E+02 -0.50970476916E+01  0.47787271120E+02  0.20000000343E+02 0.  0.
        -12    1    1    2    0    0 -0.18749267486E+02  0.38808611685E+02  0.50970476916E+01  0.43400728880E+02  0.00000000000E+00 0.  1.
         11    1    3    3    0    0  0.13840183455E+02 -0.20285651573E+02 -0.95169123875E+01  0.26336855535E+02  0.51100000000E-03 0. -1.
        -11    1    3    3    0    0  0.63411419612E+01 -0.10285505945E+02  0.49834321776E+01  0.13070436506E+02  0.51100000000E-03 0.  1.
        -12    1    3    3    0    0 -0.14320579302E+01 -0.82374541663E+01 -0.56356748165E+00  0.83799790790E+01  0.00000000000E+00 0.  1.
</event>
<event>
 7    1  0.2756432E-009  0.4778727E+02  0.7816164E-02  0.1312668E+00
        -11   -1    0    0    0    0  0.00000000000E+00  0.00000000000E+00  0.45593999997E+02  0.45594000000E+02  0.51100000000E-03 0.  1.
         11   -1    0    0    0    0 -0.00000000000E+00 -0.00000000000E+00 -0.45593999997E+02  0.45594000000E+02  0.51100000000E-03 0. -1.
    9900012    2    1    2    0    0  0.30457114933E+02  0.52518449387E+01 -0.30469743277E+02  0.47787274422E+02  0.20000015400E+02 0.  0.
        -12    1    1    2    0    0 -0.30457114933E+02 -0.52518449387E+01  0.30469743277E+02  0.43400725578E+02  0.00000000000E+00 0.  1.
         11    1    3    3    0    0  0.22272779948E+02  0.12051300653E+02 -0.25840719055E+02  0.36180842107E+02  0.51100000000E-03 0. -1.
        -11    1    3    3    0    0  0.49714601344E+01 -0.42878059501E+01 -0.28248117195E+01  0.71470453508E+01  0.51100000000E-03 0.  1.
         12    1    3    3    0    0  0.32128748509E+01 -0.25116497640E+01 -0.18042125029E+01  0.44593869646E+01  0.00000000000E+00 0. -1.
</event>
<event>
 7    1  0.2756432E-009  0.4778727E+02  0.7816164E-02  0.1312668E+00
        -11   -1    0    0    0    0  0.00000000000E+00  0.00000000000E+00  0.45593999997E+02  0.45594000000E+02  0.51100000000E-03 0.  1.
         11   -1    0    0    0    0 -0.00000000000E+00 -0.00000000000E+00 -0.45593999997E+02  0.45594000000E+02  0.51100000000E-03 0. -1.
    9900012    2    1    2    0    0  0.13120408455E+02  0.31931731076E+02 -0.26302906924E+02  0.47787268667E+02  0.19999989162E+02 0.  0.
        -12    1    1    2    0    0 -0.13120408455E+02 -0.31931731076E+02  0.26302906924E+02  0.43400731333E+02  0.00000000000E+00 0.  1.
         11    1    3    3    0    0 -0.11782810590E+01  0.12268770338E+02 -0.84412268767E+01  0.14938720939E+02  0.51100000000E-03 0. -1.
        -11    1    3    3    0    0  0.21653801581E+01  0.80093389179E+01 -0.12847874695E+02  0.15293994428E+02  0.51100000000E-03 0.  1.
         12    1    3    3    0    0  0.12133309356E+02  0.11653621821E+02 -0.50138053527E+01  0.17554553300E+02  0.00000000000E+00 0. -1.
</event>
<event>
 7    1  0.2756432E-009  0.4778727E+02  0.7816164E-02  0.1312668E+00
        -11   -1    0    0    0    0  0.00000000000E+00  0.00000000000E+00  0.45593999997E+02  0.45594000000E+02  0.51100000000E-03 0.  1.
         11   -1    0    0    0    0 -0.00000000000E+00 -0.00000000000E+00 -0.45593999997E+02  0.45594000000E+02  0.51100000000E-03 0. -1.
    9900012    2    1    2    0    0 -0.12046437193E+02  0.16801323965E+02 -0.38160480977E+02  0.47787269080E+02  0.19999991042E+02 0.  0.
        -12    1    1    2    0    0  0.12046437193E+02 -0.16801323965E+02  0.38160480977E+02  0.43400730920E+02  0.00000000000E+00 0.  1.
         11    1    3    3    0    0 -0.13154971178E+02  0.49511096318E+01 -0.28526045807E+02  0.31800975503E+02  0.51100000000E-03 0. -1.
        -11    1    3    3    0    0  0.15600565193E+01  0.11584149615E+02 -0.77359991481E+01  0.14016846354E+02  0.51100000000E-03 0.  1.
        -12    1    3    3    0    0 -0.45152253439E+00  0.26606471848E+00 -0.18984360221E+01  0.19694472228E+01  0.00000000000E+00 0.  1.
</event>
<event>
 7    1  0.2756432E-009  0.4778727E+02  0.7816164E-02  0.1312668E+00
        -11   -1    0    0    0    0  0.00000000000E+00  0.00000000000E+00  0.45593999997E+02  0.45594000000E+02  0.51100000000E-03 0.  1.
         11   -1    0    0    0    0 -0.00000000000E+00 -0.00000000000E+00 -0.45593999997E+02  0.45594000000E+02  0.51100000000E-03 0. -1.
    9900012    2    1    2    0    0 -0.14496078488E+02 -0.34163715540E+02 -0.22501726007E+02  0.47787269311E+02  0.19999992096E+02 0.  0.
        -12    1    1    2    0    0  0.14496078488E+02  0.34163715540E+02  0.22501726007E+02  0.43400730689E+02  0.00000000000E+00 0.  1.
         11    1    3    3    0    0 -0.20984983448E+01 -0.10533941700E+02 -0.37195345197E+01  0.11366730416E+02  0.51100000000E-03 0. -1.
        -11    1    3    3    0    0  0.10805724595E+01 -0.14820287010E+02 -0.11284277449E+02  0.18658602888E+02  0.51100000000E-03 0.  1.
        -12    1    3    3    0    0 -0.13478152603E+02 -0.88094868296E+01 -0.74979140376E+01  0.17761936007E+02  0.00000000000E+00 0.  1.
</event>
<event>
 7    1  0.2756432E-009  0.4778727E+02  0.7816164E-02  0.1312668E+00
        -11   -1    0    0    0    0  0.00000000000E+00  0.00000000000E+00  0.45593999997E+02  0.45594000000E+02  0.51100000000E-03 0. -1.
         11   -1    0    0    0    0 -0.00000000000E+00 -0.00000000000E+00 -0.45593999997E+02  0.45594000000E+02  0.51100000000E-03 0.  1.
    9900012    2    1    2    0    0  0.39693946838E+02  0.17113942021E+01  0.17466681546E+02  0.47787271320E+02  0.20000001257E+02 0.  0.
        -12    1    1    2    0    0 -0.39693946838E+02 -0.17113942021E+01 -0.17466681546E+02  0.43400728680E+02  0.00000000000E+00 0.  1.
         11    1    3    3    0    0  0.15945180324E+02 -0.47311575827E+01  0.11814908201E+02  0.20401585323E+02  0.51100000000E-03 0. -1.
        -11    1    3    3    0    0  0.13877537316E+02  0.90679200934E+01  0.32595685213E+01  0.16894910594E+02  0.51100000000E-03 0.  1.
         12    1    3    3    0    0  0.98712291988E+01 -0.26253683086E+01  0.23922048241E+01  0.10490775404E+02  0.00000000000E+00 0. -1.
</event>
<event>
 7    1  0.2756432E-009  0.4778727E+02  0.7816164E-02  0.1312668E+00
        -11   -1    0    0    0    0  0.00000000000E+00  0.00000000000E+00  0.45593999997E+02  0.45594000000E+02  0.51100000000E-03 0.  1.
         11   -1    0    0    0    0 -0.00000000000E+00 -0.00000000000E+00 -0.45593999997E+02  0.45594000000E+02  0.51100000000E-03 0. -1.
    9900012    2    1    2    0    0  0.90759382878E+01 -0.30656070819E+02 -0.29350570721E+02  0.47787270335E+02  0.19999996764E+02 0.  0.
        -12    1    1    2    0    0 -0.90759382878E+01  0.30656070819E+02  0.29350570721E+02  0.43400729665E+02  0.00000000000E+00 0.  1.
         11    1    3    3    0    0 -0.29806369414E+01 -0.11093316089E+02 -0.12427604133E+02  0.16923096737E+02  0.51100000000E-03 0. -1.
        -11    1    3    3    0    0  0.88618204303E+01 -0.41690396667E+01 -0.88077447448E+01  0.13171526898E+02  0.51100000000E-03 0.  1.
        -12    1    3    3    0    0  0.31947547989E+01 -0.15393715063E+02 -0.81152218434E+01  0.17692646699E+02  0.00000000000E+00 0.  1.
</event>
<event>
 7    1  0.2756432E-009  0.4778731E+02  0.7816164E-02  0.1312668E+00
        -11   -1    0    0    0    0  0.00000000000E+00  0.00000000000E+00  0.45593999997E+02  0.45594000000E+02  0.51100000000E-03 0.  1.
         11   -1    0    0    0    0 -0.00000000000E+00 -0.00000000000E+00 -0.45593999997E+02  0.45594000000E+02  0.51100000000E-03 0. -1.
    9900012    2    1    2    0    0 -0.10275266564E+02  0.99854212199E+01 -0.40967428734E+02  0.47787309257E+02  0.20000174227E+02 0.  0.
        -12    1    1    2    0    0  0.10275266564E+02 -0.99854212199E+01  0.40967428734E+02  0.43400690743E+02  0.00000000000E+00 0.  1.
         11    1    3    3    0    0 -0.54964998980E+01  0.10112851772E+02 -0.35896286101E+02  0.37696480448E+02  0.51100000000E-03 0. -1.
        -11    1    3    3    0    0 -0.60055683160E+01  0.17774513446E+01 -0.27280607280E+01  0.68314346720E+01  0.51100000000E-03 0.  1.
         12    1    3    3    0    0  0.12268016502E+01 -0.19048818966E+01 -0.23430819046E+01  0.32593941371E+01  0.00000000000E+00 0. -1.
</event>
<event>
 7    1  0.2756432E-009  0.4778725E+02  0.7816164E-02  0.1312668E+00
        -11   -1    0    0    0    0  0.00000000000E+00  0.00000000000E+00  0.45593999997E+02  0.45594000000E+02  0.51100000000E-03 0.  1.
         11   -1    0    0    0    0 -0.00000000000E+00 -0.00000000000E+00 -0.45593999997E+02  0.45594000000E+02  0.51100000000E-03 0. -1.
    9900012    2    1    2    0    0  0.41108130890E+02  0.63531258317E+01 -0.12384844667E+02  0.47787251038E+02  0.19999908781E+02 0.  0.
        -12    1    1    2    0    0 -0.41108130890E+02 -0.63531258317E+01  0.12384844667E+02  0.43400748962E+02  0.00000000000E+00 0.  1.
         11    1    3    3    0    0  0.12696361136E+02  0.97168862579E+01 -0.23075755074E+01  0.16153648802E+02  0.51100000000E-03 0. -1.
        -11    1    3    3    0    0  0.13411007852E+02 -0.58865468661E+01 -0.34838951123E+01  0.15054703286E+02  0.51100000000E-03 0.  1.
         12    1    3    3    0    0  0.15000761901E+02  0.25227864398E+01 -0.65933740471E+01  0.16578898949E+02  0.00000000000E+00 0. -1.
</event>
<event>
 7    1  0.2756432E-009  0.4778731E+02  0.7816164E-02  0.1312668E+00
        -11   -1    0    0    0    0  0.00000000000E+00  0.00000000000E+00  0.45593999997E+02  0.45594000000E+02  0.51100000000E-03 0. -1.
         11   -1    0    0    0    0 -0.00000000000E+00 -0.00000000000E+00 -0.45593999997E+02  0.45594000000E+02  0.51100000000E-03 0.  1.
    9900012    2    1    2    0    0  0.28598101881E+02 -0.69722763555E+01 -0.31892881723E+02  0.47787309068E+02  0.20000173363E+02 0.  0.
        -12    1    1    2    0    0 -0.28598101881E+02  0.69722763555E+01  0.31892881723E+02  0.43400690932E+02  0.00000000000E+00 0.  1.
         11    1    3    3    0    0  0.17083656349E+02 -0.24579222170E+01 -0.24935597097E+02  0.30326171844E+02  0.51100000000E-03 0. -1.
        -11    1    3    3    0    0 -0.77861682212E+00 -0.34491391722E+01 -0.25460750079E+01  0.43572128008E+01  0.51100000000E-03 0.  1.
         12    1    3    3    0    0  0.12293062355E+02 -0.10652149663E+01 -0.44112096180E+01  0.13103924423E+02  0.00000000000E+00 0. -1.
</event>
<event>
 7    1  0.2756432E-009  0.4778727E+02  0.7816164E-02  0.1312668E+00
        -11   -1    0    0    0    0  0.00000000000E+00  0.00000000000E+00  0.45593999997E+02  0.45594000000E+02  0.51100000000E-03 0.  1.
         11   -1    0    0    0    0 -0.00000000000E+00 -0.00000000000E+00 -0.45593999997E+02  0.45594000000E+02  0.51100000000E-03 0. -1.
    9900012    2    1    2    0    0  0.34566115396E+02 -0.11066745409E+02 -0.23797774459E+02  0.47787271242E+02  0.20000000900E+02 0.  0.
        -12    1    1    2    0    0 -0.34566115396E+02  0.11066745409E+02  0.23797774459E+02  0.43400728758E+02  0.00000000000E+00 0.  1.
         11    1    3    3    0    0  0.18788130566E+01  0.28527828923E+01  0.53450058813E+00  0.34574556934E+01  0.51100000000E-03 0. -1.
        -11    1    3    3    0    0  0.30196340657E+02 -0.89492693468E+01 -0.20571239128E+02  0.37617606123E+02  0.51100000000E-03 0.  1.
        -12    1    3    3    0    0  0.24909616821E+01 -0.49702589548E+01 -0.37610359194E+01  0.67122094251E+01  0.00000000000E+00 0.  1.
</event>
<event>
 7    1  0.2756432E-009  0.4778727E+02  0.7816164E-02  0.1312668E+00
        -11   -1    0    0    0    0  0.00000000000E+00  0.00000000000E+00  0.45593999997E+02  0.45594000000E+02  0.51100000000E-03 0.  1.
         11   -1    0    0    0    0 -0.00000000000E+00 -0.00000000000E+00 -0.45593999997E+02  0.45594000000E+02  0.51100000000E-03 0. -1.
    9900012    2    1    2    0    0 -0.16951873784E+02 -0.12116847282E+02 -0.38071502885E+02  0.47787270228E+02  0.19999996277E+02 0.  0.
        -12    1    1    2    0    0  0.16951873784E+02  0.12116847282E+02  0.38071502885E+02  0.43400729772E+02  0.00000000000E+00 0.  1.
         11    1    3    3    0    0 -0.32404201436E+01 -0.83850978354E+01 -0.15777993257E+02  0.18159164626E+02  0.51100000000E-03 0. -1.
        -11    1    3    3    0    0 -0.18066746561E+01  0.46265180526E+01 -0.58609274463E+01  0.76823963316E+01  0.51100000000E-03 0.  1.
        -12    1    3    3    0    0 -0.11904778984E+02 -0.83582674988E+01 -0.16432582181E+02  0.21945709271E+02  0.00000000000E+00 0.  1.
</event>
<event>
 7    1  0.2756432E-009  0.4778727E+02  0.7816164E-02  0.1312668E+00
        -11   -1    0    0    0    0  0.00000000000E+00  0.00000000000E+00  0.45593999997E+02  0.45594000000E+02  0.51100000000E-03 0. -1.
         11   -1    0    0    0    0 -0.00000000000E+00 -0.00000000000E+00 -0.45593999997E+02  0.45594000000E+02  0.51100000000E-03 0.  1.
    9900012    2    1    2    0    0 -0.38162961366E+02 -0.38175562997E+01  0.20313489895E+02  0.47787271572E+02  0.20000002406E+02 0.  0.
        -12    1    1    2    0    0  0.38162961366E+02  0.38175562997E+01 -0.20313489895E+02  0.43400728428E+02  0.00000000000E+00 0.  1.
         11    1    3    3    0    0 -0.10489177966E+02  0.50983308358E+01  0.80349719272E+01  0.14162507047E+02  0.51100000000E-03 0. -1.
        -11    1    3    3    0    0 -0.18788717346E+01 -0.44479252497E+01  0.30663983196E+00  0.48382048603E+01  0.51100000000E-03 0.  1.
         12    1    3    3    0    0 -0.25794911666E+02 -0.44679618858E+01  0.11971878136E+02  0.28786559665E+02  0.00000000000E+00 0. -1.
</event>
<event>
 7    1  0.2756432E-009  0.4778727E+02  0.7816164E-02  0.1312668E+00
        -11   -1    0    0    0    0  0.00000000000E+00  0.00000000000E+00  0.45593999997E+02  0.45594000000E+02  0.51100000000E-03 0.  1.
         11   -1    0    0    0    0 -0.00000000000E+00 -0.00000000000E+00 -0.45593999997E+02  0.45594000000E+02  0.51100000000E-03 0. -1.
    9900012    2    1    2    0    0  0.32528618446E+02  0.94770905748E+01 -0.27123738050E+02  0.47787269251E+02  0.19999991822E+02 0.  0.
        -12    1    1    2    0    0 -0.32528618446E+02 -0.94770905748E+01  0.27123738050E+02  0.43400730749E+02  0.00000000000E+00 0.  1.
         11    1    3    3    0    0  0.68404620549E+01 -0.49285404274E+01 -0.74945110132E+01  0.11280519822E+02  0.51100000000E-03 0.  1.
        -11    1    3    3    0    0  0.66416504254E+01  0.85364782178E+01 -0.77344573880E+01  0.13296797061E+02  0.51100000000E-03 0. -1.
        -12    1    3    3    0    0  0.19046505966E+02  0.58691527844E+01 -0.11894769649E+02  0.23209952368E+02  0.00000000000E+00 0.  1.
</event>
<event>
 7    1  0.2756432E-009  0.4778728E+02  0.7816164E-02  0.1312668E+00
        -11   -1    0    0    0    0  0.00000000000E+00  0.00000000000E+00  0.45593999997E+02  0.45594000000E+02  0.51100000000E-03 0.  1.
         11   -1    0    0    0    0 -0.00000000000E+00 -0.00000000000E+00 -0.45593999997E+02  0.45594000000E+02  0.51100000000E-03 0. -1.
    9900012    2    1    2    0    0  0.37189006265E+02  0.18922813496E+02 -0.11938498734E+02  0.47787276393E+02  0.20000024387E+02 0.  0.
        -12    1    1    2    0    0 -0.37189006265E+02 -0.18922813496E+02  0.11938498734E+02  0.43400723607E+02  0.00000000000E+00 0.  1.
         11    1    3    3    0    0  0.33763007675E+02  0.16764178280E+02 -0.14881688033E+02  0.40527065026E+02  0.51100000000E-03 0. -1.
        -11    1    3    3    0    0  0.80276959272E+00  0.27895496625E+01 -0.43678973195E+00  0.29354406602E+01  0.51100000000E-03 0.  1.
         12    1    3    3    0    0  0.26232289978E+01 -0.63091444699E+00  0.33799790315E+01  0.43247707069E+01  0.00000000000E+00 0. -1.
</event>
<event>
 7    1  0.2756432E-009  0.4778727E+02  0.7816164E-02  0.1312668E+00
        -11   -1    0    0    0    0  0.00000000000E+00  0.00000000000E+00  0.45593999997E+02  0.45594000000E+02  0.51100000000E-03 0. -1.
         11   -1    0    0    0    0 -0.00000000000E+00 -0.00000000000E+00 -0.45593999997E+02  0.45594000000E+02  0.51100000000E-03 0.  1.
    9900012    2    1    2    0    0 -0.25040660122E+02  0.35408716211E+01  0.35271112232E+02  0.47787265107E+02  0.19999972930E+02 0.  0.
        -12    1    1    2    0    0  0.25040660122E+02 -0.35408716211E+01 -0.35271112232E+02  0.43400734893E+02  0.00000000000E+00 0.  1.
         11    1    3    3    0    0 -0.91127464585E+01  0.51064299213E+01  0.17976585936E+02  0.20791234132E+02  0.51100000000E-03 0. -1.
        -11    1    3    3    0    0 -0.88622510297E+01 -0.71653627773E+01  0.72905885495E+01  0.13529028003E+02  0.51100000000E-03 0.  1.
        -12    1    3    3    0    0 -0.70656626335E+01  0.55998044771E+01  0.10003937747E+02  0.13467002973E+02  0.00000000000E+00 0.  1.
</event>
<event>
 7    1  0.2756432E-009  0.4778728E+02  0.7816164E-02  0.1312668E+00
        -11   -1    0    0    0    0  0.00000000000E+00  0.00000000000E+00  0.45593999997E+02  0.45594000000E+02  0.51100000000E-03 0. -1.
         11   -1    0    0    0    0 -0.00000000000E+00 -0.00000000000E+00 -0.45593999997E+02  0.45594000000E+02  0.51100000000E-03 0.  1.
    9900012    2    1    2    0    0 -0.25387583143E+02 -0.30916511893E+02  0.16830408035E+02  0.47787277424E+02  0.20000029089E+02 0.  0.
        -12    1    1    2    0    0  0.25387583143E+02  0.30916511893E+02 -0.16830408035E+02  0.43400722576E+02  0.00000000000E+00 0.  1.
         11    1    3    3    0    0 -0.51418382575E+01 -0.11271937437E+02  0.12840011700E+01  0.12455670737E+02  0.51100000000E-03 0. -1.
        -11    1    3    3    0    0 -0.13471834718E+01 -0.10024953848E+02  0.77315028039E+01  0.12731486120E+02  0.51100000000E-03 0.  1.
        -12    1    3    3    0    0 -0.18898561414E+02 -0.96196206076E+01  0.78149040606E+01  0.22600120567E+02  0.00000000000E+00 0.  1.
</event>
<event>
 7    1  0.2756432E-009  0.4778727E+02  0.7816164E-02  0.1312668E+00
        -11   -1    0    0    0    0  0.00000000000E+00  0.00000000000E+00  0.45593999997E+02  0.45594000000E+02  0.51100000000E-03 0.  1.
         11   -1    0    0    0    0 -0.00000000000E+00 -0.00000000000E+00 -0.45593999997E+02  0.45594000000E+02  0.51100000000E-03 0. -1.
    9900012    2    1    2    0    0 -0.37665446466E+02 -0.20705172112E+02 -0.60194006626E+01  0.47787271964E+02  0.20000004193E+02 0.  0.
        -12    1    1    2    0    0  0.37665446466E+02  0.20705172112E+02  0.60194006626E+01  0.43400728036E+02  0.00000000000E+00 0.  1.
         11    1    3    3    0    0 -0.17587111583E+02 -0.68212553214E+01 -0.89041264137E+01  0.20859517862E+02  0.51100000000E-03 0. -1.
        -11    1    3    3    0    0 -0.12411122236E+02 -0.56066856096E+01  0.64858385227E+01  0.15084328964E+02  0.51100000000E-03 0.  1.
        -12    1    3    3    0    0 -0.76672126471E+01 -0.82772311812E+01 -0.36011127717E+01  0.11843425138E+02  0.00000000000E+00 0.  1.
</event>
<event>
 7    1  0.2756432E-009  0.4778728E+02  0.7816164E-02  0.1312668E+00
        -11   -1    0    0    0    0  0.00000000000E+00  0.00000000000E+00  0.45593999997E+02  0.45594000000E+02  0.51100000000E-03 0.  1.
         11   -1    0    0    0    0 -0.00000000000E+00 -0.00000000000E+00 -0.45593999997E+02  0.45594000000E+02  0.51100000000E-03 0. -1.
    9900012    2    1    2    0    0 -0.25788314551E+00  0.43396924482E+02 -0.51295020231E+00  0.47787277930E+02  0.20000031396E+02 0.  0.
        -12    1    1    2    0    0  0.25788314551E+00 -0.43396924482E+02  0.51295020231E+00  0.43400722070E+02  0.00000000000E+00 0.  1.
         11    1    3    3    0    0  0.45111545767E+01  0.18135873897E+02 -0.58514055702E+01  0.19583140326E+02  0.51100000000E-03 0. -1.
        -11    1    3    3    0    0 -0.61425249883E+01  0.84378202275E+01 -0.20230319104E+00  0.10438790651E+02  0.51100000000E-03 0.  1.
         12    1    3    3    0    0  0.13734872661E+01  0.16823230358E+02  0.55407585589E+01  0.17765346953E+02  0.00000000000E+00 0. -1.
</event>
<event>
 7    1  0.2756432E-009  0.4778727E+02  0.7816164E-02  0.1312668E+00
        -11   -1    0    0    0    0  0.00000000000E+00  0.00000000000E+00  0.45593999997E+02  0.45594000000E+02  0.51100000000E-03 0.  1.
         11   -1    0    0    0    0 -0.00000000000E+00 -0.00000000000E+00 -0.45593999997E+02  0.45594000000E+02  0.51100000000E-03 0. -1.
    9900012    2    1    2    0    0  0.93873633389E+01  0.16532033279E+02 -0.39015288630E+02  0.47787268880E+02  0.19999990134E+02 0.  0.
        -12    1    1    2    0    0 -0.93873633389E+01 -0.16532033279E+02  0.39015288630E+02  0.43400731120E+02  0.00000000000E+00 0.  1.
         11    1    3    3    0    0  0.10843767116E+02  0.89353093604E+01 -0.12171500096E+02  0.18589579163E+02  0.51100000000E-03 0.  1.
        -11    1    3    3    0    0  0.62689600238E+00  0.84589780531E+01 -0.24581091779E+02  0.26003410961E+02  0.51100000000E-03 0. -1.
        -12    1    3    3    0    0 -0.20832997792E+01 -0.86225413471E+00 -0.22626967554E+01  0.31942787558E+01  0.00000000000E+00 0.  1.
</event>
<event>
 7    1  0.2756432E-009  0.4778727E+02  0.7816164E-02  0.1312668E+00
        -11   -1    0    0    0    0  0.00000000000E+00  0.00000000000E+00  0.45593999997E+02  0.45594000000E+02  0.51100000000E-03 0. -1.
         11   -1    0    0    0    0 -0.00000000000E+00 -0.00000000000E+00 -0.45593999997E+02  0.45594000000E+02  0.51100000000E-03 0.  1.
    9900012    2    1    2    0    0  0.13941167050E+02  0.62887603357E+01  0.40616729493E+02  0.47787270052E+02  0.19999995476E+02 0.  0.
        -12    1    1    2    0    0 -0.13941167050E+02 -0.62887603357E+01 -0.40616729493E+02  0.43400729948E+02  0.00000000000E+00 0.  1.
         11    1    3    3    0    0  0.49599808805E+01  0.85716778173E+01  0.16529780081E+02  0.19269372090E+02  0.51100000000E-03 0. -1.
        -11    1    3    3    0    0  0.13557302723E+01 -0.47357455823E+01  0.25653534939E+01  0.55539472091E+01  0.51100000000E-03 0.  1.
        -12    1    3    3    0    0  0.76254558976E+01  0.24528281008E+01  0.21521595918E+02  0.22963950753E+02  0.00000000000E+00 0.  1.
</event>
<event>
 7    1  0.2756432E-009  0.4778727E+02  0.7816164E-02  0.1312668E+00
        -11   -1    0    0    0    0  0.00000000000E+00  0.00000000000E+00  0.45593999997E+02  0.45594000000E+02  0.51100000000E-03 0. -1.
         11   -1    0    0    0    0 -0.00000000000E+00 -0.00000000000E+00 -0.45593999997E+02  0.45594000000E+02  0.51100000000E-03 0.  1.
    9900012    2    1    2    0    0 -0.36996564227E+02  0.21979608417E+02  0.56368547486E+01  0.47787273253E+02  0.20000010069E+02 0.  0.
        -12    1    1    2    0    0  0.36996564227E+02 -0.21979608417E+02 -0.56368547486E+01  0.43400726747E+02  0.00000000000E+00 0.  1.
         11    1    3    3    0    0 -0.50724195636E+01  0.12324382528E+02 -0.19242097739E+01  0.13465601674E+02  0.51100000000E-03 0. -1.
        -11    1    3    3    0    0 -0.15565477707E+02  0.54960944209E+01  0.50102553821E+01  0.17250907495E+02  0.51100000000E-03 0.  1.
         12    1    3    3    0    0 -0.16358666956E+02  0.41591314678E+01  0.25508091404E+01  0.17070764084E+02  0.00000000000E+00 0. -1.
</event>
<event>
 7    1  0.2756432E-009  0.4778728E+02  0.7816164E-02  0.1312668E+00
        -11   -1    0    0    0    0  0.00000000000E+00  0.00000000000E+00  0.45593999997E+02  0.45594000000E+02  0.51100000000E-03 0. -1.
         11   -1    0    0    0    0 -0.00000000000E+00 -0.00000000000E+00 -0.45593999997E+02  0.45594000000E+02  0.51100000000E-03 0.  1.
    9900012    2    1    2    0    0  0.12640940706E+01 -0.37770966689E+01  0.43217564129E+02  0.47787282929E+02  0.20000054185E+02 0.  0.
        -12    1    1    2    0    0 -0.12640940706E+01  0.37770966689E+01 -0.43217564129E+02  0.43400717071E+02  0.00000000000E+00 0.  1.
         11    1    3    3    0    0  0.28160708578E+01  0.12782707118E+01 -0.35304938517E+00  0.31126958121E+01  0.51100000000E-03 0. -1.
        -11    1    3    3    0    0 -0.47975212421E+01 -0.40483658435E+01  0.23792970372E+02  0.24607131395E+02  0.51100000000E-03 0.  1.
        -12    1    3    3    0    0  0.32455444549E+01 -0.10070015373E+01  0.19777643142E+02  0.20067455722E+02  0.00000000000E+00 0.  1.
</event>
<event>
 7    1  0.2756432E-009  0.4778727E+02  0.7816164E-02  0.1312668E+00
        -11   -1    0    0    0    0  0.00000000000E+00  0.00000000000E+00  0.45593999997E+02  0.45594000000E+02  0.51100000000E-03 0.  1.
         11   -1    0    0    0    0 -0.00000000000E+00 -0.00000000000E+00 -0.45593999997E+02  0.45594000000E+02  0.51100000000E-03 0. -1.
    9900012    2    1    2    0    0 -0.16681568115E+02  0.11291504659E+02 -0.38442822132E+02  0.47787269987E+02  0.19999995178E+02 0.  0.
        -12    1    1    2    0    0  0.16681568115E+02 -0.11291504659E+02  0.38442822132E+02  0.43400730013E+02  0.00000000000E+00 0.  1.
         11    1    3    3    0    0 -0.14714103690E+02  0.12204497396E+02 -0.24525067025E+02  0.31095554617E+02  0.51100000000E-03 0. -1.
        -11    1    3    3    0    0  0.96782129313E+00  0.16754449922E+01 -0.12309420317E+02  0.12460562699E+02  0.51100000000E-03 0.  1.
         12    1    3    3    0    0 -0.29352857182E+01 -0.25884377295E+01 -0.16083347889E+01  0.42311526704E+01  0.00000000000E+00 0. -1.
</event>
<event>
 7    1  0.2756432E-009  0.4778727E+02  0.7816164E-02  0.1312668E+00
        -11   -1    0    0    0    0  0.00000000000E+00  0.00000000000E+00  0.45593999997E+02  0.45594000000E+02  0.51100000000E-03 0.  1.
         11   -1    0    0    0    0 -0.00000000000E+00 -0.00000000000E+00 -0.45593999997E+02  0.45594000000E+02  0.51100000000E-03 0. -1.
    9900012    2    1    2    0    0 -0.40889053884E+02  0.88473753571E+01 -0.11551285689E+02  0.47787274438E+02  0.20000015473E+02 0.  0.
        -12    1    1    2    0    0  0.40889053884E+02 -0.88473753571E+01  0.11551285689E+02  0.43400725562E+02  0.00000000000E+00 0.  1.
         11    1    3    3    0    0 -0.12720847417E+02  0.86254271137E+01 -0.43171928382E+01  0.15964213296E+02  0.51100000000E-03 0. -1.
        -11    1    3    3    0    0 -0.20141460887E+02  0.57941713756E+01 -0.68310208347E+01  0.22043450603E+02  0.51100000000E-03 0.  1.
        -12    1    3    3    0    0 -0.80267455801E+01 -0.55722231323E+01 -0.40307201559E+00  0.97796105389E+01  0.00000000000E+00 0.  1.
</event>
<event>
 7    1  0.2756432E-009  0.4778727E+02  0.7816164E-02  0.1312668E+00
        -11   -1    0    0    0    0  0.00000000000E+00  0.00000000000E+00  0.45593999997E+02  0.45594000000E+02  0.51100000000E-03 0.  1.
         11   -1    0    0    0    0 -0.00000000000E+00 -0.00000000000E+00 -0.45593999997E+02  0.45594000000E+02  0.51100000000E-03 0. -1.
    9900012    2    1    2    0    0 -0.74876155246E+00 -0.36235224082E+02 -0.23876158000E+02  0.47787273866E+02  0.20000012863E+02 0.  0.
        -12    1    1    2    0    0  0.74876155246E+00  0.36235224082E+02  0.23876158000E+02  0.43400726134E+02  0.00000000000E+00 0.  1.
         11    1    3    3    0    0  0.43304995350E+01 -0.26444874306E+02 -0.14038859411E+02  0.30251845846E+02  0.51100000000E-03 0. -1.
        -11    1    3    3    0    0 -0.15428181351E+01 -0.47745339535E+00  0.16646106028E+01  0.23193055561E+01  0.51100000000E-03 0.  1.
         12    1    3    3    0    0 -0.35364429524E+01 -0.93128963811E+01 -0.11501909192E+02  0.15216122463E+02  0.00000000000E+00 0. -1.
</event>
<event>
 7    1  0.2756432E-009  0.4778727E+02  0.7816164E-02  0.1312668E+00
        -11   -1    0    0    0    0  0.00000000000E+00  0.00000000000E+00  0.45593999997E+02  0.45594000000E+02  0.51100000000E-03 0. -1.
         11   -1    0    0    0    0 -0.00000000000E+00 -0.00000000000E+00 -0.45593999997E+02  0.45594000000E+02  0.51100000000E-03 0.  1.
    9900012    2    1    2    0    0 -0.42053457091E+02  0.79460054717E+01  0.72104688950E+01  0.47787272841E+02  0.20000008190E+02 0.  0.
        -12    1    1    2    0    0  0.42053457091E+02 -0.79460054717E+01 -0.72104688950E+01  0.43400727159E+02  0.00000000000E+00 0.  1.
         11    1    3    3    0    0  0.49924535308E+00 -0.12395745597E+01  0.25740218939E+01  0.29002379183E+01  0.51100000000E-03 0.  1.
        -11    1    3    3    0    0 -0.33510112541E+02  0.89838788477E+01  0.73101963101E+01  0.35455277350E+02  0.51100000000E-03 0. -1.
        -12    1    3    3    0    0 -0.90425899035E+01  0.20170118367E+00 -0.26737493090E+01  0.94317575721E+01  0.00000000000E+00 0.  1.
</event>
<event>
 7    1  0.2756432E-009  0.4778727E+02  0.7816164E-02  0.1312668E+00
        -11   -1    0    0    0    0  0.00000000000E+00  0.00000000000E+00  0.45593999997E+02  0.45594000000E+02  0.51100000000E-03 0.  1.
         11   -1    0    0    0    0 -0.00000000000E+00 -0.00000000000E+00 -0.45593999997E+02  0.45594000000E+02  0.51100000000E-03 0. -1.
    9900012    2    1    2    0    0 -0.70238096406E+01  0.24987018147E+02 -0.34784168193E+02  0.47787270344E+02  0.19999996807E+02 0.  0.
        -12    1    1    2    0    0  0.70238096406E+01 -0.24987018147E+02  0.34784168193E+02  0.43400729656E+02  0.00000000000E+00 0.  1.
         11    1    3    3    0    0 -0.28492680744E+01  0.23191969805E+02 -0.16474279584E+02  0.28589992656E+02  0.51100000000E-03 0. -1.
        -11    1    3    3    0    0 -0.48206548600E+01  0.17191206480E+01 -0.16155480064E+02  0.16946788057E+02  0.51100000000E-03 0.  1.
         12    1    3    3    0    0  0.64611329381E+00  0.75927694821E-01 -0.21544085452E+01  0.22504896318E+01  0.00000000000E+00 0. -1.
</event>
<event>
 7    1  0.2756432E-009  0.4778727E+02  0.7816164E-02  0.1312668E+00
        -11   -1    0    0    0    0  0.00000000000E+00  0.00000000000E+00  0.45593999997E+02  0.45594000000E+02  0.51100000000E-03 0.  1.
         11   -1    0    0    0    0 -0.00000000000E+00 -0.00000000000E+00 -0.45593999997E+02  0.45594000000E+02  0.51100000000E-03 0. -1.
    9900012    2    1    2    0    0  0.17222793702E+02  0.65253801085E+01 -0.39299087131E+02  0.47787268925E+02  0.19999990338E+02 0.  0.
        -12    1    1    2    0    0 -0.17222793702E+02 -0.65253801085E+01  0.39299087131E+02  0.43400731075E+02  0.00000000000E+00 0.  1.
         11    1    3    3    0    0  0.53853378673E+01  0.61927514092E+01 -0.23755830930E+02  0.25133474439E+02  0.51100000000E-03 0. -1.
        -11    1    3    3    0    0  0.81639601850E+01  0.34838700772E-01 -0.17142119522E+01  0.83420610472E+01  0.51100000000E-03 0.  1.
        -12    1    3    3    0    0  0.36734956502E+01  0.29778999851E+00 -0.13829044249E+02  0.14311733439E+02  0.00000000000E+00 0.  1.
</event>
<event>
 7    1  0.2756432E-009  0.4778727E+02  0.7816164E-02  0.1312668E+00
        -11   -1    0    0    0    0  0.00000000000E+00  0.00000000000E+00  0.45593999997E+02  0.45594000000E+02  0.51100000000E-03 0. -1.
         11   -1    0    0    0    0 -0.00000000000E+00 -0.00000000000E+00 -0.45593999997E+02  0.45594000000E+02  0.51100000000E-03 0.  1.
    9900012    2    1    2    0    0  0.17001251462E+02 -0.37463813856E+02  0.13821856312E+02  0.47787267151E+02  0.19999982246E+02 0.  0.
        -12    1    1    2    0    0 -0.17001251462E+02  0.37463813856E+02 -0.13821856312E+02  0.43400732849E+02  0.00000000000E+00 0.  1.
         11    1    3    3    0    0  0.19062288491E+02 -0.19019389543E+02  0.73811384055E+01  0.27921125076E+02  0.51100000000E-03 0. -1.
        -11    1    3    3    0    0 -0.21809144115E+01 -0.71382566724E+01  0.30363219839E+01  0.80579369222E+01  0.51100000000E-03 0.  1.
         12    1    3    3    0    0  0.11987738255E+00 -0.11306167641E+02  0.34043959230E+01  0.11808205152E+02  0.00000000000E+00 0. -1.
</event>
<event>
 7    1  0.2756432E-009  0.4778727E+02  0.7816164E-02  0.1312668E+00
        -11   -1    0    0    0    0  0.00000000000E+00  0.00000000000E+00  0.45593999997E+02  0.45594000000E+02  0.51100000000E-03 0. -1.
         11   -1    0    0    0    0 -0.00000000000E+00 -0.00000000000E+00 -0.45593999997E+02  0.45594000000E+02  0.51100000000E-03 0.  1.
    9900012    2    1    2    0    0 -0.42934400957E+02 -0.55003211679E+01 -0.31633838903E+01  0.47787270558E+02  0.19999997780E+02 0.  0.
        -12    1    1    2    0    0  0.42934400957E+02  0.55003211679E+01  0.31633838903E+01  0.43400729442E+02  0.00000000000E+00 0.  1.
         11    1    3    3    0    0 -0.19557437907E+02 -0.49850924726E+00  0.64566364346E+01  0.20601700009E+02  0.51100000000E-03 0. -1.
        -11    1    3    3    0    0 -0.20884272037E+01  0.21168313775E+01 -0.94137237961E+00  0.31190840778E+01  0.51100000000E-03 0.  1.
         12    1    3    3    0    0 -0.21288535847E+02 -0.71186432981E+01 -0.86786479453E+01  0.24066486471E+02  0.00000000000E+00 0. -1.
</event>
<event>
 7    1  0.2756432E-009  0.4778727E+02  0.7816164E-02  0.1312668E+00
        -11   -1    0    0    0    0  0.00000000000E+00  0.00000000000E+00  0.45593999997E+02  0.45594000000E+02  0.51100000000E-03 0. -1.
         11   -1    0    0    0    0 -0.00000000000E+00 -0.00000000000E+00 -0.45593999997E+02  0.45594000000E+02  0.51100000000E-03 0.  1.
    9900012    2    1    2    0    0 -0.40466876707E+02  0.84745509522E+01  0.13199903922E+02  0.47787267428E+02  0.19999983512E+02 0.  0.
        -12    1    1    2    0    0  0.40466876707E+02 -0.84745509522E+01 -0.13199903922E+02  0.43400732572E+02  0.00000000000E+00 0.  1.
         11    1    3    3    0    0 -0.14826563979E+02  0.28924673687E+01  0.83656538611E+01  0.17267817803E+02  0.51100000000E-03 0. -1.
        -11    1    3    3    0    0 -0.15910431964E+02 -0.38870206797E+01  0.98782913255E+00  0.16408125478E+02  0.51100000000E-03 0.  1.
        -12    1    3    3    0    0 -0.97298807633E+01  0.94691042632E+01  0.38464209279E+01  0.14111324147E+02  0.00000000000E+00 0.  1.
</event>
<event>
 7    1  0.2756432E-009  0.4778727E+02  0.7816164E-02  0.1312668E+00
        -11   -1    0    0    0    0  0.00000000000E+00  0.00000000000E+00  0.45593999997E+02  0.45594000000E+02  0.51100000000E-03 0.  1.
         11   -1    0    0    0    0 -0.00000000000E+00 -0.00000000000E+00 -0.45593999997E+02  0.45594000000E+02  0.51100000000E-03 0. -1.
    9900012    2    1    2    0    0  0.72716749317E+00 -0.43112878121E+02 -0.49370366738E+01  0.47787270011E+02  0.19999995290E+02 0.  0.
        -12    1    1    2    0    0 -0.72716749317E+00  0.43112878121E+02  0.49370366738E+01  0.43400729989E+02  0.00000000000E+00 0.  1.
         11    1    3    3    0    0  0.20526693596E+01 -0.19509946536E+02 -0.54043793696E+01  0.20348434386E+02  0.51100000000E-03 0. -1.
        -11    1    3    3    0    0 -0.73281434624E+01 -0.92964958756E+01  0.12569962063E+01  0.11904056531E+02  0.51100000000E-03 0.  1.
        -12    1    3    3    0    0  0.60026415960E+01 -0.14306435710E+02 -0.78965351049E+00  0.15534779094E+02  0.00000000000E+00 0.  1.
</event>
<event>
 7    1  0.2756432E-009  0.4778727E+02  0.7816164E-02  0.1312668E+00
        -11   -1    0    0    0    0  0.00000000000E+00  0.00000000000E+00  0.45593999997E+02  0.45594000000E+02  0.51100000000E-03 0.  1.
         11   -1    0    0    0    0 -0.00000000000E+00 -0.00000000000E+00 -0.45593999997E+02  0.45594000000E+02  0.51100000000E-03 0. -1.
    9900012    2    1    2    0    0 -0.36361374535E+02  0.22654726874E+02 -0.69452874638E+01  0.47787271599E+02  0.20000002527E+02 0.  0.
        -12    1    1    2    0    0  0.36361374535E+02 -0.22654726874E+02  0.69452874638E+01  0.43400728401E+02  0.00000000000E+00 0.  1.
         11    1    3    3    0    0 -0.25462104358E+02  0.71486036271E+01 -0.27028230548E+01  0.26584328934E+02  0.51100000000E-03 0. -1.
        -11    1    3    3    0    0  0.26424753890E+00  0.48288984678E+01  0.90550453116E+00  0.49201652301E+01  0.51100000000E-03 0.  1.
         12    1    3    3    0    0 -0.11163517716E+02  0.10677224779E+02 -0.51479689401E+01  0.16282777435E+02  0.00000000000E+00 0. -1.
</event>
<event>
 7    1  0.2756432E-009  0.4778728E+02  0.7816164E-02  0.1312668E+00
        -11   -1    0    0    0    0  0.00000000000E+00  0.00000000000E+00  0.45593999997E+02  0.45594000000E+02  0.51100000000E-03 0.  1.
         11   -1    0    0    0    0 -0.00000000000E+00 -0.00000000000E+00 -0.45593999997E+02  0.45594000000E+02  0.51100000000E-03 0. -1.
    9900012    2    1    2    0    0 -0.73695543385E+01 -0.28794223527E+02 -0.31626017480E+02  0.47787278562E+02  0.20000034277E+02 0.  0.
        -12    1    1    2    0    0  0.73695543385E+01  0.28794223527E+02  0.31626017480E+02  0.43400721438E+02  0.00000000000E+00 0.  1.
         11    1    3    3    0    0 -0.51465708564E+01 -0.28902341976E+02 -0.28216996578E+02  0.40718932445E+02  0.51100000000E-03 0. -1.
        -11    1    3    3    0    0  0.41203278758E+00  0.24850103032E+01 -0.21216550394E+01  0.32933975758E+01  0.51100000000E-03 0.  1.
         12    1    3    3    0    0 -0.26350162698E+01 -0.23768918539E+01 -0.12873658624E+01  0.37749485415E+01  0.00000000000E+00 0. -1.
</event>
<event>
 7    1  0.2756432E-009  0.4778728E+02  0.7816164E-02  0.1312668E+00
        -11   -1    0    0    0    0  0.00000000000E+00  0.00000000000E+00  0.45593999997E+02  0.45594000000E+02  0.51100000000E-03 0. -1.
         11   -1    0    0    0    0 -0.00000000000E+00 -0.00000000000E+00 -0.45593999997E+02  0.45594000000E+02  0.51100000000E-03 0.  1.
    9900012    2    1    2    0    0  0.25812772752E+02  0.33726237629E+02 -0.89366824361E+01  0.47787278408E+02  0.20000033572E+02 0.  0.
        -12    1    1    2    0    0 -0.25812772752E+02 -0.33726237629E+02  0.89366824361E+01  0.43400721592E+02  0.00000000000E+00 0.  1.
         11    1    3    3    0    0  0.22349860309E+02  0.20716583270E+02 -0.13715622623E+01  0.30505315300E+02  0.51100000000E-03 0. -1.
        -11    1    3    3    0    0 -0.19844359260E+01  0.42558353494E+01 -0.37211526254E+00  0.47104766739E+01  0.51100000000E-03 0.  1.
         12    1    3    3    0    0  0.54473483685E+01  0.87538190102E+01 -0.71930049113E+01  0.12571486434E+02  0.00000000000E+00 0. -1.
</event>
<event>
 7    1  0.2756432E-009  0.4778727E+02  0.7816164E-02  0.1312668E+00
        -11   -1    0    0    0    0  0.00000000000E+00  0.00000000000E+00  0.45593999997E+02  0.45594000000E+02  0.51100000000E-03 0.  1.
         11   -1    0    0    0    0 -0.00000000000E+00 -0.00000000000E+00 -0.45593999997E+02  0.45594000000E+02  0.51100000000E-03 0. -1.
    9900012    2    1    2    0    0  0.28741063418E+01 -0.24584373609E+02 -0.35650681580E+02  0.47787274083E+02  0.20000013854E+02 0.  0.
        -12    1    1    2    0    0 -0.28741063418E+01  0.24584373609E+02  0.35650681580E+02  0.43400725917E+02  0.00000000000E+00 0.  1.
         11    1    3    3    0    0 -0.12482070433E+01 -0.20477477564E+02 -0.34268311733E+02  0.39939983694E+02  0.51100000000E-03 0. -1.
        -11    1    3    3    0    0  0.41488419568E+01 -0.51021408301E+01 -0.17177528282E+01  0.67967202143E+01  0.51100000000E-03 0.  1.
         12    1    3    3    0    0 -0.26528571591E-01  0.99524478522E+00  0.33538298125E+00  0.10505701746E+01  0.00000000000E+00 0. -1.
</event>
<event>
 7    1  0.2756432E-009  0.4778727E+02  0.7816164E-02  0.1312668E+00
        -11   -1    0    0    0    0  0.00000000000E+00  0.00000000000E+00  0.45593999997E+02  0.45594000000E+02  0.51100000000E-03 0.  1.
         11   -1    0    0    0    0 -0.00000000000E+00 -0.00000000000E+00 -0.45593999997E+02  0.45594000000E+02  0.51100000000E-03 0. -1.
    9900012    2    1    2    0    0  0.23705592915E+02 -0.35430024923E+02 -0.81474728259E+01  0.47787272876E+02  0.20000008350E+02 0.  0.
        -12    1    1    2    0    0 -0.23705592915E+02  0.35430024923E+02  0.81474728259E+01  0.43400727124E+02  0.00000000000E+00 0.  1.
         11    1    3    3    0    0  0.35037589295E+01 -0.11371340257E+02  0.23960782940E+01  0.12137746798E+02  0.51100000000E-03 0.  1.
        -11    1    3    3    0    0  0.22140545826E+02 -0.22473244256E+02 -0.96509963321E+01  0.32990789735E+02  0.51100000000E-03 0. -1.
         12    1    3    3    0    0 -0.19387118407E+01 -0.15854404095E+01 -0.89255478781E+00  0.26587363432E+01  0.00000000000E+00 0. -1.
</event>
<event>
 7    1  0.2756432E-009  0.4778727E+02  0.7816164E-02  0.1312668E+00
        -11   -1    0    0    0    0  0.00000000000E+00  0.00000000000E+00  0.45593999997E+02  0.45594000000E+02  0.51100000000E-03 0. -1.
         11   -1    0    0    0    0 -0.00000000000E+00 -0.00000000000E+00 -0.45593999997E+02  0.45594000000E+02  0.51100000000E-03 0.  1.
    9900012    2    1    2    0    0  0.33406407469E+02  0.19437638696E+02  0.19743693596E+02  0.47787270802E+02  0.19999998895E+02 0.  0.
        -12    1    1    2    0    0 -0.33406407469E+02 -0.19437638696E+02 -0.19743693596E+02  0.43400729198E+02  0.00000000000E+00 0.  1.
         11    1    3    3    0    0  0.13795452766E+02  0.15576341031E+02  0.14861411866E+02  0.25569483371E+02  0.51100000000E-03 0. -1.
        -11    1    3    3    0    0  0.40507887543E+01 -0.25598692328E+01  0.17142874011E+01  0.50892633627E+01  0.51100000000E-03 0.  1.
        -12    1    3    3    0    0  0.15560165950E+02  0.64211668977E+01  0.31679943289E+01  0.17128524069E+02  0.00000000000E+00 0.  1.
</event>
<event>
 7    1  0.2756432E-009  0.4778727E+02  0.7816164E-02  0.1312668E+00
        -11   -1    0    0    0    0  0.00000000000E+00  0.00000000000E+00  0.45593999997E+02  0.45594000000E+02  0.51100000000E-03 0.  1.
         11   -1    0    0    0    0 -0.00000000000E+00 -0.00000000000E+00 -0.45593999997E+02  0.45594000000E+02  0.51100000000E-03 0. -1.
    9900012    2    1    2    0    0 -0.51202112155E+00 -0.18249544241E+02 -0.39374043132E+02  0.47787270706E+02  0.19999998459E+02 0.  0.
        -12    1    1    2    0    0  0.51202112155E+00  0.18249544241E+02  0.39374043132E+02  0.43400729294E+02  0.00000000000E+00 0.  1.
         11    1    3    3    0    0  0.73722775377E+01 -0.31720352221E+01 -0.11388813800E+02  0.13932600747E+02  0.51100000000E-03 0. -1.
        -11    1    3    3    0    0 -0.64446612632E+01 -0.34070929912E+01 -0.10999321286E+02  0.13195719399E+02  0.51100000000E-03 0.  1.
         12    1    3    3    0    0 -0.14396373961E+01 -0.11670416028E+02 -0.16985908046E+02  0.20658950560E+02  0.00000000000E+00 0. -1.
</event>
<event>
 7    1  0.3615716E-009  0.4778727E+02  0.7816164E-02  0.1312668E+00
        -11   -1    0    0    0    0  0.00000000000E+00  0.00000000000E+00  0.45593999997E+02  0.45594000000E+02  0.51100000000E-03 0.  1.
         11   -1    0    0    0    0 -0.00000000000E+00 -0.00000000000E+00 -0.45593999997E+02  0.45594000000E+02  0.51100000000E-03 0. -1.
    9900012    2    1    2    0    0 -0.29530851320E+01  0.42665299554E+02 -0.73874794224E+01  0.47787270167E+02  0.19999995997E+02 0.  0.
        -12    1    1    2    0    0  0.29530851320E+01 -0.42665299554E+02  0.73874794224E+01  0.43400729833E+02  0.00000000000E+00 0.  1.
         11    1    3    3    0    0 -0.55616302879E-01  0.30784168258E+02 -0.84275876268E+01  0.31916960099E+02  0.51100000000E-03 0. -1.
        -11    1    3    3    0    0 -0.19833615836E+01 -0.90282733756E+00 -0.17002837910E+01  0.27640162090E+01  0.51100000000E-03 0.  1.
        -12    1    3    3    0    0 -0.91410724560E+00  0.12783958634E+02  0.27403919954E+01  0.13106293859E+02  0.00000000000E+00 0.  1.
</event>
<event>
 7    1  0.2756432E-009  0.4778727E+02  0.7816164E-02  0.1312668E+00
        -11   -1    0    0    0    0  0.00000000000E+00  0.00000000000E+00  0.45593999997E+02  0.45594000000E+02  0.51100000000E-03 0. -1.
         11   -1    0    0    0    0 -0.00000000000E+00 -0.00000000000E+00 -0.45593999997E+02  0.45594000000E+02  0.51100000000E-03 0.  1.
    9900012    2    1    2    0    0 -0.20646218092E+02  0.10132741294E+02  0.36806039702E+02  0.47787270442E+02  0.19999997254E+02 0.  0.
        -12    1    1    2    0    0  0.20646218092E+02 -0.10132741294E+02 -0.36806039702E+02  0.43400729558E+02  0.00000000000E+00 0.  1.
         11    1    3    3    0    0 -0.11515679584E+02  0.15525358310E+02  0.20600381811E+02  0.28249307212E+02  0.51100000000E-03 0. -1.
        -11    1    3    3    0    0 -0.34965213543E+01 -0.35108189103E+01  0.68024386614E+01  0.84157401935E+01  0.51100000000E-03 0.  1.
         12    1    3    3    0    0 -0.56340171539E+01 -0.18817981056E+01  0.94032192298E+01  0.11122223037E+02  0.00000000000E+00 0. -1.
</event>
<event>
 7    1  0.2756432E-009  0.4778727E+02  0.7816164E-02  0.1312668E+00
        -11   -1    0    0    0    0  0.00000000000E+00  0.00000000000E+00  0.45593999997E+02  0.45594000000E+02  0.51100000000E-03 0.  1.
         11   -1    0    0    0    0 -0.00000000000E+00 -0.00000000000E+00 -0.45593999997E+02  0.45594000000E+02  0.51100000000E-03 0. -1.
    9900012    2    1    2    0    0  0.23295682560E+02  0.14553928265E+02 -0.33602348651E+02  0.47787268569E+02  0.19999988713E+02 0.  0.
        -12    1    1    2    0    0 -0.23295682560E+02 -0.14553928265E+02  0.33602348651E+02  0.43400731431E+02  0.00000000000E+00 0.  1.
         11    1    3    3    0    0  0.54654461996E+01 -0.29908788843E+01 -0.19525948447E+01  0.65290953087E+01  0.51100000000E-03 0. -1.
        -11    1    3    3    0    0  0.36384315332E+01  0.82005748798E+01 -0.73018593132E+01  0.11567400835E+02  0.51100000000E-03 0.  1.
         12    1    3    3    0    0  0.14191804827E+02  0.93442322700E+01 -0.24347894493E+02  0.29690772425E+02  0.00000000000E+00 0. -1.
</event>
<event>
 7    1  0.2756432E-009  0.4778727E+02  0.7816164E-02  0.1312668E+00
        -11   -1    0    0    0    0  0.00000000000E+00  0.00000000000E+00  0.45593999997E+02  0.45594000000E+02  0.51100000000E-03 0.  1.
         11   -1    0    0    0    0 -0.00000000000E+00 -0.00000000000E+00 -0.45593999997E+02  0.45594000000E+02  0.51100000000E-03 0. -1.
    9900012    2    1    2    0    0 -0.37231226135E+02 -0.20959668225E+02 -0.76257193038E+01  0.47787268594E+02  0.19999988830E+02 0.  0.
        -12    1    1    2    0    0  0.37231226135E+02  0.20959668225E+02  0.76257193038E+01  0.43400731406E+02  0.00000000000E+00 0.  1.
         11    1    3    3    0    0 -0.12871701201E+02 -0.69743509519E+01  0.53174258292E+00  0.14649403177E+02  0.51100000000E-03 0. -1.
        -11    1    3    3    0    0 -0.12796034576E+02  0.13676154897E+01 -0.25859943612E+01  0.13126166238E+02  0.51100000000E-03 0.  1.
        -12    1    3    3    0    0 -0.11563490358E+02 -0.15352932762E+02 -0.55714675255E+01  0.20011699180E+02  0.00000000000E+00 0.  1.
</event>
<event>
 7    1  0.2756432E-009  0.4778727E+02  0.7816164E-02  0.1312668E+00
        -11   -1    0    0    0    0  0.00000000000E+00  0.00000000000E+00  0.45593999997E+02  0.45594000000E+02  0.51100000000E-03 0.  1.
         11   -1    0    0    0    0 -0.00000000000E+00 -0.00000000000E+00 -0.45593999997E+02  0.45594000000E+02  0.51100000000E-03 0. -1.
    9900012    2    1    2    0    0  0.20162061141E+01 -0.43348915297E+02 -0.65529974169E+00  0.47787274634E+02  0.20000016367E+02 0.  0.
        -12    1    1    2    0    0 -0.20162061141E+01  0.43348915297E+02  0.65529974169E+00  0.43400725366E+02  0.00000000000E+00 0.  1.
         11    1    3    3    0    0  0.20277764543E+01 -0.49488623551E+01 -0.12029713598E+01  0.54818114079E+01  0.51100000000E-03 0. -1.
        -11    1    3    3    0    0  0.56860425948E+01 -0.72913939847E+01 -0.44929349294E+01  0.10280173694E+02  0.51100000000E-03 0.  1.
        -12    1    3    3    0    0 -0.56976129349E+01 -0.31108658957E+02  0.50406065475E+01  0.32025289533E+02  0.00000000000E+00 0.  1.
</event>
<event>
 7    1  0.2756432E-009  0.4778727E+02  0.7816164E-02  0.1312668E+00
        -11   -1    0    0    0    0  0.00000000000E+00  0.00000000000E+00  0.45593999997E+02  0.45594000000E+02  0.51100000000E-03 0. -1.
         11   -1    0    0    0    0 -0.00000000000E+00 -0.00000000000E+00 -0.45593999997E+02  0.45594000000E+02  0.51100000000E-03 0.  1.
    9900012    2    1    2    0    0  0.12638193761E+01  0.42529662587E+02  0.85588463538E+01  0.47787270858E+02  0.19999999148E+02 0.  0.
        -12    1    1    2    0    0 -0.12638193761E+01 -0.42529662587E+02 -0.85588463538E+01  0.43400729142E+02  0.00000000000E+00 0.  1.
         11    1    3    3    0    0  0.77565345497E+01  0.21549096040E+02  0.28347254414E+01  0.23077327335E+02  0.51100000000E-03 0. -1.
        -11    1    3    3    0    0 -0.31577975280E+01  0.38569205540E+01 -0.23213391822E+01  0.54987396054E+01  0.51100000000E-03 0.  1.
         12    1    3    3    0    0 -0.33349176456E+01  0.17123645993E+02  0.80454600946E+01  0.19211203917E+02  0.00000000000E+00 0. -1.
</event>
<event>
 7    1  0.2756432E-009  0.4778727E+02  0.7816164E-02  0.1312668E+00
        -11   -1    0    0    0    0  0.00000000000E+00  0.00000000000E+00  0.45593999997E+02  0.45594000000E+02  0.51100000000E-03 0.  1.
         11   -1    0    0    0    0 -0.00000000000E+00 -0.00000000000E+00 -0.45593999997E+02  0.45594000000E+02  0.51100000000E-03 0. -1.
    9900012    2    1    2    0    0 -0.37669406916E+02  0.23632001743E+01 -0.21425552347E+02  0.47787271598E+02  0.20000002522E+02 0.  0.
        -12    1    1    2    0    0  0.37669406916E+02 -0.23632001743E+01  0.21425552347E+02  0.43400728402E+02  0.00000000000E+00 0.  1.
         11    1    3    3    0    0 -0.24035035814E+02 -0.45208033885E+01 -0.15653495447E+02  0.29037088867E+02  0.51100000000E-03 0. -1.
        -11    1    3    3    0    0 -0.43296948718E+01  0.66593909231E+01 -0.50549428000E+01  0.94152106786E+01  0.51100000000E-03 0.  1.
        -12    1    3    3    0    0 -0.93046762301E+01  0.22461263969E+00 -0.71711409966E+00  0.93349720523E+01  0.00000000000E+00 0.  1.
</event>
<event>
 7    1  0.2756432E-009  0.4778728E+02  0.7816164E-02  0.1312668E+00
        -11   -1    0    0    0    0  0.00000000000E+00  0.00000000000E+00  0.45593999997E+02  0.45594000000E+02  0.51100000000E-03 0.  1.
         11   -1    0    0    0    0 -0.00000000000E+00 -0.00000000000E+00 -0.45593999997E+02  0.45594000000E+02  0.51100000000E-03 0. -1.
    9900012    2    1    2    0    0 -0.14859575788E+02  0.28689054435E+02 -0.28978506952E+02  0.47787277632E+02  0.20000030033E+02 0.  0.
        -12    1    1    2    0    0  0.14859575788E+02 -0.28689054435E+02  0.28978506952E+02  0.43400722368E+02  0.00000000000E+00 0.  1.
         11    1    3    3    0    0 -0.18045276189E+02  0.22426470611E+02 -0.24375412514E+02  0.37719216751E+02  0.51100000000E-03 0. -1.
        -11    1    3    3    0    0  0.20221348524E+01  0.23598725175E+01  0.88752419441E+00  0.32319850118E+01  0.51100000000E-03 0.  1.
         12    1    3    3    0    0  0.11635655483E+01  0.39027113061E+01 -0.54906186317E+01  0.68360758687E+01  0.00000000000E+00 0. -1.
</event>
<event>
 7    1  0.2756432E-009  0.4778727E+02  0.7816164E-02  0.1312668E+00
        -11   -1    0    0    0    0  0.00000000000E+00  0.00000000000E+00  0.45593999997E+02  0.45594000000E+02  0.51100000000E-03 0.  1.
         11   -1    0    0    0    0 -0.00000000000E+00 -0.00000000000E+00 -0.45593999997E+02  0.45594000000E+02  0.51100000000E-03 0. -1.
    9900012    2    1    2    0    0  0.32712308415E+02 -0.21314363406E+02 -0.18953264278E+02  0.47787269176E+02  0.19999991483E+02 0.  0.
        -12    1    1    2    0    0 -0.32712308415E+02  0.21314363406E+02  0.18953264278E+02  0.43400730824E+02  0.00000000000E+00 0.  1.
         11    1    3    3    0    0  0.48546985300E+01 -0.40245623618E+01 -0.57561332574E+01  0.85380483929E+01  0.51100000000E-03 0. -1.
        -11    1    3    3    0    0  0.93605764543E+01 -0.13368091337E+01 -0.11322097607E+02  0.14751181129E+02  0.51100000000E-03 0.  1.
        -12    1    3    3    0    0  0.18497033431E+02 -0.15952991910E+02 -0.18750334139E+01  0.24498039655E+02  0.00000000000E+00 0.  1.
</event>
<event>
 7    1  0.2756432E-009  0.4778727E+02  0.7816164E-02  0.1312668E+00
        -11   -1    0    0    0    0  0.00000000000E+00  0.00000000000E+00  0.45593999997E+02  0.45594000000E+02  0.51100000000E-03 0.  1.
         11   -1    0    0    0    0 -0.00000000000E+00 -0.00000000000E+00 -0.45593999997E+02  0.45594000000E+02  0.51100000000E-03 0. -1.
    9900012    2    1    2    0    0  0.13620374590E+01 -0.10838306501E+02 -0.42003561406E+02  0.47787271842E+02  0.20000003636E+02 0.  0.
        -12    1    1    2    0    0 -0.13620374590E+01  0.10838306501E+02  0.42003561406E+02  0.43400728158E+02  0.00000000000E+00 0.  1.
         11    1    3    3    0    0  0.56102382763E+01 -0.12465361521E+02 -0.22251536391E+02  0.26114955167E+02  0.51100000000E-03 0. -1.
        -11    1    3    3    0    0 -0.32613613306E+01  0.46795808739E+01 -0.13046181186E+02  0.14238602413E+02  0.51100000000E-03 0.  1.
         12    1    3    3    0    0 -0.98683948666E+00 -0.30525258536E+01 -0.67058438288E+01  0.74337142611E+01  0.00000000000E+00 0. -1.
</event>
<event>
 7    1  0.2756432E-009  0.4778727E+02  0.7816164E-02  0.1312668E+00
        -11   -1    0    0    0    0  0.00000000000E+00  0.00000000000E+00  0.45593999997E+02  0.45594000000E+02  0.51100000000E-03 0.  1.
         11   -1    0    0    0    0 -0.00000000000E+00 -0.00000000000E+00 -0.45593999997E+02  0.45594000000E+02  0.51100000000E-03 0. -1.
    9900012    2    1    2    0    0 -0.29581857168E+02  0.31741811384E+02  0.99721274905E+00  0.47787270781E+02  0.19999998801E+02 0.  0.
        -12    1    1    2    0    0  0.29581857168E+02 -0.31741811384E+02 -0.99721274905E+00  0.43400729219E+02  0.00000000000E+00 0.  1.
         11    1    3    3    0    0 -0.83605816484E+01  0.88110855230E+01 -0.39955555171E+01  0.12786673443E+02  0.51100000000E-03 0. -1.
        -11    1    3    3    0    0 -0.17107414616E+02  0.15721257683E+02  0.10013098393E+02  0.25299875843E+02  0.51100000000E-03 0.  1.
        -12    1    3    3    0    0 -0.41138609037E+01  0.72094681782E+01 -0.50203301269E+01  0.97007214954E+01  0.00000000000E+00 0.  1.
</event>
<event>
 7    1  0.2756432E-009  0.4778727E+02  0.7816164E-02  0.1312668E+00
        -11   -1    0    0    0    0  0.00000000000E+00  0.00000000000E+00  0.45593999997E+02  0.45594000000E+02  0.51100000000E-03 0.  1.
         11   -1    0    0    0    0 -0.00000000000E+00 -0.00000000000E+00 -0.45593999997E+02  0.45594000000E+02  0.51100000000E-03 0. -1.
    9900012    2    1    2    0    0  0.23952692336E+02 -0.11449537760E+02 -0.34333661268E+02  0.47787266352E+02  0.19999978607E+02 0.  0.
        -12    1    1    2    0    0 -0.23952692336E+02  0.11449537760E+02  0.34333661268E+02  0.43400733648E+02  0.00000000000E+00 0.  1.
         11    1    3    3    0    0  0.13690024492E+02 -0.46200132242E+01 -0.71022813136E+01  0.16099804126E+02  0.51100000000E-03 0. -1.
        -11    1    3    3    0    0  0.28562150732E+01  0.14234185856E+01 -0.12298038995E+01  0.34200150448E+01  0.51100000000E-03 0.  1.
         12    1    3    3    0    0  0.74064527714E+01 -0.82529431210E+01 -0.26001576055E+02  0.28267447181E+02  0.00000000000E+00 0. -1.
</event>
<event>
 7    1  0.2756432E-009  0.4778727E+02  0.7816164E-02  0.1312668E+00
        -11   -1    0    0    0    0  0.00000000000E+00  0.00000000000E+00  0.45593999997E+02  0.45594000000E+02  0.51100000000E-03 0. -1.
         11   -1    0    0    0    0 -0.00000000000E+00 -0.00000000000E+00 -0.45593999997E+02  0.45594000000E+02  0.51100000000E-03 0.  1.
    9900012    2    1    2    0    0  0.23958226587E+02  0.32586675867E+02  0.15739604058E+02  0.47787271882E+02  0.20000003817E+02 0.  0.
        -12    1    1    2    0    0 -0.23958226587E+02 -0.32586675867E+02 -0.15739604058E+02  0.43400728118E+02  0.00000000000E+00 0.  1.
         11    1    3    3    0    0  0.23966272495E+01  0.17065932745E+02  0.67159142493E+01  0.18495766735E+02  0.51100000000E-03 0. -1.
        -11    1    3    3    0    0  0.11301711444E+02  0.77396986145E+01  0.23220762766E+00  0.13699837110E+02  0.51100000000E-03 0.  1.
         12    1    3    3    0    0  0.10259887894E+02  0.77810445074E+01  0.87914821811E+01  0.15591668037E+02  0.00000000000E+00 0. -1.
</event>
<event>
 7    1  0.2756432E-009  0.4778722E+02  0.7816164E-02  0.1312668E+00
        -11   -1    0    0    0    0  0.00000000000E+00  0.00000000000E+00  0.45593999997E+02  0.45594000000E+02  0.51100000000E-03 0.  1.
         11   -1    0    0    0    0 -0.00000000000E+00 -0.00000000000E+00 -0.45593999997E+02  0.45594000000E+02  0.51100000000E-03 0. -1.
    9900012    2    1    2    0    0 -0.26919538336E+02 -0.79130923878E+01 -0.33111158183E+02  0.47787223837E+02  0.19999784759E+02 0.  0.
        -12    1    1    2    0    0  0.26919538336E+02  0.79130923878E+01  0.33111158183E+02  0.43400776163E+02  0.00000000000E+00 0.  1.
         11    1    3    3    0    0 -0.17877132830E+02 -0.82607135120E+01 -0.11936332984E+02  0.23028402274E+02  0.51100000000E-03 0. -1.
        -11    1    3    3    0    0  0.59796053827E+00 -0.25296676109E+01 -0.28752771112E+01  0.38760796888E+01  0.51100000000E-03 0.  1.
         12    1    3    3    0    0 -0.96403660449E+01  0.28772887351E+01 -0.18299548088E+02  0.20882741873E+02  0.00000000000E+00 0. -1.
</event>
<event>
 7    1  0.2756432E-009  0.4778727E+02  0.7816164E-02  0.1312668E+00
        -11   -1    0    0    0    0  0.00000000000E+00  0.00000000000E+00  0.45593999997E+02  0.45594000000E+02  0.51100000000E-03 0. -1.
         11   -1    0    0    0    0 -0.00000000000E+00 -0.00000000000E+00 -0.45593999997E+02  0.45594000000E+02  0.51100000000E-03 0.  1.
    9900012    2    1    2    0    0 -0.38446172190E+02  0.20119174499E+02  0.85676430061E+00  0.47787269780E+02  0.19999994234E+02 0.  0.
        -12    1    1    2    0    0  0.38446172190E+02 -0.20119174499E+02 -0.85676430061E+00  0.43400730220E+02  0.00000000000E+00 0.  1.
         11    1    3    3    0    0 -0.19627710607E+02  0.81471417863E+01  0.83969998904E+01  0.22850219920E+02  0.51100000000E-03 0. -1.
        -11    1    3    3    0    0 -0.12637592600E+02  0.12224414030E+02 -0.54669681472E+01  0.18412842966E+02  0.51100000000E-03 0.  1.
        -12    1    3    3    0    0 -0.61808689830E+01 -0.25238131704E+00 -0.20732674425E+01  0.65242068945E+01  0.00000000000E+00 0.  1.
</event>
<event>
 7    1  0.2756432E-009  0.4778727E+02  0.7816164E-02  0.1312668E+00
        -11   -1    0    0    0    0  0.00000000000E+00  0.00000000000E+00  0.45593999997E+02  0.45594000000E+02  0.51100000000E-03 0.  1.
         11   -1    0    0    0    0 -0.00000000000E+00 -0.00000000000E+00 -0.45593999997E+02  0.45594000000E+02  0.51100000000E-03 0. -1.
    9900012    2    1    2    0    0 -0.21764072345E+02 -0.31433835813E+02 -0.20539288123E+02  0.47787271486E+02  0.20000002012E+02 0.  0.
        -12    1    1    2    0    0  0.21764072345E+02  0.31433835813E+02  0.20539288123E+02  0.43400728514E+02  0.00000000000E+00 0.  1.
         11    1    3    3    0    0 -0.12328291357E+01 -0.40813628113E+01  0.28639400031E+01  0.51361018952E+01  0.51100000000E-03 0. -1.
        -11    1    3    3    0    0 -0.17552895308E+02 -0.18931236244E+02 -0.12889897039E+02  0.28855593658E+02  0.51100000000E-03 0.  1.
         12    1    3    3    0    0 -0.29783479010E+01 -0.84212367578E+01 -0.10513331088E+02  0.13795575933E+02  0.00000000000E+00 0. -1.
</event>
<event>
 7    1  0.2756432E-009  0.4778727E+02  0.7816164E-02  0.1312668E+00
        -11   -1    0    0    0    0  0.00000000000E+00  0.00000000000E+00  0.45593999997E+02  0.45594000000E+02  0.51100000000E-03 0. -1.
         11   -1    0    0    0    0 -0.00000000000E+00 -0.00000000000E+00 -0.45593999997E+02  0.45594000000E+02  0.51100000000E-03 0.  1.
    9900012    2    1    2    0    0 -0.28946105771E+02  0.24352651974E+02  0.21276616897E+02  0.47787272770E+02  0.20000007869E+02 0.  0.
        -12    1    1    2    0    0  0.28946105771E+02 -0.24352651974E+02 -0.21276616897E+02  0.43400727230E+02  0.00000000000E+00 0.  1.
         11    1    3    3    0    0 -0.87600771213E+01  0.16704425885E+02  0.17099355065E+02  0.25459079701E+02  0.51100000000E-03 0. -1.
        -11    1    3    3    0    0 -0.10842899684E+02  0.26683690345E+01  0.35707513210E+01  0.11723435167E+02  0.51100000000E-03 0.  1.
         12    1    3    3    0    0 -0.93431289657E+01  0.49798570543E+01  0.60651051052E+00  0.10604757902E+02  0.00000000000E+00 0. -1.
</event>
<event>
 7    1  0.2756432E-009  0.4778729E+02  0.7816164E-02  0.1312668E+00
        -11   -1    0    0    0    0  0.00000000000E+00  0.00000000000E+00  0.45593999997E+02  0.45594000000E+02  0.51100000000E-03 0.  1.
         11   -1    0    0    0    0 -0.00000000000E+00 -0.00000000000E+00 -0.45593999997E+02  0.45594000000E+02  0.51100000000E-03 0. -1.
    9900012    2    1    2    0    0 -0.31362364298E+02  0.62753845414E+01 -0.29336717976E+02  0.47787293012E+02  0.20000100157E+02 0.  0.
        -12    1    1    2    0    0  0.31362364298E+02 -0.62753845414E+01  0.29336717976E+02  0.43400706988E+02  0.00000000000E+00 0.  1.
         11    1    3    3    0    0 -0.12012789619E+02  0.30029589374E+01 -0.21821246935E+02  0.25089673072E+02  0.51100000000E-03 0. -1.
        -11    1    3    3    0    0 -0.21758452537E+01  0.36189574408E+01 -0.18503960176E+01  0.46103276684E+01  0.51100000000E-03 0.  1.
         12    1    3    3    0    0 -0.17173729425E+02 -0.34653183687E+00 -0.56650750229E+01  0.18087292271E+02  0.00000000000E+00 0. -1.
</event>
<event>
 7    1  0.2756432E-009  0.4778728E+02  0.7816164E-02  0.1312668E+00
        -11   -1    0    0    0    0  0.00000000000E+00  0.00000000000E+00  0.45593999997E+02  0.45594000000E+02  0.51100000000E-03 0. -1.
         11   -1    0    0    0    0 -0.00000000000E+00 -0.00000000000E+00 -0.45593999997E+02  0.45594000000E+02  0.51100000000E-03 0.  1.
    9900012    2    1    2    0    0  0.22268569561E+02 -0.30610775073E+02  0.21230022285E+02  0.47787278957E+02  0.20000036075E+02 0.  0.
        -12    1    1    2    0    0 -0.22268569561E+02  0.30610775073E+02 -0.21230022285E+02  0.43400721043E+02  0.00000000000E+00 0.  1.
         11    1    3    3    0    0  0.15195363089E+02 -0.80462340621E+01  0.11751164054E+02  0.20826204620E+02  0.51100000000E-03 0. -1.
        -11    1    3    3    0    0  0.50862414778E+01 -0.21572111483E+02  0.10489988262E+02  0.24520719814E+02  0.51100000000E-03 0.  1.
         12    1    3    3    0    0  0.19869649941E+01 -0.99242952828E+00 -0.10111300312E+01  0.24403545226E+01  0.00000000000E+00 0. -1.
</event>
<event>
 7    1  0.2756432E-009  0.4778724E+02  0.7816164E-02  0.1312668E+00
        -11   -1    0    0    0    0  0.00000000000E+00  0.00000000000E+00  0.45593999997E+02  0.45594000000E+02  0.51100000000E-03 0.  1.
         11   -1    0    0    0    0 -0.00000000000E+00 -0.00000000000E+00 -0.45593999997E+02  0.45594000000E+02  0.51100000000E-03 0. -1.
    9900012    2    1    2    0    0 -0.15631175422E+02  0.19838455449E+02 -0.35294875234E+02  0.47787237594E+02  0.19999847484E+02 0.  0.
        -12    1    1    2    0    0  0.15631175422E+02 -0.19838455449E+02  0.35294875234E+02  0.43400762406E+02  0.00000000000E+00 0.  1.
         11    1    3    3    0    0 -0.64380034211E+01  0.20492347450E+02 -0.21840540017E+02  0.30633207155E+02  0.51100000000E-03 0. -1.
        -11    1    3    3    0    0 -0.51354290560E+01  0.13872792247E+01 -0.10396724079E+02  0.11678572134E+02  0.51100000000E-03 0.  1.
         12    1    3    3    0    0 -0.40577429453E+01 -0.20411712266E+01 -0.30576111369E+01  0.54754583051E+01  0.00000000000E+00 0. -1.
</event>
<event>
 7    1  0.2756432E-009  0.4778726E+02  0.7816164E-02  0.1312668E+00
        -11   -1    0    0    0    0  0.00000000000E+00  0.00000000000E+00  0.45593999997E+02  0.45594000000E+02  0.51100000000E-03 0.  1.
         11   -1    0    0    0    0 -0.00000000000E+00 -0.00000000000E+00 -0.45593999997E+02  0.45594000000E+02  0.51100000000E-03 0. -1.
    9900012    2    1    2    0    0 -0.35931409641E+02 -0.22237294360E+01 -0.24240740075E+02  0.47787255182E+02  0.19999927676E+02 0.  0.
        -12    1    1    2    0    0  0.35931409641E+02  0.22237294360E+01  0.24240740075E+02  0.43400744818E+02  0.00000000000E+00 0.  1.
         11    1    3    3    0    0 -0.43731422519E+01 -0.28345664537E+01 -0.42832417685E+01  0.67457616652E+01  0.51100000000E-03 0. -1.
        -11    1    3    3    0    0  0.20081473749E+01 -0.38986554196E+00 -0.14396079482E+00  0.20507013414E+01  0.51100000000E-03 0.  1.
        -12    1    3    3    0    0 -0.33566414764E+02  0.10007025596E+01 -0.19813537512E+02  0.38990792175E+02  0.00000000000E+00 0.  1.
</event>
<event>
 7    1  0.2756432E-009  0.4778727E+02  0.7816164E-02  0.1312668E+00
        -11   -1    0    0    0    0  0.00000000000E+00  0.00000000000E+00  0.45593999997E+02  0.45594000000E+02  0.51100000000E-03 0. -1.
         11   -1    0    0    0    0 -0.00000000000E+00 -0.00000000000E+00 -0.45593999997E+02  0.45594000000E+02  0.51100000000E-03 0.  1.
    9900012    2    1    2    0    0 -0.80473710825E+01 -0.13132629824E+02  0.40575823583E+02  0.47787267208E+02  0.19999982508E+02 0.  0.
        -12    1    1    2    0    0  0.80473710825E+01  0.13132629824E+02 -0.40575823583E+02  0.43400732792E+02  0.00000000000E+00 0.  1.
         11    1    3    3    0    0 -0.22090116760E+01 -0.34444366504E+01  0.18420287030E+01  0.44874209104E+01  0.51100000000E-03 0. -1.
        -11    1    3    3    0    0 -0.10464437556E+02 -0.10219076407E+02  0.30893851707E+02  0.34181340663E+02  0.51100000000E-03 0.  1.
        -12    1    3    3    0    0  0.46260781494E+01  0.53088323340E+00  0.78399431734E+01  0.91185056349E+01  0.00000000000E+00 0.  1.
</event>
<event>
 7    1  0.2756432E-009  0.4778727E+02  0.7816164E-02  0.1312668E+00
        -11   -1    0    0    0    0  0.00000000000E+00  0.00000000000E+00  0.45593999997E+02  0.45594000000E+02  0.51100000000E-03 0.  1.
         11   -1    0    0    0    0 -0.00000000000E+00 -0.00000000000E+00 -0.45593999997E+02  0.45594000000E+02  0.51100000000E-03 0. -1.
    9900012    2    1    2    0    0 -0.13307693772E+02 -0.40901584533E+02 -0.57955756735E+01  0.47787273874E+02  0.20000012902E+02 0.  0.
        -12    1    1    2    0    0  0.13307693772E+02  0.40901584533E+02  0.57955756735E+01  0.43400726126E+02  0.00000000000E+00 0.  1.
         11    1    3    3    0    0  0.32957612860E+01 -0.96107821135E+01 -0.33052150518E+01  0.10684269843E+02  0.51100000000E-03 0. -1.
        -11    1    3    3    0    0 -0.16980232339E+02 -0.23826813006E+02 -0.38382331347E+01  0.29508936649E+02  0.51100000000E-03 0.  1.
        -12    1    3    3    0    0  0.37677728093E+00 -0.74639894136E+01  0.13478725130E+01  0.75940673817E+01  0.00000000000E+00 0.  1.
</event>
<event>
 7    1  0.2756432E-009  0.4778727E+02  0.7816164E-02  0.1312668E+00
        -11   -1    0    0    0    0  0.00000000000E+00  0.00000000000E+00  0.45593999997E+02  0.45594000000E+02  0.51100000000E-03 0.  1.
         11   -1    0    0    0    0 -0.00000000000E+00 -0.00000000000E+00 -0.45593999997E+02  0.45594000000E+02  0.51100000000E-03 0. -1.
    9900012    2    1    2    0    0 -0.97262790144E+01  0.24986300349E+02 -0.34127813788E+02  0.47787269792E+02  0.19999994290E+02 0.  0.
        -12    1    1    2    0    0  0.97262790144E+01 -0.24986300349E+02  0.34127813788E+02  0.43400730208E+02  0.00000000000E+00 0.  1.
         11    1    3    3    0    0 -0.13718127360E+02  0.12382191296E+02 -0.13493674535E+02  0.22881978329E+02  0.51100000000E-03 0. -1.
        -11    1    3    3    0    0  0.10929998033E+01  0.41582005836E+01 -0.10787352595E+02  0.11612590449E+02  0.51100000000E-03 0.  1.
         12    1    3    3    0    0  0.28988485419E+01  0.84459084701E+01 -0.98467866577E+01  0.13292701014E+02  0.00000000000E+00 0. -1.
</event>
<event>
 7    1  0.2756432E-009  0.4778727E+02  0.7816164E-02  0.1312668E+00
        -11   -1    0    0    0    0  0.00000000000E+00  0.00000000000E+00  0.45593999997E+02  0.45594000000E+02  0.51100000000E-03 0.  1.
         11   -1    0    0    0    0 -0.00000000000E+00 -0.00000000000E+00 -0.45593999997E+02  0.45594000000E+02  0.51100000000E-03 0. -1.
    9900012    2    1    2    0    0 -0.17185174396E+01  0.22860829475E+02 -0.36851763148E+02  0.47787271048E+02  0.20000000015E+02 0.  0.
        -12    1    1    2    0    0  0.17185174396E+01 -0.22860829475E+02  0.36851763148E+02  0.43400728952E+02  0.00000000000E+00 0.  1.
         11    1    3    3    0    0 -0.53902910768E+01  0.21859278106E+02 -0.26611968585E+02  0.34857999791E+02  0.51100000000E-03 0. -1.
        -11    1    3    3    0    0  0.55483882810E+01 -0.10985556776E+00 -0.60762957567E+01  0.82290978331E+01  0.51100000000E-03 0.  1.
         12    1    3    3    0    0 -0.18766146438E+01  0.11114069371E+01 -0.41634988062E+01  0.47001734234E+01  0.00000000000E+00 0. -1.
</event>
<event>
 7    1  0.2756432E-009  0.4778727E+02  0.7816164E-02  0.1312668E+00
        -11   -1    0    0    0    0  0.00000000000E+00  0.00000000000E+00  0.45593999997E+02  0.45594000000E+02  0.51100000000E-03 0.  1.
         11   -1    0    0    0    0 -0.00000000000E+00 -0.00000000000E+00 -0.45593999997E+02  0.45594000000E+02  0.51100000000E-03 0. -1.
    9900012    2    1    2    0    0  0.55385450544E+01 -0.37793331572E+01 -0.42879655829E+02  0.47787265854E+02  0.19999976333E+02 0.  0.
        -12    1    1    2    0    0 -0.55385450544E+01  0.37793331572E+01  0.42879655829E+02  0.43400734146E+02  0.00000000000E+00 0.  1.
         11    1    3    3    0    0  0.11138677064E+02 -0.25348864274E+01 -0.38505791306E+02  0.40164558261E+02  0.51100000000E-03 0. -1.
        -11    1    3    3    0    0 -0.34442980078E+01 -0.12667045656E+01 -0.13527867191E+01  0.39112352769E+01  0.51100000000E-03 0.  1.
         12    1    3    3    0    0 -0.21558340017E+01  0.22257835755E-01 -0.30210778041E+01  0.37114723160E+01  0.00000000000E+00 0. -1.
</event>
<event>
 7    1  0.2756432E-009  0.4778726E+02  0.7816164E-02  0.1312668E+00
        -11   -1    0    0    0    0  0.00000000000E+00  0.00000000000E+00  0.45593999997E+02  0.45594000000E+02  0.51100000000E-03 0. -1.
         11   -1    0    0    0    0 -0.00000000000E+00 -0.00000000000E+00 -0.45593999997E+02  0.45594000000E+02  0.51100000000E-03 0.  1.
    9900012    2    1    2    0    0  0.17659410462E+02  0.52964339256E+01  0.39290166221E+02  0.47787260929E+02  0.19999953882E+02 0.  0.
        -12    1    1    2    0    0 -0.17659410462E+02 -0.52964339256E+01 -0.39290166221E+02  0.43400739071E+02  0.00000000000E+00 0.  1.
         11    1    3    3    0    0 -0.10063463479E+01  0.42099405052E+01  0.12751461757E+02  0.13466109655E+02  0.51100000000E-03 0. -1.
        -11    1    3    3    0    0  0.94157540493E+01 -0.50276773609E+01  0.13194694449E+02  0.16971562268E+02  0.51100000000E-03 0.  1.
        -12    1    3    3    0    0  0.92500027607E+01  0.61141707814E+01  0.13344010015E+02  0.17349589007E+02  0.00000000000E+00 0.  1.
</event>
<event>
 7    1  0.2756432E-009  0.4778727E+02  0.7816164E-02  0.1312668E+00
        -11   -1    0    0    0    0  0.00000000000E+00  0.00000000000E+00  0.45593999997E+02  0.45594000000E+02  0.51100000000E-03 0.  1.
         11   -1    0    0    0    0 -0.00000000000E+00 -0.00000000000E+00 -0.45593999997E+02  0.45594000000E+02  0.51100000000E-03 0. -1.
    9900012    2    1    2    0    0  0.20046403439E+02  0.60853465531E+01 -0.38009649135E+02  0.47787272347E+02  0.20000005938E+02 0.  0.
        -12    1    1    2    0    0 -0.20046403439E+02 -0.60853465531E+01  0.38009649135E+02  0.43400727653E+02  0.00000000000E+00 0.  1.
         11    1    3    3    0    0  0.10884257635E+02 -0.32456676648E+01 -0.14995730060E+02  0.18811521553E+02  0.51100000000E-03 0. -1.
        -11    1    3    3    0    0 -0.19365800030E+00 -0.24589095125E+01 -0.23113475341E+01  0.33802466029E+01  0.51100000000E-03 0.  1.
         12    1    3    3    0    0  0.93558038038E+01  0.11789923730E+02 -0.20702571541E+02  0.25595504191E+02  0.00000000000E+00 0. -1.
</event>
<event>
 7    1  0.2756432E-009  0.4778727E+02  0.7816164E-02  0.1312668E+00
        -11   -1    0    0    0    0  0.00000000000E+00  0.00000000000E+00  0.45593999997E+02  0.45594000000E+02  0.51100000000E-03 0.  1.
         11   -1    0    0    0    0 -0.00000000000E+00 -0.00000000000E+00 -0.45593999997E+02  0.45594000000E+02  0.51100000000E-03 0. -1.
    9900012    2    1    2    0    0 -0.10984449875E+02 -0.30578450379E+02 -0.28773661683E+02  0.47787269899E+02  0.19999994777E+02 0.  0.
        -12    1    1    2    0    0  0.10984449875E+02  0.30578450379E+02  0.28773661683E+02  0.43400730101E+02  0.00000000000E+00 0.  1.
         11    1    3    3    0    0 -0.13196820862E+01 -0.49833199349E+01 -0.12301730158E+02  0.13338200910E+02  0.51100000000E-03 0. -1.
        -11    1    3    3    0    0 -0.12264795333E+02 -0.16588651669E+02 -0.92183186813E+01  0.22596149414E+02  0.51100000000E-03 0.  1.
        -12    1    3    3    0    0  0.26000275440E+01 -0.90064787755E+01 -0.72536128438E+01  0.11852919575E+02  0.00000000000E+00 0.  1.
</event>
<event>
 7    1  0.2756432E-009  0.4778727E+02  0.7816164E-02  0.1312668E+00
        -11   -1    0    0    0    0  0.00000000000E+00  0.00000000000E+00  0.45593999997E+02  0.45594000000E+02  0.51100000000E-03 0. -1.
         11   -1    0    0    0    0 -0.00000000000E+00 -0.00000000000E+00 -0.45593999997E+02  0.45594000000E+02  0.51100000000E-03 0.  1.
    9900012    2    1    2    0    0  0.12922056198E+02  0.10045257048E+02  0.40196225392E+02  0.47787271189E+02  0.20000000660E+02 0.  0.
        -12    1    1    2    0    0 -0.12922056198E+02 -0.10045257048E+02 -0.40196225392E+02  0.43400728811E+02  0.00000000000E+00 0.  1.
         11    1    3    3    0    0  0.12500755652E+02  0.92636328213E+01  0.38321679871E+02  0.41359822695E+02  0.51100000000E-03 0. -1.
        -11    1    3    3    0    0  0.16993507667E+00 -0.17743927013E+01 -0.13994729340E+01  0.22662462670E+01  0.51100000000E-03 0.  1.
         12    1    3    3    0    0  0.25136546856E+00  0.25560169280E+01  0.32740184551E+01  0.41612022277E+01  0.00000000000E+00 0. -1.
</event>
<event>
 7    1  0.2756432E-009  0.4778727E+02  0.7816164E-02  0.1312668E+00
        -11   -1    0    0    0    0  0.00000000000E+00  0.00000000000E+00  0.45593999997E+02  0.45594000000E+02  0.51100000000E-03 0.  1.
         11   -1    0    0    0    0 -0.00000000000E+00 -0.00000000000E+00 -0.45593999997E+02  0.45594000000E+02  0.51100000000E-03 0. -1.
    9900012    2    1    2    0    0 -0.41426734793E+02  0.28837054490E+01 -0.12614801704E+02  0.47787270343E+02  0.19999996803E+02 0.  0.
        -12    1    1    2    0    0  0.41426734793E+02 -0.28837054490E+01  0.12614801704E+02  0.43400729657E+02  0.00000000000E+00 0.  1.
         11    1    3    3    0    0 -0.67783166574E+01  0.35331295298E+00 -0.91380395150E-02  0.67875246236E+01  0.51100000000E-03 0. -1.
        -11    1    3    3    0    0 -0.27422600059E+02  0.67427856249E+01 -0.15419731842E+02  0.32175025755E+02  0.51100000000E-03 0.  1.
        -12    1    3    3    0    0 -0.72258180764E+01 -0.42123931288E+01  0.28140681779E+01  0.88247199647E+01  0.00000000000E+00 0.  1.
</event>
<event>
 7    1  0.2756432E-009  0.4778727E+02  0.7816164E-02  0.1312668E+00
        -11   -1    0    0    0    0  0.00000000000E+00  0.00000000000E+00  0.45593999997E+02  0.45594000000E+02  0.51100000000E-03 0.  1.
         11   -1    0    0    0    0 -0.00000000000E+00 -0.00000000000E+00 -0.45593999997E+02  0.45594000000E+02  0.51100000000E-03 0. -1.
    9900012    2    1    2    0    0 -0.31777899106E+02 -0.11178442212E+02  0.27364773284E+02  0.47787271218E+02  0.20000000794E+02 0.  0.
        -12    1    1    2    0    0  0.31777899106E+02  0.11178442212E+02 -0.27364773284E+02  0.43400728782E+02  0.00000000000E+00 0.  1.
         11    1    3    3    0    0 -0.10976027873E+02 -0.21253892482E+01  0.54631177843E+00  0.11193253511E+02  0.51100000000E-03 0. -1.
        -11    1    3    3    0    0 -0.49323977313E+00 -0.16649504124E+01 -0.45636621784E+00  0.17954430472E+01  0.51100000000E-03 0.  1.
         12    1    3    3    0    0 -0.20308631459E+02 -0.73881025517E+01  0.27274827724E+02  0.34798574661E+02  0.00000000000E+00 0. -1.
</event>
<event>
 7    1  0.2756432E-009  0.4778727E+02  0.7816164E-02  0.1312668E+00
        -11   -1    0    0    0    0  0.00000000000E+00  0.00000000000E+00  0.45593999997E+02  0.45594000000E+02  0.51100000000E-03 0.  1.
         11   -1    0    0    0    0 -0.00000000000E+00 -0.00000000000E+00 -0.45593999997E+02  0.45594000000E+02  0.51100000000E-03 0. -1.
    9900012    2    1    2    0    0  0.41027327456E+01  0.42067288500E+02 -0.98556552810E+01  0.47787272832E+02  0.20000008151E+02 0.  0.
        -12    1    1    2    0    0 -0.41027327456E+01 -0.42067288500E+02  0.98556552810E+01  0.43400727168E+02  0.00000000000E+00 0.  1.
         11    1    3    3    0    0  0.52559133384E+01  0.33885234928E+02 -0.61603085278E+01  0.34839391105E+02  0.51100000000E-03 0. -1.
        -11    1    3    3    0    0  0.24749962975E+01 -0.19969256432E+00 -0.28433288711E+01  0.37749176314E+01  0.51100000000E-03 0.  1.
         12    1    3    3    0    0 -0.36281768902E+01  0.83817461362E+01 -0.85201788201E+00  0.91729640962E+01  0.00000000000E+00 0. -1.
</event>
<event>
 7    1  0.2756432E-009  0.4778727E+02  0.7816164E-02  0.1312668E+00
        -11   -1    0    0    0    0  0.00000000000E+00  0.00000000000E+00  0.45593999997E+02  0.45594000000E+02  0.51100000000E-03 0.  1.
         11   -1    0    0    0    0 -0.00000000000E+00 -0.00000000000E+00 -0.45593999997E+02  0.45594000000E+02  0.51100000000E-03 0. -1.
    9900012    2    1    2    0    0 -0.11735709717E+02 -0.11743302075E+02 -0.40099766418E+02  0.47787270824E+02  0.19999998995E+02 0.  0.
        -12    1    1    2    0    0  0.11735709717E+02  0.11743302075E+02  0.40099766418E+02  0.43400729176E+02  0.00000000000E+00 0.  1.
         11    1    3    3    0    0 -0.12926043401E+02 -0.74612094071E+01 -0.17396266759E+02  0.22921220326E+02  0.51100000000E-03 0. -1.
        -11    1    3    3    0    0  0.40579186090E+01  0.74758470436E+00 -0.69532337801E+01  0.80853600161E+01  0.51100000000E-03 0.  1.
         12    1    3    3    0    0 -0.28675849249E+01 -0.50296773724E+01 -0.15750265880E+02  0.16780690482E+02  0.00000000000E+00 0. -1.
</event>
<event>
 7    1  0.2756432E-009  0.4778727E+02  0.7816164E-02  0.1312668E+00
        -11   -1    0    0    0    0  0.00000000000E+00  0.00000000000E+00  0.45593999997E+02  0.45594000000E+02  0.51100000000E-03 0. -1.
         11   -1    0    0    0    0 -0.00000000000E+00 -0.00000000000E+00 -0.45593999997E+02  0.45594000000E+02  0.51100000000E-03 0.  1.
    9900012    2    1    2    0    0 -0.83278277229E+01  0.22769665523E+02  0.35997397384E+02  0.47787274187E+02  0.20000014330E+02 0.  0.
        -12    1    1    2    0    0  0.83278277229E+01 -0.22769665523E+02 -0.35997397384E+02  0.43400725813E+02  0.00000000000E+00 0.  1.
         11    1    3    3    0    0  0.50565540560E+00  0.11684342821E+02  0.49711588756E+01  0.12707949298E+02  0.51100000000E-03 0. -1.
        -11    1    3    3    0    0  0.14451910244E+01  0.33500602608E+00  0.24518776826E+01  0.28657478197E+01  0.51100000000E-03 0.  1.
         12    1    3    3    0    0 -0.10278674153E+02  0.10750316676E+02  0.28574360826E+02  0.32213577069E+02  0.00000000000E+00 0. -1.
</event>
<event>
 7    1  0.3581662E-009  0.4778727E+02  0.7816164E-02  0.1312668E+00
        -11   -1    0    0    0    0  0.00000000000E+00  0.00000000000E+00  0.45593999997E+02  0.45594000000E+02  0.51100000000E-03 0.  1.
         11   -1    0    0    0    0 -0.00000000000E+00 -0.00000000000E+00 -0.45593999997E+02  0.45594000000E+02  0.51100000000E-03 0. -1.
    9900012    2    1    2    0    0  0.28033265726E+02  0.31900218571E+02 -0.89518241314E+01  0.47787273193E+02  0.20000009794E+02 0.  0.
        -12    1    1    2    0    0 -0.28033265726E+02 -0.31900218571E+02  0.89518241314E+01  0.43400726807E+02  0.00000000000E+00 0.  1.
         11    1    3    3    0    0  0.11973093211E+02  0.15429556509E+02 -0.35324807634E+01  0.19847029897E+02  0.51100000000E-03 0. -1.
        -11    1    3    3    0    0 -0.16226390849E+00  0.87082755971E+01 -0.48017271073E+01  0.99457014295E+01  0.51100000000E-03 0.  1.
        -12    1    3    3    0    0  0.16222436423E+02  0.77623864646E+01 -0.61761626072E+00  0.17994541866E+02  0.00000000000E+00 0.  1.
</event>
<event>
 7    1  0.2756432E-009  0.4778726E+02  0.7816164E-02  0.1312668E+00
        -11   -1    0    0    0    0  0.00000000000E+00  0.00000000000E+00  0.45593999997E+02  0.45594000000E+02  0.51100000000E-03 0.  1.
         11   -1    0    0    0    0 -0.00000000000E+00 -0.00000000000E+00 -0.45593999997E+02  0.45594000000E+02  0.51100000000E-03 0. -1.
    9900012    2    1    2    0    0 -0.35608364809E+02 -0.90804578486E+01  0.23091418068E+02  0.47787263284E+02  0.19999964615E+02 0.  0.
        -12    1    1    2    0    0  0.35608364809E+02  0.90804578486E+01 -0.23091418068E+02  0.43400736716E+02  0.00000000000E+00 0.  1.
         11    1    3    3    0    0 -0.98476124079E+01 -0.24535054412E+01  0.16030191462E+02  0.18972669756E+02  0.51100000000E-03 0.  1.
        -11    1    3    3    0    0 -0.16262299084E+02 -0.83492826625E+01  0.44466700720E+01  0.18813446454E+02  0.51100000000E-03 0. -1.
        -12    1    3    3    0    0 -0.94984533167E+01  0.17223302551E+01  0.26145565340E+01  0.10001147074E+02  0.00000000000E+00 0.  1.
</event>
<event>
 7    1  0.3850880E-009  0.4778727E+02  0.7816164E-02  0.1312668E+00
        -11   -1    0    0    0    0  0.00000000000E+00  0.00000000000E+00  0.45593999997E+02  0.45594000000E+02  0.51100000000E-03 0.  1.
         11   -1    0    0    0    0 -0.00000000000E+00 -0.00000000000E+00 -0.45593999997E+02  0.45594000000E+02  0.51100000000E-03 0. -1.
    9900012    2    1    2    0    0 -0.67550856042E+01  0.37690594497E+02 -0.20430639617E+02  0.47787272699E+02  0.20000007544E+02 0.  0.
        -12    1    1    2    0    0  0.67550856042E+01 -0.37690594497E+02  0.20430639617E+02  0.43400727301E+02  0.00000000000E+00 0.  1.
         11    1    3    3    0    0 -0.44746430013E+01  0.27482284874E+02 -0.20947689823E+02  0.34843996916E+02  0.51100000000E-03 0. -1.
        -11    1    3    3    0    0 -0.12786600328E+01 -0.86834808828E+00  0.94775150228E+00  0.18130728207E+01  0.51100000000E-03 0.  1.
        -12    1    3    3    0    0 -0.10017825701E+01  0.11076657712E+02 -0.43070129604E+00  0.11130202963E+02  0.00000000000E+00 0.  1.
</event>
<event>
 7    1  0.2756432E-009  0.4778726E+02  0.7816164E-02  0.1312668E+00
        -11   -1    0    0    0    0  0.00000000000E+00  0.00000000000E+00  0.45593999997E+02  0.45594000000E+02  0.51100000000E-03 0.  1.
         11   -1    0    0    0    0 -0.00000000000E+00 -0.00000000000E+00 -0.45593999997E+02  0.45594000000E+02  0.51100000000E-03 0. -1.
    9900012    2    1    2    0    0  0.24874820841E+02 -0.34639954791E+02 -0.80585981406E+01  0.47787260561E+02  0.19999952203E+02 0.  0.
        -12    1    1    2    0    0 -0.24874820841E+02  0.34639954791E+02  0.80585981406E+01  0.43400739439E+02  0.00000000000E+00 0.  1.
         11    1    3    3    0    0  0.20348398052E+02 -0.23597947270E+02 -0.43707107648E+01  0.31464639383E+02  0.51100000000E-03 0. -1.
        -11    1    3    3    0    0  0.76842502649E+00 -0.76846859468E+01 -0.68919299678E+01  0.10351018021E+02  0.51100000000E-03 0.  1.
        -12    1    3    3    0    0  0.37579977625E+01 -0.33573215748E+01  0.32040425920E+01  0.59716031576E+01  0.00000000000E+00 0.  1.
</event>
<event>
 7    1  0.2756432E-009  0.4778727E+02  0.7816164E-02  0.1312668E+00
        -11   -1    0    0    0    0  0.00000000000E+00  0.00000000000E+00  0.45593999997E+02  0.45594000000E+02  0.51100000000E-03 0.  1.
         11   -1    0    0    0    0 -0.00000000000E+00 -0.00000000000E+00 -0.45593999997E+02  0.45594000000E+02  0.51100000000E-03 0. -1.
    9900012    2    1    2    0    0  0.43102335254E+02  0.28740740785E+01  0.41894875817E+01  0.47787269449E+02  0.19999992727E+02 0.  0.
        -12    1    1    2    0    0 -0.43102335254E+02 -0.28740740785E+01 -0.41894875817E+01  0.43400730551E+02  0.00000000000E+00 0.  1.
         11    1    3    3    0    0  0.84065544221E+01  0.58844434736E+01 -0.38710737178E+01  0.10967317094E+02  0.51100000000E-03 0. -1.
        -11    1    3    3    0    0  0.14662673843E+02 -0.45287101702E+00  0.78178176146E+01  0.16622796663E+02  0.51100000000E-03 0.  1.
         12    1    3    3    0    0  0.20033106989E+02 -0.25574983780E+01  0.24274368493E+00  0.20197155693E+02  0.00000000000E+00 0. -1.
</event>
<event>
 7    1  0.2756432E-009  0.4778727E+02  0.7816164E-02  0.1312668E+00
        -11   -1    0    0    0    0  0.00000000000E+00  0.00000000000E+00  0.45593999997E+02  0.45594000000E+02  0.51100000000E-03 0.  1.
         11   -1    0    0    0    0 -0.00000000000E+00 -0.00000000000E+00 -0.45593999997E+02  0.45594000000E+02  0.51100000000E-03 0. -1.
    9900012    2    1    2    0    0  0.16832050800E+02 -0.26998242633E+02 -0.29519493549E+02  0.47787267993E+02  0.19999986087E+02 0.  0.
        -12    1    1    2    0    0 -0.16832050800E+02  0.26998242633E+02  0.29519493549E+02  0.43400732007E+02  0.00000000000E+00 0.  1.
         11    1    3    3    0    0  0.12425598125E+02 -0.11373348371E+02 -0.23690276423E+02  0.29068500808E+02  0.51100000000E-03 0. -1.
        -11    1    3    3    0    0  0.34489349925E+01 -0.12911067354E+02 -0.75665696970E+01  0.15357206453E+02  0.51100000000E-03 0.  1.
         12    1    3    3    0    0  0.95751768225E+00 -0.27138269079E+01  0.17373525718E+01  0.33615607322E+01  0.00000000000E+00 0. -1.
</event>
<event>
 7    1  0.2756432E-009  0.4778727E+02  0.7816164E-02  0.1312668E+00
        -11   -1    0    0    0    0  0.00000000000E+00  0.00000000000E+00  0.45593999997E+02  0.45594000000E+02  0.51100000000E-03 0. -1.
         11   -1    0    0    0    0 -0.00000000000E+00 -0.00000000000E+00 -0.45593999997E+02  0.45594000000E+02  0.51100000000E-03 0.  1.
    9900012    2    1    2    0    0 -0.18749767691E+02  0.15833132590E+02  0.35796387525E+02  0.47787271482E+02  0.20000001995E+02 0.  0.
        -12    1    1    2    0    0  0.18749767691E+02 -0.15833132590E+02 -0.35796387525E+02  0.43400728518E+02  0.00000000000E+00 0.  1.
         11    1    3    3    0    0 -0.28342869473E+01 -0.36305725578E+01  0.12318662036E+02  0.13151565466E+02  0.51100000000E-03 0.  1.
        -11    1    3    3    0    0 -0.13820660623E+02  0.18070905975E+02  0.22304483900E+02  0.31859979679E+02  0.51100000000E-03 0. -1.
        -12    1    3    3    0    0 -0.20948201204E+01  0.13927991728E+01  0.11732415890E+01  0.27757263372E+01  0.00000000000E+00 0.  1.
</event>
<event>
 7    1  0.2756432E-009  0.4778727E+02  0.7816164E-02  0.1312668E+00
        -11   -1    0    0    0    0  0.00000000000E+00  0.00000000000E+00  0.45593999997E+02  0.45594000000E+02  0.51100000000E-03 0.  1.
         11   -1    0    0    0    0 -0.00000000000E+00 -0.00000000000E+00 -0.45593999997E+02  0.45594000000E+02  0.51100000000E-03 0. -1.
    9900012    2    1    2    0    0 -0.40335982062E+02  0.90464817474E+01 -0.13220940615E+02  0.47787267844E+02  0.19999985409E+02 0.  0.
        -12    1    1    2    0    0  0.40335982062E+02 -0.90464817474E+01  0.13220940615E+02  0.43400732156E+02  0.00000000000E+00 0.  1.
         11    1    3    3    0    0 -0.22471984957E+02  0.11224251341E+02 -0.13153448173E+02  0.28354666727E+02  0.51100000000E-03 0. -1.
        -11    1    3    3    0    0 -0.55352679340E+00 -0.82613934020E+00  0.17105868079E+01  0.19786373111E+01  0.51100000000E-03 0.  1.
         12    1    3    3    0    0 -0.17310470311E+02 -0.13516302530E+01 -0.17780792497E+01  0.17453963807E+02  0.00000000000E+00 0. -1.
</event>
<event>
 7    1  0.2756432E-009  0.4778727E+02  0.7816164E-02  0.1312668E+00
        -11   -1    0    0    0    0  0.00000000000E+00  0.00000000000E+00  0.45593999997E+02  0.45594000000E+02  0.51100000000E-03 0. -1.
         11   -1    0    0    0    0 -0.00000000000E+00 -0.00000000000E+00 -0.45593999997E+02  0.45594000000E+02  0.51100000000E-03 0.  1.
    9900012    2    1    2    0    0  0.10354948538E+02 -0.36433425946E+02  0.21189710355E+02  0.47787270624E+02  0.19999998085E+02 0.  0.
        -12    1    1    2    0    0 -0.10354948538E+02  0.36433425946E+02 -0.21189710355E+02  0.43400729376E+02  0.00000000000E+00 0.  1.
         11    1    3    3    0    0  0.22213495580E+01 -0.51360967220E+01  0.22963599811E+01  0.60487315050E+01  0.51100000000E-03 0. -1.
        -11    1    3    3    0    0 -0.10309053134E+01 -0.26747271851E+02  0.15642303907E+02  0.31002596489E+02  0.51100000000E-03 0.  1.
        -12    1    3    3    0    0  0.91645042933E+01 -0.45500573731E+01  0.32510464665E+01  0.10735942631E+02  0.00000000000E+00 0.  1.
</event>
<event>
 7    1  0.2756432E-009  0.4778728E+02  0.7816164E-02  0.1312668E+00
        -11   -1    0    0    0    0  0.00000000000E+00  0.00000000000E+00  0.45593999997E+02  0.45594000000E+02  0.51100000000E-03 0.  1.
         11   -1    0    0    0    0 -0.00000000000E+00 -0.00000000000E+00 -0.45593999997E+02  0.45594000000E+02  0.51100000000E-03 0. -1.
    9900012    2    1    2    0    0  0.22160166390E+02  0.34854919949E+02 -0.13329831807E+02  0.47787276100E+02  0.20000023048E+02 0.  0.
        -12    1    1    2    0    0 -0.22160166390E+02 -0.34854919949E+02  0.13329831807E+02  0.43400723900E+02  0.00000000000E+00 0.  1.
         11    1    3    3    0    0  0.18513032313E+02  0.21674526256E+02 -0.12442174719E+02  0.31101851486E+02  0.51100000000E-03 0. -1.
        -11    1    3    3    0    0  0.63777890368E+01  0.11805675956E+02  0.25766618600E+00  0.13420751465E+02  0.51100000000E-03 0.  1.
         12    1    3    3    0    0 -0.27306549596E+01  0.13747177371E+01 -0.11453232742E+01  0.32646731487E+01  0.00000000000E+00 0. -1.
</event>
<event>
 7    1  0.2756432E-009  0.4778727E+02  0.7816164E-02  0.1312668E+00
        -11   -1    0    0    0    0  0.00000000000E+00  0.00000000000E+00  0.45593999997E+02  0.45594000000E+02  0.51100000000E-03 0. -1.
         11   -1    0    0    0    0 -0.00000000000E+00 -0.00000000000E+00 -0.45593999997E+02  0.45594000000E+02  0.51100000000E-03 0.  1.
    9900012    2    1    2    0    0  0.25047573537E+02  0.34306258116E+02  0.89063552985E+01  0.47787269007E+02  0.19999990709E+02 0.  0.
        -12    1    1    2    0    0 -0.25047573537E+02 -0.34306258116E+02 -0.89063552985E+01  0.43400730993E+02  0.00000000000E+00 0.  1.
         11    1    3    3    0    0  0.89995971123E+01  0.37319593746E+01  0.69047483547E+01  0.11941349131E+02  0.51100000000E-03 0. -1.
        -11    1    3    3    0    0  0.44639354417E+01  0.18286054221E+02 -0.13637464436E+00  0.18823525092E+02  0.51100000000E-03 0.  1.
        -12    1    3    3    0    0  0.11584040983E+02  0.12288244521E+02  0.21379815882E+01  0.17022394784E+02  0.00000000000E+00 0.  1.
</event>
<event>
 7    1  0.2756432E-009  0.4778725E+02  0.7816164E-02  0.1312668E+00
        -11   -1    0    0    0    0  0.00000000000E+00  0.00000000000E+00  0.45593999997E+02  0.45594000000E+02  0.51100000000E-03 0.  1.
         11   -1    0    0    0    0 -0.00000000000E+00 -0.00000000000E+00 -0.45593999997E+02  0.45594000000E+02  0.51100000000E-03 0. -1.
    9900012    2    1    2    0    0 -0.31314110564E+01 -0.10945738289E+02 -0.41880907321E+02  0.47787247473E+02  0.19999892528E+02 0.  0.
        -12    1    1    2    0    0  0.31314110564E+01  0.10945738289E+02  0.41880907321E+02  0.43400752527E+02  0.00000000000E+00 0.  1.
         11    1    3    3    0    0  0.16384353499E+01  0.18556565818E+01 -0.44925586371E+00  0.25159019928E+01  0.51100000000E-03 0. -1.
        -11    1    3    3    0    0 -0.25402089508E+01 -0.54494700761E+00 -0.71939016295E+00  0.26957654242E+01  0.51100000000E-03 0.  1.
         12    1    3    3    0    0 -0.22296374555E+01 -0.12256447863E+02 -0.40712261294E+02  0.42575580056E+02  0.00000000000E+00 0. -1.
</event>
<event>
 7    1  0.2756432E-009  0.4778730E+02  0.7816164E-02  0.1312668E+00
        -11   -1    0    0    0    0  0.00000000000E+00  0.00000000000E+00  0.45593999997E+02  0.45594000000E+02  0.51100000000E-03 0. -1.
         11   -1    0    0    0    0 -0.00000000000E+00 -0.00000000000E+00 -0.45593999997E+02  0.45594000000E+02  0.51100000000E-03 0.  1.
    9900012    2    1    2    0    0 -0.27039549536E+01  0.13464740611E+02  0.41170497868E+02  0.47787302922E+02  0.20000145344E+02 0.  0.
        -12    1    1    2    0    0  0.27039549536E+01 -0.13464740611E+02 -0.41170497868E+02  0.43400697078E+02  0.00000000000E+00 0.  1.
         11    1    3    3    0    0  0.40392979208E+01  0.59952950698E+00  0.21103568126E+02  0.21495021545E+02  0.51100000000E-03 0. -1.
        -11    1    3    3    0    0 -0.20327855291E+01  0.12004732693E+02  0.13757738935E+02  0.18371750187E+02  0.51100000000E-03 0.  1.
        -12    1    3    3    0    0 -0.47104673453E+01  0.86047841073E+00  0.63091908067E+01  0.79205311906E+01  0.00000000000E+00 0.  1.
</event>
<event>
 7    1  0.2756432E-009  0.4778727E+02  0.7816164E-02  0.1312668E+00
        -11   -1    0    0    0    0  0.00000000000E+00  0.00000000000E+00  0.45593999997E+02  0.45594000000E+02  0.51100000000E-03 0.  1.
         11   -1    0    0    0    0 -0.00000000000E+00 -0.00000000000E+00 -0.45593999997E+02  0.45594000000E+02  0.51100000000E-03 0. -1.
    9900012    2    1    2    0    0  0.28209859633E+02  0.15803185727E+02 -0.28949725627E+02  0.47787268745E+02  0.19999989515E+02 0.  0.
        -12    1    1    2    0    0 -0.28209859633E+02 -0.15803185727E+02  0.28949725627E+02  0.43400731255E+02  0.00000000000E+00 0.  1.
         11    1    3    3    0    0  0.11322060750E+02  0.78422413482E+01 -0.23629726553E+02  0.27350571954E+02  0.51100000000E-03 0. -1.
        -11    1    3    3    0    0  0.91376961062E+01  0.76411744472E+01 -0.24152490880E+01  0.12153948555E+02  0.51100000000E-03 0.  1.
         12    1    3    3    0    0  0.77501027761E+01  0.31976993171E+00 -0.29047499860E+01  0.82827482353E+01  0.00000000000E+00 0. -1.
</event>
<event>
 7    1  0.2756432E-009  0.4778727E+02  0.7816164E-02  0.1312668E+00
        -11   -1    0    0    0    0  0.00000000000E+00  0.00000000000E+00  0.45593999997E+02  0.45594000000E+02  0.51100000000E-03 0.  1.
         11   -1    0    0    0    0 -0.00000000000E+00 -0.00000000000E+00 -0.45593999997E+02  0.45594000000E+02  0.51100000000E-03 0. -1.
    9900012    2    1    2    0    0  0.12300595395E+02  0.35959057570E+02 -0.20958643710E+02  0.47787271728E+02  0.20000003115E+02 0.  0.
        -12    1    1    2    0    0 -0.12300595395E+02 -0.35959057570E+02  0.20958643710E+02  0.43400728272E+02  0.00000000000E+00 0.  1.
         11    1    3    3    0    0  0.94375513979E+01  0.25632583167E+02 -0.23251134049E+02  0.35870767081E+02  0.51100000000E-03 0. -1.
        -11    1    3    3    0    0  0.33818085390E+01  0.35705347343E+01  0.10005570524E+01  0.50186115569E+01  0.51100000000E-03 0.  1.
         12    1    3    3    0    0 -0.51876454133E+00  0.67559396688E+01  0.12919332858E+01  0.68978930894E+01  0.00000000000E+00 0. -1.
</event>
<event>
 7    1  0.2756432E-009  0.4778727E+02  0.7816164E-02  0.1312668E+00
        -11   -1    0    0    0    0  0.00000000000E+00  0.00000000000E+00  0.45593999997E+02  0.45594000000E+02  0.51100000000E-03 0. -1.
         11   -1    0    0    0    0 -0.00000000000E+00 -0.00000000000E+00 -0.45593999997E+02  0.45594000000E+02  0.51100000000E-03 0.  1.
    9900012    2    1    2    0    0 -0.33364681996E+02  0.21614071688E+02  0.17414167536E+02  0.47787270390E+02  0.19999997018E+02 0.  0.
        -12    1    1    2    0    0  0.33364681996E+02 -0.21614071688E+02 -0.17414167536E+02  0.43400729610E+02  0.00000000000E+00 0.  1.
         11    1    3    3    0    0 -0.80823603283E+01 -0.24738726671E+01  0.30537484093E+01  0.89872116954E+01  0.51100000000E-03 0. -1.
        -11    1    3    3    0    0 -0.35115193430E+01 -0.85290721540E-01  0.14574013553E+01  0.38029017309E+01  0.51100000000E-03 0.  1.
         12    1    3    3    0    0 -0.21770802325E+02  0.24173235077E+02  0.12903017772E+02  0.34997156964E+02  0.00000000000E+00 0. -1.
</event>
<event>
 7    1  0.2756432E-009  0.4778727E+02  0.7816164E-02  0.1312668E+00
        -11   -1    0    0    0    0  0.00000000000E+00  0.00000000000E+00  0.45593999997E+02  0.45594000000E+02  0.51100000000E-03 0. -1.
         11   -1    0    0    0    0 -0.00000000000E+00 -0.00000000000E+00 -0.45593999997E+02  0.45594000000E+02  0.51100000000E-03 0.  1.
    9900012    2    1    2    0    0 -0.10162035359E+02  0.12744668908E+01  0.42175016081E+02  0.47787271781E+02  0.20000003360E+02 0.  0.
        -12    1    1    2    0    0  0.10162035359E+02 -0.12744668908E+01 -0.42175016081E+02  0.43400728219E+02  0.00000000000E+00 0.  1.
         11    1    3    3    0    0 -0.14334856092E+01 -0.55581021943E+01  0.20740605018E+02  0.21520224854E+02  0.51100000000E-03 0. -1.
        -11    1    3    3    0    0 -0.36504045579E+01  0.87529028485E+01  0.15905742801E+02  0.18518407492E+02  0.51100000000E-03 0.  1.
        -12    1    3    3    0    0 -0.50781451922E+01 -0.19203337634E+01  0.55286682612E+01  0.77486394353E+01  0.00000000000E+00 0.  1.
</event>
<event>
 7    1  0.2756432E-009  0.4778727E+02  0.7816164E-02  0.1312668E+00
        -11   -1    0    0    0    0  0.00000000000E+00  0.00000000000E+00  0.45593999997E+02  0.45594000000E+02  0.51100000000E-03 0.  1.
         11   -1    0    0    0    0 -0.00000000000E+00 -0.00000000000E+00 -0.45593999997E+02  0.45594000000E+02  0.51100000000E-03 0. -1.
    9900012    2    1    2    0    0  0.22380982369E+02  0.10878542772E+01 -0.37168958972E+02  0.47787270631E+02  0.19999998114E+02 0.  0.
        -12    1    1    2    0    0 -0.22380982369E+02 -0.10878542772E+01  0.37168958972E+02  0.43400729369E+02  0.00000000000E+00 0.  1.
         11    1    3    3    0    0  0.56719025410E+01  0.23340758101E+01 -0.10512321362E+02  0.12170755482E+02  0.51100000000E-03 0. -1.
        -11    1    3    3    0    0  0.10410553229E+02  0.28398508938E+01 -0.25915301999E+02  0.28072179281E+02  0.51100000000E-03 0.  1.
        -12    1    3    3    0    0  0.62985265991E+01 -0.40860724268E+01 -0.74133561078E+00  0.75443358676E+01  0.00000000000E+00 0.  1.
</event>
<event>
 7    1  0.2756432E-009  0.4778727E+02  0.7816164E-02  0.1312668E+00
        -11   -1    0    0    0    0  0.00000000000E+00  0.00000000000E+00  0.45593999997E+02  0.45594000000E+02  0.51100000000E-03 0.  1.
         11   -1    0    0    0    0 -0.00000000000E+00 -0.00000000000E+00 -0.45593999997E+02  0.45594000000E+02  0.51100000000E-03 0. -1.
    9900012    2    1    2    0    0 -0.24216360657E+02 -0.25301719619E+02 -0.25632283381E+02  0.47787273157E+02  0.20000009633E+02 0.  0.
        -12    1    1    2    0    0  0.24216360657E+02  0.25301719619E+02  0.25632283381E+02  0.43400726843E+02  0.00000000000E+00 0.  1.
         11    1    3    3    0    0 -0.15216669499E+02 -0.10361651328E+02 -0.44291074924E+01  0.18934831457E+02  0.51100000000E-03 0. -1.
        -11    1    3    3    0    0 -0.10089112009E+02 -0.91556469775E+01 -0.15795233092E+02  0.20859181225E+02  0.51100000000E-03 0.  1.
         12    1    3    3    0    0  0.10894208505E+01 -0.57844213131E+01 -0.54079427966E+01  0.79932604742E+01  0.00000000000E+00 0. -1.
</event>
<event>
 7    1  0.2756432E-009  0.4778726E+02  0.7816164E-02  0.1312668E+00
        -11   -1    0    0    0    0  0.00000000000E+00  0.00000000000E+00  0.45593999997E+02  0.45594000000E+02  0.51100000000E-03 0.  1.
         11   -1    0    0    0    0 -0.00000000000E+00 -0.00000000000E+00 -0.45593999997E+02  0.45594000000E+02  0.51100000000E-03 0. -1.
    9900012    2    1    2    0    0 -0.33138927214E+02 -0.12373864408E+02 -0.25146044493E+02  0.47787256102E+02  0.19999931871E+02 0.  0.
        -12    1    1    2    0    0  0.33138927214E+02  0.12373864408E+02  0.25146044493E+02  0.43400743898E+02  0.00000000000E+00 0.  1.
         11    1    3    3    0    0 -0.17060493167E+02 -0.29724955923E+01 -0.48213617327E+01  0.17976142144E+02  0.51100000000E-03 0. -1.
        -11    1    3    3    0    0 -0.16417033182E+02 -0.10766666510E+02 -0.20510466098E+02  0.28392240244E+02  0.51100000000E-03 0.  1.
        -12    1    3    3    0    0  0.33859913481E+00  0.13652976947E+01  0.18578333813E+00  0.14188737146E+01  0.00000000000E+00 0.  1.
</event>
<event>
 7    1  0.2756432E-009  0.4778727E+02  0.7816164E-02  0.1312668E+00
        -11   -1    0    0    0    0  0.00000000000E+00  0.00000000000E+00  0.45593999997E+02  0.45594000000E+02  0.51100000000E-03 0.  1.
         11   -1    0    0    0    0 -0.00000000000E+00 -0.00000000000E+00 -0.45593999997E+02  0.45594000000E+02  0.51100000000E-03 0. -1.
    9900012    2    1    2    0    0 -0.35445742011E+02  0.18603442596E+02 -0.16767070054E+02  0.47787270267E+02  0.19999996456E+02 0.  0.
        -12    1    1    2    0    0  0.35445742011E+02 -0.18603442596E+02  0.16767070054E+02  0.43400729733E+02  0.00000000000E+00 0.  1.
         11    1    3    3    0    0 -0.23579525825E+02  0.15875326725E+02 -0.16058582047E+02  0.32648094805E+02  0.51100000000E-03 0. -1.
        -11    1    3    3    0    0  0.25411702252E+00  0.26328761570E+01  0.11363549673E+01  0.28788739452E+01  0.51100000000E-03 0.  1.
         12    1    3    3    0    0 -0.12120333209E+02  0.95239713989E-01 -0.18448429744E+01  0.12260301517E+02  0.00000000000E+00 0. -1.
</event>
<event>
 7    1  0.2756432E-009  0.4778727E+02  0.7816164E-02  0.1312668E+00
        -11   -1    0    0    0    0  0.00000000000E+00  0.00000000000E+00  0.45593999997E+02  0.45594000000E+02  0.51100000000E-03 0. -1.
         11   -1    0    0    0    0 -0.00000000000E+00 -0.00000000000E+00 -0.45593999997E+02  0.45594000000E+02  0.51100000000E-03 0.  1.
    9900012    2    1    2    0    0 -0.36628031139E+02  0.21939528175E+02  0.77889596646E+01  0.47787268966E+02  0.19999990524E+02 0.  0.
        -12    1    1    2    0    0  0.36628031139E+02 -0.21939528175E+02 -0.77889596646E+01  0.43400731034E+02  0.00000000000E+00 0.  1.
         11    1    3    3    0    0 -0.15224594749E+02  0.18974848680E+02  0.84018112642E+01  0.25737591194E+02  0.51100000000E-03 0. -1.
        -11    1    3    3    0    0 -0.17238008202E+02  0.36223383693E+01  0.71365015775E+00  0.17628940945E+02  0.51100000000E-03 0.  1.
         12    1    3    3    0    0 -0.41654281877E+01 -0.65765887443E+00 -0.13265017573E+01  0.44207368271E+01  0.00000000000E+00 0. -1.
</event>
<event>
 7    1  0.2756432E-009  0.4778728E+02  0.7816164E-02  0.1312668E+00
        -11   -1    0    0    0    0  0.00000000000E+00  0.00000000000E+00  0.45593999997E+02  0.45594000000E+02  0.51100000000E-03 0.  1.
         11   -1    0    0    0    0 -0.00000000000E+00 -0.00000000000E+00 -0.45593999997E+02  0.45594000000E+02  0.51100000000E-03 0. -1.
    9900012    2    1    2    0    0 -0.38578358441E+01  0.42399359465E+02 -0.84281873316E+01  0.47787275096E+02  0.20000018475E+02 0.  0.
        -12    1    1    2    0    0  0.38578358441E+01 -0.42399359465E+02  0.84281873316E+01  0.43400724904E+02  0.00000000000E+00 0.  1.
         11    1    3    3    0    0 -0.97540054662E+01  0.32280304760E+02 -0.29636088833E+01  0.33851760308E+02  0.51100000000E-03 0. -1.
        -11    1    3    3    0    0  0.48355717911E+01  0.33183287709E+01 -0.17822647932E+01  0.61294802743E+01  0.51100000000E-03 0.  1.
         12    1    3    3    0    0  0.10605978310E+01  0.68007259340E+01 -0.36823136550E+01  0.78060345146E+01  0.00000000000E+00 0. -1.
</event>
<event>
 7    1  0.2756432E-009  0.4778728E+02  0.7816164E-02  0.1312668E+00
        -11   -1    0    0    0    0  0.00000000000E+00  0.00000000000E+00  0.45593999997E+02  0.45594000000E+02  0.51100000000E-03 0.  1.
         11   -1    0    0    0    0 -0.00000000000E+00 -0.00000000000E+00 -0.45593999997E+02  0.45594000000E+02  0.51100000000E-03 0. -1.
    9900012    2    1    2    0    0  0.10977546434E+02 -0.40220128540E+02 -0.12060577555E+02  0.47787276545E+02  0.20000025079E+02 0.  0.
        -12    1    1    2    0    0 -0.10977546434E+02  0.40220128540E+02  0.12060577555E+02  0.43400723455E+02  0.00000000000E+00 0.  1.
         11    1    3    3    0    0 -0.57050887711E+00 -0.24825949912E+01 -0.41096417002E+00  0.25802422521E+01  0.51100000000E-03 0.  1.
        -11    1    3    3    0    0 -0.28764047855E+00 -0.26285933999E+02 -0.11612411253E+02  0.28738148141E+02  0.51100000000E-03 0. -1.
        -12    1    3    3    0    0  0.11835695789E+02 -0.11451599550E+02 -0.37202131805E-01  0.16468886151E+02  0.00000000000E+00 0.  1.
</event>
<event>
 7    1  0.2756432E-009  0.4778727E+02  0.7816164E-02  0.1312668E+00
        -11   -1    0    0    0    0  0.00000000000E+00  0.00000000000E+00  0.45593999997E+02  0.45594000000E+02  0.51100000000E-03 0. -1.
         11   -1    0    0    0    0 -0.00000000000E+00 -0.00000000000E+00 -0.45593999997E+02  0.45594000000E+02  0.51100000000E-03 0.  1.
    9900012    2    1    2    0    0 -0.18647839957E+02 -0.31931707827E+02  0.22721072389E+02  0.47787273851E+02  0.20000012794E+02 0.  0.
        -12    1    1    2    0    0  0.18647839957E+02  0.31931707827E+02 -0.22721072389E+02  0.43400726149E+02  0.00000000000E+00 0.  1.
         11    1    3    3    0    0  0.24284050912E+01 -0.65649839947E+01  0.19867130080E+01  0.72762074583E+01  0.51100000000E-03 0. -1.
        -11    1    3    3    0    0 -0.16613307611E+02 -0.12671030443E+02  0.93765380892E+01  0.22901451243E+02  0.51100000000E-03 0.  1.
        -12    1    3    3    0    0 -0.44629374375E+01 -0.12695693389E+02  0.11357821292E+02  0.17609615149E+02  0.00000000000E+00 0.  1.
</event>
<event>
 7    1  0.2756432E-009  0.4778727E+02  0.7816164E-02  0.1312668E+00
        -11   -1    0    0    0    0  0.00000000000E+00  0.00000000000E+00  0.45593999997E+02  0.45594000000E+02  0.51100000000E-03 0.  1.
         11   -1    0    0    0    0 -0.00000000000E+00 -0.00000000000E+00 -0.45593999997E+02  0.45594000000E+02  0.51100000000E-03 0. -1.
    9900012    2    1    2    0    0 -0.17509631799E+02  0.33653525445E+02 -0.21082605807E+02  0.47787271340E+02  0.20000001346E+02 0.  0.
        -12    1    1    2    0    0  0.17509631799E+02 -0.33653525445E+02  0.21082605807E+02  0.43400728660E+02  0.00000000000E+00 0.  1.
         11    1    3    3    0    0 -0.13849362361E+02  0.28904421031E+02 -0.12242750791E+02  0.34309697465E+02  0.51100000000E-03 0. -1.
        -11    1    3    3    0    0 -0.21574273087E+01 -0.17949800539E+01 -0.50236328516E+01  0.57544185870E+01  0.51100000000E-03 0.  1.
        -12    1    3    3    0    0 -0.15028421297E+01  0.65440844677E+01 -0.38162221640E+01  0.77231552873E+01  0.00000000000E+00 0.  1.
</event>
<event>
 7    1  0.2756432E-009  0.4778727E+02  0.7816164E-02  0.1312668E+00
        -11   -1    0    0    0    0  0.00000000000E+00  0.00000000000E+00  0.45593999997E+02  0.45594000000E+02  0.51100000000E-03 0. -1.
         11   -1    0    0    0    0 -0.00000000000E+00 -0.00000000000E+00 -0.45593999997E+02  0.45594000000E+02  0.51100000000E-03 0.  1.
    9900012    2    1    2    0    0  0.34305660478E+02 -0.19229756286E+02  0.18356521290E+02  0.47787265657E+02  0.19999975438E+02 0.  0.
        -12    1    1    2    0    0 -0.34305660478E+02  0.19229756286E+02 -0.18356521290E+02  0.43400734343E+02  0.00000000000E+00 0.  1.
         11    1    3    3    0    0  0.18542584117E+02 -0.29164409889E+01  0.12817404383E+02  0.22729252279E+02  0.51100000000E-03 0. -1.
        -11    1    3    3    0    0 -0.85608112257E+00 -0.30566702076E+01  0.54869833452E+00  0.32213627194E+01  0.51100000000E-03 0.  1.
         12    1    3    3    0    0  0.16619157483E+02 -0.13256645089E+02  0.49904185723E+01  0.21836650659E+02  0.00000000000E+00 0. -1.
</event>
<event>
 7    1  0.2756432E-009  0.4778726E+02  0.7816164E-02  0.1312668E+00
        -11   -1    0    0    0    0  0.00000000000E+00  0.00000000000E+00  0.45593999997E+02  0.45594000000E+02  0.51100000000E-03 0.  1.
         11   -1    0    0    0    0 -0.00000000000E+00 -0.00000000000E+00 -0.45593999997E+02  0.45594000000E+02  0.51100000000E-03 0. -1.
    9900012    2    1    2    0    0  0.27572158993E+02 -0.33493667968E+02  0.12546227343E+01  0.47787264710E+02  0.19999971119E+02 0.  0.
        -12    1    1    2    0    0 -0.27572158993E+02  0.33493667968E+02 -0.12546227343E+01  0.43400735290E+02  0.00000000000E+00 0.  1.
         11    1    3    3    0    0  0.15623699366E+02 -0.20585633535E+02 -0.38503031352E+01  0.26128396897E+02  0.51100000000E-03 0. -1.
        -11    1    3    3    0    0  0.12285080927E+02 -0.77051081585E+01  0.70113141779E+01  0.16107465098E+02  0.51100000000E-03 0.  1.
        -12    1    3    3    0    0 -0.33662130053E+00 -0.52029262744E+01 -0.19063883084E+01  0.55514027146E+01  0.00000000000E+00 0.  1.
</event>
<event>
 7    1  0.2756432E-009  0.4778727E+02  0.7816164E-02  0.1312668E+00
        -11   -1    0    0    0    0  0.00000000000E+00  0.00000000000E+00  0.45593999997E+02  0.45594000000E+02  0.51100000000E-03 0.  1.
         11   -1    0    0    0    0 -0.00000000000E+00 -0.00000000000E+00 -0.45593999997E+02  0.45594000000E+02  0.51100000000E-03 0. -1.
    9900012    2    1    2    0    0 -0.21814570823E+02  0.35492638027E+02  0.12166376771E+02  0.47787267541E+02  0.19999984025E+02 0.  0.
        -12    1    1    2    0    0  0.21814570823E+02 -0.35492638027E+02 -0.12166376771E+02  0.43400732459E+02  0.00000000000E+00 0.  1.
         11    1    3    3    0    0 -0.94399689514E+01  0.28846129532E+01  0.13882502168E+01  0.99680110663E+01  0.51100000000E-03 0. -1.
        -11    1    3    3    0    0 -0.42416941375E+01  0.22896700308E+02  0.92666418153E+01  0.25062352343E+02  0.51100000000E-03 0.  1.
        -12    1    3    3    0    0 -0.81329077337E+01  0.97113247657E+01  0.15114847390E+01  0.12756904132E+02  0.00000000000E+00 0.  1.
</event>
<event>
 7    1  0.2756432E-009  0.4778727E+02  0.7816164E-02  0.1312668E+00
        -11   -1    0    0    0    0  0.00000000000E+00  0.00000000000E+00  0.45593999997E+02  0.45594000000E+02  0.51100000000E-03 0.  1.
         11   -1    0    0    0    0 -0.00000000000E+00 -0.00000000000E+00 -0.45593999997E+02  0.45594000000E+02  0.51100000000E-03 0. -1.
    9900012    2    1    2    0    0 -0.23192516547E+02  0.18449117816E+02 -0.31707422766E+02  0.47787269241E+02  0.19999991777E+02 0.  0.
        -12    1    1    2    0    0  0.23192516547E+02 -0.18449117816E+02  0.31707422766E+02  0.43400730759E+02  0.00000000000E+00 0.  1.
         11    1    3    3    0    0 -0.11355914972E+02  0.23036537525E+01 -0.74886583126E+01  0.13796507857E+02  0.51100000000E-03 0. -1.
        -11    1    3    3    0    0 -0.27567014670E+00  0.99380572190E+01 -0.62590643813E+01  0.11748057819E+02  0.51100000000E-03 0.  1.
        -12    1    3    3    0    0 -0.11560931428E+02  0.62074068443E+01 -0.17959700072E+02  0.22242703565E+02  0.00000000000E+00 0.  1.
</event>
<event>
 7    1  0.2756432E-009  0.4778727E+02  0.7816164E-02  0.1312668E+00
        -11   -1    0    0    0    0  0.00000000000E+00  0.00000000000E+00  0.45593999997E+02  0.45594000000E+02  0.51100000000E-03 0.  1.
         11   -1    0    0    0    0 -0.00000000000E+00 -0.00000000000E+00 -0.45593999997E+02  0.45594000000E+02  0.51100000000E-03 0. -1.
    9900012    2    1    2    0    0 -0.18520180847E+02 -0.24132699252E+02 -0.30955442119E+02  0.47787266497E+02  0.19999979268E+02 0.  0.
        -12    1    1    2    0    0  0.18520180847E+02  0.24132699252E+02  0.30955442119E+02  0.43400733503E+02  0.00000000000E+00 0.  1.
         11    1    3    3    0    0 -0.18277121780E+02 -0.12627044184E+02 -0.15913689608E+02  0.27326561119E+02  0.51100000000E-03 0. -1.
        -11    1    3    3    0    0  0.17371186213E+01 -0.99901615517E+01 -0.14820438410E+02  0.17957346793E+02  0.51100000000E-03 0.  1.
        -12    1    3    3    0    0 -0.19801776883E+01 -0.15154935163E+01 -0.22131410134E+00  0.25033585853E+01  0.00000000000E+00 0.  1.
</event>
<event>
 7    1  0.2756432E-009  0.4778727E+02  0.7816164E-02  0.1312668E+00
        -11   -1    0    0    0    0  0.00000000000E+00  0.00000000000E+00  0.45593999997E+02  0.45594000000E+02  0.51100000000E-03 0.  1.
         11   -1    0    0    0    0 -0.00000000000E+00 -0.00000000000E+00 -0.45593999997E+02  0.45594000000E+02  0.51100000000E-03 0. -1.
    9900012    2    1    2    0    0 -0.38035850879E+02  0.24257698305E+01 -0.20760851339E+02  0.47787271208E+02  0.20000000745E+02 0.  0.
        -12    1    1    2    0    0  0.38035850879E+02 -0.24257698305E+01  0.20760851339E+02  0.43400728792E+02  0.00000000000E+00 0.  1.
         11    1    3    3    0    0 -0.49790010554E+01 -0.42634675287E+00 -0.11526718386E+02  0.12563337935E+02  0.51100000000E-03 0. -1.
        -11    1    3    3    0    0 -0.14109529279E+02  0.23129526732E+01 -0.37986248135E+00  0.14302896990E+02  0.51100000000E-03 0.  1.
         12    1    3    3    0    0 -0.18947320544E+02  0.53916391016E+00 -0.88542704722E+01  0.20921036282E+02  0.00000000000E+00 0. -1.
</event>
<event>
 7    1  0.2756432E-009  0.4778727E+02  0.7816164E-02  0.1312668E+00
        -11   -1    0    0    0    0  0.00000000000E+00  0.00000000000E+00  0.45593999997E+02  0.45594000000E+02  0.51100000000E-03 0. -1.
         11   -1    0    0    0    0 -0.00000000000E+00 -0.00000000000E+00 -0.45593999997E+02  0.45594000000E+02  0.51100000000E-03 0.  1.
    9900012    2    1    2    0    0  0.38702532791E+02  0.15932555684E+02  0.11484391684E+02  0.47787266972E+02  0.19999981432E+02 0.  0.
        -12    1    1    2    0    0 -0.38702532791E+02 -0.15932555684E+02 -0.11484391684E+02  0.43400733028E+02  0.00000000000E+00 0.  1.
         11    1    3    3    0    0  0.71310414740E+00  0.14734179776E+01  0.56970665167E+00  0.17332178143E+01  0.51100000000E-03 0. -1.
        -11    1    3    3    0    0  0.16281992103E+02  0.91141223044E+01  0.14213437823E+02  0.23456178445E+02  0.51100000000E-03 0.  1.
        -12    1    3    3    0    0  0.21707436540E+02  0.53450154019E+01 -0.32987527908E+01  0.22597870713E+02  0.00000000000E+00 0.  1.
</event>
<event>
 7    1  0.2756432E-009  0.4778728E+02  0.7816164E-02  0.1312668E+00
        -11   -1    0    0    0    0  0.00000000000E+00  0.00000000000E+00  0.45593999997E+02  0.45594000000E+02  0.51100000000E-03 0.  1.
         11   -1    0    0    0    0 -0.00000000000E+00 -0.00000000000E+00 -0.45593999997E+02  0.45594000000E+02  0.51100000000E-03 0. -1.
    9900012    2    1    2    0    0 -0.18356383713E+02 -0.24121649210E+02 -0.31061414288E+02  0.47787282942E+02  0.20000054246E+02 0.  0.
        -12    1    1    2    0    0  0.18356383713E+02  0.24121649210E+02  0.31061414288E+02  0.43400717058E+02  0.00000000000E+00 0.  1.
         11    1    3    3    0    0 -0.87004495598E+01 -0.11964837281E+02 -0.20268022084E+02  0.25092785281E+02  0.51100000000E-03 0. -1.
        -11    1    3    3    0    0 -0.27455721753E+01 -0.76939367294E+01  0.10900981867E+01  0.82415498107E+01  0.51100000000E-03 0.  1.
        -12    1    3    3    0    0 -0.69103619777E+01 -0.44628751996E+01 -0.11883490390E+02  0.14452947850E+02  0.00000000000E+00 0.  1.
</event>
<event>
 7    1  0.2756432E-009  0.4778727E+02  0.7816164E-02  0.1312668E+00
        -11   -1    0    0    0    0  0.00000000000E+00  0.00000000000E+00  0.45593999997E+02  0.45594000000E+02  0.51100000000E-03 0.  1.
         11   -1    0    0    0    0 -0.00000000000E+00 -0.00000000000E+00 -0.45593999997E+02  0.45594000000E+02  0.51100000000E-03 0. -1.
    9900012    2    1    2    0    0  0.14985472715E+02  0.26615664810E+02 -0.30832855700E+02  0.47787274241E+02  0.20000014574E+02 0.  0.
        -12    1    1    2    0    0 -0.14985472715E+02 -0.26615664810E+02  0.30832855700E+02  0.43400725759E+02  0.00000000000E+00 0.  1.
         11    1    3    3    0    0  0.89177214035E+01  0.37778374969E+01 -0.91122016014E+01  0.13297745278E+02  0.51100000000E-03 0. -1.
        -11    1    3    3    0    0  0.62561845756E+01  0.24409036321E+02 -0.20205393156E+02  0.32298588397E+02  0.51100000000E-03 0.  1.
        -12    1    3    3    0    0 -0.18843326448E+00 -0.15712090078E+01 -0.15152609431E+01  0.21909405668E+01  0.00000000000E+00 0.  1.
</event>
<event>
 7    1  0.2756432E-009  0.4778727E+02  0.7816164E-02  0.1312668E+00
        -11   -1    0    0    0    0  0.00000000000E+00  0.00000000000E+00  0.45593999997E+02  0.45594000000E+02  0.51100000000E-03 0.  1.
         11   -1    0    0    0    0 -0.00000000000E+00 -0.00000000000E+00 -0.45593999997E+02  0.45594000000E+02  0.51100000000E-03 0. -1.
    9900012    2    1    2    0    0 -0.15528190701E+02  0.16766027506E+02 -0.36897139260E+02  0.47787271085E+02  0.20000000185E+02 0.  0.
        -12    1    1    2    0    0  0.15528190701E+02 -0.16766027506E+02  0.36897139260E+02  0.43400728915E+02  0.00000000000E+00 0.  1.
         11    1    3    3    0    0 -0.16677258344E+02  0.13404446731E+02 -0.20684848539E+02  0.29760260371E+02  0.51100000000E-03 0. -1.
        -11    1    3    3    0    0  0.33794347108E+01  0.37889129036E+01 -0.77471190881E+01  0.92625209518E+01  0.51100000000E-03 0.  1.
         12    1    3    3    0    0 -0.22303670679E+01 -0.42733212898E+00 -0.84651716335E+01  0.87644897621E+01  0.00000000000E+00 0. -1.
</event>
<event>
 7    1  0.2756432E-009  0.4778727E+02  0.7816164E-02  0.1312668E+00
        -11   -1    0    0    0    0  0.00000000000E+00  0.00000000000E+00  0.45593999997E+02  0.45594000000E+02  0.51100000000E-03 0.  1.
         11   -1    0    0    0    0 -0.00000000000E+00 -0.00000000000E+00 -0.45593999997E+02  0.45594000000E+02  0.51100000000E-03 0. -1.
    9900012    2    1    2    0    0 -0.21117310284E+02  0.29530647827E+01 -0.37801613169E+02  0.47787270243E+02  0.19999996347E+02 0.  0.
        -12    1    1    2    0    0  0.21117310284E+02 -0.29530647827E+01  0.37801613169E+02  0.43400729757E+02  0.00000000000E+00 0.  1.
         11    1    3    3    0    0 -0.23518183823E+01  0.53166133428E+01 -0.20622845458E+02  0.21426599874E+02  0.51100000000E-03 0. -1.
        -11    1    3    3    0    0  0.31448142577E+00  0.50002164854E+00 -0.11080626665E+00  0.60099792514E+00  0.51100000000E-03 0.  1.
         12    1    3    3    0    0 -0.19079973328E+02 -0.28635702087E+01 -0.17067961444E+02  0.25759672444E+02  0.00000000000E+00 0. -1.
</event>
<event>
 7    1  0.2756432E-009  0.4778727E+02  0.7816164E-02  0.1312668E+00
        -11   -1    0    0    0    0  0.00000000000E+00  0.00000000000E+00  0.45593999997E+02  0.45594000000E+02  0.51100000000E-03 0. -1.
         11   -1    0    0    0    0 -0.00000000000E+00 -0.00000000000E+00 -0.45593999997E+02  0.45594000000E+02  0.51100000000E-03 0.  1.
    9900012    2    1    2    0    0  0.41610164001E+02 -0.13705767821E+01 -0.12261275778E+02  0.47787272903E+02  0.20000008472E+02 0.  0.
        -12    1    1    2    0    0 -0.41610164001E+02  0.13705767821E+01  0.12261275778E+02  0.43400727097E+02  0.00000000000E+00 0.  1.
         11    1    3    3    0    0  0.19011731811E+02 -0.75563761179E+01 -0.60804038437E+01  0.21342822626E+02  0.51100000000E-03 0. -1.
        -11    1    3    3    0    0  0.14971497158E+02  0.57754533789E+01 -0.88843866282E+01  0.18342134960E+02  0.51100000000E-03 0.  1.
        -12    1    3    3    0    0  0.76269350321E+01  0.41034595701E+00  0.27035146939E+01  0.81023153165E+01  0.00000000000E+00 0.  1.
</event>
<event>
 7    1  0.2756432E-009  0.4778727E+02  0.7816164E-02  0.1312668E+00
        -11   -1    0    0    0    0  0.00000000000E+00  0.00000000000E+00  0.45593999997E+02  0.45594000000E+02  0.51100000000E-03 0.  1.
         11   -1    0    0    0    0 -0.00000000000E+00 -0.00000000000E+00 -0.45593999997E+02  0.45594000000E+02  0.51100000000E-03 0. -1.
    9900012    2    1    2    0    0  0.25170582888E+02 -0.29626690813E+02 -0.19295707767E+02  0.47787269710E+02  0.19999993917E+02 0.  0.
        -12    1    1    2    0    0 -0.25170582888E+02  0.29626690813E+02  0.19295707767E+02  0.43400730290E+02  0.00000000000E+00 0.  1.
         11    1    3    3    0    0  0.56624541235E+00 -0.22697720044E+01 -0.36128975244E+01  0.43041291339E+01  0.51100000000E-03 0. -1.
        -11    1    3    3    0    0  0.15855268987E+02 -0.15458092861E+02 -0.17995700095E+02  0.28533969435E+02  0.51100000000E-03 0.  1.
        -12    1    3    3    0    0  0.87490684888E+01 -0.11898825948E+02  0.23128898517E+01  0.14949171142E+02  0.00000000000E+00 0.  1.
</event>
<event>
 7    1  0.2756432E-009  0.4778727E+02  0.7816164E-02  0.1312668E+00
        -11   -1    0    0    0    0  0.00000000000E+00  0.00000000000E+00  0.45593999997E+02  0.45594000000E+02  0.51100000000E-03 0. -1.
         11   -1    0    0    0    0 -0.00000000000E+00 -0.00000000000E+00 -0.45593999997E+02  0.45594000000E+02  0.51100000000E-03 0.  1.
    9900012    2    1    2    0    0  0.37542983781E+02  0.19542898519E+02  0.96032678933E+01  0.47787271113E+02  0.20000000312E+02 0.  0.
        -12    1    1    2    0    0 -0.37542983781E+02 -0.19542898519E+02 -0.96032678933E+01  0.43400728887E+02  0.00000000000E+00 0.  1.
         11    1    3    3    0    0  0.17966179167E+02  0.25519324906E+01  0.69147932227E+00  0.18159683290E+02  0.51100000000E-03 0. -1.
        -11    1    3    3    0    0  0.14107382315E+01  0.77437200414E+01  0.24488260347E+01  0.82433082951E+01  0.51100000000E-03 0.  1.
         12    1    3    3    0    0  0.18166066383E+02  0.92472459869E+01  0.64629625363E+01  0.21384279527E+02  0.00000000000E+00 0. -1.
</event>
<event>
 7    1  0.2756432E-009  0.4778727E+02  0.7816164E-02  0.1312668E+00
        -11   -1    0    0    0    0  0.00000000000E+00  0.00000000000E+00  0.45593999997E+02  0.45594000000E+02  0.51100000000E-03 0.  1.
         11   -1    0    0    0    0 -0.00000000000E+00 -0.00000000000E+00 -0.45593999997E+02  0.45594000000E+02  0.51100000000E-03 0. -1.
    9900012    2    1    2    0    0 -0.29243663028E+02 -0.30399599314E+02 -0.10212522840E+02  0.47787273181E+02  0.20000009739E+02 0.  0.
        -12    1    1    2    0    0  0.29243663028E+02  0.30399599314E+02  0.10212522840E+02  0.43400726819E+02  0.00000000000E+00 0.  1.
         11    1    3    3    0    0 -0.18057270304E+02 -0.13253295744E+02 -0.10159579310E+02  0.24595363606E+02  0.51100000000E-03 0. -1.
        -11    1    3    3    0    0 -0.48757438345E+01 -0.10705665414E+02  0.50829355200E+01  0.12814850122E+02  0.51100000000E-03 0.  1.
        -12    1    3    3    0    0 -0.63106488892E+01 -0.64406381560E+01 -0.51358790501E+01  0.10377059452E+02  0.00000000000E+00 0.  1.
</event>
<event>
 7    1  0.2756432E-009  0.4778727E+02  0.7816164E-02  0.1312668E+00
        -11   -1    0    0    0    0  0.00000000000E+00  0.00000000000E+00  0.45593999997E+02  0.45594000000E+02  0.51100000000E-03 0. -1.
         11   -1    0    0    0    0 -0.00000000000E+00 -0.00000000000E+00 -0.45593999997E+02  0.45594000000E+02  0.51100000000E-03 0.  1.
    9900012    2    1    2    0    0  0.13811294584E+02  0.18240234686E+02  0.36880415271E+02  0.47787273623E+02  0.20000011755E+02 0.  0.
        -12    1    1    2    0    0 -0.13811294584E+02 -0.18240234686E+02 -0.36880415271E+02  0.43400726377E+02  0.00000000000E+00 0.  1.
         11    1    3    3    0    0  0.14683340277E+02  0.17387029904E+02  0.26314194214E+02  0.34790028859E+02  0.51100000000E-03 0. -1.
        -11    1    3    3    0    0 -0.29941561814E+00  0.39621272695E+01  0.36612504335E+01  0.54030414777E+01  0.51100000000E-03 0.  1.
         12    1    3    3    0    0 -0.57263007523E+00 -0.31089224876E+01  0.69049706236E+01  0.75942032860E+01  0.00000000000E+00 0. -1.
</event>
<event>
 7    1  0.2756432E-009  0.4778727E+02  0.7816164E-02  0.1312668E+00
        -11   -1    0    0    0    0  0.00000000000E+00  0.00000000000E+00  0.45593999997E+02  0.45594000000E+02  0.51100000000E-03 0.  1.
         11   -1    0    0    0    0 -0.00000000000E+00 -0.00000000000E+00 -0.45593999997E+02  0.45594000000E+02  0.51100000000E-03 0. -1.
    9900012    2    1    2    0    0  0.28833685771E+02  0.18437584771E+02 -0.26688903120E+02  0.47787268243E+02  0.19999987226E+02 0.  0.
        -12    1    1    2    0    0 -0.28833685771E+02 -0.18437584771E+02  0.26688903120E+02  0.43400731757E+02  0.00000000000E+00 0.  1.
         11    1    3    3    0    0  0.63865872897E+00  0.60089680461E+01 -0.88241726603E+01  0.10694933630E+02  0.51100000000E-03 0. -1.
        -11    1    3    3    0    0  0.22830187912E+02  0.79427623349E+01 -0.17934162161E+02  0.30098822673E+02  0.51100000000E-03 0.  1.
        -12    1    3    3    0    0  0.53648391296E+01  0.44858543898E+01  0.69431700995E-01  0.69935119400E+01  0.00000000000E+00 0.  1.
</event>
<event>
 7    1  0.2756432E-009  0.4778727E+02  0.7816164E-02  0.1312668E+00
        -11   -1    0    0    0    0  0.00000000000E+00  0.00000000000E+00  0.45593999997E+02  0.45594000000E+02  0.51100000000E-03 0.  1.
         11   -1    0    0    0    0 -0.00000000000E+00 -0.00000000000E+00 -0.45593999997E+02  0.45594000000E+02  0.51100000000E-03 0. -1.
    9900012    2    1    2    0    0 -0.36464496505E+02  0.23353588978E+02  0.29280643086E+01  0.47787272078E+02  0.20000004714E+02 0.  0.
        -12    1    1    2    0    0  0.36464496505E+02 -0.23353588978E+02 -0.29280643086E+01  0.43400727922E+02  0.00000000000E+00 0.  1.
         11    1    3    3    0    0 -0.13180045726E+02  0.16008545557E+02 -0.24615026274E+00  0.20737592107E+02  0.51100000000E-03 0. -1.
        -11    1    3    3    0    0 -0.15463575767E+02 -0.90965219123E+00  0.19567686165E+01  0.15613410463E+02  0.51100000000E-03 0.  1.
        -12    1    3    3    0    0 -0.78208750124E+01  0.82546956122E+01  0.12174459549E+01  0.11436269508E+02  0.00000000000E+00 0.  1.
</event>
<event>
 7    1  0.2756432E-009  0.4778728E+02  0.7816164E-02  0.1312668E+00
        -11   -1    0    0    0    0  0.00000000000E+00  0.00000000000E+00  0.45593999997E+02  0.45594000000E+02  0.51100000000E-03 0. -1.
         11   -1    0    0    0    0 -0.00000000000E+00 -0.00000000000E+00 -0.45593999997E+02  0.45594000000E+02  0.51100000000E-03 0.  1.
    9900012    2    1    2    0    0  0.13200136272E+02 -0.40570589225E+02  0.79628274628E+01  0.47787275019E+02  0.20000018122E+02 0.  0.
        -12    1    1    2    0    0 -0.13200136272E+02  0.40570589225E+02 -0.79628274628E+01  0.43400724981E+02  0.00000000000E+00 0.  1.
         11    1    3    3    0    0  0.75581003394E+01 -0.88510387706E+01  0.31432454506E+01  0.12055942945E+02  0.51100000000E-03 0. -1.
        -11    1    3    3    0    0  0.35330338572E+01 -0.31712905958E+02  0.16853358995E+01  0.31953577107E+02  0.51100000000E-03 0.  1.
        -12    1    3    3    0    0  0.21090020751E+01 -0.66444962308E-02  0.31342461128E+01  0.37777549679E+01  0.00000000000E+00 0.  1.
</event>
<event>
 7    1  0.2756432E-009  0.4778727E+02  0.7816164E-02  0.1312668E+00
        -11   -1    0    0    0    0  0.00000000000E+00  0.00000000000E+00  0.45593999997E+02  0.45594000000E+02  0.51100000000E-03 0. -1.
         11   -1    0    0    0    0 -0.00000000000E+00 -0.00000000000E+00 -0.45593999997E+02  0.45594000000E+02  0.51100000000E-03 0.  1.
    9900012    2    1    2    0    0 -0.10503300566E+02 -0.36609736030E+02  0.20809394106E+02  0.47787274453E+02  0.20000015540E+02 0.  0.
        -12    1    1    2    0    0  0.10503300566E+02  0.36609736030E+02 -0.20809394106E+02  0.43400725547E+02  0.00000000000E+00 0.  1.
         11    1    3    3    0    0 -0.76668094472E+01 -0.28775618495E+02  0.86376236563E+01  0.31006849720E+02  0.51100000000E-03 0. -1.
        -11    1    3    3    0    0  0.18468170577E+01 -0.91033038796E+00  0.61300953870E+01  0.64666455272E+01  0.51100000000E-03 0.  1.
        -12    1    3    3    0    0 -0.46833081766E+01 -0.69237871470E+01  0.60416750623E+01  0.10313779205E+02  0.00000000000E+00 0.  1.
</event>
<event>
 7    1  0.2756432E-009  0.4778727E+02  0.7816164E-02  0.1312668E+00
        -11   -1    0    0    0    0  0.00000000000E+00  0.00000000000E+00  0.45593999997E+02  0.45594000000E+02  0.51100000000E-03 0.  1.
         11   -1    0    0    0    0 -0.00000000000E+00 -0.00000000000E+00 -0.45593999997E+02  0.45594000000E+02  0.51100000000E-03 0. -1.
    9900012    2    1    2    0    0  0.43308645771E+02  0.23207465797E+01 -0.16120313764E+01  0.47787270647E+02  0.19999998189E+02 0.  0.
        -12    1    1    2    0    0 -0.43308645771E+02 -0.23207465797E+01  0.16120313764E+01  0.43400729353E+02  0.00000000000E+00 0.  1.
         11    1    3    3    0    0  0.11143587051E+02  0.16860967069E+01 -0.78397367016E+01  0.13728944835E+02  0.51100000000E-03 0. -1.
        -11    1    3    3    0    0  0.42333306247E+01 -0.17386961407E+01 -0.17708582869E+01  0.49071470103E+01  0.51100000000E-03 0.  1.
         12    1    3    3    0    0  0.27931728096E+02  0.23733460135E+01  0.79985636121E+01  0.29151178802E+02  0.00000000000E+00 0. -1.
</event>
<event>
 7    1  0.2756432E-009  0.4778727E+02  0.7816164E-02  0.1312668E+00
        -11   -1    0    0    0    0  0.00000000000E+00  0.00000000000E+00  0.45593999997E+02  0.45594000000E+02  0.51100000000E-03 0. -1.
         11   -1    0    0    0    0 -0.00000000000E+00 -0.00000000000E+00 -0.45593999997E+02  0.45594000000E+02  0.51100000000E-03 0.  1.
    9900012    2    1    2    0    0 -0.42895232755E+02  0.65638945965E+01  0.73321585040E+00  0.47787270618E+02  0.19999998057E+02 0.  0.
        -12    1    1    2    0    0  0.42895232755E+02 -0.65638945965E+01 -0.73321585040E+00  0.43400729382E+02  0.00000000000E+00 0.  1.
         11    1    3    3    0    0 -0.31149731174E+02  0.16238242488E+01 -0.69156061978E+01  0.31949462699E+02  0.51100000000E-03 0. -1.
        -11    1    3    3    0    0 -0.45321402517E+01  0.48669636027E+01  0.38650313520E+01  0.76919501809E+01  0.51100000000E-03 0.  1.
         12    1    3    3    0    0 -0.72133613292E+01  0.73106744995E-01  0.37837906962E+01  0.81458577384E+01  0.00000000000E+00 0. -1.
</event>
<event>
 7    1  0.2756432E-009  0.4778725E+02  0.7816164E-02  0.1312668E+00
        -11   -1    0    0    0    0  0.00000000000E+00  0.00000000000E+00  0.45593999997E+02  0.45594000000E+02  0.51100000000E-03 0.  1.
         11   -1    0    0    0    0 -0.00000000000E+00 -0.00000000000E+00 -0.45593999997E+02  0.45594000000E+02  0.51100000000E-03 0. -1.
    9900012    2    1    2    0    0 -0.34135651590E+02 -0.26258505634E+02 -0.53734133432E+01  0.47787246567E+02  0.19999888396E+02 0.  0.
        -12    1    1    2    0    0  0.34135651590E+02  0.26258505634E+02  0.53734133432E+01  0.43400753433E+02  0.00000000000E+00 0.  1.
         11    1    3    3    0    0 -0.30552825923E+02 -0.19693608645E+02 -0.11484843902E+02  0.38121057607E+02  0.51100000000E-03 0. -1.
        -11    1    3    3    0    0 -0.22062965184E+01 -0.36952883688E+01  0.33889504479E+01  0.54779454046E+01  0.51100000000E-03 0.  1.
         12    1    3    3    0    0 -0.13765291495E+01 -0.28696086194E+01  0.27224801107E+01  0.41882435556E+01  0.00000000000E+00 0. -1.
</event>
<event>
 7    1  0.2756432E-009  0.4778727E+02  0.7816164E-02  0.1312668E+00
        -11   -1    0    0    0    0  0.00000000000E+00  0.00000000000E+00  0.45593999997E+02  0.45594000000E+02  0.51100000000E-03 0.  1.
         11   -1    0    0    0    0 -0.00000000000E+00 -0.00000000000E+00 -0.45593999997E+02  0.45594000000E+02  0.51100000000E-03 0. -1.
    9900012    2    1    2    0    0  0.92720572784E+00  0.10102376716E+02 -0.42198407758E+02  0.47787270247E+02  0.19999996365E+02 0.  0.
        -12    1    1    2    0    0 -0.92720572784E+00 -0.10102376716E+02  0.42198407758E+02  0.43400729753E+02  0.00000000000E+00 0.  1.
         11    1    3    3    0    0  0.31392088460E+01  0.29954353085E+01 -0.12634069018E+02  0.13358404286E+02  0.51100000000E-03 0. -1.
        -11    1    3    3    0    0  0.29724248685E+01 -0.42298669657E+01 -0.82070676797E+01  0.96996414525E+01  0.51100000000E-03 0.  1.
        -12    1    3    3    0    0 -0.51844279866E+01  0.11336808373E+02 -0.21357271060E+02  0.24729224509E+02  0.00000000000E+00 0.  1.
</event>
<event>
 7    1  0.2756432E-009  0.4778727E+02  0.7816164E-02  0.1312668E+00
        -11   -1    0    0    0    0  0.00000000000E+00  0.00000000000E+00  0.45593999997E+02  0.45594000000E+02  0.51100000000E-03 0.  1.
         11   -1    0    0    0    0 -0.00000000000E+00 -0.00000000000E+00 -0.45593999997E+02  0.45594000000E+02  0.51100000000E-03 0. -1.
    9900012    2    1    2    0    0  0.34485458968E+02 -0.26031689927E+02  0.40899280511E+01  0.47787271064E+02  0.20000000091E+02 0.  0.
        -12    1    1    2    0    0 -0.34485458968E+02  0.26031689927E+02 -0.40899280511E+01  0.43400728936E+02  0.00000000000E+00 0.  1.
         11    1    3    3    0    0  0.17455165729E+02 -0.12256488205E+02 -0.17203361054E+01  0.21397753861E+02  0.51100000000E-03 0. -1.
        -11    1    3    3    0    0  0.70375737723E-01  0.11879009696E+01 -0.21127342902E+01  0.24248108999E+01  0.51100000000E-03 0.  1.
        -12    1    3    3    0    0  0.16959917501E+02 -0.14963102692E+02  0.79229984466E+01  0.23964706303E+02  0.00000000000E+00 0.  1.
</event>
<event>
 7    1  0.2756432E-009  0.4778727E+02  0.7816164E-02  0.1312668E+00
        -11   -1    0    0    0    0  0.00000000000E+00  0.00000000000E+00  0.45593999997E+02  0.45594000000E+02  0.51100000000E-03 0.  1.
         11   -1    0    0    0    0 -0.00000000000E+00 -0.00000000000E+00 -0.45593999997E+02  0.45594000000E+02  0.51100000000E-03 0. -1.
    9900012    2    1    2    0    0  0.82045966125E+01  0.19382255431E+02 -0.37955710344E+02  0.47787272139E+02  0.20000004988E+02 0.  0.
        -12    1    1    2    0    0 -0.82045966125E+01 -0.19382255431E+02  0.37955710344E+02  0.43400727861E+02  0.00000000000E+00 0.  1.
         11    1    3    3    0    0  0.51175938232E+01  0.12617760040E+02 -0.25645692254E+02  0.29036169968E+02  0.51100000000E-03 0. -1.
        -11    1    3    3    0    0 -0.41050124252E+01  0.10558075163E+00 -0.52821297386E+01  0.66905283157E+01  0.51100000000E-03 0.  1.
        -12    1    3    3    0    0  0.71920152145E+01  0.66589146397E+01 -0.70278883513E+01  0.12060573855E+02  0.00000000000E+00 0.  1.
</event>
<event>
 7    1  0.2756432E-009  0.4778727E+02  0.7816164E-02  0.1312668E+00
        -11   -1    0    0    0    0  0.00000000000E+00  0.00000000000E+00  0.45593999997E+02  0.45594000000E+02  0.51100000000E-03 0.  1.
         11   -1    0    0    0    0 -0.00000000000E+00 -0.00000000000E+00 -0.45593999997E+02  0.45594000000E+02  0.51100000000E-03 0. -1.
    9900012    2    1    2    0    0  0.17001310340E+02 -0.38957329751E+02 -0.87695430532E+01  0.47787274430E+02  0.20000015437E+02 0.  0.
        -12    1    1    2    0    0 -0.17001310340E+02  0.38957329751E+02  0.87695430532E+01  0.43400725570E+02  0.00000000000E+00 0.  1.
         11    1    3    3    0    0  0.17651825269E+02 -0.32743745886E+02 -0.38473099133E+01  0.37397080418E+02  0.51100000000E-03 0. -1.
        -11    1    3    3    0    0 -0.11708005038E+01  0.59845884147E+00 -0.30270826464E+01  0.33003267132E+01  0.51100000000E-03 0.  1.
         12    1    3    3    0    0  0.52028557454E+00 -0.68120427069E+01 -0.18951504934E+01  0.70898672986E+01  0.00000000000E+00 0. -1.
</event>
<event>
 7    1  0.2756432E-009  0.4778730E+02  0.7816164E-02  0.1312668E+00
        -11   -1    0    0    0    0  0.00000000000E+00  0.00000000000E+00  0.45593999997E+02  0.45594000000E+02  0.51100000000E-03 0. -1.
         11   -1    0    0    0    0 -0.00000000000E+00 -0.00000000000E+00 -0.45593999997E+02  0.45594000000E+02  0.51100000000E-03 0.  1.
    9900012    2    1    2    0    0  0.28235954475E+02 -0.32175594050E+02  0.71472131874E+01  0.47787301458E+02  0.20000138667E+02 0.  0.
        -12    1    1    2    0    0 -0.28235954475E+02  0.32175594050E+02 -0.71472131874E+01  0.43400698542E+02  0.00000000000E+00 0.  1.
         11    1    3    3    0    0  0.10180227548E+02 -0.14582475769E+02  0.20944133808E+01  0.17907322528E+02  0.51100000000E-03 0. -1.
        -11    1    3    3    0    0 -0.35010509884E+00  0.23123115927E+01  0.42167626918E+00  0.23763774151E+01  0.51100000000E-03 0.  1.
        -12    1    3    3    0    0  0.18405832026E+02 -0.19905429875E+02  0.46311235375E+01  0.27503601514E+02  0.00000000000E+00 0.  1.
</event>
<event>
 7    1  0.2756432E-009  0.4778728E+02  0.7816164E-02  0.1312668E+00
        -11   -1    0    0    0    0  0.00000000000E+00  0.00000000000E+00  0.45593999997E+02  0.45594000000E+02  0.51100000000E-03 0.  1.
         11   -1    0    0    0    0 -0.00000000000E+00 -0.00000000000E+00 -0.45593999997E+02  0.45594000000E+02  0.51100000000E-03 0. -1.
    9900012    2    1    2    0    0  0.16543552677E+02 -0.26977873398E+02 -0.29700631880E+02  0.47787282007E+02  0.20000049982E+02 0.  0.
        -12    1    1    2    0    0 -0.16543552677E+02  0.26977873398E+02  0.29700631880E+02  0.43400717993E+02  0.00000000000E+00 0.  1.
         11    1    3    3    0    0  0.19612064744E+02 -0.16284007286E+02 -0.15938747328E+02  0.30064025736E+02  0.51100000000E-03 0. -1.
        -11    1    3    3    0    0 -0.15377906546E+01 -0.40461815266E+01 -0.58349301209E+01  0.72651768609E+01  0.51100000000E-03 0.  1.
         12    1    3    3    0    0 -0.15307214127E+01 -0.66476845853E+01 -0.79269544308E+01  0.10458079410E+02  0.00000000000E+00 0. -1.
</event>
<event>
 7    1  0.2756432E-009  0.4778727E+02  0.7816164E-02  0.1312668E+00
        -11   -1    0    0    0    0  0.00000000000E+00  0.00000000000E+00  0.45593999997E+02  0.45594000000E+02  0.51100000000E-03 0.  1.
         11   -1    0    0    0    0 -0.00000000000E+00 -0.00000000000E+00 -0.45593999997E+02  0.45594000000E+02  0.51100000000E-03 0. -1.
    9900012    2    1    2    0    0  0.60957750342E+01  0.34826434125E+01 -0.42829148199E+02  0.47787271736E+02  0.20000003154E+02 0.  0.
        -12    1    1    2    0    0 -0.60957750342E+01 -0.34826434125E+01  0.42829148199E+02  0.43400728264E+02  0.00000000000E+00 0.  1.
         11    1    3    3    0    0  0.30345532218E+01 -0.78806215422E+00 -0.30867801027E+02  0.31026612701E+02  0.51100000000E-03 0. -1.
        -11    1    3    3    0    0 -0.23061432298E+01  0.35323740373E+01 -0.71688463209E+00  0.42790053485E+01  0.51100000000E-03 0.  1.
         12    1    3    3    0    0  0.53673650422E+01  0.73833152941E+00 -0.11244462540E+02  0.12481653687E+02  0.00000000000E+00 0. -1.
</event>
<event>
 7    1  0.2756432E-009  0.4778728E+02  0.7816164E-02  0.1312668E+00
        -11   -1    0    0    0    0  0.00000000000E+00  0.00000000000E+00  0.45593999997E+02  0.45594000000E+02  0.51100000000E-03 0.  1.
         11   -1    0    0    0    0 -0.00000000000E+00 -0.00000000000E+00 -0.45593999997E+02  0.45594000000E+02  0.51100000000E-03 0. -1.
    9900012    2    1    2    0    0  0.83549145005E+01 -0.38275708803E+02 -0.18675873897E+02  0.47787277120E+02  0.20000027701E+02 0.  0.
        -12    1    1    2    0    0 -0.83549145005E+01  0.38275708803E+02  0.18675873897E+02  0.43400722880E+02  0.00000000000E+00 0.  1.
         11    1    3    3    0    0  0.12777418487E+01 -0.28751963371E+02 -0.15710008205E+02  0.32788906356E+02  0.51100000000E-03 0. -1.
        -11    1    3    3    0    0 -0.71239323695E+00 -0.39439917006E+01  0.16848263428E+01  0.43475527282E+01  0.51100000000E-03 0.  1.
         12    1    3    3    0    0  0.77895658888E+01 -0.55797537315E+01 -0.46506920343E+01  0.10650818036E+02  0.00000000000E+00 0. -1.
</event>
<event>
 7    1  0.2756432E-009  0.4778727E+02  0.7816164E-02  0.1312668E+00
        -11   -1    0    0    0    0  0.00000000000E+00  0.00000000000E+00  0.45593999997E+02  0.45594000000E+02  0.51100000000E-03 0. -1.
         11   -1    0    0    0    0 -0.00000000000E+00 -0.00000000000E+00 -0.45593999997E+02  0.45594000000E+02  0.51100000000E-03 0.  1.
    9900012    2    1    2    0    0  0.21319421254E+01  0.37992002056E+02  0.20873091972E+02  0.47787269984E+02  0.19999995166E+02 0.  0.
        -12    1    1    2    0    0 -0.21319421254E+01 -0.37992002056E+02 -0.20873091972E+02  0.43400730016E+02  0.00000000000E+00 0.  1.
         11    1    3    3    0    0  0.53081424839E+01  0.36822196495E+01  0.71233657830E+01  0.96165200835E+01  0.51100000000E-03 0. -1.
        -11    1    3    3    0    0  0.87125268357E+00  0.14387764664E+02  0.16371726541E+01  0.14506797987E+02  0.51100000000E-03 0.  1.
         12    1    3    3    0    0 -0.40474530420E+01  0.19922017742E+02  0.12112553535E+02  0.23663951914E+02  0.00000000000E+00 0. -1.
</event>
<event>
 7    1  0.2756432E-009  0.4778727E+02  0.7816164E-02  0.1312668E+00
        -11   -1    0    0    0    0  0.00000000000E+00  0.00000000000E+00  0.45593999997E+02  0.45594000000E+02  0.51100000000E-03 0. -1.
         11   -1    0    0    0    0 -0.00000000000E+00 -0.00000000000E+00 -0.45593999997E+02  0.45594000000E+02  0.51100000000E-03 0.  1.
    9900012    2    1    2    0    0  0.17336680899E+02 -0.38183205809E+02  0.11185050639E+02  0.47787273414E+02  0.20000010802E+02 0.  0.
        -12    1    1    2    0    0 -0.17336680899E+02  0.38183205809E+02 -0.11185050639E+02  0.43400726586E+02  0.00000000000E+00 0.  1.
         11    1    3    3    0    0  0.20432791502E+02 -0.34136811684E+02  0.56395556650E+01  0.40182402477E+02  0.51100000000E-03 0. -1.
        -11    1    3    3    0    0 -0.19440839832E+01 -0.33034215072E+01  0.40598469886E+01  0.55834052352E+01  0.51100000000E-03 0.  1.
         12    1    3    3    0    0 -0.11520266196E+01 -0.74297261788E+00  0.14856479857E+01  0.20214657011E+01  0.00000000000E+00 0. -1.
</event>
<event>
 7    1  0.2756432E-009  0.4778727E+02  0.7816164E-02  0.1312668E+00
        -11   -1    0    0    0    0  0.00000000000E+00  0.00000000000E+00  0.45593999997E+02  0.45594000000E+02  0.51100000000E-03 0. -1.
         11   -1    0    0    0    0 -0.00000000000E+00 -0.00000000000E+00 -0.45593999997E+02  0.45594000000E+02  0.51100000000E-03 0.  1.
    9900012    2    1    2    0    0 -0.40623987004E+02  0.14580509938E+02  0.45523199919E+01  0.47787271810E+02  0.20000003489E+02 0.  0.
        -12    1    1    2    0    0  0.40623987004E+02 -0.14580509938E+02 -0.45523199919E+01  0.43400728190E+02  0.00000000000E+00 0.  1.
         11    1    3    3    0    0 -0.81603091611E+01  0.79115159215E+01  0.77844851647E+01  0.13776100294E+02  0.51100000000E-03 0.  1.
        -11    1    3    3    0    0 -0.32326418380E+02  0.57703676136E+01 -0.35924722754E+01  0.33033321434E+02  0.51100000000E-03 0. -1.
         12    1    3    3    0    0 -0.13725946279E+00  0.89862640290E+00  0.36030710262E+00  0.97785008069E+00  0.00000000000E+00 0. -1.
</event>
<event>
 7    1  0.2756432E-009  0.4778727E+02  0.7816164E-02  0.1312668E+00
        -11   -1    0    0    0    0  0.00000000000E+00  0.00000000000E+00  0.45593999997E+02  0.45594000000E+02  0.51100000000E-03 0.  1.
         11   -1    0    0    0    0 -0.00000000000E+00 -0.00000000000E+00 -0.45593999997E+02  0.45594000000E+02  0.51100000000E-03 0. -1.
    9900012    2    1    2    0    0  0.12101901954E+01  0.25264363797E+02 -0.35268550733E+02  0.47787270637E+02  0.19999998145E+02 0.  0.
        -12    1    1    2    0    0 -0.12101901954E+01 -0.25264363797E+02  0.35268550733E+02  0.43400729363E+02  0.00000000000E+00 0.  1.
         11    1    3    3    0    0  0.20662109943E+01  0.16669102825E+02 -0.30336677637E+02  0.34676248747E+02  0.51100000000E-03 0. -1.
        -11    1    3    3    0    0 -0.16221092841E+01  0.47764693244E+01  0.17814015865E+01  0.53496999551E+01  0.51100000000E-03 0.  1.
        -12    1    3    3    0    0  0.76608848521E+00  0.38187916476E+01 -0.67132746829E+01  0.77613219352E+01  0.00000000000E+00 0.  1.
</event>
<event>
 7    1  0.2756432E-009  0.4778727E+02  0.7816164E-02  0.1312668E+00
        -11   -1    0    0    0    0  0.00000000000E+00  0.00000000000E+00  0.45593999997E+02  0.45594000000E+02  0.51100000000E-03 0.  1.
         11   -1    0    0    0    0 -0.00000000000E+00 -0.00000000000E+00 -0.45593999997E+02  0.45594000000E+02  0.51100000000E-03 0. -1.
    9900012    2    1    2    0    0  0.24011101933E+02  0.15819993004E+02 -0.32508744158E+02  0.47787266810E+02  0.19999980694E+02 0.  0.
        -12    1    1    2    0    0 -0.24011101933E+02 -0.15819993004E+02  0.32508744158E+02  0.43400733190E+02  0.00000000000E+00 0.  1.
         11    1    3    3    0    0  0.14572078232E+02  0.80770964519E+00 -0.18662771747E+02  0.23691705477E+02  0.51100000000E-03 0.  1.
        -11    1    3    3    0    0 -0.15435058724E+00  0.12221586301E+01  0.10689733492E+01  0.16310119875E+01  0.51100000000E-03 0. -1.
         12    1    3    3    0    0  0.95933742889E+01  0.13790124728E+02 -0.14914945761E+02  0.22464549346E+02  0.00000000000E+00 0. -1.
</event>
<event>
 7    1  0.2756432E-009  0.4778727E+02  0.7816164E-02  0.1312668E+00
        -11   -1    0    0    0    0  0.00000000000E+00  0.00000000000E+00  0.45593999997E+02  0.45594000000E+02  0.51100000000E-03 0. -1.
         11   -1    0    0    0    0 -0.00000000000E+00 -0.00000000000E+00 -0.45593999997E+02  0.45594000000E+02  0.51100000000E-03 0.  1.
    9900012    2    1    2    0    0  0.69088267240E+01 -0.26791587760E+02  0.33438038719E+02  0.47787268499E+02  0.19999988395E+02 0.  0.
        -12    1    1    2    0    0 -0.69088267240E+01  0.26791587760E+02 -0.33438038719E+02  0.43400731501E+02  0.00000000000E+00 0.  1.
         11    1    3    3    0    0 -0.36441992839E+01 -0.93048382714E+01  0.42798340329E+01  0.10870932954E+02  0.51100000000E-03 0.  1.
        -11    1    3    3    0    0  0.26427471885E+01 -0.47851846017E+01  0.18387436477E+01  0.57674156117E+01  0.51100000000E-03 0. -1.
         12    1    3    3    0    0  0.79102788194E+01 -0.12701564887E+02  0.27319461039E+02  0.31148919934E+02  0.00000000000E+00 0. -1.
</event>
<event>
 7    1  0.2756432E-009  0.4778727E+02  0.7816164E-02  0.1312668E+00
        -11   -1    0    0    0    0  0.00000000000E+00  0.00000000000E+00  0.45593999997E+02  0.45594000000E+02  0.51100000000E-03 0. -1.
         11   -1    0    0    0    0 -0.00000000000E+00 -0.00000000000E+00 -0.45593999997E+02  0.45594000000E+02  0.51100000000E-03 0.  1.
    9900012    2    1    2    0    0  0.19620658190E+02 -0.35722940071E+02  0.14917255560E+02  0.47787272028E+02  0.20000004483E+02 0.  0.
        -12    1    1    2    0    0 -0.19620658190E+02  0.35722940071E+02 -0.14917255560E+02  0.43400727972E+02  0.00000000000E+00 0.  1.
         11    1    3    3    0    0  0.11859808700E+02 -0.14147007465E+02 -0.74742999739E-01  0.18460727759E+02  0.51100000000E-03 0. -1.
        -11    1    3    3    0    0  0.66769938324E+01 -0.15466967538E+02  0.15766998817E+02  0.23073958989E+02  0.51100000000E-03 0.  1.
        -12    1    3    3    0    0  0.10838556569E+01 -0.61089650677E+01 -0.77500025715E+00  0.62525852798E+01  0.00000000000E+00 0.  1.
</event>
<event>
 7    1  0.2756432E-009  0.4778728E+02  0.7816164E-02  0.1312668E+00
        -11   -1    0    0    0    0  0.00000000000E+00  0.00000000000E+00  0.45593999997E+02  0.45594000000E+02  0.51100000000E-03 0.  1.
         11   -1    0    0    0    0 -0.00000000000E+00 -0.00000000000E+00 -0.45593999997E+02  0.45594000000E+02  0.51100000000E-03 0. -1.
    9900012    2    1    2    0    0 -0.34120519157E+02  0.74693728991E+01 -0.25760843013E+02  0.47787281206E+02  0.20000046331E+02 0.  0.
        -12    1    1    2    0    0  0.34120519157E+02 -0.74693728991E+01  0.25760843013E+02  0.43400718794E+02  0.00000000000E+00 0.  1.
         11    1    3    3    0    0 -0.25508077857E+02  0.26148620732E+01 -0.11791691647E+02  0.28223102803E+02  0.51100000000E-03 0. -1.
        -11    1    3    3    0    0  0.13391063671E+01  0.29002680926E+01 -0.54592032709E+01  0.63251609850E+01  0.51100000000E-03 0.  1.
        -12    1    3    3    0    0 -0.99515476669E+01  0.19542427333E+01 -0.85099480953E+01  0.13239017419E+02  0.00000000000E+00 0.  1.
</event>
<event>
 7    1  0.2756432E-009  0.4778729E+02  0.7816164E-02  0.1312668E+00
        -11   -1    0    0    0    0  0.00000000000E+00  0.00000000000E+00  0.45593999997E+02  0.45594000000E+02  0.51100000000E-03 0. -1.
         11   -1    0    0    0    0 -0.00000000000E+00 -0.00000000000E+00 -0.45593999997E+02  0.45594000000E+02  0.51100000000E-03 0.  1.
    9900012    2    1    2    0    0 -0.30314245820E+02  0.17454275045E+02  0.25690785958E+02  0.47787289175E+02  0.20000082662E+02 0.  0.
        -12    1    1    2    0    0  0.30314245820E+02 -0.17454275045E+02 -0.25690785958E+02  0.43400710825E+02  0.00000000000E+00 0.  1.
         11    1    3    3    0    0 -0.89728251737E+01  0.13684418392E+01  0.14192757386E+02  0.16846916250E+02  0.51100000000E-03 0. -1.
        -11    1    3    3    0    0 -0.20486042596E+02  0.16023363186E+02  0.78123109914E+01  0.27156183685E+02  0.51100000000E-03 0.  1.
        -12    1    3    3    0    0 -0.85537805045E+00  0.62470019983E-01  0.36857175814E+01  0.37841892398E+01  0.00000000000E+00 0.  1.
</event>
<event>
 7    1  0.2756432E-009  0.4778728E+02  0.7816164E-02  0.1312668E+00
        -11   -1    0    0    0    0  0.00000000000E+00  0.00000000000E+00  0.45593999997E+02  0.45594000000E+02  0.51100000000E-03 0. -1.
         11   -1    0    0    0    0 -0.00000000000E+00 -0.00000000000E+00 -0.45593999997E+02  0.45594000000E+02  0.51100000000E-03 0.  1.
    9900012    2    1    2    0    0 -0.11620853049E+02  0.41047014547E+02 -0.79825574366E+01  0.47787275904E+02  0.20000022156E+02 0.  0.
        -12    1    1    2    0    0  0.11620853049E+02 -0.41047014547E+02  0.79825574366E+01  0.43400724096E+02  0.00000000000E+00 0.  1.
         11    1    3    3    0    0 -0.94902585615E+00  0.38359564611E+01 -0.12948621683E+00  0.39537297566E+01  0.51100000000E-03 0. -1.
        -11    1    3    3    0    0 -0.12479261417E+02  0.10987803649E+02 -0.51652146864E+01  0.17411009091E+02  0.51100000000E-03 0.  1.
        -12    1    3    3    0    0  0.18074342241E+01  0.26223254437E+02 -0.26878565333E+01  0.26422537056E+02  0.00000000000E+00 0.  1.
</event>
<event>
 7    1  0.2756432E-009  0.4778728E+02  0.7816164E-02  0.1312668E+00
        -11   -1    0    0    0    0  0.00000000000E+00  0.00000000000E+00  0.45593999997E+02  0.45594000000E+02  0.51100000000E-03 0.  1.
         11   -1    0    0    0    0 -0.00000000000E+00 -0.00000000000E+00 -0.45593999997E+02  0.45594000000E+02  0.51100000000E-03 0. -1.
    9900012    2    1    2    0    0 -0.29019775477E+02  0.32108884207E+02  0.32395827871E+01  0.47787277536E+02  0.20000029599E+02 0.  0.
        -12    1    1    2    0    0  0.29019775477E+02 -0.32108884207E+02 -0.32395827871E+01  0.43400722464E+02  0.00000000000E+00 0.  1.
         11    1    3    3    0    0 -0.36254435700E+01  0.28953398924E+01  0.57761150008E+01  0.74088014507E+01  0.51100000000E-03 0. -1.
        -11    1    3    3    0    0 -0.10323943805E+01  0.77555320904E+01 -0.85205196468E+00  0.78702038712E+01  0.51100000000E-03 0.  1.
         12    1    3    3    0    0 -0.24361937526E+02  0.21458012224E+02 -0.16844802491E+01  0.32508272214E+02  0.00000000000E+00 0. -1.
</event>
<event>
 7    1  0.2756432E-009  0.4778727E+02  0.7816164E-02  0.1312668E+00
        -11   -1    0    0    0    0  0.00000000000E+00  0.00000000000E+00  0.45593999997E+02  0.45594000000E+02  0.51100000000E-03 0. -1.
         11   -1    0    0    0    0 -0.00000000000E+00 -0.00000000000E+00 -0.45593999997E+02  0.45594000000E+02  0.51100000000E-03 0.  1.
    9900012    2    1    2    0    0 -0.27104959279E+02 -0.33896078648E+02  0.21429493441E-01  0.47787269309E+02  0.19999992089E+02 0.  0.
        -12    1    1    2    0    0  0.27104959279E+02  0.33896078648E+02 -0.21429493441E-01  0.43400730691E+02  0.00000000000E+00 0.  1.
         11    1    3    3    0    0 -0.42796598266E+01 -0.18688670005E+02  0.26381835735E+00  0.19174239886E+02  0.51100000000E-03 0. -1.
        -11    1    3    3    0    0 -0.14537121021E+02 -0.13308073625E+02 -0.23622057709E+01  0.19849753841E+02  0.51100000000E-03 0.  1.
         12    1    3    3    0    0 -0.82881784311E+01 -0.18993350182E+01  0.21198169070E+01  0.87632755826E+01  0.00000000000E+00 0. -1.
</event>
<event>
 7    1  0.2756432E-009  0.4778727E+02  0.7816164E-02  0.1312668E+00
        -11   -1    0    0    0    0  0.00000000000E+00  0.00000000000E+00  0.45593999997E+02  0.45594000000E+02  0.51100000000E-03 0.  1.
         11   -1    0    0    0    0 -0.00000000000E+00 -0.00000000000E+00 -0.45593999997E+02  0.45594000000E+02  0.51100000000E-03 0. -1.
    9900012    2    1    2    0    0 -0.13250762100E+02  0.36408091529E+02 -0.19557382789E+02  0.47787273663E+02  0.20000011937E+02 0.  0.
        -12    1    1    2    0    0  0.13250762100E+02 -0.36408091529E+02  0.19557382789E+02  0.43400726337E+02  0.00000000000E+00 0.  1.
         11    1    3    3    0    0 -0.63624894737E+01  0.27475903117E+02 -0.22037309916E+02  0.35791752583E+02  0.51100000000E-03 0. -1.
        -11    1    3    3    0    0 -0.66272955917E+01  0.69154562183E+01  0.13612558185E+01  0.96745852227E+01  0.51100000000E-03 0.  1.
         12    1    3    3    0    0 -0.26097703469E+00  0.20167321945E+01  0.11186713078E+01  0.23209358569E+01  0.00000000000E+00 0. -1.
</event>
<event>
 7    1  0.2756432E-009  0.4778727E+02  0.7816164E-02  0.1312668E+00
        -11   -1    0    0    0    0  0.00000000000E+00  0.00000000000E+00  0.45593999997E+02  0.45594000000E+02  0.51100000000E-03 0.  1.
         11   -1    0    0    0    0 -0.00000000000E+00 -0.00000000000E+00 -0.45593999997E+02  0.45594000000E+02  0.51100000000E-03 0. -1.
    9900012    2    1    2    0    0 -0.20404378570E+02 -0.22416557920E+02 -0.31060947747E+02  0.47787271794E+02  0.20000003420E+02 0.  0.
        -12    1    1    2    0    0  0.20404378570E+02  0.22416557920E+02  0.31060947747E+02  0.43400728206E+02  0.00000000000E+00 0.  1.
         11    1    3    3    0    0 -0.21458916332E+02 -0.19454486619E+02 -0.24800037774E+02  0.38131404558E+02  0.51100000000E-03 0. -1.
        -11    1    3    3    0    0  0.11483794179E+01 -0.16542778149E+01 -0.75519149313E+01  0.78158064054E+01  0.51100000000E-03 0.  1.
         12    1    3    3    0    0 -0.93841656627E-01 -0.13077934861E+01  0.12910049582E+01  0.18400608308E+01  0.00000000000E+00 0. -1.
</event>
<event>
 7    1  0.2756432E-009  0.4778727E+02  0.7816164E-02  0.1312668E+00
        -11   -1    0    0    0    0  0.00000000000E+00  0.00000000000E+00  0.45593999997E+02  0.45594000000E+02  0.51100000000E-03 0.  1.
         11   -1    0    0    0    0 -0.00000000000E+00 -0.00000000000E+00 -0.45593999997E+02  0.45594000000E+02  0.51100000000E-03 0. -1.
    9900012    2    1    2    0    0  0.10384185355E+02 -0.20409590575E+02 -0.36867879493E+02  0.47787271536E+02  0.20000002240E+02 0.  0.
        -12    1    1    2    0    0 -0.10384185355E+02  0.20409590575E+02  0.36867879493E+02  0.43400728464E+02  0.00000000000E+00 0.  1.
         11    1    3    3    0    0  0.29571163043E+01 -0.68653423114E+01 -0.57235659636E+00  0.74970030162E+01  0.51100000000E-03 0. -1.
        -11    1    3    3    0    0 -0.75292540900E+00  0.68334555230E+00 -0.30428399142E+01  0.32082289226E+01  0.51100000000E-03 0.  1.
         12    1    3    3    0    0  0.81799944599E+01 -0.14227593816E+02 -0.33252682982E+02  0.37082039597E+02  0.00000000000E+00 0. -1.
</event>
<event>
 7    1  0.2756432E-009  0.4778728E+02  0.7816164E-02  0.1312668E+00
        -11   -1    0    0    0    0  0.00000000000E+00  0.00000000000E+00  0.45593999997E+02  0.45594000000E+02  0.51100000000E-03 0. -1.
         11   -1    0    0    0    0 -0.00000000000E+00 -0.00000000000E+00 -0.45593999997E+02  0.45594000000E+02  0.51100000000E-03 0.  1.
    9900012    2    1    2    0    0 -0.36115706968E+01 -0.41644188256E+02  0.11676515918E+02  0.47787275555E+02  0.20000020566E+02 0.  0.
        -12    1    1    2    0    0  0.36115706968E+01  0.41644188256E+02 -0.11676515918E+02  0.43400724445E+02  0.00000000000E+00 0.  1.
         11    1    3    3    0    0 -0.41801599921E+01 -0.22576166105E+02  0.88981614689E+01  0.24623856143E+02  0.51100000000E-03 0. -1.
        -11    1    3    3    0    0  0.24164546647E+01 -0.40620557582E+01 -0.43720710641E+01  0.64385212417E+01  0.51100000000E-03 0.  1.
        -12    1    3    3    0    0 -0.18478653694E+01 -0.15005966393E+02  0.71504255127E+01  0.16724898171E+02  0.00000000000E+00 0.  1.
</event>
<event>
 7    1  0.2756432E-009  0.4778727E+02  0.7816164E-02  0.1312668E+00
        -11   -1    0    0    0    0  0.00000000000E+00  0.00000000000E+00  0.45593999997E+02  0.45594000000E+02  0.51100000000E-03 0.  1.
         11   -1    0    0    0    0 -0.00000000000E+00 -0.00000000000E+00 -0.45593999997E+02  0.45594000000E+02  0.51100000000E-03 0. -1.
    9900012    2    1    2    0    0 -0.12210238848E+02 -0.36300748086E+02 -0.20415420981E+02  0.47787266617E+02  0.19999979816E+02 0.  0.
        -12    1    1    2    0    0  0.12210238848E+02  0.36300748086E+02  0.20415420981E+02  0.43400733383E+02  0.00000000000E+00 0.  1.
         11    1    3    3    0    0 -0.68046508162E+01 -0.25745924324E+02 -0.20333262912E+02  0.33505185762E+02  0.51100000000E-03 0. -1.
        -11    1    3    3    0    0 -0.40308933590E+01 -0.10631578894E+01  0.17443979903E+01  0.45189966341E+01  0.51100000000E-03 0.  1.
         12    1    3    3    0    0 -0.13746946728E+01 -0.94916658722E+01 -0.18265560586E+01  0.97630842210E+01  0.00000000000E+00 0. -1.
</event>
<event>
 7    1  0.2756432E-009  0.4778727E+02  0.7816164E-02  0.1312668E+00
        -11   -1    0    0    0    0  0.00000000000E+00  0.00000000000E+00  0.45593999997E+02  0.45594000000E+02  0.51100000000E-03 0.  1.
         11   -1    0    0    0    0 -0.00000000000E+00 -0.00000000000E+00 -0.45593999997E+02  0.45594000000E+02  0.51100000000E-03 0. -1.
    9900012    2    1    2    0    0  0.31335558382E+02 -0.30021889957E+02 -0.62637645770E+00  0.47787269094E+02  0.19999991108E+02 0.  0.
        -12    1    1    2    0    0 -0.31335558382E+02  0.30021889957E+02  0.62637645770E+00  0.43400730906E+02  0.00000000000E+00 0.  1.
         11    1    3    3    0    0  0.13924295405E+02 -0.15130655205E+02  0.68593077279E+01  0.21676550284E+02  0.51100000000E-03 0. -1.
        -11    1    3    3    0    0  0.13297168948E+01 -0.63764082693E+01 -0.38115772888E+01  0.75468437858E+01  0.51100000000E-03 0.  1.
         12    1    3    3    0    0  0.16081546082E+02 -0.85148264820E+01 -0.36741068968E+01  0.18563875024E+02  0.00000000000E+00 0. -1.
</event>
<event>
 7    1  0.2756432E-009  0.4778727E+02  0.7816164E-02  0.1312668E+00
        -11   -1    0    0    0    0  0.00000000000E+00  0.00000000000E+00  0.45593999997E+02  0.45594000000E+02  0.51100000000E-03 0.  1.
         11   -1    0    0    0    0 -0.00000000000E+00 -0.00000000000E+00 -0.45593999997E+02  0.45594000000E+02  0.51100000000E-03 0. -1.
    9900012    2    1    2    0    0 -0.42304063853E+01  0.39151619373E+02 -0.18244936559E+02  0.47787270193E+02  0.19999996119E+02 0.  0.
        -12    1    1    2    0    0  0.42304063853E+01 -0.39151619373E+02  0.18244936559E+02  0.43400729807E+02  0.00000000000E+00 0.  1.
         11    1    3    3    0    0  0.99294509463E-01  0.53881619645E+01 -0.88971310430E+01  0.10401975284E+02  0.51100000000E-03 0. -1.
        -11    1    3    3    0    0  0.13398237277E+00  0.30134102714E+02 -0.96005578508E+01  0.31626773609E+02  0.51100000000E-03 0.  1.
        -12    1    3    3    0    0 -0.44636832675E+01  0.36293546951E+01  0.25275233527E+00  0.57585212997E+01  0.00000000000E+00 0.  1.
</event>
<event>
 7    1  0.2756432E-009  0.4778727E+02  0.7816164E-02  0.1312668E+00
        -11   -1    0    0    0    0  0.00000000000E+00  0.00000000000E+00  0.45593999997E+02  0.45594000000E+02  0.51100000000E-03 0.  1.
         11   -1    0    0    0    0 -0.00000000000E+00 -0.00000000000E+00 -0.45593999997E+02  0.45594000000E+02  0.51100000000E-03 0. -1.
    9900012    2    1    2    0    0  0.42527239430E+02  0.86343848430E+01  0.71038106728E+00  0.47787270324E+02  0.19999996714E+02 0.  0.
        -12    1    1    2    0    0 -0.42527239430E+02 -0.86343848430E+01 -0.71038106728E+00  0.43400729676E+02  0.00000000000E+00 0.  1.
         11    1    3    3    0    0  0.39878348851E+02  0.90971743392E+01 -0.13151507866E+00  0.40903038818E+02  0.51100000000E-03 0. -1.
        -11    1    3    3    0    0 -0.14105441357E+00  0.22313926094E+01  0.18215896089E+01  0.28839553203E+01  0.51100000000E-03 0.  1.
         12    1    3    3    0    0  0.27899449927E+01 -0.26941821056E+01 -0.97969346298E+00  0.40002761857E+01  0.00000000000E+00 0. -1.
</event>
<event>
 7    1  0.2756432E-009  0.4778727E+02  0.7816164E-02  0.1312668E+00
        -11   -1    0    0    0    0  0.00000000000E+00  0.00000000000E+00  0.45593999997E+02  0.45594000000E+02  0.51100000000E-03 0.  1.
         11   -1    0    0    0    0 -0.00000000000E+00 -0.00000000000E+00 -0.45593999997E+02  0.45594000000E+02  0.51100000000E-03 0. -1.
    9900012    2    1    2    0    0  0.30448944636E+02  0.17889658691E+02 -0.25227859487E+02  0.47787274064E+02  0.20000013765E+02 0.  0.
        -12    1    1    2    0    0 -0.30448944636E+02 -0.17889658691E+02  0.25227859487E+02  0.43400725936E+02  0.00000000000E+00 0.  1.
         11    1    3    3    0    0  0.10177362873E+02  0.47606070969E+01 -0.12944741170E+02  0.17140840680E+02  0.51100000000E-03 0. -1.
        -11    1    3    3    0    0  0.14358271930E+02  0.13532323362E+02 -0.34813282903E+01  0.20035054163E+02  0.51100000000E-03 0.  1.
        -12    1    3    3    0    0  0.59133098334E+01 -0.40327176828E+00 -0.88017900265E+01  0.10611379221E+02  0.00000000000E+00 0.  1.
</event>
<event>
 7    1  0.2756432E-009  0.4778728E+02  0.7816164E-02  0.1312668E+00
        -11   -1    0    0    0    0  0.00000000000E+00  0.00000000000E+00  0.45593999997E+02  0.45594000000E+02  0.51100000000E-03 0.  1.
         11   -1    0    0    0    0 -0.00000000000E+00 -0.00000000000E+00 -0.45593999997E+02  0.45594000000E+02  0.51100000000E-03 0. -1.
    9900012    2    1    2    0    0  0.22763574035E+02 -0.28803633024E+02 -0.23147210069E+02  0.47787275211E+02  0.20000018998E+02 0.  0.
        -12    1    1    2    0    0 -0.22763574035E+02  0.28803633024E+02  0.23147210069E+02  0.43400724789E+02  0.00000000000E+00 0.  1.
         11    1    3    3    0    0  0.92839537123E+01 -0.85149313586E+01 -0.54514369328E+01  0.13726398561E+02  0.51100000000E-03 0. -1.
        -11    1    3    3    0    0  0.29872843001E+01 -0.17495075207E+02 -0.13952179398E+02  0.22575757666E+02  0.51100000000E-03 0.  1.
        -12    1    3    3    0    0  0.10492336022E+02 -0.27936264586E+01 -0.37435937376E+01  0.11485118984E+02  0.00000000000E+00 0.  1.
</event>
<event>
 7    1  0.2756432E-009  0.4778727E+02  0.7816164E-02  0.1312668E+00
        -11   -1    0    0    0    0  0.00000000000E+00  0.00000000000E+00  0.45593999997E+02  0.45594000000E+02  0.51100000000E-03 0. -1.
         11   -1    0    0    0    0 -0.00000000000E+00 -0.00000000000E+00 -0.45593999997E+02  0.45594000000E+02  0.51100000000E-03 0.  1.
    9900012    2    1    2    0    0  0.42906437070E+02 -0.56742632085E+01  0.32347508184E+01  0.47787271689E+02  0.20000002940E+02 0.  0.
        -12    1    1    2    0    0 -0.42906437070E+02  0.56742632085E+01 -0.32347508184E+01  0.43400728311E+02  0.00000000000E+00 0.  1.
         11    1    3    3    0    0  0.33607177434E+02 -0.10866298915E+02  0.69247614711E+01  0.35992654096E+02  0.51100000000E-03 0. -1.
        -11    1    3    3    0    0  0.78373128867E+01  0.33684856815E+01 -0.40268879833E+01  0.94332389009E+01  0.51100000000E-03 0.  1.
         12    1    3    3    0    0  0.14619467498E+01  0.18235500250E+01  0.33687733060E+00  0.23613786923E+01  0.00000000000E+00 0. -1.
</event>
<event>
 7    1  0.2756432E-009  0.4778727E+02  0.7816164E-02  0.1312668E+00
        -11   -1    0    0    0    0  0.00000000000E+00  0.00000000000E+00  0.45593999997E+02  0.45594000000E+02  0.51100000000E-03 0.  1.
         11   -1    0    0    0    0 -0.00000000000E+00 -0.00000000000E+00 -0.45593999997E+02  0.45594000000E+02  0.51100000000E-03 0. -1.
    9900012    2    1    2    0    0  0.39900302196E+02 -0.85492199752E+01  0.14781737968E+02  0.47787273567E+02  0.20000011501E+02 0.  0.
        -12    1    1    2    0    0 -0.39900302196E+02  0.85492199752E+01 -0.14781737968E+02  0.43400726433E+02  0.00000000000E+00 0.  1.
         11    1    3    3    0    0  0.48046253805E+00  0.11615226660E+01  0.23647791942E+01  0.26780888807E+01  0.51100000000E-03 0. -1.
        -11    1    3    3    0    0  0.25794529312E+02  0.10267708765E+01  0.52725524746E+01  0.26347899551E+02  0.51100000000E-03 0.  1.
        -12    1    3    3    0    0  0.13625310346E+02 -0.10737513518E+02  0.71444062995E+01  0.18761285136E+02  0.00000000000E+00 0.  1.
</event>
<event>
 7    1  0.2756432E-009  0.4778727E+02  0.7816164E-02  0.1312668E+00
        -11   -1    0    0    0    0  0.00000000000E+00  0.00000000000E+00  0.45593999997E+02  0.45594000000E+02  0.51100000000E-03 0.  1.
         11   -1    0    0    0    0 -0.00000000000E+00 -0.00000000000E+00 -0.45593999997E+02  0.45594000000E+02  0.51100000000E-03 0. -1.
    9900012    2    1    2    0    0 -0.27504886004E+02 -0.16906226490E+01 -0.33529782355E+02  0.47787271160E+02  0.20000000529E+02 0.  0.
        -12    1    1    2    0    0  0.27504886004E+02  0.16906226490E+01  0.33529782355E+02  0.43400728840E+02  0.00000000000E+00 0.  1.
         11    1    3    3    0    0 -0.33573971966E+01 -0.34108266871E+01 -0.14603072878E+02  0.15367354762E+02  0.51100000000E-03 0. -1.
        -11    1    3    3    0    0 -0.18780289949E+02  0.41364578787E+01 -0.18220950660E+02  0.26491746216E+02  0.51100000000E-03 0.  1.
         12    1    3    3    0    0 -0.53671988586E+01 -0.24162538406E+01 -0.70575881664E+00  0.59281701829E+01  0.00000000000E+00 0. -1.
</event>
<event>
 7    1  0.2756432E-009  0.4778727E+02  0.7816164E-02  0.1312668E+00
        -11   -1    0    0    0    0  0.00000000000E+00  0.00000000000E+00  0.45593999997E+02  0.45594000000E+02  0.51100000000E-03 0.  1.
         11   -1    0    0    0    0 -0.00000000000E+00 -0.00000000000E+00 -0.45593999997E+02  0.45594000000E+02  0.51100000000E-03 0. -1.
    9900012    2    1    2    0    0 -0.15983494013E+02 -0.66537640745E+01 -0.39797973984E+02  0.47787269701E+02  0.19999993875E+02 0.  0.
        -12    1    1    2    0    0  0.15983494013E+02  0.66537640745E+01  0.39797973984E+02  0.43400730299E+02  0.00000000000E+00 0.  1.
         11    1    3    3    0    0  0.44233586214E+00 -0.52890248279E+01 -0.20912407630E+02  0.21575408172E+02  0.51100000000E-03 0. -1.
        -11    1    3    3    0    0 -0.10870531308E+02  0.25753165018E+01 -0.13541251862E+02  0.17554663433E+02  0.51100000000E-03 0.  1.
        -12    1    3    3    0    0 -0.55552985671E+01 -0.39400557484E+01 -0.53443144918E+01  0.86571980951E+01  0.00000000000E+00 0.  1.
</event>
<event>
 7    1  0.2756432E-009  0.4778726E+02  0.7816164E-02  0.1312668E+00
        -11   -1    0    0    0    0  0.00000000000E+00  0.00000000000E+00  0.45593999997E+02  0.45594000000E+02  0.51100000000E-03 0. -1.
         11   -1    0    0    0    0 -0.00000000000E+00 -0.00000000000E+00 -0.45593999997E+02  0.45594000000E+02  0.51100000000E-03 0.  1.
    9900012    2    1    2    0    0 -0.41977142570E+02 -0.46216103014E+01  0.10009198739E+02  0.47787264528E+02  0.19999970288E+02 0.  0.
        -12    1    1    2    0    0  0.41977142570E+02  0.46216103014E+01 -0.10009198739E+02  0.43400735472E+02  0.00000000000E+00 0.  1.
         11    1    3    3    0    0 -0.33970370677E+01 -0.59888255305E+01  0.28783427994E+01  0.74626235070E+01  0.51100000000E-03 0. -1.
        -11    1    3    3    0    0 -0.54925086898E+01 -0.16498843618E+01  0.39164032899E+01  0.69446371471E+01  0.51100000000E-03 0.  1.
         12    1    3    3    0    0 -0.33087596813E+02  0.30170995909E+01  0.32144526502E+01  0.33380003874E+02  0.00000000000E+00 0. -1.
</event>
<event>
 7    1  0.2756432E-009  0.4778727E+02  0.7816164E-02  0.1312668E+00
        -11   -1    0    0    0    0  0.00000000000E+00  0.00000000000E+00  0.45593999997E+02  0.45594000000E+02  0.51100000000E-03 0. -1.
         11   -1    0    0    0    0 -0.00000000000E+00 -0.00000000000E+00 -0.45593999997E+02  0.45594000000E+02  0.51100000000E-03 0.  1.
    9900012    2    1    2    0    0 -0.71110447333E+01 -0.42720030064E+02 -0.28381436484E+01  0.47787274370E+02  0.20000015163E+02 0.  0.
        -12    1    1    2    0    0  0.71110447333E+01  0.42720030064E+02  0.28381436484E+01  0.43400725630E+02  0.00000000000E+00 0.  1.
         11    1    3    3    0    0 -0.30511626950E+00 -0.77320475694E+01 -0.77692518699E+01  0.10965351359E+02  0.51100000000E-03 0. -1.
        -11    1    3    3    0    0 -0.82579937321E+01 -0.24772561679E+02  0.25842585570E+01  0.26240287063E+02  0.51100000000E-03 0.  1.
         12    1    3    3    0    0  0.14520652683E+01 -0.10215420815E+02  0.23468496645E+01  0.10581635947E+02  0.00000000000E+00 0. -1.
</event>
<event>
 7    1  0.2756432E-009  0.4778728E+02  0.7816164E-02  0.1312668E+00
        -11   -1    0    0    0    0  0.00000000000E+00  0.00000000000E+00  0.45593999997E+02  0.45594000000E+02  0.51100000000E-03 0.  1.
         11   -1    0    0    0    0 -0.00000000000E+00 -0.00000000000E+00 -0.45593999997E+02  0.45594000000E+02  0.51100000000E-03 0. -1.
    9900012    2    1    2    0    0 -0.38216991774E+01 -0.24200877763E+02 -0.35823663147E+02  0.47787277536E+02  0.20000029598E+02 0.  0.
        -12    1    1    2    0    0  0.38216991774E+01  0.24200877763E+02  0.35823663147E+02  0.43400722464E+02  0.00000000000E+00 0.  1.
         11    1    3    3    0    0 -0.31332194625E+00  0.10396056847E+01 -0.21732132008E+01  0.24293633937E+01  0.51100000000E-03 0. -1.
        -11    1    3    3    0    0  0.58386163918E+01 -0.60078068769E+01 -0.55610424039E+01  0.10055266169E+02  0.51100000000E-03 0.  1.
        -12    1    3    3    0    0 -0.93469936229E+01 -0.19232676571E+02 -0.28089407542E+02  0.35302647974E+02  0.00000000000E+00 0.  1.
</event>
<event>
 7    1  0.2756432E-009  0.4778727E+02  0.7816164E-02  0.1312668E+00
        -11   -1    0    0    0    0  0.00000000000E+00  0.00000000000E+00  0.45593999997E+02  0.45594000000E+02  0.51100000000E-03 0. -1.
         11   -1    0    0    0    0 -0.00000000000E+00 -0.00000000000E+00 -0.45593999997E+02  0.45594000000E+02  0.51100000000E-03 0.  1.
    9900012    2    1    2    0    0 -0.40979653696E+02  0.12090267987E+02 -0.76234369186E+01  0.47787269735E+02  0.19999994032E+02 0.  0.
        -12    1    1    2    0    0  0.40979653696E+02 -0.12090267987E+02  0.76234369186E+01  0.43400730265E+02  0.00000000000E+00 0.  1.
         11    1    3    3    0    0 -0.17603457023E+02  0.98635435473E+01 -0.26543970166E+01  0.20352322085E+02  0.51100000000E-03 0. -1.
        -11    1    3    3    0    0 -0.62825700396E+01  0.60116736290E+01  0.13947252062E+01  0.88065977985E+01  0.51100000000E-03 0.  1.
        -12    1    3    3    0    0 -0.17093626633E+02 -0.37849491894E+01 -0.63637651082E+01  0.18628349852E+02  0.00000000000E+00 0.  1.
</event>
<event>
 7    1  0.2756432E-009  0.4778727E+02  0.7816164E-02  0.1312668E+00
        -11   -1    0    0    0    0  0.00000000000E+00  0.00000000000E+00  0.45593999997E+02  0.45594000000E+02  0.51100000000E-03 0.  1.
         11   -1    0    0    0    0 -0.00000000000E+00 -0.00000000000E+00 -0.45593999997E+02  0.45594000000E+02  0.51100000000E-03 0. -1.
    9900012    2    1    2    0    0 -0.38329857587E+02 -0.18561437840E+02 -0.83617284807E+01  0.47787268894E+02  0.19999990197E+02 0.  0.
        -12    1    1    2    0    0  0.38329857587E+02  0.18561437840E+02  0.83617284807E+01  0.43400731106E+02  0.00000000000E+00 0.  1.
         11    1    3    3    0    0 -0.95337713908E+01 -0.10931411482E+02 -0.94153342509E+01  0.17292688433E+02  0.51100000000E-03 0. -1.
        -11    1    3    3    0    0 -0.95323473335E+00 -0.15393738766E+01 -0.69579615702E+00  0.19397064062E+01  0.51100000000E-03 0.  1.
         12    1    3    3    0    0 -0.27842851462E+02 -0.60906524817E+01  0.17494019273E+01  0.28554874055E+02  0.00000000000E+00 0. -1.
</event>
<event>
 7    1  0.2756432E-009  0.4778727E+02  0.7816164E-02  0.1312668E+00
        -11   -1    0    0    0    0  0.00000000000E+00  0.00000000000E+00  0.45593999997E+02  0.45594000000E+02  0.51100000000E-03 0.  1.
         11   -1    0    0    0    0 -0.00000000000E+00 -0.00000000000E+00 -0.45593999997E+02  0.45594000000E+02  0.51100000000E-03 0. -1.
    9900012    2    1    2    0    0 -0.42969956640E+02 -0.29380944336E+01 -0.53454738337E+01  0.47787266561E+02  0.19999979558E+02 0.  0.
        -12    1    1    2    0    0  0.42969956640E+02  0.29380944336E+01  0.53454738337E+01  0.43400733439E+02  0.00000000000E+00 0.  1.
         11    1    3    3    0    0 -0.13191960898E+02  0.28157424454E+01 -0.77093955093E+00  0.13511128224E+02  0.51100000000E-03 0. -1.
        -11    1    3    3    0    0 -0.13888422901E+02 -0.82311496693E+01 -0.77114398304E+01  0.17891518104E+02  0.51100000000E-03 0.  1.
        -12    1    3    3    0    0 -0.15889572842E+02  0.24773127903E+01  0.31369055477E+01  0.16384620233E+02  0.00000000000E+00 0.  1.
</event>
<event>
 7    1  0.2756432E-009  0.4778727E+02  0.7816164E-02  0.1312668E+00
        -11   -1    0    0    0    0  0.00000000000E+00  0.00000000000E+00  0.45593999997E+02  0.45594000000E+02  0.51100000000E-03 0.  1.
         11   -1    0    0    0    0 -0.00000000000E+00 -0.00000000000E+00 -0.45593999997E+02  0.45594000000E+02  0.51100000000E-03 0. -1.
    9900012    2    1    2    0    0  0.20354036029E+02  0.35075374417E+02 -0.15461386285E+02  0.47787272598E+02  0.20000007083E+02 0.  0.
        -12    1    1    2    0    0 -0.20354036029E+02 -0.35075374417E+02  0.15461386285E+02  0.43400727402E+02  0.00000000000E+00 0.  1.
         11    1    3    3    0    0  0.12307614239E+01  0.22170513742E+01 -0.71707901985E+01  0.76059399689E+01  0.51100000000E-03 0. -1.
        -11    1    3    3    0    0  0.15566106196E+02  0.20917042747E+02 -0.18082572599E+01  0.26136107858E+02  0.51100000000E-03 0.  1.
        -12    1    3    3    0    0  0.35571684088E+01  0.11941280296E+02 -0.64823388264E+01  0.14045224771E+02  0.00000000000E+00 0.  1.
</event>
<event>
 7    1  0.2756432E-009  0.4778727E+02  0.7816164E-02  0.1312668E+00
        -11   -1    0    0    0    0  0.00000000000E+00  0.00000000000E+00  0.45593999997E+02  0.45594000000E+02  0.51100000000E-03 0. -1.
         11   -1    0    0    0    0 -0.00000000000E+00 -0.00000000000E+00 -0.45593999997E+02  0.45594000000E+02  0.51100000000E-03 0.  1.
    9900012    2    1    2    0    0 -0.37601200755E+02 -0.14721628799E+02  0.15907445508E+02  0.47787268725E+02  0.19999989423E+02 0.  0.
        -12    1    1    2    0    0  0.37601200755E+02  0.14721628799E+02 -0.15907445508E+02  0.43400731275E+02  0.00000000000E+00 0.  1.
         11    1    3    3    0    0 -0.24781665595E+02 -0.42276206078E+01  0.12624611913E+02  0.28131557935E+02  0.51100000000E-03 0. -1.
        -11    1    3    3    0    0 -0.49842323132E-03 -0.49843680791E+01  0.27499131958E+01  0.56926222641E+01  0.51100000000E-03 0.  1.
        -12    1    3    3    0    0 -0.12819036736E+02 -0.55096401117E+01  0.53292039913E+00  0.13963088525E+02  0.00000000000E+00 0.  1.
</event>
<event>
 7    1  0.2756432E-009  0.4778727E+02  0.7816164E-02  0.1312668E+00
        -11   -1    0    0    0    0  0.00000000000E+00  0.00000000000E+00  0.45593999997E+02  0.45594000000E+02  0.51100000000E-03 0. -1.
         11   -1    0    0    0    0 -0.00000000000E+00 -0.00000000000E+00 -0.45593999997E+02  0.45594000000E+02  0.51100000000E-03 0.  1.
    9900012    2    1    2    0    0 -0.10819951479E+02  0.36055004761E+00  0.42028822307E+02  0.47787271310E+02  0.20000001210E+02 0.  0.
        -12    1    1    2    0    0  0.10819951479E+02 -0.36055004761E+00 -0.42028822307E+02  0.43400728690E+02  0.00000000000E+00 0.  1.
         11    1    3    3    0    0 -0.81208218164E+01 -0.31887017446E+01  0.25537091102E+02  0.26986266655E+02  0.51100000000E-03 0. -1.
        -11    1    3    3    0    0  0.40424502498E+01  0.26013379072E+01  0.29387382220E+01  0.56342298079E+01  0.51100000000E-03 0.  1.
        -12    1    3    3    0    0 -0.67415799126E+01  0.94791388505E+00  0.13552992983E+02  0.15166774847E+02  0.00000000000E+00 0.  1.
</event>
<event>
 7    1  0.2756432E-009  0.4778727E+02  0.7816164E-02  0.1312668E+00
        -11   -1    0    0    0    0  0.00000000000E+00  0.00000000000E+00  0.45593999997E+02  0.45594000000E+02  0.51100000000E-03 0. -1.
         11   -1    0    0    0    0 -0.00000000000E+00 -0.00000000000E+00 -0.45593999997E+02  0.45594000000E+02  0.51100000000E-03 0.  1.
    9900012    2    1    2    0    0 -0.28766690144E+02 -0.19356353691E+02  0.26104264382E+02  0.47787268336E+02  0.19999987650E+02 0.  0.
        -12    1    1    2    0    0  0.28766690144E+02  0.19356353691E+02 -0.26104264382E+02  0.43400731664E+02  0.00000000000E+00 0.  1.
         11    1    3    3    0    0 -0.24040155063E+02 -0.17714195909E+02  0.16252647040E+02  0.33998093009E+02  0.51100000000E-03 0. -1.
        -11    1    3    3    0    0 -0.58178884715E+01  0.84577652223E+00  0.93223665977E+01  0.11021328569E+02  0.51100000000E-03 0.  1.
         12    1    3    3    0    0  0.10913533903E+01 -0.24879343040E+01  0.52925074476E+00  0.27678467577E+01  0.00000000000E+00 0. -1.
</event>
<event>
 7    1  0.2756432E-009  0.4778727E+02  0.7816164E-02  0.1312668E+00
        -11   -1    0    0    0    0  0.00000000000E+00  0.00000000000E+00  0.45593999997E+02  0.45594000000E+02  0.51100000000E-03 0.  1.
         11   -1    0    0    0    0 -0.00000000000E+00 -0.00000000000E+00 -0.45593999997E+02  0.45594000000E+02  0.51100000000E-03 0. -1.
    9900012    2    1    2    0    0 -0.12440540642E+02 -0.25776076220E+02 -0.32625911076E+02  0.47787271546E+02  0.20000002288E+02 0.  0.
        -12    1    1    2    0    0  0.12440540642E+02  0.25776076220E+02  0.32625911076E+02  0.43400728454E+02  0.00000000000E+00 0.  1.
         11    1    3    3    0    0 -0.65469136498E+00 -0.17690071660E+02 -0.23731070731E+02  0.29606265797E+02  0.51100000000E-03 0. -1.
        -11    1    3    3    0    0 -0.11101810928E+02 -0.44960456418E+01 -0.80458228689E+01  0.14429133661E+02  0.51100000000E-03 0.  1.
        -12    1    3    3    0    0 -0.68403834899E+00 -0.35899589181E+01 -0.84901747633E+00  0.37518720889E+01  0.00000000000E+00 0.  1.
</event>
<event>
 7    1  0.2756432E-009  0.4778727E+02  0.7816164E-02  0.1312668E+00
        -11   -1    0    0    0    0  0.00000000000E+00  0.00000000000E+00  0.45593999997E+02  0.45594000000E+02  0.51100000000E-03 0.  1.
         11   -1    0    0    0    0 -0.00000000000E+00 -0.00000000000E+00 -0.45593999997E+02  0.45594000000E+02  0.51100000000E-03 0. -1.
    9900012    2    1    2    0    0 -0.23305729949E+02 -0.28039414767E+02 -0.23542671802E+02  0.47787271613E+02  0.20000002593E+02 0.  0.
        -12    1    1    2    0    0  0.23305729949E+02  0.28039414767E+02  0.23542671802E+02  0.43400728387E+02  0.00000000000E+00 0.  1.
         11    1    3    3    0    0 -0.41923344096E+01 -0.12745644373E+02 -0.60098027219E+01  0.14701865436E+02  0.51100000000E-03 0. -1.
        -11    1    3    3    0    0 -0.10930405758E+02 -0.71038902827E+00 -0.43260417928E+01  0.11776801792E+02  0.51100000000E-03 0.  1.
        -12    1    3    3    0    0 -0.81829897816E+01 -0.14583381366E+02 -0.13206827287E+02  0.21308604385E+02  0.00000000000E+00 0.  1.
</event>
<event>
 7    1  0.2756432E-009  0.4778727E+02  0.7816164E-02  0.1312668E+00
        -11   -1    0    0    0    0  0.00000000000E+00  0.00000000000E+00  0.45593999997E+02  0.45594000000E+02  0.51100000000E-03 0.  1.
         11   -1    0    0    0    0 -0.00000000000E+00 -0.00000000000E+00 -0.45593999997E+02  0.45594000000E+02  0.51100000000E-03 0. -1.
    9900012    2    1    2    0    0  0.36747144527E+02 -0.60552096919E+01 -0.22284634332E+02  0.47787272787E+02  0.20000007946E+02 0.  0.
        -12    1    1    2    0    0 -0.36747144527E+02  0.60552096919E+01  0.22284634332E+02  0.43400727213E+02  0.00000000000E+00 0.  1.
         11    1    3    3    0    0  0.31173425164E+02 -0.31425471212E+00 -0.19288297160E+02  0.36659508999E+02  0.51100000000E-03 0. -1.
        -11    1    3    3    0    0  0.39434294721E+01 -0.35172901598E+01 -0.53374442548E+01  0.75106775663E+01  0.51100000000E-03 0.  1.
         12    1    3    3    0    0  0.16302898908E+01 -0.22236648200E+01  0.23411070831E+01  0.36170862216E+01  0.00000000000E+00 0. -1.
</event>
<event>
 7    1  0.2756432E-009  0.4778727E+02  0.7816164E-02  0.1312668E+00
        -11   -1    0    0    0    0  0.00000000000E+00  0.00000000000E+00  0.45593999997E+02  0.45594000000E+02  0.51100000000E-03 0. -1.
         11   -1    0    0    0    0 -0.00000000000E+00 -0.00000000000E+00 -0.45593999997E+02  0.45594000000E+02  0.51100000000E-03 0.  1.
    9900012    2    1    2    0    0  0.12023473846E+02 -0.33491360482E+01  0.41567324708E+02  0.47787272829E+02  0.20000008134E+02 0.  0.
        -12    1    1    2    0    0 -0.12023473846E+02  0.33491360482E+01 -0.41567324708E+02  0.43400727171E+02  0.00000000000E+00 0.  1.
         11    1    3    3    0    0  0.11295410595E+02 -0.30501700423E+01  0.28826622114E+02  0.31110512381E+02  0.51100000000E-03 0. -1.
        -11    1    3    3    0    0  0.51428279990E+00 -0.25151154398E+01 -0.10013335077E+01  0.27555328938E+01  0.51100000000E-03 0.  1.
         12    1    3    3    0    0  0.21378045162E+00  0.22161494340E+01  0.13742036102E+02  0.13921227554E+02  0.00000000000E+00 0. -1.
</event>
<event>
 7    1  0.2756432E-009  0.4778727E+02  0.7816164E-02  0.1312668E+00
        -11   -1    0    0    0    0  0.00000000000E+00  0.00000000000E+00  0.45593999997E+02  0.45594000000E+02  0.51100000000E-03 0.  1.
         11   -1    0    0    0    0 -0.00000000000E+00 -0.00000000000E+00 -0.45593999997E+02  0.45594000000E+02  0.51100000000E-03 0. -1.
    9900012    2    1    2    0    0  0.32664654291E+02  0.46903050035E+01 -0.28189436509E+02  0.47787274987E+02  0.20000017977E+02 0.  0.
        -12    1    1    2    0    0 -0.32664654291E+02 -0.46903050035E+01  0.28189436509E+02  0.43400725013E+02  0.00000000000E+00 0.  1.
         11    1    3    3    0    0  0.11667878326E+02 -0.54935463214E+01 -0.13672782740E+02  0.18795303241E+02  0.51100000000E-03 0. -1.
        -11    1    3    3    0    0  0.20621427919E+02  0.68762029691E+01 -0.12100333780E+02  0.24878575815E+02  0.51100000000E-03 0.  1.
        -12    1    3    3    0    0  0.37534804506E+00  0.33076483558E+01 -0.24163199887E+01  0.41133959314E+01  0.00000000000E+00 0.  1.
</event>
<event>
 7    1  0.2756432E-009  0.4778727E+02  0.7816164E-02  0.1312668E+00
        -11   -1    0    0    0    0  0.00000000000E+00  0.00000000000E+00  0.45593999997E+02  0.45594000000E+02  0.51100000000E-03 0. -1.
         11   -1    0    0    0    0 -0.00000000000E+00 -0.00000000000E+00 -0.45593999997E+02  0.45594000000E+02  0.51100000000E-03 0.  1.
    9900012    2    1    2    0    0 -0.18924767606E+01  0.41150245456E+02  0.13663789364E+02  0.47787270638E+02  0.19999998145E+02 0.  0.
        -12    1    1    2    0    0  0.18924767606E+01 -0.41150245456E+02 -0.13663789364E+02  0.43400729362E+02  0.00000000000E+00 0.  1.
         11    1    3    3    0    0 -0.80885003794E+00  0.30602065111E+00  0.47802004380E+01  0.48577982164E+01  0.51100000000E-03 0. -1.
        -11    1    3    3    0    0 -0.31255242956E+01  0.42909305183E+01  0.24726416142E+00  0.53143321934E+01  0.51100000000E-03 0.  1.
         12    1    3    3    0    0  0.20418975729E+01  0.36553294287E+02  0.86363247642E+01  0.37615140228E+02  0.00000000000E+00 0. -1.
</event>
<event>
 7    1  0.2756432E-009  0.4778727E+02  0.7816164E-02  0.1312668E+00
        -11   -1    0    0    0    0  0.00000000000E+00  0.00000000000E+00  0.45593999997E+02  0.45594000000E+02  0.51100000000E-03 0. -1.
         11   -1    0    0    0    0 -0.00000000000E+00 -0.00000000000E+00 -0.45593999997E+02  0.45594000000E+02  0.51100000000E-03 0.  1.
    9900012    2    1    2    0    0  0.53499850690E+00 -0.19209114822E+02  0.38914610472E+02  0.47787271621E+02  0.20000002630E+02 0.  0.
        -12    1    1    2    0    0 -0.53499850690E+00  0.19209114822E+02 -0.38914610472E+02  0.43400728379E+02  0.00000000000E+00 0.  1.
         11    1    3    3    0    0  0.50110350257E+01 -0.14559643386E+02  0.25865371917E+02  0.30101680222E+02  0.51100000000E-03 0. -1.
        -11    1    3    3    0    0 -0.20934239251E+01  0.31338264548E+01  0.35710369080E+01  0.51918779684E+01  0.51100000000E-03 0.  1.
        -12    1    3    3    0    0 -0.23826125937E+01 -0.77832978909E+01  0.94782016469E+01  0.12493713431E+02  0.00000000000E+00 0.  1.
</event>
<event>
 7    1  0.2756432E-009  0.4778724E+02  0.7816164E-02  0.1312668E+00
        -11   -1    0    0    0    0  0.00000000000E+00  0.00000000000E+00  0.45593999997E+02  0.45594000000E+02  0.51100000000E-03 0. -1.
         11   -1    0    0    0    0 -0.00000000000E+00 -0.00000000000E+00 -0.45593999997E+02  0.45594000000E+02  0.51100000000E-03 0.  1.
    9900012    2    1    2    0    0 -0.98060887598E+01 -0.67130561300E+01  0.41742086369E+02  0.47787236483E+02  0.19999842422E+02 0.  0.
        -12    1    1    2    0    0  0.98060887598E+01  0.67130561300E+01 -0.41742086369E+02  0.43400763517E+02  0.00000000000E+00 0.  1.
         11    1    3    3    0    0 -0.71369706889E+01 -0.62555408279E+01  0.18773177999E+02  0.21035692385E+02  0.51100000000E-03 0. -1.
        -11    1    3    3    0    0  0.44311488436E+01  0.34170592945E+01  0.10266781963E+02  0.11692655235E+02  0.51100000000E-03 0.  1.
        -12    1    3    3    0    0 -0.71002669144E+01 -0.38745745967E+01  0.12702126407E+02  0.15058888864E+02  0.00000000000E+00 0.  1.
</event>
<event>
 7    1  0.2756432E-009  0.4778727E+02  0.7816164E-02  0.1312668E+00
        -11   -1    0    0    0    0  0.00000000000E+00  0.00000000000E+00  0.45593999997E+02  0.45594000000E+02  0.51100000000E-03 0. -1.
         11   -1    0    0    0    0 -0.00000000000E+00 -0.00000000000E+00 -0.45593999997E+02  0.45594000000E+02  0.51100000000E-03 0.  1.
    9900012    2    1    2    0    0  0.20814160195E+02  0.36762347344E+02  0.99460470675E+01  0.47787270754E+02  0.19999998676E+02 0.  0.
        -12    1    1    2    0    0 -0.20814160195E+02 -0.36762347344E+02 -0.99460470675E+01  0.43400729246E+02  0.00000000000E+00 0.  1.
         11    1    3    3    0    0  0.11678021978E+02  0.22231889852E+02  0.36145007764E+01  0.25371199022E+02  0.51100000000E-03 0. -1.
        -11    1    3    3    0    0 -0.21202929924E+01 -0.28079023271E+00  0.27289395711E+01  0.34672174682E+01  0.51100000000E-03 0.  1.
        -12    1    3    3    0    0  0.11256431209E+02  0.14811247725E+02  0.36026067200E+01  0.18948854264E+02  0.00000000000E+00 0.  1.
</event>
<event>
 7    1  0.2756432E-009  0.4778728E+02  0.7816164E-02  0.1312668E+00
        -11   -1    0    0    0    0  0.00000000000E+00  0.00000000000E+00  0.45593999997E+02  0.45594000000E+02  0.51100000000E-03 0. -1.
         11   -1    0    0    0    0 -0.00000000000E+00 -0.00000000000E+00 -0.45593999997E+02  0.45594000000E+02  0.51100000000E-03 0.  1.
    9900012    2    1    2    0    0 -0.23421103365E+02 -0.35990744406E+02  0.63040347650E+01  0.47787278577E+02  0.20000034344E+02 0.  0.
        -12    1    1    2    0    0  0.23421103365E+02  0.35990744406E+02 -0.63040347650E+01  0.43400721423E+02  0.00000000000E+00 0.  1.
         11    1    3    3    0    0 -0.12343332981E+02 -0.19025722153E+02  0.21942327639E+01  0.22784877226E+02  0.51100000000E-03 0. -1.
        -11    1    3    3    0    0  0.94471772439E+00  0.66345272364E+00  0.34678069493E+01  0.36549071663E+01  0.51100000000E-03 0.  1.
        -12    1    3    3    0    0 -0.12022488108E+02 -0.17628474977E+02  0.64199505187E+00  0.21347494184E+02  0.00000000000E+00 0.  1.
</event>
<event>
 7    1  0.2756432E-009  0.4778727E+02  0.7816164E-02  0.1312668E+00
        -11   -1    0    0    0    0  0.00000000000E+00  0.00000000000E+00  0.45593999997E+02  0.45594000000E+02  0.51100000000E-03 0. -1.
         11   -1    0    0    0    0 -0.00000000000E+00 -0.00000000000E+00 -0.45593999997E+02  0.45594000000E+02  0.51100000000E-03 0.  1.
    9900012    2    1    2    0    0  0.17254891754E+02 -0.37591987759E+02 -0.13142834473E+02  0.47787274993E+02  0.20000018004E+02 0.  0.
        -12    1    1    2    0    0 -0.17254891754E+02  0.37591987759E+02  0.13142834473E+02  0.43400725007E+02  0.00000000000E+00 0.  1.
         11    1    3    3    0    0  0.17552701574E+01 -0.24149469039E+02 -0.71896307231E+01  0.25258040668E+02  0.51100000000E-03 0. -1.
        -11    1    3    3    0    0  0.35633497348E+01 -0.25512255918E+00 -0.26255329306E+01  0.44335056427E+01  0.51100000000E-03 0.  1.
         12    1    3    3    0    0  0.11936271862E+02 -0.13187396161E+02 -0.33276708197E+01  0.18095728682E+02  0.00000000000E+00 0. -1.
</event>
<event>
 7    1  0.4066451E-009  0.4778728E+02  0.7816164E-02  0.1312668E+00
        -11   -1    0    0    0    0  0.00000000000E+00  0.00000000000E+00  0.45593999997E+02  0.45594000000E+02  0.51100000000E-03 0.  1.
         11   -1    0    0    0    0 -0.00000000000E+00 -0.00000000000E+00 -0.45593999997E+02  0.45594000000E+02  0.51100000000E-03 0. -1.
    9900012    2    1    2    0    0 -0.40275642373E+02  0.94510117586E+01 -0.13121487822E+02  0.47787280715E+02  0.20000044091E+02 0.  0.
        -12    1    1    2    0    0  0.40275642373E+02 -0.94510117586E+01  0.13121487822E+02  0.43400719285E+02  0.00000000000E+00 0.  1.
         11    1    3    3    0    0 -0.13399373141E+02  0.28056793365E+01 -0.53799458367E+01  0.14709141871E+02  0.51100000000E-03 0. -1.
        -11    1    3    3    0    0 -0.28671991333E+02  0.56723007624E+01 -0.49887085493E+01  0.29650384418E+02  0.51100000000E-03 0.  1.
        -12    1    3    3    0    0  0.17957221009E+01  0.97303165976E+00 -0.27528334358E+01  0.34277544252E+01  0.00000000000E+00 0.  1.
</event>
<event>
 7    1  0.2756432E-009  0.4778725E+02  0.7816164E-02  0.1312668E+00
        -11   -1    0    0    0    0  0.00000000000E+00  0.00000000000E+00  0.45593999997E+02  0.45594000000E+02  0.51100000000E-03 0. -1.
         11   -1    0    0    0    0 -0.00000000000E+00 -0.00000000000E+00 -0.45593999997E+02  0.45594000000E+02  0.51100000000E-03 0.  1.
    9900012    2    1    2    0    0 -0.36746997016E+02  0.15852916495E+02  0.16791912287E+02  0.47787250360E+02  0.19999905689E+02 0.  0.
        -12    1    1    2    0    0  0.36746997016E+02 -0.15852916495E+02 -0.16791912287E+02  0.43400749640E+02  0.00000000000E+00 0.  1.
         11    1    3    3    0    0 -0.28567371142E+02  0.15974644365E+02  0.81968111105E+01  0.33741245816E+02  0.51100000000E-03 0. -1.
        -11    1    3    3    0    0 -0.29327691827E+01  0.28115867476E+01  0.65286875253E+01  0.76895979207E+01  0.51100000000E-03 0.  1.
         12    1    3    3    0    0 -0.52468566908E+01 -0.29333146173E+01  0.20664136510E+01  0.63564066228E+01  0.00000000000E+00 0. -1.
</event>
<event>
 7    1  0.2756432E-009  0.4778727E+02  0.7816164E-02  0.1312668E+00
        -11   -1    0    0    0    0  0.00000000000E+00  0.00000000000E+00  0.45593999997E+02  0.45594000000E+02  0.51100000000E-03 0.  1.
         11   -1    0    0    0    0 -0.00000000000E+00 -0.00000000000E+00 -0.45593999997E+02  0.45594000000E+02  0.51100000000E-03 0. -1.
    9900012    2    1    2    0    0 -0.35798632269E+02  0.13909920627E+02 -0.20213737856E+02  0.47787272330E+02  0.20000005862E+02 0.  0.
        -12    1    1    2    0    0  0.35798632269E+02 -0.13909920627E+02  0.20213737856E+02  0.43400727670E+02  0.00000000000E+00 0.  1.
         11    1    3    3    0    0 -0.59245822586E+01 -0.12860905710E+01  0.27768310721E+01  0.66682452684E+01  0.51100000000E-03 0.  1.
        -11    1    3    3    0    0 -0.21294563967E+02  0.10221978680E+02 -0.12663586308E+02  0.26801375359E+02  0.51100000000E-03 0. -1.
        -12    1    3    3    0    0 -0.85794860429E+01  0.49740325180E+01 -0.10326982620E+02  0.14317651703E+02  0.00000000000E+00 0.  1.
</event>
<event>
 7    1  0.2756432E-009  0.4778726E+02  0.7816164E-02  0.1312668E+00
        -11   -1    0    0    0    0  0.00000000000E+00  0.00000000000E+00  0.45593999997E+02  0.45594000000E+02  0.51100000000E-03 0. -1.
         11   -1    0    0    0    0 -0.00000000000E+00 -0.00000000000E+00 -0.45593999997E+02  0.45594000000E+02  0.51100000000E-03 0.  1.
    9900012    2    1    2    0    0 -0.25179286789E+02 -0.33269297974E+02  0.11949106875E+02  0.47787264684E+02  0.19999971000E+02 0.  0.
        -12    1    1    2    0    0  0.25179286789E+02  0.33269297974E+02 -0.11949106875E+02  0.43400735316E+02  0.00000000000E+00 0.  1.
         11    1    3    3    0    0 -0.29311476568E+01 -0.13115451339E+02  0.31687584605E+01  0.13807524066E+02  0.51100000000E-03 0. -1.
        -11    1    3    3    0    0 -0.22583223610E+02 -0.21534183046E+02  0.91379363270E+01  0.32514995135E+02  0.51100000000E-03 0.  1.
        -12    1    3    3    0    0  0.33508447814E+00  0.13803364103E+01 -0.35758791280E+00  0.14647454825E+01  0.00000000000E+00 0.  1.
</event>
<event>
 7    1  0.2756432E-009  0.4778727E+02  0.7816164E-02  0.1312668E+00
        -11   -1    0    0    0    0  0.00000000000E+00  0.00000000000E+00  0.45593999997E+02  0.45594000000E+02  0.51100000000E-03 0. -1.
         11   -1    0    0    0    0 -0.00000000000E+00 -0.00000000000E+00 -0.45593999997E+02  0.45594000000E+02  0.51100000000E-03 0.  1.
    9900012    2    1    2    0    0 -0.13095778248E+02 -0.39497610557E+02 -0.12331369881E+02  0.47787270389E+02  0.19999997013E+02 0.  0.
        -12    1    1    2    0    0  0.13095778248E+02  0.39497610557E+02  0.12331369881E+02  0.43400729611E+02  0.00000000000E+00 0.  1.
         11    1    3    3    0    0 -0.88821521858E+01 -0.32899754601E+02 -0.16693617084E+02  0.37946848773E+02  0.51100000000E-03 0. -1.
        -11    1    3    3    0    0 -0.38411470028E+01 -0.34482379867E+01  0.42171863394E+01  0.66655394675E+01  0.51100000000E-03 0.  1.
         12    1    3    3    0    0 -0.37247905950E+00 -0.31496179692E+01  0.14506086390E+00  0.31748821484E+01  0.00000000000E+00 0. -1.
</event>
<event>
 7    1  0.2756432E-009  0.4778726E+02  0.7816164E-02  0.1312668E+00
        -11   -1    0    0    0    0  0.00000000000E+00  0.00000000000E+00  0.45593999997E+02  0.45594000000E+02  0.51100000000E-03 0.  1.
         11   -1    0    0    0    0 -0.00000000000E+00 -0.00000000000E+00 -0.45593999997E+02  0.45594000000E+02  0.51100000000E-03 0. -1.
    9900012    2    1    2    0    0 -0.18091385683E+02 -0.70230228562E+01 -0.38820142830E+02  0.47787256052E+02  0.19999931642E+02 0.  0.
        -12    1    1    2    0    0  0.18091385683E+02  0.70230228562E+01  0.38820142830E+02  0.43400743948E+02  0.00000000000E+00 0.  1.
         11    1    3    3    0    0 -0.56288801996E+01  0.10189053560E+00 -0.46091114043E+01  0.72758904734E+01  0.51100000000E-03 0. -1.
        -11    1    3    3    0    0  0.48718648391E+00 -0.13838536737E+00  0.16622450615E+01  0.17376881439E+01  0.51100000000E-03 0.  1.
        -12    1    3    3    0    0 -0.12949691967E+02 -0.69865280244E+01 -0.35873276487E+02  0.38773677434E+02  0.00000000000E+00 0.  1.
</event>
<event>
 7    1  0.2756432E-009  0.4778727E+02  0.7816164E-02  0.1312668E+00
        -11   -1    0    0    0    0  0.00000000000E+00  0.00000000000E+00  0.45593999997E+02  0.45594000000E+02  0.51100000000E-03 0.  1.
         11   -1    0    0    0    0 -0.00000000000E+00 -0.00000000000E+00 -0.45593999997E+02  0.45594000000E+02  0.51100000000E-03 0. -1.
    9900012    2    1    2    0    0  0.14795882340E+02 -0.24982768492E+02 -0.32257811528E+02  0.47787271200E+02  0.20000000710E+02 0.  0.
        -12    1    1    2    0    0 -0.14795882340E+02  0.24982768492E+02  0.32257811528E+02  0.43400728800E+02  0.00000000000E+00 0.  1.
         11    1    3    3    0    0  0.13004046426E+01  0.26677033626E+01  0.70866326790E-03  0.29677759734E+01  0.51100000000E-03 0.  1.
        -11    1    3    3    0    0  0.64676899884E+01 -0.17231171319E+02 -0.17036024399E+02  0.25079282414E+02  0.51100000000E-03 0. -1.
        -12    1    3    3    0    0  0.70277877095E+01 -0.10419300535E+02 -0.15222495793E+02  0.19740212813E+02  0.00000000000E+00 0.  1.
</event>
<event>
 7    1  0.2756432E-009  0.4778727E+02  0.7816164E-02  0.1312668E+00
        -11   -1    0    0    0    0  0.00000000000E+00  0.00000000000E+00  0.45593999997E+02  0.45594000000E+02  0.51100000000E-03 0.  1.
         11   -1    0    0    0    0 -0.00000000000E+00 -0.00000000000E+00 -0.45593999997E+02  0.45594000000E+02  0.51100000000E-03 0. -1.
    9900012    2    1    2    0    0  0.15495038732E+02  0.26543901742E+02 -0.30642262024E+02  0.47787272276E+02  0.20000005614E+02 0.  0.
        -12    1    1    2    0    0 -0.15495038732E+02 -0.26543901742E+02  0.30642262024E+02  0.43400727724E+02  0.00000000000E+00 0.  1.
         11    1    3    3    0    0  0.48677417977E+01  0.11047372591E+02 -0.20575816029E+02  0.23855891450E+02  0.51100000000E-03 0. -1.
        -11    1    3    3    0    0  0.10945814169E+02  0.10583312299E+02 -0.33265992983E+01  0.15584723616E+02  0.51100000000E-03 0.  1.
        -12    1    3    3    0    0 -0.31851723426E+00  0.49132168518E+01 -0.67398466973E+01  0.83466572090E+01  0.00000000000E+00 0.  1.
</event>
<event>
 7    1  0.2756432E-009  0.4778726E+02  0.7816164E-02  0.1312668E+00
        -11   -1    0    0    0    0  0.00000000000E+00  0.00000000000E+00  0.45593999997E+02  0.45594000000E+02  0.51100000000E-03 0.  1.
         11   -1    0    0    0    0 -0.00000000000E+00 -0.00000000000E+00 -0.45593999997E+02  0.45594000000E+02  0.51100000000E-03 0. -1.
    9900012    2    1    2    0    0 -0.34953903000E+01 -0.36348170595E+02  0.23456702952E+02  0.47787260694E+02  0.19999952807E+02 0.  0.
        -12    1    1    2    0    0  0.34953903000E+01  0.36348170595E+02 -0.23456702952E+02  0.43400739306E+02  0.00000000000E+00 0.  1.
         11    1    3    3    0    0  0.50349148039E+01 -0.35224118186E+01  0.12851593917E+01  0.62776896248E+01  0.51100000000E-03 0. -1.
        -11    1    3    3    0    0 -0.63414285311E+01 -0.90156303354E+01  0.51958801889E+01  0.12185748945E+02  0.51100000000E-03 0.  1.
         12    1    3    3    0    0 -0.21888765729E+01 -0.23810128441E+02  0.16975663372E+02  0.29323822124E+02  0.00000000000E+00 0. -1.
</event>
<event>
 7    1  0.2756432E-009  0.4778727E+02  0.7816164E-02  0.1312668E+00
        -11   -1    0    0    0    0  0.00000000000E+00  0.00000000000E+00  0.45593999997E+02  0.45594000000E+02  0.51100000000E-03 0.  1.
         11   -1    0    0    0    0 -0.00000000000E+00 -0.00000000000E+00 -0.45593999997E+02  0.45594000000E+02  0.51100000000E-03 0. -1.
    9900012    2    1    2    0    0 -0.19115404232E+02  0.36983130835E+02 -0.12266727223E+02  0.47787271411E+02  0.20000001671E+02 0.  0.
        -12    1    1    2    0    0  0.19115404232E+02 -0.36983130835E+02  0.12266727223E+02  0.43400728589E+02  0.00000000000E+00 0.  1.
         11    1    3    3    0    0  0.59033053219E+00  0.44482583159E+01  0.35761824779E+00  0.45014867827E+01  0.51100000000E-03 0. -1.
        -11    1    3    3    0    0 -0.46835358462E+01  0.28455628894E+01 -0.79934385140E+01  0.96916353480E+01  0.51100000000E-03 0.  1.
        -12    1    3    3    0    0 -0.15022198918E+02  0.29689309630E+02 -0.46309069568E+01  0.33594149280E+02  0.00000000000E+00 0.  1.
</event>
<event>
 7    1  0.2756432E-009  0.4778727E+02  0.7816164E-02  0.1312668E+00
        -11   -1    0    0    0    0  0.00000000000E+00  0.00000000000E+00  0.45593999997E+02  0.45594000000E+02  0.51100000000E-03 0.  1.
         11   -1    0    0    0    0 -0.00000000000E+00 -0.00000000000E+00 -0.45593999997E+02  0.45594000000E+02  0.51100000000E-03 0. -1.
    9900012    2    1    2    0    0  0.30464037108E+02 -0.82578040231E+00 -0.30901195460E+02  0.47787270155E+02  0.19999995945E+02 0.  0.
        -12    1    1    2    0    0 -0.30464037108E+02  0.82578040231E+00  0.30901195460E+02  0.43400729845E+02  0.00000000000E+00 0.  1.
         11    1    3    3    0    0  0.10959596055E+02 -0.20135391712E+01 -0.13799560377E+02  0.17736824759E+02  0.51100000000E-03 0.  1.
        -11    1    3    3    0    0  0.61925710358E+01  0.75285028319E+01 -0.48928789391E+01  0.10907179081E+02  0.51100000000E-03 0. -1.
        -12    1    3    3    0    0  0.13311870017E+02 -0.63407440630E+01 -0.12208756145E+02  0.19143266316E+02  0.00000000000E+00 0.  1.
</event>
<event>
 7    1  0.2756432E-009  0.4778727E+02  0.7816164E-02  0.1312668E+00
        -11   -1    0    0    0    0  0.00000000000E+00  0.00000000000E+00  0.45593999997E+02  0.45594000000E+02  0.51100000000E-03 0.  1.
         11   -1    0    0    0    0 -0.00000000000E+00 -0.00000000000E+00 -0.45593999997E+02  0.45594000000E+02  0.51100000000E-03 0. -1.
    9900012    2    1    2    0    0 -0.13300092831E+02 -0.15937215874E+02 -0.38114771846E+02  0.47787272449E+02  0.20000006403E+02 0.  0.
        -12    1    1    2    0    0  0.13300092831E+02  0.15937215874E+02  0.38114771846E+02  0.43400727551E+02  0.00000000000E+00 0.  1.
         11    1    3    3    0    0 -0.46655833855E+01 -0.23911778052E+01 -0.83075266047E+01  0.98234616186E+01  0.51100000000E-03 0. -1.
        -11    1    3    3    0    0  0.32139756269E+01  0.16270789778E+01 -0.85885962720E+01  0.93134854655E+01  0.51100000000E-03 0.  1.
        -12    1    3    3    0    0 -0.11848485073E+02 -0.15173117047E+02 -0.21218648969E+02  0.28650325365E+02  0.00000000000E+00 0.  1.
</event>
<event>
 7    1  0.2756432E-009  0.4778727E+02  0.7816164E-02  0.1312668E+00
        -11   -1    0    0    0    0  0.00000000000E+00  0.00000000000E+00  0.45593999997E+02  0.45594000000E+02  0.51100000000E-03 0.  1.
         11   -1    0    0    0    0 -0.00000000000E+00 -0.00000000000E+00 -0.45593999997E+02  0.45594000000E+02  0.51100000000E-03 0. -1.
    9900012    2    1    2    0    0 -0.37600225741E+02 -0.18783272742E+02 -0.10818279534E+02  0.47787268638E+02  0.19999989028E+02 0.  0.
        -12    1    1    2    0    0  0.37600225741E+02  0.18783272742E+02  0.10818279534E+02  0.43400731362E+02  0.00000000000E+00 0.  1.
         11    1    3    3    0    0 -0.87054892957E+01 -0.33057402247E+01  0.23644552027E+01  0.96075028482E+01  0.51100000000E-03 0. -1.
        -11    1    3    3    0    0 -0.19327866170E+02 -0.37667466813E+01 -0.11890219778E+02  0.23002871949E+02  0.51100000000E-03 0.  1.
        -12    1    3    3    0    0 -0.95668702753E+01 -0.11710785836E+02 -0.12925149588E+01  0.15176893841E+02  0.00000000000E+00 0.  1.
</event>
<event>
 7    1  0.2756432E-009  0.4778727E+02  0.7816164E-02  0.1312668E+00
        -11   -1    0    0    0    0  0.00000000000E+00  0.00000000000E+00  0.45593999997E+02  0.45594000000E+02  0.51100000000E-03 0.  1.
         11   -1    0    0    0    0 -0.00000000000E+00 -0.00000000000E+00 -0.45593999997E+02  0.45594000000E+02  0.51100000000E-03 0. -1.
    9900012    2    1    2    0    0 -0.27901937754E+02 -0.43360093242E+01 -0.32959129328E+02  0.47787270590E+02  0.19999997926E+02 0.  0.
        -12    1    1    2    0    0  0.27901937754E+02  0.43360093242E+01  0.32959129328E+02  0.43400729410E+02  0.00000000000E+00 0.  1.
         11    1    3    3    0    0 -0.23178282550E+02 -0.83818075833E+01 -0.25008995174E+02  0.35113207205E+02  0.51100000000E-03 0. -1.
        -11    1    3    3    0    0 -0.46962812180E+01  0.46458249322E+01 -0.23042333558E+01  0.69963017515E+01  0.51100000000E-03 0.  1.
         12    1    3    3    0    0 -0.27373986309E-01 -0.60002667309E+00 -0.56459007981E+01  0.56777616333E+01  0.00000000000E+00 0. -1.
</event>
<event>
 7    1  0.2756432E-009  0.4778727E+02  0.7816164E-02  0.1312668E+00
        -11   -1    0    0    0    0  0.00000000000E+00  0.00000000000E+00  0.45593999997E+02  0.45594000000E+02  0.51100000000E-03 0.  1.
         11   -1    0    0    0    0 -0.00000000000E+00 -0.00000000000E+00 -0.45593999997E+02  0.45594000000E+02  0.51100000000E-03 0. -1.
    9900012    2    1    2    0    0  0.50184410128E+01 -0.41982300626E+02  0.97941332588E+01  0.47787270026E+02  0.19999995355E+02 0.  0.
        -12    1    1    2    0    0 -0.50184410128E+01  0.41982300626E+02 -0.97941332588E+01  0.43400729974E+02  0.00000000000E+00 0.  1.
         11    1    3    3    0    0  0.43008503800E+01 -0.22495226727E+02  0.12336319292E+02  0.26013790831E+02  0.51100000000E-03 0. -1.
        -11    1    3    3    0    0 -0.44408681833E+00 -0.10704573758E+02 -0.59813301602E+01  0.12270347313E+02  0.51100000000E-03 0.  1.
        -12    1    3    3    0    0  0.11616774511E+01 -0.87825001411E+01  0.34391441274E+01  0.95031318815E+01  0.00000000000E+00 0.  1.
</event>
<event>
 7    1  0.2756432E-009  0.4778727E+02  0.7816164E-02  0.1312668E+00
        -11   -1    0    0    0    0  0.00000000000E+00  0.00000000000E+00  0.45593999997E+02  0.45594000000E+02  0.51100000000E-03 0. -1.
         11   -1    0    0    0    0 -0.00000000000E+00 -0.00000000000E+00 -0.45593999997E+02  0.45594000000E+02  0.51100000000E-03 0.  1.
    9900012    2    1    2    0    0 -0.15140261899E+02  0.22150771177E+02  0.34113620005E+02  0.47787271159E+02  0.20000000523E+02 0.  0.
        -12    1    1    2    0    0  0.15140261899E+02 -0.22150771177E+02 -0.34113620005E+02  0.43400728841E+02  0.00000000000E+00 0.  1.
         11    1    3    3    0    0 -0.45273438574E+01  0.10962834098E+02  0.10950784500E+02  0.16143117892E+02  0.51100000000E-03 0. -1.
        -11    1    3    3    0    0  0.34002050670E+01  0.33353328490E+01  0.22323936978E+01  0.52601731525E+01  0.51100000000E-03 0.  1.
        -12    1    3    3    0    0 -0.14013123108E+02  0.78526042301E+01  0.20930441807E+02  0.26383980114E+02  0.00000000000E+00 0.  1.
</event>
<event>
 7    1  0.2756432E-009  0.4778727E+02  0.7816164E-02  0.1312668E+00
        -11   -1    0    0    0    0  0.00000000000E+00  0.00000000000E+00  0.45593999997E+02  0.45594000000E+02  0.51100000000E-03 0.  1.
         11   -1    0    0    0    0 -0.00000000000E+00 -0.00000000000E+00 -0.45593999997E+02  0.45594000000E+02  0.51100000000E-03 0. -1.
    9900012    2    1    2    0    0  0.34666911479E+02  0.14186570659E+02 -0.21921904173E+02  0.47787269348E+02  0.19999992265E+02 0.  0.
        -12    1    1    2    0    0 -0.34666911479E+02 -0.14186570659E+02  0.21921904173E+02  0.43400730652E+02  0.00000000000E+00 0.  1.
         11    1    3    3    0    0  0.28140136992E+02  0.85284882985E+01 -0.17823842134E+02  0.34384469914E+02  0.51100000000E-03 0. -1.
        -11    1    3    3    0    0  0.19338093422E+00 -0.21540456116E+01  0.68202324852E+00  0.22677003010E+01  0.51100000000E-03 0.  1.
         12    1    3    3    0    0  0.63333935533E+01  0.78121279721E+01 -0.47800852875E+01  0.11135099133E+02  0.00000000000E+00 0. -1.
</event>
<event>
 7    1  0.2756432E-009  0.4778726E+02  0.7816164E-02  0.1312668E+00
        -11   -1    0    0    0    0  0.00000000000E+00  0.00000000000E+00  0.45593999997E+02  0.45594000000E+02  0.51100000000E-03 0.  1.
         11   -1    0    0    0    0 -0.00000000000E+00 -0.00000000000E+00 -0.45593999997E+02  0.45594000000E+02  0.51100000000E-03 0. -1.
    9900012    2    1    2    0    0  0.15513439381E+02  0.41190128633E+01 -0.40323576485E+02  0.47787263959E+02  0.19999967695E+02 0.  0.
        -12    1    1    2    0    0 -0.15513439381E+02 -0.41190128633E+01  0.40323576485E+02  0.43400736041E+02  0.00000000000E+00 0.  1.
         11    1    3    3    0    0  0.77480913223E+01  0.10901716845E+02 -0.17051844356E+02  0.21671311578E+02  0.51100000000E-03 0.  1.
        -11    1    3    3    0    0  0.70235690782E+01 -0.65578542279E+01 -0.15038775376E+02  0.17846589023E+02  0.51100000000E-03 0. -1.
        -12    1    3    3    0    0  0.74177898037E+00 -0.22484975335E+00 -0.82329567525E+01  0.82693633585E+01  0.00000000000E+00 0.  1.
</event>
<event>
 7    1  0.2756432E-009  0.4778727E+02  0.7816164E-02  0.1312668E+00
        -11   -1    0    0    0    0  0.00000000000E+00  0.00000000000E+00  0.45593999997E+02  0.45594000000E+02  0.51100000000E-03 0. -1.
         11   -1    0    0    0    0 -0.00000000000E+00 -0.00000000000E+00 -0.45593999997E+02  0.45594000000E+02  0.51100000000E-03 0.  1.
    9900012    2    1    2    0    0 -0.14954442585E+02 -0.37429150252E+02  0.16094934840E+02  0.47787267643E+02  0.19999984491E+02 0.  0.
        -12    1    1    2    0    0  0.14954442585E+02  0.37429150252E+02 -0.16094934840E+02  0.43400732357E+02  0.00000000000E+00 0.  1.
         11    1    3    3    0    0 -0.31283942996E+01 -0.50394502126E+01  0.10681806581E+02  0.12218179138E+02  0.51100000000E-03 0. -1.
        -11    1    3    3    0    0 -0.64006388885E+01 -0.17642498050E+02 -0.51438590255E+00  0.18774730590E+02  0.51100000000E-03 0.  1.
         12    1    3    3    0    0 -0.54254093965E+01 -0.14747201990E+02  0.59275141616E+01  0.16794357915E+02  0.00000000000E+00 0. -1.
</event>
<event>
 7    1  0.2756432E-009  0.4778728E+02  0.7816164E-02  0.1312668E+00
        -11   -1    0    0    0    0  0.00000000000E+00  0.00000000000E+00  0.45593999997E+02  0.45594000000E+02  0.51100000000E-03 0. -1.
         11   -1    0    0    0    0 -0.00000000000E+00 -0.00000000000E+00 -0.45593999997E+02  0.45594000000E+02  0.51100000000E-03 0.  1.
    9900012    2    1    2    0    0 -0.33097797324E+02  0.10128682705E+02  0.26183356068E+02  0.47787279545E+02  0.20000038757E+02 0.  0.
        -12    1    1    2    0    0  0.33097797324E+02 -0.10128682705E+02 -0.26183356068E+02  0.43400720455E+02  0.00000000000E+00 0.  1.
         11    1    3    3    0    0 -0.20950473218E+02  0.16842916512E+01  0.72580903105E+01  0.22235985286E+02  0.51100000000E-03 0. -1.
        -11    1    3    3    0    0 -0.87990349417E+01  0.95025397463E+01  0.11426086598E+02  0.17270689991E+02  0.51100000000E-03 0.  1.
        -12    1    3    3    0    0 -0.33482891637E+01 -0.10581486926E+01  0.74991791594E+01  0.82806042680E+01  0.00000000000E+00 0.  1.
</event>
<event>
 7    1  0.2756432E-009  0.4778727E+02  0.7816164E-02  0.1312668E+00
        -11   -1    0    0    0    0  0.00000000000E+00  0.00000000000E+00  0.45593999997E+02  0.45594000000E+02  0.51100000000E-03 0.  1.
         11   -1    0    0    0    0 -0.00000000000E+00 -0.00000000000E+00 -0.45593999997E+02  0.45594000000E+02  0.51100000000E-03 0. -1.
    9900012    2    1    2    0    0  0.75055570322E+00 -0.21860436315E+02 -0.37485749989E+02  0.47787268877E+02  0.19999990119E+02 0.  0.
        -12    1    1    2    0    0 -0.75055570322E+00  0.21860436315E+02  0.37485749989E+02  0.43400731123E+02  0.00000000000E+00 0.  1.
         11    1    3    3    0    0  0.12953904358E+01  0.14470116830E+01  0.21701429097E+00  0.19542197051E+01  0.51100000000E-03 0. -1.
        -11    1    3    3    0    0 -0.14587540577E+01 -0.54806238746E+01 -0.21770281728E+01  0.60749200309E+01  0.51100000000E-03 0.  1.
         12    1    3    3    0    0  0.91391932504E+00 -0.17826824124E+02 -0.35525736107E+02  0.39758129141E+02  0.00000000000E+00 0. -1.
</event>
<event>
 7    1  0.2756432E-009  0.4778727E+02  0.7816164E-02  0.1312668E+00
        -11   -1    0    0    0    0  0.00000000000E+00  0.00000000000E+00  0.45593999997E+02  0.45594000000E+02  0.51100000000E-03 0.  1.
         11   -1    0    0    0    0 -0.00000000000E+00 -0.00000000000E+00 -0.45593999997E+02  0.45594000000E+02  0.51100000000E-03 0. -1.
    9900012    2    1    2    0    0  0.51525310337E+01 -0.28004350589E+02 -0.32754097180E+02  0.47787272932E+02  0.20000008606E+02 0.  0.
        -12    1    1    2    0    0 -0.51525310337E+01  0.28004350589E+02  0.32754097180E+02  0.43400727068E+02  0.00000000000E+00 0.  1.
         11    1    3    3    0    0  0.36182800368E+01 -0.18003306608E+02 -0.28827123075E+02  0.34179146044E+02  0.51100000000E-03 0. -1.
        -11    1    3    3    0    0 -0.20563634312E+01 -0.25441766327E+01  0.16144166106E+01  0.36479866437E+01  0.51100000000E-03 0.  1.
         12    1    3    3    0    0  0.35906144282E+01 -0.74568673484E+01 -0.55413907155E+01  0.99601402443E+01  0.00000000000E+00 0. -1.
</event>
<event>
 7    1  0.2756432E-009  0.4778727E+02  0.7816164E-02  0.1312668E+00
        -11   -1    0    0    0    0  0.00000000000E+00  0.00000000000E+00  0.45593999997E+02  0.45594000000E+02  0.51100000000E-03 0.  1.
         11   -1    0    0    0    0 -0.00000000000E+00 -0.00000000000E+00 -0.45593999997E+02  0.45594000000E+02  0.51100000000E-03 0. -1.
    9900012    2    1    2    0    0  0.32040935706E+02  0.88856444601E+01 -0.27893502480E+02  0.47787265917E+02  0.19999976620E+02 0.  0.
        -12    1    1    2    0    0 -0.32040935706E+02 -0.88856444601E+01  0.27893502480E+02  0.43400734083E+02  0.00000000000E+00 0.  1.
         11    1    3    3    0    0  0.18487181133E+02  0.95146488346E+01 -0.71267449057E+01  0.21979419963E+02  0.51100000000E-03 0. -1.
        -11    1    3    3    0    0  0.10251268753E+02  0.12108372424E+01 -0.19026117088E+02  0.21645964279E+02  0.51100000000E-03 0.  1.
         12    1    3    3    0    0  0.33024858207E+01 -0.18398416170E+01 -0.17406404858E+01  0.41618816745E+01  0.00000000000E+00 0. -1.
</event>
<event>
 7    1  0.2756432E-009  0.4778728E+02  0.7816164E-02  0.1312668E+00
        -11   -1    0    0    0    0  0.00000000000E+00  0.00000000000E+00  0.45593999997E+02  0.45594000000E+02  0.51100000000E-03 0.  1.
         11   -1    0    0    0    0 -0.00000000000E+00 -0.00000000000E+00 -0.45593999997E+02  0.45594000000E+02  0.51100000000E-03 0. -1.
    9900012    2    1    2    0    0  0.14864986044E+01  0.76100571186E+01 -0.42702458736E+02  0.47787278467E+02  0.20000033845E+02 0.  0.
        -12    1    1    2    0    0 -0.14864986044E+01 -0.76100571186E+01  0.42702458736E+02  0.43400721533E+02  0.00000000000E+00 0.  1.
         11    1    3    3    0    0 -0.39343347460E+00 -0.92768609806E+00 -0.14100070689E+02  0.14136031448E+02  0.51100000000E-03 0. -1.
        -11    1    3    3    0    0 -0.84073216792E+00  0.12385152397E+02 -0.24221233667E+02  0.27217034943E+02  0.51100000000E-03 0.  1.
        -12    1    3    3    0    0  0.27206642470E+01 -0.38474091804E+01 -0.43811543794E+01  0.64342120762E+01  0.00000000000E+00 0.  1.
</event>
<event>
 7    1  0.2756432E-009  0.4778727E+02  0.7816164E-02  0.1312668E+00
        -11   -1    0    0    0    0  0.00000000000E+00  0.00000000000E+00  0.45593999997E+02  0.45594000000E+02  0.51100000000E-03 0.  1.
         11   -1    0    0    0    0 -0.00000000000E+00 -0.00000000000E+00 -0.45593999997E+02  0.45594000000E+02  0.51100000000E-03 0. -1.
    9900012    2    1    2    0    0 -0.10540804045E+02  0.63286985784E-02 -0.42101245394E+02  0.47787268973E+02  0.19999990554E+02 0.  0.
        -12    1    1    2    0    0  0.10540804045E+02 -0.63286985784E-02  0.42101245394E+02  0.43400731027E+02  0.00000000000E+00 0.  1.
         11    1    3    3    0    0 -0.29726505287E+01 -0.80176833147E+01 -0.12441409772E+02  0.15096641159E+02  0.51100000000E-03 0. -1.
        -11    1    3    3    0    0 -0.11067203346E+01  0.52124583744E+01 -0.61005250909E+01  0.81000591880E+01  0.51100000000E-03 0.  1.
         12    1    3    3    0    0 -0.64614331820E+01  0.28115536389E+01 -0.23559310531E+02  0.24590568626E+02  0.00000000000E+00 0. -1.
</event>
<event>
 7    1  0.3213962E-009  0.4778727E+02  0.7816164E-02  0.1312668E+00
        -11   -1    0    0    0    0  0.00000000000E+00  0.00000000000E+00  0.45593999997E+02  0.45594000000E+02  0.51100000000E-03 0. -1.
         11   -1    0    0    0    0 -0.00000000000E+00 -0.00000000000E+00 -0.45593999997E+02  0.45594000000E+02  0.51100000000E-03 0.  1.
    9900012    2    1    2    0    0  0.27514319806E+02 -0.31117287484E+02  0.12581729442E+02  0.47787270853E+02  0.19999999126E+02 0.  0.
        -12    1    1    2    0    0 -0.27514319806E+02  0.31117287484E+02 -0.12581729442E+02  0.43400729147E+02  0.00000000000E+00 0.  1.
         11    1    3    3    0    0  0.18539710776E+02 -0.18751645317E+02  0.87495697593E+01  0.27783089263E+02  0.51100000000E-03 0. -1.
        -11    1    3    3    0    0 -0.13686209864E+01 -0.77141941463E+01  0.36951856753E+01  0.86623502681E+01  0.51100000000E-03 0.  1.
        -12    1    3    3    0    0  0.10343230016E+02 -0.46514480211E+01  0.13697400773E+00  0.11341831322E+02  0.00000000000E+00 0.  1.
</event>
<event>
 7    1  0.2756432E-009  0.4778727E+02  0.7816164E-02  0.1312668E+00
        -11   -1    0    0    0    0  0.00000000000E+00  0.00000000000E+00  0.45593999997E+02  0.45594000000E+02  0.51100000000E-03 0.  1.
         11   -1    0    0    0    0 -0.00000000000E+00 -0.00000000000E+00 -0.45593999997E+02  0.45594000000E+02  0.51100000000E-03 0. -1.
    9900012    2    1    2    0    0 -0.28345122174E+02  0.32169334249E+02 -0.67313728710E+01  0.47787269616E+02  0.19999993489E+02 0.  0.
        -12    1    1    2    0    0  0.28345122174E+02 -0.32169334249E+02  0.67313728710E+01  0.43400730384E+02  0.00000000000E+00 0.  1.
         11    1    3    3    0    0 -0.22569583680E+02  0.18640867119E+02 -0.86466994889E+01  0.30522671029E+02  0.51100000000E-03 0. -1.
        -11    1    3    3    0    0 -0.22623060676E+00  0.33877989214E+01  0.42822783296E+01  0.54650040963E+01  0.51100000000E-03 0.  1.
        -12    1    3    3    0    0 -0.55493078868E+01  0.10140668209E+02 -0.23669517117E+01  0.11799594491E+02  0.00000000000E+00 0.  1.
</event>
<event>
 7    1  0.2756432E-009  0.4778726E+02  0.7816164E-02  0.1312668E+00
        -11   -1    0    0    0    0  0.00000000000E+00  0.00000000000E+00  0.45593999997E+02  0.45594000000E+02  0.51100000000E-03 0. -1.
         11   -1    0    0    0    0 -0.00000000000E+00 -0.00000000000E+00 -0.45593999997E+02  0.45594000000E+02  0.51100000000E-03 0.  1.
    9900012    2    1    2    0    0  0.43276039204E+02 -0.12444061864E+01 -0.30430210908E+01  0.47787261604E+02  0.19999956958E+02 0.  0.
        -12    1    1    2    0    0 -0.43276039204E+02  0.12444061864E+01  0.30430210908E+01  0.43400738396E+02  0.00000000000E+00 0.  1.
         11    1    3    3    0    0  0.18162692721E+02 -0.70159154266E+01  0.50320078992E+01  0.20110384878E+02  0.51100000000E-03 0. -1.
        -11    1    3    3    0    0  0.25403960219E+02  0.54401609192E+01 -0.76967401840E+01  0.27096057930E+02  0.51100000000E-03 0.  1.
         12    1    3    3    0    0 -0.29061373640E+00  0.33134832093E+00 -0.37828880594E+00  0.58081879641E+00  0.00000000000E+00 0. -1.
</event>
<event>
 7    1  0.2756432E-009  0.4778728E+02  0.7816164E-02  0.1312668E+00
        -11   -1    0    0    0    0  0.00000000000E+00  0.00000000000E+00  0.45593999997E+02  0.45594000000E+02  0.51100000000E-03 0.  1.
         11   -1    0    0    0    0 -0.00000000000E+00 -0.00000000000E+00 -0.45593999997E+02  0.45594000000E+02  0.51100000000E-03 0. -1.
    9900012    2    1    2    0    0  0.32811666267E+02 -0.72758127482E+01 -0.27460512679E+02  0.47787278220E+02  0.20000032718E+02 0.  0.
        -12    1    1    2    0    0 -0.32811666267E+02  0.72758127482E+01  0.27460512679E+02  0.43400721780E+02  0.00000000000E+00 0.  1.
         11    1    3    3    0    0 -0.10049571377E+01  0.31958042950E+01 -0.92295456719E+00  0.34749027806E+01  0.51100000000E-03 0.  1.
        -11    1    3    3    0    0  0.23578476486E+02 -0.84013108947E+01 -0.19231489274E+02  0.31565436130E+02  0.51100000000E-03 0. -1.
        -12    1    3    3    0    0  0.10238146919E+02 -0.20703061486E+01 -0.73060688378E+01  0.12746939309E+02  0.00000000000E+00 0.  1.
</event>
<event>
 7    1  0.2756432E-009  0.4778726E+02  0.7816164E-02  0.1312668E+00
        -11   -1    0    0    0    0  0.00000000000E+00  0.00000000000E+00  0.45593999997E+02  0.45594000000E+02  0.51100000000E-03 0.  1.
         11   -1    0    0    0    0 -0.00000000000E+00 -0.00000000000E+00 -0.45593999997E+02  0.45594000000E+02  0.51100000000E-03 0. -1.
    9900012    2    1    2    0    0 -0.31931880617E+02  0.78652290121E+01 -0.28321678826E+02  0.47787259007E+02  0.19999945118E+02 0.  0.
        -12    1    1    2    0    0  0.31931880617E+02 -0.78652290121E+01  0.28321678826E+02  0.43400740993E+02  0.00000000000E+00 0.  1.
         11    1    3    3    0    0 -0.21514046554E+02  0.86893080130E+01 -0.28603001825E+02  0.36830557782E+02  0.51100000000E-03 0. -1.
        -11    1    3    3    0    0 -0.99852397085E+01 -0.39653723368E+00 -0.45279121670E+00  0.10003363133E+02  0.51100000000E-03 0.  1.
         12    1    3    3    0    0 -0.43259435504E+00 -0.42754176726E+00  0.73411421517E+00  0.95333809306E+00  0.00000000000E+00 0. -1.
</event>
<event>
 7    1  0.2756432E-009  0.4778726E+02  0.7816164E-02  0.1312668E+00
        -11   -1    0    0    0    0  0.00000000000E+00  0.00000000000E+00  0.45593999997E+02  0.45594000000E+02  0.51100000000E-03 0.  1.
         11   -1    0    0    0    0 -0.00000000000E+00 -0.00000000000E+00 -0.45593999997E+02  0.45594000000E+02  0.51100000000E-03 0. -1.
    9900012    2    1    2    0    0 -0.10142911561E+02  0.13437906242E+02 -0.40002100780E+02  0.47787262150E+02  0.19999959448E+02 0.  0.
        -12    1    1    2    0    0  0.10142911561E+02 -0.13437906242E+02  0.40002100780E+02  0.43400737850E+02  0.00000000000E+00 0.  1.
         11    1    3    3    0    0 -0.48021393676E+01  0.80572893886E+01 -0.28879139468E+01  0.98143008932E+01  0.51100000000E-03 0. -1.
        -11    1    3    3    0    0 -0.39919223083E+01  0.29702004735E+01 -0.28365422663E+02  0.28798519714E+02  0.51100000000E-03 0.  1.
         12    1    3    3    0    0 -0.13488498849E+01  0.24104163802E+01 -0.87487641697E+01  0.91744415435E+01  0.00000000000E+00 0. -1.
</event>
<event>
 7    1  0.2756432E-009  0.4778727E+02  0.7816164E-02  0.1312668E+00
        -11   -1    0    0    0    0  0.00000000000E+00  0.00000000000E+00  0.45593999997E+02  0.45594000000E+02  0.51100000000E-03 0. -1.
         11   -1    0    0    0    0 -0.00000000000E+00 -0.00000000000E+00 -0.45593999997E+02  0.45594000000E+02  0.51100000000E-03 0.  1.
    9900012    2    1    2    0    0  0.33692522877E+02 -0.13382283547E+02  0.23861092389E+02  0.47787270275E+02  0.19999996490E+02 0.  0.
        -12    1    1    2    0    0 -0.33692522877E+02  0.13382283547E+02 -0.23861092389E+02  0.43400729725E+02  0.00000000000E+00 0.  1.
         11    1    3    3    0    0  0.27372894912E+02 -0.12900017641E+02  0.13519083659E+02  0.33142894476E+02  0.51100000000E-03 0. -1.
        -11    1    3    3    0    0 -0.28998318647E+00  0.26049400892E+01  0.48506880371E+01  0.55135268033E+01  0.51100000000E-03 0.  1.
        -12    1    3    3    0    0  0.66096111508E+01 -0.30872059948E+01  0.54913206927E+01  0.91308489950E+01  0.00000000000E+00 0.  1.
</event>
<event>
 7    1  0.2756432E-009  0.4778727E+02  0.7816164E-02  0.1312668E+00
        -11   -1    0    0    0    0  0.00000000000E+00  0.00000000000E+00  0.45593999997E+02  0.45594000000E+02  0.51100000000E-03 0.  1.
         11   -1    0    0    0    0 -0.00000000000E+00 -0.00000000000E+00 -0.45593999997E+02  0.45594000000E+02  0.51100000000E-03 0. -1.
    9900012    2    1    2    0    0  0.13269097490E+02 -0.24323402339E+02 -0.33405483061E+02  0.47787272494E+02  0.20000006609E+02 0.  0.
        -12    1    1    2    0    0 -0.13269097490E+02  0.24323402339E+02  0.33405483061E+02  0.43400727506E+02  0.00000000000E+00 0.  1.
         11    1    3    3    0    0  0.37491491575E+01 -0.11645293887E+02 -0.17688250418E+02  0.21506817343E+02  0.51100000000E-03 0. -1.
        -11    1    3    3    0    0  0.77449398764E+00 -0.63900821539E+01 -0.13952192453E+02  0.15365437364E+02  0.51100000000E-03 0.  1.
         12    1    3    3    0    0  0.87454543445E+01 -0.62880262981E+01 -0.17650401893E+01  0.10915017787E+02  0.00000000000E+00 0. -1.
</event>
<event>
 7    1  0.2756432E-009  0.4778727E+02  0.7816164E-02  0.1312668E+00
        -11   -1    0    0    0    0  0.00000000000E+00  0.00000000000E+00  0.45593999997E+02  0.45594000000E+02  0.51100000000E-03 0. -1.
         11   -1    0    0    0    0 -0.00000000000E+00 -0.00000000000E+00 -0.45593999997E+02  0.45594000000E+02  0.51100000000E-03 0.  1.
    9900012    2    1    2    0    0 -0.85599930555E+00  0.23873796922E+02  0.36234405759E+02  0.47787273335E+02  0.20000010445E+02 0.  0.
        -12    1    1    2    0    0  0.85599930555E+00 -0.23873796922E+02 -0.36234405759E+02  0.43400726665E+02  0.00000000000E+00 0.  1.
         11    1    3    3    0    0 -0.68792558544E+01  0.14210598971E+02  0.22471007889E+02  0.27462910990E+02  0.51100000000E-03 0. -1.
        -11    1    3    3    0    0  0.87082247314E+01  0.77376209721E+01  0.10845053821E+02  0.15916002919E+02  0.51100000000E-03 0.  1.
        -12    1    3    3    0    0 -0.26849681825E+01  0.19255769792E+01  0.29183440495E+01  0.44083594267E+01  0.00000000000E+00 0.  1.
</event>
<event>
 7    1  0.2756432E-009  0.4778726E+02  0.7816164E-02  0.1312668E+00
        -11   -1    0    0    0    0  0.00000000000E+00  0.00000000000E+00  0.45593999997E+02  0.45594000000E+02  0.51100000000E-03 0.  1.
         11   -1    0    0    0    0 -0.00000000000E+00 -0.00000000000E+00 -0.45593999997E+02  0.45594000000E+02  0.51100000000E-03 0. -1.
    9900012    2    1    2    0    0  0.30083094143E+02  0.28219046174E+02 -0.13502473648E+02  0.47787263660E+02  0.19999966333E+02 0.  0.
        -12    1    1    2    0    0 -0.30083094143E+02 -0.28219046174E+02  0.13502473648E+02  0.43400736340E+02  0.00000000000E+00 0.  1.
         11    1    3    3    0    0  0.10265294435E+02  0.55489630781E+00 -0.40715678792E+01  0.11057207831E+02  0.51100000000E-03 0. -1.
        -11    1    3    3    0    0  0.90270293405E+01  0.17418066016E+02 -0.10372514216E+01  0.19645665508E+02  0.51100000000E-03 0.  1.
         12    1    3    3    0    0  0.10790770367E+02  0.10246083850E+02 -0.83936543473E+01  0.17084390322E+02  0.00000000000E+00 0. -1.
</event>
<event>
 7    1  0.2756432E-009  0.4778727E+02  0.7816164E-02  0.1312668E+00
        -11   -1    0    0    0    0  0.00000000000E+00  0.00000000000E+00  0.45593999997E+02  0.45594000000E+02  0.51100000000E-03 0.  1.
         11   -1    0    0    0    0 -0.00000000000E+00 -0.00000000000E+00 -0.45593999997E+02  0.45594000000E+02  0.51100000000E-03 0. -1.
    9900012    2    1    2    0    0 -0.34408910046E+02  0.26450704718E+02 -0.10182018225E+00  0.47787271458E+02  0.20000001887E+02 0.  0.
        -12    1    1    2    0    0  0.34408910046E+02 -0.26450704718E+02  0.10182018225E+00  0.43400728542E+02  0.00000000000E+00 0.  1.
         11    1    3    3    0    0 -0.28723847096E+02  0.23366850717E+02 -0.76227341824E+00  0.37035795731E+02  0.51100000000E-03 0. -1.
        -11    1    3    3    0    0 -0.17156360778E+01 -0.21505107593E+01  0.27182995486E+01  0.38674612312E+01  0.51100000000E-03 0.  1.
         12    1    3    3    0    0 -0.39694268718E+01  0.52343647602E+01 -0.20578463126E+01  0.68840144959E+01  0.00000000000E+00 0. -1.
</event>
<event>
 7    1  0.2756432E-009  0.4778727E+02  0.7816164E-02  0.1312668E+00
        -11   -1    0    0    0    0  0.00000000000E+00  0.00000000000E+00  0.45593999997E+02  0.45594000000E+02  0.51100000000E-03 0. -1.
         11   -1    0    0    0    0 -0.00000000000E+00 -0.00000000000E+00 -0.45593999997E+02  0.45594000000E+02  0.51100000000E-03 0.  1.
    9900012    2    1    2    0    0  0.95736056988E+01  0.25210868445E+02  0.34005608918E+02  0.47787271300E+02  0.20000001166E+02 0.  0.
        -12    1    1    2    0    0 -0.95736056988E+01 -0.25210868445E+02 -0.34005608918E+02  0.43400728700E+02  0.00000000000E+00 0.  1.
         11    1    3    3    0    0 -0.77132842109E+00  0.14393222912E+02  0.19064475028E+02  0.23900084136E+02  0.51100000000E-03 0. -1.
        -11    1    3    3    0    0  0.25817425809E+01 -0.22558357357E+01  0.29538692410E+01  0.45254318440E+01  0.51100000000E-03 0.  1.
         12    1    3    3    0    0  0.77631915390E+01  0.13073481268E+02  0.11987264649E+02  0.19361755321E+02  0.00000000000E+00 0. -1.
</event>
<event>
 7    1  0.2756432E-009  0.4778726E+02  0.7816164E-02  0.1312668E+00
        -11   -1    0    0    0    0  0.00000000000E+00  0.00000000000E+00  0.45593999997E+02  0.45594000000E+02  0.51100000000E-03 0. -1.
         11   -1    0    0    0    0 -0.00000000000E+00 -0.00000000000E+00 -0.45593999997E+02  0.45594000000E+02  0.51100000000E-03 0.  1.
    9900012    2    1    2    0    0 -0.36178029549E+02  0.18515800323E+02  0.15229550993E+02  0.47787263749E+02  0.19999966739E+02 0.  0.
        -12    1    1    2    0    0  0.36178029549E+02 -0.18515800323E+02 -0.15229550993E+02  0.43400736251E+02  0.00000000000E+00 0.  1.
         11    1    3    3    0    0 -0.33356959411E+02  0.15497556110E+02  0.13583735828E+02  0.39209423176E+02  0.51100000000E-03 0. -1.
        -11    1    3    3    0    0 -0.92829946384E+00  0.11044579186E+01  0.44576617321E+01  0.46853298248E+01  0.51100000000E-03 0.  1.
         12    1    3    3    0    0 -0.18927706743E+01  0.19137862947E+01 -0.28118465674E+01  0.38925107483E+01  0.00000000000E+00 0. -1.
</event>
<event>
 7    1  0.2756432E-009  0.4778729E+02  0.7816164E-02  0.1312668E+00
        -11   -1    0    0    0    0  0.00000000000E+00  0.00000000000E+00  0.45593999997E+02  0.45594000000E+02  0.51100000000E-03 0. -1.
         11   -1    0    0    0    0 -0.00000000000E+00 -0.00000000000E+00 -0.45593999997E+02  0.45594000000E+02  0.51100000000E-03 0.  1.
    9900012    2    1    2    0    0  0.13745828603E+02  0.32506225054E+02  0.25259049300E+02  0.47787285227E+02  0.20000064663E+02 0.  0.
        -12    1    1    2    0    0 -0.13745828603E+02 -0.32506225054E+02 -0.25259049300E+02  0.43400714773E+02  0.00000000000E+00 0.  1.
         11    1    3    3    0    0  0.32961854252E+01  0.14724426691E+02  0.10059997801E+02  0.18134969968E+02  0.51100000000E-03 0. -1.
        -11    1    3    3    0    0  0.38283885169E+01  0.14900389863E+02  0.33011019493E+01  0.15734530531E+02  0.51100000000E-03 0.  1.
        -12    1    3    3    0    0  0.66212546606E+01  0.28814085013E+01  0.11897949550E+02  0.13917784728E+02  0.00000000000E+00 0.  1.
</event>
<event>
 7    1  0.2756432E-009  0.4778727E+02  0.7816164E-02  0.1312668E+00
        -11   -1    0    0    0    0  0.00000000000E+00  0.00000000000E+00  0.45593999997E+02  0.45594000000E+02  0.51100000000E-03 0.  1.
         11   -1    0    0    0    0 -0.00000000000E+00 -0.00000000000E+00 -0.45593999997E+02  0.45594000000E+02  0.51100000000E-03 0. -1.
    9900012    2    1    2    0    0 -0.23510895328E+02  0.71225991411E+01 -0.35778899382E+02  0.47787271220E+02  0.20000000799E+02 0.  0.
        -12    1    1    2    0    0  0.23510895328E+02 -0.71225991411E+01  0.35778899382E+02  0.43400728780E+02  0.00000000000E+00 0.  1.
         11    1    3    3    0    0 -0.87952612991E+01 -0.28735522660E+01 -0.31962711270E+01  0.97892835960E+01  0.51100000000E-03 0.  1.
        -11    1    3    3    0    0 -0.15513464802E+02  0.92713267507E+01 -0.28274083300E+02  0.33556651749E+02  0.51100000000E-03 0. -1.
        -12    1    3    3    0    0  0.79783077233E+00  0.72482465638E+00 -0.43085449552E+01  0.44413358750E+01  0.00000000000E+00 0.  1.
</event>
<event>
 7    1  0.2756432E-009  0.4778727E+02  0.7816164E-02  0.1312668E+00
        -11   -1    0    0    0    0  0.00000000000E+00  0.00000000000E+00  0.45593999997E+02  0.45594000000E+02  0.51100000000E-03 0.  1.
         11   -1    0    0    0    0 -0.00000000000E+00 -0.00000000000E+00 -0.45593999997E+02  0.45594000000E+02  0.51100000000E-03 0. -1.
    9900012    2    1    2    0    0 -0.16089838288E+02 -0.20904314534E+02 -0.34463755861E+02  0.47787265786E+02  0.19999976024E+02 0.  0.
        -12    1    1    2    0    0  0.16089838288E+02  0.20904314534E+02  0.34463755861E+02  0.43400734214E+02  0.00000000000E+00 0.  1.
         11    1    3    3    0    0 -0.43772531605E-01 -0.90794847169E+00 -0.13518797605E+02  0.13549323799E+02  0.51100000000E-03 0. -1.
        -11    1    3    3    0    0 -0.46297593433E+01 -0.22613312553E+01 -0.10806557637E+01  0.52646089849E+01  0.51100000000E-03 0.  1.
         12    1    3    3    0    0 -0.11416306413E+02 -0.17735034807E+02 -0.19864302492E+02  0.28973333002E+02  0.00000000000E+00 0. -1.
</event>
<event>
 7    1  0.2756432E-009  0.4778727E+02  0.7816164E-02  0.1312668E+00
        -11   -1    0    0    0    0  0.00000000000E+00  0.00000000000E+00  0.45593999997E+02  0.45594000000E+02  0.51100000000E-03 0.  1.
         11   -1    0    0    0    0 -0.00000000000E+00 -0.00000000000E+00 -0.45593999997E+02  0.45594000000E+02  0.51100000000E-03 0. -1.
    9900012    2    1    2    0    0 -0.28125463742E+02  0.32073267434E+02 -0.79929360153E+01  0.47787271657E+02  0.20000002791E+02 0.  0.
        -12    1    1    2    0    0  0.28125463742E+02 -0.32073267434E+02  0.79929360153E+01  0.43400728343E+02  0.00000000000E+00 0.  1.
         11    1    3    3    0    0 -0.92004558940E+01  0.77211446898E+01 -0.36665465745E+01  0.12558185698E+02  0.51100000000E-03 0. -1.
        -11    1    3    3    0    0 -0.17760633859E+02  0.26798072226E+02 -0.47122075627E+01  0.32492794439E+02  0.51100000000E-03 0.  1.
        -12    1    3    3    0    0 -0.11643739895E+01 -0.24459494822E+01  0.38581812191E+00  0.27362915196E+01  0.00000000000E+00 0.  1.
</event>
<event>
 7    1  0.2756432E-009  0.4778728E+02  0.7816164E-02  0.1312668E+00
        -11   -1    0    0    0    0  0.00000000000E+00  0.00000000000E+00  0.45593999997E+02  0.45594000000E+02  0.51100000000E-03 0.  1.
         11   -1    0    0    0    0 -0.00000000000E+00 -0.00000000000E+00 -0.45593999997E+02  0.45594000000E+02  0.51100000000E-03 0. -1.
    9900012    2    1    2    0    0  0.14042194006E+02  0.71289557050E+01 -0.40442769599E+02  0.47787276103E+02  0.20000023063E+02 0.  0.
        -12    1    1    2    0    0 -0.14042194006E+02 -0.71289557050E+01  0.40442769599E+02  0.43400723897E+02  0.00000000000E+00 0.  1.
         11    1    3    3    0    0 -0.89695407239E+00  0.55638454210E+01 -0.54739610421E+01  0.78565356378E+01  0.51100000000E-03 0. -1.
        -11    1    3    3    0    0  0.82943847177E+01 -0.47887646500E+01 -0.13276064824E+02  0.16370185771E+02  0.51100000000E-03 0.  1.
         12    1    3    3    0    0  0.66447633611E+01  0.63538749340E+01 -0.21692743733E+02  0.23560554694E+02  0.00000000000E+00 0. -1.
</event>
<event>
 7    1  0.2756432E-009  0.4778727E+02  0.7816164E-02  0.1312668E+00
        -11   -1    0    0    0    0  0.00000000000E+00  0.00000000000E+00  0.45593999997E+02  0.45594000000E+02  0.51100000000E-03 0. -1.
         11   -1    0    0    0    0 -0.00000000000E+00 -0.00000000000E+00 -0.45593999997E+02  0.45594000000E+02  0.51100000000E-03 0.  1.
    9900012    2    1    2    0    0  0.83006159264E+01 -0.42592114500E+02  0.79680280817E+00  0.47787270316E+02  0.19999996680E+02 0.  0.
        -12    1    1    2    0    0 -0.83006159264E+01  0.42592114500E+02 -0.79680280817E+00  0.43400729684E+02  0.00000000000E+00 0.  1.
         11    1    3    3    0    0  0.10363815277E+02 -0.24851659482E+02  0.60638780525E+01  0.27600439551E+02  0.51100000000E-03 0. -1.
        -11    1    3    3    0    0 -0.45052970634E+01 -0.10128779292E+02 -0.10136219273E+01  0.11131814823E+02  0.51100000000E-03 0.  1.
         12    1    3    3    0    0  0.24420977133E+01 -0.76116757264E+01 -0.42534533171E+01  0.90550159429E+01  0.00000000000E+00 0. -1.
</event>
<event>
 7    1  0.2756432E-009  0.4778728E+02  0.7816164E-02  0.1312668E+00
        -11   -1    0    0    0    0  0.00000000000E+00  0.00000000000E+00  0.45593999997E+02  0.45594000000E+02  0.51100000000E-03 0.  1.
         11   -1    0    0    0    0 -0.00000000000E+00 -0.00000000000E+00 -0.45593999997E+02  0.45594000000E+02  0.51100000000E-03 0. -1.
    9900012    2    1    2    0    0  0.34260984286E+02  0.23452995827E+02 -0.12639797027E+02  0.47787279656E+02  0.20000039263E+02 0.  0.
        -12    1    1    2    0    0 -0.34260984286E+02 -0.23452995827E+02  0.12639797027E+02  0.43400720344E+02  0.00000000000E+00 0.  1.
         11    1    3    3    0    0  0.25033679940E+02  0.22124167569E+02 -0.59308961324E+01  0.33931393298E+02  0.51100000000E-03 0. -1.
        -11    1    3    3    0    0  0.50849663135E+01 -0.77321913669E+00 -0.75496930465E+01  0.91352403143E+01  0.51100000000E-03 0.  1.
        -12    1    3    3    0    0  0.41423380320E+01  0.21020473949E+01  0.84079215223E+00  0.47206460432E+01  0.00000000000E+00 0.  1.
</event>
<event>
 7    1  0.2756432E-009  0.4778727E+02  0.7816164E-02  0.1312668E+00
        -11   -1    0    0    0    0  0.00000000000E+00  0.00000000000E+00  0.45593999997E+02  0.45594000000E+02  0.51100000000E-03 0.  1.
         11   -1    0    0    0    0 -0.00000000000E+00 -0.00000000000E+00 -0.45593999997E+02  0.45594000000E+02  0.51100000000E-03 0. -1.
    9900012    2    1    2    0    0  0.59202242734E+01 -0.89612878238E+01 -0.42050796831E+02  0.47787271331E+02  0.20000001305E+02 0.  0.
        -12    1    1    2    0    0 -0.59202242734E+01  0.89612878238E+01  0.42050796831E+02  0.43400728669E+02  0.00000000000E+00 0.  1.
         11    1    3    3    0    0  0.61666388384E+01  0.27588125025E+01 -0.16299338869E+02  0.17643892111E+02  0.51100000000E-03 0. -1.
        -11    1    3    3    0    0  0.60210094745E+00 -0.12473058778E+02 -0.15855360054E+02  0.20182471690E+02  0.51100000000E-03 0.  1.
         12    1    3    3    0    0 -0.84851551250E+00  0.75295845158E+00 -0.98960979083E+01  0.99609075297E+01  0.00000000000E+00 0. -1.
</event>
<event>
 7    1  0.2756432E-009  0.4778727E+02  0.7816164E-02  0.1312668E+00
        -11   -1    0    0    0    0  0.00000000000E+00  0.00000000000E+00  0.45593999997E+02  0.45594000000E+02  0.51100000000E-03 0.  1.
         11   -1    0    0    0    0 -0.00000000000E+00 -0.00000000000E+00 -0.45593999997E+02  0.45594000000E+02  0.51100000000E-03 0. -1.
    9900012    2    1    2    0    0 -0.41180393717E+02  0.13263684655E+02 -0.34457382454E+01  0.47787271097E+02  0.20000000238E+02 0.  0.
        -12    1    1    2    0    0  0.41180393717E+02 -0.13263684655E+02  0.34457382454E+01  0.43400728903E+02  0.00000000000E+00 0.  1.
         11    1    3    3    0    0 -0.24056251442E+02 -0.14386624619E+01  0.24325395401E+01  0.24221689288E+02  0.51100000000E-03 0. -1.
        -11    1    3    3    0    0 -0.15410771976E+02  0.12792497669E+02 -0.62317715206E+01  0.20975577848E+02  0.51100000000E-03 0.  1.
         12    1    3    3    0    0 -0.17133702989E+01  0.19098494479E+01  0.35349373514E+00  0.25900039605E+01  0.00000000000E+00 0. -1.
</event>
<event>
 7    1  0.2756432E-009  0.4778727E+02  0.7816164E-02  0.1312668E+00
        -11   -1    0    0    0    0  0.00000000000E+00  0.00000000000E+00  0.45593999997E+02  0.45594000000E+02  0.51100000000E-03 0.  1.
         11   -1    0    0    0    0 -0.00000000000E+00 -0.00000000000E+00 -0.45593999997E+02  0.45594000000E+02  0.51100000000E-03 0. -1.
    9900012    2    1    2    0    0 -0.55431304648E+01 -0.42772139767E+02  0.48415738304E+01  0.47787273361E+02  0.20000010563E+02 0.  0.
        -12    1    1    2    0    0  0.55431304648E+01  0.42772139767E+02 -0.48415738304E+01  0.43400726639E+02  0.00000000000E+00 0.  1.
         11    1    3    3    0    0 -0.10570040038E+02 -0.27645032027E+02  0.14553959332E+01  0.29632612436E+02  0.51100000000E-03 0. -1.
        -11    1    3    3    0    0  0.52175390546E+01 -0.15640996794E+02  0.43441622208E+01  0.17050960095E+02  0.51100000000E-03 0.  1.
        -12    1    3    3    0    0 -0.19062948097E+00  0.51388905382E+00 -0.95798432366E+00  0.11037008304E+01  0.00000000000E+00 0.  1.
</event>
<event>
 7    1  0.2756432E-009  0.4778727E+02  0.7816164E-02  0.1312668E+00
        -11   -1    0    0    0    0  0.00000000000E+00  0.00000000000E+00  0.45593999997E+02  0.45594000000E+02  0.51100000000E-03 0.  1.
         11   -1    0    0    0    0 -0.00000000000E+00 -0.00000000000E+00 -0.45593999997E+02  0.45594000000E+02  0.51100000000E-03 0. -1.
    9900012    2    1    2    0    0 -0.21875360178E+02  0.26086763866E+02 -0.26917882476E+02  0.47787273866E+02  0.20000012865E+02 0.  0.
        -12    1    1    2    0    0  0.21875360178E+02 -0.26086763866E+02  0.26917882476E+02  0.43400726134E+02  0.00000000000E+00 0.  1.
         11    1    3    3    0    0 -0.12747481200E+02  0.18610300832E+02 -0.58283937382E+01  0.23298320709E+02  0.51100000000E-03 0. -1.
        -11    1    3    3    0    0 -0.76939461091E+01  0.72215158446E+01 -0.20178714142E+02  0.22771201166E+02  0.51100000000E-03 0.  1.
         12    1    3    3    0    0 -0.14339328685E+01  0.25494718943E+00 -0.91077459574E+00  0.17177519917E+01  0.00000000000E+00 0. -1.
</event>
<event>
 7    1  0.2756432E-009  0.4778727E+02  0.7816164E-02  0.1312668E+00
        -11   -1    0    0    0    0  0.00000000000E+00  0.00000000000E+00  0.45593999997E+02  0.45594000000E+02  0.51100000000E-03 0. -1.
         11   -1    0    0    0    0 -0.00000000000E+00 -0.00000000000E+00 -0.45593999997E+02  0.45594000000E+02  0.51100000000E-03 0.  1.
    9900012    2    1    2    0    0  0.19293737697E+02  0.36133564052E+02  0.14343668576E+02  0.47787267361E+02  0.19999983205E+02 0.  0.
        -12    1    1    2    0    0 -0.19293737697E+02 -0.36133564052E+02 -0.14343668576E+02  0.43400732639E+02  0.00000000000E+00 0.  1.
         11    1    3    3    0    0  0.17309197209E+02  0.20269061052E+02  0.14408373255E+02  0.30299246922E+02  0.51100000000E-03 0. -1.
        -11    1    3    3    0    0  0.33960940126E+01  0.82111707293E+01 -0.26747269772E+01  0.92795982645E+01  0.51100000000E-03 0.  1.
         12    1    3    3    0    0 -0.14115535242E+01  0.76533322702E+01  0.26100222979E+01  0.82084221739E+01  0.00000000000E+00 0. -1.
</event>
<event>
 7    1  0.2756432E-009  0.4778727E+02  0.7816164E-02  0.1312668E+00
        -11   -1    0    0    0    0  0.00000000000E+00  0.00000000000E+00  0.45593999997E+02  0.45594000000E+02  0.51100000000E-03 0.  1.
         11   -1    0    0    0    0 -0.00000000000E+00 -0.00000000000E+00 -0.45593999997E+02  0.45594000000E+02  0.51100000000E-03 0. -1.
    9900012    2    1    2    0    0  0.22105131917E+02  0.30544562668E+02 -0.21494554430E+02  0.47787273787E+02  0.20000012505E+02 0.  0.
        -12    1    1    2    0    0 -0.22105131917E+02 -0.30544562668E+02  0.21494554430E+02  0.43400726213E+02  0.00000000000E+00 0.  1.
         11    1    3    3    0    0  0.15086565424E+02  0.78197878500E+01 -0.71843350765E+01  0.18449070683E+02  0.51100000000E-03 0. -1.
        -11    1    3    3    0    0  0.54252632324E+01  0.16395050133E+02 -0.14867096253E+02  0.22787314482E+02  0.51100000000E-03 0.  1.
        -12    1    3    3    0    0  0.15933032611E+01  0.63297246848E+01  0.55687690001E+00  0.65508886229E+01  0.00000000000E+00 0.  1.
</event>
<event>
 7    1  0.2756432E-009  0.4778727E+02  0.7816164E-02  0.1312668E+00
        -11   -1    0    0    0    0  0.00000000000E+00  0.00000000000E+00  0.45593999997E+02  0.45594000000E+02  0.51100000000E-03 0.  1.
         11   -1    0    0    0    0 -0.00000000000E+00 -0.00000000000E+00 -0.45593999997E+02  0.45594000000E+02  0.51100000000E-03 0. -1.
    9900012    2    1    2    0    0  0.14618439716E+02 -0.23808476787E+02 -0.33212658418E+02  0.47787273902E+02  0.20000013030E+02 0.  0.
        -12    1    1    2    0    0 -0.14618439716E+02  0.23808476787E+02  0.33212658418E+02  0.43400726098E+02  0.00000000000E+00 0.  1.
         11    1    3    3    0    0  0.86550579581E+01 -0.37744451283E+01 -0.19451809212E+02  0.21622426926E+02  0.51100000000E-03 0. -1.
        -11    1    3    3    0    0  0.77276433850E+01 -0.16973364356E+02 -0.10770273800E+02  0.21536257052E+02  0.51100000000E-03 0.  1.
         12    1    3    3    0    0 -0.17642616272E+01 -0.30606673026E+01 -0.29905754062E+01  0.46285899242E+01  0.00000000000E+00 0. -1.
</event>
<event>
 7    1  0.2756432E-009  0.4778727E+02  0.7816164E-02  0.1312668E+00
        -11   -1    0    0    0    0  0.00000000000E+00  0.00000000000E+00  0.45593999997E+02  0.45594000000E+02  0.51100000000E-03 0.  1.
         11   -1    0    0    0    0 -0.00000000000E+00 -0.00000000000E+00 -0.45593999997E+02  0.45594000000E+02  0.51100000000E-03 0. -1.
    9900012    2    1    2    0    0  0.27699550948E+02  0.41290243706E+01 -0.33155829404E+02  0.47787274333E+02  0.20000014993E+02 0.  0.
        -12    1    1    2    0    0 -0.27699550948E+02 -0.41290243706E+01  0.33155829404E+02  0.43400725667E+02  0.00000000000E+00 0.  1.
         11    1    3    3    0    0  0.12946836501E+02  0.15944058763E+01 -0.29751757236E+01  0.13379625418E+02  0.51100000000E-03 0. -1.
        -11    1    3    3    0    0  0.12053268741E+02  0.18624452848E+01 -0.28853735064E+02  0.31325517030E+02  0.51100000000E-03 0.  1.
        -12    1    3    3    0    0  0.26994457050E+01  0.67217320951E+00 -0.13269186163E+01  0.30821318843E+01  0.00000000000E+00 0.  1.
</event>
<event>
 7    1  0.2756432E-009  0.4778727E+02  0.7816164E-02  0.1312668E+00
        -11   -1    0    0    0    0  0.00000000000E+00  0.00000000000E+00  0.45593999997E+02  0.45594000000E+02  0.51100000000E-03 0. -1.
         11   -1    0    0    0    0 -0.00000000000E+00 -0.00000000000E+00 -0.45593999997E+02  0.45594000000E+02  0.51100000000E-03 0.  1.
    9900012    2    1    2    0    0 -0.13977469848E+02  0.40801371605E+02 -0.48478802358E+01  0.47787268082E+02  0.19999986494E+02 0.  0.
        -12    1    1    2    0    0  0.13977469848E+02 -0.40801371605E+02  0.48478802358E+01  0.43400731918E+02  0.00000000000E+00 0.  1.
         11    1    3    3    0    0 -0.86965656792E+01  0.10456480460E+02  0.86077409497E+00  0.13627515200E+02  0.51100000000E-03 0. -1.
        -11    1    3    3    0    0  0.17877219073E+01  0.20932728009E+02 -0.73870419039E+01  0.22269787603E+02  0.51100000000E-03 0.  1.
        -12    1    3    3    0    0 -0.70686260760E+01  0.94121631354E+01  0.16783875732E+01  0.11889965279E+02  0.00000000000E+00 0.  1.
</event>
<event>
 7    1  0.2756432E-009  0.4778727E+02  0.7816164E-02  0.1312668E+00
        -11   -1    0    0    0    0  0.00000000000E+00  0.00000000000E+00  0.45593999997E+02  0.45594000000E+02  0.51100000000E-03 0.  1.
         11   -1    0    0    0    0 -0.00000000000E+00 -0.00000000000E+00 -0.45593999997E+02  0.45594000000E+02  0.51100000000E-03 0. -1.
    9900012    2    1    2    0    0  0.28666616926E+02  0.85973273967E+01  0.31431429748E+02  0.47787265671E+02  0.19999975499E+02 0.  0.
        -12    1    1    2    0    0 -0.28666616926E+02 -0.85973273967E+01 -0.31431429748E+02  0.43400734329E+02  0.00000000000E+00 0.  1.
         11    1    3    3    0    0  0.37318923600E+01  0.52965784361E+01  0.11158574014E+02  0.12903276251E+02  0.51100000000E-03 0. -1.
        -11    1    3    3    0    0  0.13244537258E+02  0.65631151609E+01  0.55158168742E+01  0.15777087305E+02  0.51100000000E-03 0.  1.
        -12    1    3    3    0    0  0.11690187308E+02 -0.32623662003E+01  0.14757038860E+02  0.19106902115E+02  0.00000000000E+00 0.  1.
</event>
<event>
 7    1  0.2756432E-009  0.4778727E+02  0.7816164E-02  0.1312668E+00
        -11   -1    0    0    0    0  0.00000000000E+00  0.00000000000E+00  0.45593999997E+02  0.45594000000E+02  0.51100000000E-03 0.  1.
         11   -1    0    0    0    0 -0.00000000000E+00 -0.00000000000E+00 -0.45593999997E+02  0.45594000000E+02  0.51100000000E-03 0. -1.
    9900012    2    1    2    0    0  0.38517716778E+02 -0.13913119009E+02 -0.14367811066E+02  0.47787269808E+02  0.19999994363E+02 0.  0.
        -12    1    1    2    0    0 -0.38517716778E+02  0.13913119009E+02  0.14367811066E+02  0.43400730192E+02  0.00000000000E+00 0.  1.
         11    1    3    3    0    0  0.23484509869E+02  0.21064843497E+00 -0.12583690995E+02  0.26644246206E+02  0.51100000000E-03 0. -1.
        -11    1    3    3    0    0  0.86776090136E+01 -0.72638865767E+01 -0.30136675460E+01  0.11710983679E+02  0.51100000000E-03 0.  1.
         12    1    3    3    0    0  0.63555978955E+01 -0.68598808669E+01  0.12295474750E+01  0.94320399231E+01  0.00000000000E+00 0. -1.
</event>
<event>
 7    1  0.2756432E-009  0.4778728E+02  0.7816164E-02  0.1312668E+00
        -11   -1    0    0    0    0  0.00000000000E+00  0.00000000000E+00  0.45593999997E+02  0.45594000000E+02  0.51100000000E-03 0.  1.
         11   -1    0    0    0    0 -0.00000000000E+00 -0.00000000000E+00 -0.45593999997E+02  0.45594000000E+02  0.51100000000E-03 0. -1.
    9900012    2    1    2    0    0  0.22422953323E+02 -0.21210595675E+02 -0.30511382181E+02  0.47787278264E+02  0.20000032916E+02 0.  0.
        -12    1    1    2    0    0 -0.22422953323E+02  0.21210595675E+02  0.30511382181E+02  0.43400721736E+02  0.00000000000E+00 0.  1.
         11    1    3    3    0    0  0.20623546032E+02 -0.23279443388E+02 -0.22140845812E+02  0.38176958875E+02  0.51100000000E-03 0. -1.
        -11    1    3    3    0    0  0.28547644435E+01  0.13624298404E+01 -0.72756778306E+01  0.79335605659E+01  0.51100000000E-03 0.  1.
         12    1    3    3    0    0 -0.10553571525E+01  0.70641787298E+00 -0.10948585383E+01  0.16767588227E+01  0.00000000000E+00 0. -1.
</event>
<event>
 7    1  0.2756432E-009  0.4778727E+02  0.7816164E-02  0.1312668E+00
        -11   -1    0    0    0    0  0.00000000000E+00  0.00000000000E+00  0.45593999997E+02  0.45594000000E+02  0.51100000000E-03 0.  1.
         11   -1    0    0    0    0 -0.00000000000E+00 -0.00000000000E+00 -0.45593999997E+02  0.45594000000E+02  0.51100000000E-03 0. -1.
    9900012    2    1    2    0    0  0.36085629010E+02 -0.11575307150E+02 -0.21153316524E+02  0.47787272395E+02  0.20000006158E+02 0.  0.
        -12    1    1    2    0    0 -0.36085629010E+02  0.11575307150E+02  0.21153316524E+02  0.43400727605E+02  0.00000000000E+00 0.  1.
         11    1    3    3    0    0  0.25140735390E+02 -0.13282197680E+01 -0.82229069315E+01  0.26484654847E+02  0.51100000000E-03 0. -1.
        -11    1    3    3    0    0  0.99061797875E+01 -0.79614363526E+01 -0.13689877432E+02  0.18679657683E+02  0.51100000000E-03 0.  1.
         12    1    3    3    0    0  0.10387138329E+01 -0.22856510289E+01  0.75946784000E+00  0.26229598649E+01  0.00000000000E+00 0. -1.
</event>
<event>
 7    1  0.2756432E-009  0.4778727E+02  0.7816164E-02  0.1312668E+00
        -11   -1    0    0    0    0  0.00000000000E+00  0.00000000000E+00  0.45593999997E+02  0.45594000000E+02  0.51100000000E-03 0. -1.
         11   -1    0    0    0    0 -0.00000000000E+00 -0.00000000000E+00 -0.45593999997E+02  0.45594000000E+02  0.51100000000E-03 0.  1.
    9900012    2    1    2    0    0  0.15251728851E+02 -0.38785639886E+02  0.12111250862E+02  0.47787268534E+02  0.19999988554E+02 0.  0.
        -12    1    1    2    0    0 -0.15251728851E+02  0.38785639886E+02 -0.12111250862E+02  0.43400731466E+02  0.00000000000E+00 0.  1.
         11    1    3    3    0    0  0.74881734604E+01 -0.62093210542E+01  0.91183942882E+01  0.13333173830E+02  0.51100000000E-03 0. -1.
        -11    1    3    3    0    0  0.13716225398E+01 -0.19035833781E+02 -0.44809911127E+00  0.19090445496E+02  0.51100000000E-03 0.  1.
         12    1    3    3    0    0  0.63919328504E+01 -0.13540485051E+02  0.34409556855E+01  0.15363649209E+02  0.00000000000E+00 0. -1.
</event>
<event>
 7    1  0.2756432E-009  0.4778727E+02  0.7816164E-02  0.1312668E+00
        -11   -1    0    0    0    0  0.00000000000E+00  0.00000000000E+00  0.45593999997E+02  0.45594000000E+02  0.51100000000E-03 0.  1.
         11   -1    0    0    0    0 -0.00000000000E+00 -0.00000000000E+00 -0.45593999997E+02  0.45594000000E+02  0.51100000000E-03 0. -1.
    9900012    2    1    2    0    0  0.18645447954E+02  0.38033398923E+02  0.94567984977E+01  0.47787271886E+02  0.20000003835E+02 0.  0.
        -12    1    1    2    0    0 -0.18645447954E+02 -0.38033398923E+02 -0.94567984977E+01  0.43400728114E+02  0.00000000000E+00 0.  1.
         11    1    3    3    0    0  0.17401020731E+02  0.24729606517E+02  0.11868697160E+02  0.32484071997E+02  0.51100000000E-03 0. -1.
        -11    1    3    3    0    0  0.29268924147E+01  0.11466421495E+02 -0.38276731762E+01  0.12437708926E+02  0.51100000000E-03 0.  1.
        -12    1    3    3    0    0 -0.16824651916E+01  0.18373709107E+01  0.14157745138E+01  0.28654909628E+01  0.00000000000E+00 0.  1.
</event>
<event>
 7    1  0.2756432E-009  0.4778727E+02  0.7816164E-02  0.1312668E+00
        -11   -1    0    0    0    0  0.00000000000E+00  0.00000000000E+00  0.45593999997E+02  0.45594000000E+02  0.51100000000E-03 0. -1.
         11   -1    0    0    0    0 -0.00000000000E+00 -0.00000000000E+00 -0.45593999997E+02  0.45594000000E+02  0.51100000000E-03 0.  1.
    9900012    2    1    2    0    0  0.11580437411E+02 -0.41811436736E+02  0.11490462824E+01  0.47787273279E+02  0.20000010189E+02 0.  0.
        -12    1    1    2    0    0 -0.11580437411E+02  0.41811436736E+02 -0.11490462824E+01  0.43400726721E+02  0.00000000000E+00 0.  1.
         11    1    3    3    0    0  0.89655898986E+01 -0.30810981812E+02 -0.55304347380E+01  0.32562004102E+02  0.51100000000E-03 0. -1.
        -11    1    3    3    0    0  0.12416470217E+00 -0.92073309634E+00  0.45273393515E+01  0.46216845601E+01  0.51100000000E-03 0.  1.
         12    1    3    3    0    0  0.24906828104E+01 -0.10079721827E+02  0.21521416689E+01  0.10603584617E+02  0.00000000000E+00 0. -1.
</event>
<event>
 7    1  0.2756432E-009  0.4778726E+02  0.7816164E-02  0.1312668E+00
        -11   -1    0    0    0    0  0.00000000000E+00  0.00000000000E+00  0.45593999997E+02  0.45594000000E+02  0.51100000000E-03 0.  1.
         11   -1    0    0    0    0 -0.00000000000E+00 -0.00000000000E+00 -0.45593999997E+02  0.45594000000E+02  0.51100000000E-03 0. -1.
    9900012    2    1    2    0    0  0.22169893677E+02 -0.15916839633E+02 -0.33745726310E+02  0.47787262521E+02  0.19999961137E+02 0.  0.
        -12    1    1    2    0    0 -0.22169893677E+02  0.15916839633E+02  0.33745726310E+02  0.43400737479E+02  0.00000000000E+00 0.  1.
         11    1    3    3    0    0  0.23929060348E+01 -0.55034282923E+01 -0.56814481520E+01  0.82639322132E+01  0.51100000000E-03 0. -1.
        -11    1    3    3    0    0  0.26691761673E+01 -0.75888379473E+00 -0.16492572972E+02  0.16724394444E+02  0.51100000000E-03 0.  1.
        -12    1    3    3    0    0  0.17107811475E+02 -0.96545275463E+01 -0.11571705186E+02  0.22798935864E+02  0.00000000000E+00 0.  1.
</event>
<event>
 7    1  0.2756432E-009  0.4778727E+02  0.7816164E-02  0.1312668E+00
        -11   -1    0    0    0    0  0.00000000000E+00  0.00000000000E+00  0.45593999997E+02  0.45594000000E+02  0.51100000000E-03 0. -1.
         11   -1    0    0    0    0 -0.00000000000E+00 -0.00000000000E+00 -0.45593999997E+02  0.45594000000E+02  0.51100000000E-03 0.  1.
    9900012    2    1    2    0    0 -0.25479887737E+02  0.33643386523E+02  0.10125278303E+02  0.47787269632E+02  0.19999993559E+02 0.  0.
        -12    1    1    2    0    0  0.25479887737E+02 -0.33643386523E+02 -0.10125278303E+02  0.43400730368E+02  0.00000000000E+00 0.  1.
         11    1    3    3    0    0 -0.12416652773E+02  0.22080468367E+02  0.58761761706E+00  0.25339014269E+02  0.51100000000E-03 0. -1.
        -11    1    3    3    0    0 -0.55522102138E+01  0.32869745266E+01  0.92378617949E+01  0.11268066853E+02  0.51100000000E-03 0.  1.
         12    1    3    3    0    0 -0.75110247502E+01  0.82759436291E+01  0.29979889069E+00  0.11180188510E+02  0.00000000000E+00 0. -1.
</event>
<event>
 7    1  0.2756432E-009  0.4778727E+02  0.7816164E-02  0.1312668E+00
        -11   -1    0    0    0    0  0.00000000000E+00  0.00000000000E+00  0.45593999997E+02  0.45594000000E+02  0.51100000000E-03 0.  1.
         11   -1    0    0    0    0 -0.00000000000E+00 -0.00000000000E+00 -0.45593999997E+02  0.45594000000E+02  0.51100000000E-03 0. -1.
    9900012    2    1    2    0    0  0.38066145963E+02 -0.20076458591E+02 -0.56149398532E+01  0.47787271809E+02  0.20000003484E+02 0.  0.
        -12    1    1    2    0    0 -0.38066145963E+02  0.20076458591E+02  0.56149398532E+01  0.43400728191E+02  0.00000000000E+00 0.  1.
         11    1    3    3    0    0  0.29602851213E+02 -0.11137650051E+02 -0.73014192993E+01  0.32460541780E+02  0.51100000000E-03 0. -1.
        -11    1    3    3    0    0  0.41069221683E-01 -0.62458320650E+01 -0.33995529094E+00  0.62552118050E+01  0.51100000000E-03 0.  1.
        -12    1    3    3    0    0  0.84222255281E+01 -0.26929764748E+01  0.20264347371E+01  0.90715182238E+01  0.00000000000E+00 0.  1.
</event>
<event>
 7    1  0.2756432E-009  0.4778727E+02  0.7816164E-02  0.1312668E+00
        -11   -1    0    0    0    0  0.00000000000E+00  0.00000000000E+00  0.45593999997E+02  0.45594000000E+02  0.51100000000E-03 0.  1.
         11   -1    0    0    0    0 -0.00000000000E+00 -0.00000000000E+00 -0.45593999997E+02  0.45594000000E+02  0.51100000000E-03 0. -1.
    9900012    2    1    2    0    0  0.15811850738E+02  0.23943988092E+02 -0.32562160305E+02  0.47787268747E+02  0.19999989527E+02 0.  0.
        -12    1    1    2    0    0 -0.15811850738E+02 -0.23943988092E+02  0.32562160305E+02  0.43400731253E+02  0.00000000000E+00 0.  1.
         11    1    3    3    0    0  0.10250549624E+02  0.26034079158E+01 -0.13896710816E+02  0.17463392343E+02  0.51100000000E-03 0. -1.
        -11    1    3    3    0    0 -0.86507436943E+00  0.14222030282E+02 -0.10094262989E+02  0.17461633502E+02  0.51100000000E-03 0.  1.
        -12    1    3    3    0    0  0.64263754829E+01  0.71185498950E+01 -0.85711865007E+01  0.12862242903E+02  0.00000000000E+00 0.  1.
</event>
<event>
 7    1  0.2756432E-009  0.4778727E+02  0.7816164E-02  0.1312668E+00
        -11   -1    0    0    0    0  0.00000000000E+00  0.00000000000E+00  0.45593999997E+02  0.45594000000E+02  0.51100000000E-03 0. -1.
         11   -1    0    0    0    0 -0.00000000000E+00 -0.00000000000E+00 -0.45593999997E+02  0.45594000000E+02  0.51100000000E-03 0.  1.
    9900012    2    1    2    0    0 -0.41015484196E+02  0.81196880864E+01 -0.11637198670E+02  0.47787266465E+02  0.19999979122E+02 0.  0.
        -12    1    1    2    0    0  0.41015484196E+02 -0.81196880864E+01  0.11637198670E+02  0.43400733535E+02  0.00000000000E+00 0.  1.
         11    1    3    3    0    0 -0.14605653758E+02  0.21827553783E+01 -0.55739272044E+00  0.14778370331E+02  0.51100000000E-03 0. -1.
        -11    1    3    3    0    0 -0.91532237997E+01 -0.51910149068E+01 -0.29898765029E+01  0.10939264301E+02  0.51100000000E-03 0.  1.
        -12    1    3    3    0    0 -0.17256606639E+02  0.11127947615E+02 -0.80899294471E+01  0.22069631833E+02  0.00000000000E+00 0.  1.
</event>
<event>
 7    1  0.2756432E-009  0.4778727E+02  0.7816164E-02  0.1312668E+00
        -11   -1    0    0    0    0  0.00000000000E+00  0.00000000000E+00  0.45593999997E+02  0.45594000000E+02  0.51100000000E-03 0. -1.
         11   -1    0    0    0    0 -0.00000000000E+00 -0.00000000000E+00 -0.45593999997E+02  0.45594000000E+02  0.51100000000E-03 0.  1.
    9900012    2    1    2    0    0  0.25069128801E+02  0.22093490152E+02  0.27695477366E+02  0.47787274286E+02  0.20000014781E+02 0.  0.
        -12    1    1    2    0    0 -0.25069128801E+02 -0.22093490152E+02 -0.27695477366E+02  0.43400725714E+02  0.00000000000E+00 0.  1.
         11    1    3    3    0    0  0.14759745862E+01 -0.60590353486E+00  0.59633919939E+01  0.61731405627E+01  0.51100000000E-03 0. -1.
        -11    1    3    3    0    0  0.22508667419E+02  0.24087172913E+02  0.22256243782E+02  0.39776530712E+02  0.51100000000E-03 0.  1.
        -12    1    3    3    0    0  0.10844867955E+01 -0.13877792263E+01 -0.52415840955E+00  0.18376030117E+01  0.00000000000E+00 0.  1.
</event>
<event>
 7    1  0.2756432E-009  0.4778727E+02  0.7816164E-02  0.1312668E+00
        -11   -1    0    0    0    0  0.00000000000E+00  0.00000000000E+00  0.45593999997E+02  0.45594000000E+02  0.51100000000E-03 0.  1.
         11   -1    0    0    0    0 -0.00000000000E+00 -0.00000000000E+00 -0.45593999997E+02  0.45594000000E+02  0.51100000000E-03 0. -1.
    9900012    2    1    2    0    0 -0.10671741610E+02  0.31621918432E+02 -0.27745119206E+02  0.47787269199E+02  0.19999991585E+02 0.  0.
        -12    1    1    2    0    0  0.10671741610E+02 -0.31621918432E+02  0.27745119206E+02  0.43400730801E+02  0.00000000000E+00 0.  1.
         11    1    3    3    0    0 -0.70543106408E+01  0.41514240313E+01 -0.11060240129E+01  0.82595949951E+01  0.51100000000E-03 0.  1.
        -11    1    3    3    0    0 -0.20398082479E+01  0.24390122048E+02 -0.18490874901E+02  0.30674929928E+02  0.51100000000E-03 0. -1.
         12    1    3    3    0    0 -0.15776227215E+01  0.30803723527E+01 -0.81482202922E+01  0.88527442758E+01  0.00000000000E+00 0. -1.
</event>
<event>
 7    1  0.2756432E-009  0.4778727E+02  0.7816164E-02  0.1312668E+00
        -11   -1    0    0    0    0  0.00000000000E+00  0.00000000000E+00  0.45593999997E+02  0.45594000000E+02  0.51100000000E-03 0. -1.
         11   -1    0    0    0    0 -0.00000000000E+00 -0.00000000000E+00 -0.45593999997E+02  0.45594000000E+02  0.51100000000E-03 0.  1.
    9900012    2    1    2    0    0 -0.31990179111E+01 -0.35692012990E+02  0.24484069253E+02  0.47787272425E+02  0.20000006295E+02 0.  0.
        -12    1    1    2    0    0  0.31990179111E+01  0.35692012990E+02 -0.24484069253E+02  0.43400727575E+02  0.00000000000E+00 0.  1.
         11    1    3    3    0    0 -0.20727102353E+01 -0.29186499774E+02  0.18976198525E+02  0.34874690070E+02  0.51100000000E-03 0. -1.
        -11    1    3    3    0    0  0.42408573653E+01 -0.33103716646E+01  0.31622402217E+01  0.62404483198E+01  0.51100000000E-03 0.  1.
         12    1    3    3    0    0 -0.53671650411E+01 -0.31951415511E+01  0.23456305064E+01  0.66721340352E+01  0.00000000000E+00 0. -1.
</event>
<event>
 7    1  0.2756432E-009  0.4778727E+02  0.7816164E-02  0.1312668E+00
        -11   -1    0    0    0    0  0.00000000000E+00  0.00000000000E+00  0.45593999997E+02  0.45594000000E+02  0.51100000000E-03 0.  1.
         11   -1    0    0    0    0 -0.00000000000E+00 -0.00000000000E+00 -0.45593999997E+02  0.45594000000E+02  0.51100000000E-03 0. -1.
    9900012    2    1    2    0    0 -0.75108948566E+01 -0.20913729655E+01 -0.42694678677E+02  0.47787274548E+02  0.20000015975E+02 0.  0.
        -12    1    1    2    0    0  0.75108948566E+01  0.20913729655E+01  0.42694678677E+02  0.43400725452E+02  0.00000000000E+00 0.  1.
         11    1    3    3    0    0 -0.10068121624E+02 -0.66924378746E+01 -0.38121022964E+02  0.39992101593E+02  0.51100000000E-03 0. -1.
        -11    1    3    3    0    0  0.19375915902E+01  0.27573435919E+01 -0.47698287879E+01  0.58402458665E+01  0.51100000000E-03 0.  1.
         12    1    3    3    0    0  0.61963517693E+00  0.18437213172E+01  0.19617307492E+00  0.19549270890E+01  0.00000000000E+00 0. -1.
</event>
<event>
 7    1  0.2756432E-009  0.4778727E+02  0.7816164E-02  0.1312668E+00
        -11   -1    0    0    0    0  0.00000000000E+00  0.00000000000E+00  0.45593999997E+02  0.45594000000E+02  0.51100000000E-03 0.  1.
         11   -1    0    0    0    0 -0.00000000000E+00 -0.00000000000E+00 -0.45593999997E+02  0.45594000000E+02  0.51100000000E-03 0. -1.
    9900012    2    1    2    0    0 -0.49261963393E+00  0.95178373171E+01 -0.42341365640E+02  0.47787272522E+02  0.20000006739E+02 0.  0.
        -12    1    1    2    0    0  0.49261963393E+00 -0.95178373171E+01  0.42341365640E+02  0.43400727478E+02  0.00000000000E+00 0.  1.
         11    1    3    3    0    0  0.17638798635E+01  0.49759251547E+01 -0.84347923469E+01  0.99507198490E+01  0.51100000000E-03 0. -1.
        -11    1    3    3    0    0  0.89739077574E+00 -0.37660680243E+00  0.15889766493E+01  0.18633276526E+01  0.51100000000E-03 0.  1.
        -12    1    3    3    0    0 -0.31538902731E+01  0.49185189648E+01 -0.35495549943E+02  0.35973225021E+02  0.00000000000E+00 0.  1.
</event>
<event>
 7    1  0.2756432E-009  0.4778726E+02  0.7816164E-02  0.1312668E+00
        -11   -1    0    0    0    0  0.00000000000E+00  0.00000000000E+00  0.45593999997E+02  0.45594000000E+02  0.51100000000E-03 0. -1.
         11   -1    0    0    0    0 -0.00000000000E+00 -0.00000000000E+00 -0.45593999997E+02  0.45594000000E+02  0.51100000000E-03 0.  1.
    9900012    2    1    2    0    0  0.11518660317E+02 -0.39480329481E+02  0.13865376540E+02  0.47787255559E+02  0.19999929396E+02 0.  0.
        -12    1    1    2    0    0 -0.11518660317E+02  0.39480329481E+02 -0.13865376540E+02  0.43400744441E+02  0.00000000000E+00 0.  1.
         11    1    3    3    0    0  0.31625322246E+01 -0.11991425017E+02 -0.30451454196E+01  0.12769839267E+02  0.51100000000E-03 0. -1.
        -11    1    3    3    0    0  0.38682553740E+01 -0.15064039628E+01  0.11857250201E+01  0.43172441004E+01  0.51100000000E-03 0.  1.
         12    1    3    3    0    0  0.44878727185E+01 -0.25982500501E+02  0.15724796940E+02  0.30700172192E+02  0.00000000000E+00 0. -1.
</event>
<event>
 7    1  0.2756432E-009  0.4778727E+02  0.7816164E-02  0.1312668E+00
        -11   -1    0    0    0    0  0.00000000000E+00  0.00000000000E+00  0.45593999997E+02  0.45594000000E+02  0.51100000000E-03 0.  1.
         11   -1    0    0    0    0 -0.00000000000E+00 -0.00000000000E+00 -0.45593999997E+02  0.45594000000E+02  0.51100000000E-03 0. -1.
    9900012    2    1    2    0    0 -0.97130066791E+01 -0.38603871108E+02 -0.17292241921E+02  0.47787274270E+02  0.20000014706E+02 0.  0.
        -12    1    1    2    0    0  0.97130066791E+01  0.38603871108E+02  0.17292241921E+02  0.43400725730E+02  0.00000000000E+00 0.  1.
         11    1    3    3    0    0  0.10433396962E+01 -0.14132488406E+02 -0.24966958392E+01  0.14389206950E+02  0.51100000000E-03 0. -1.
        -11    1    3    3    0    0 -0.29921193376E+01 -0.17188921954E+02 -0.14601603007E+02  0.22751233521E+02  0.51100000000E-03 0.  1.
        -12    1    3    3    0    0 -0.77642270376E+01 -0.72824607476E+01 -0.19394307443E+00  0.10646833799E+02  0.00000000000E+00 0.  1.
</event>
<event>
 7    1  0.2756432E-009  0.4778727E+02  0.7816164E-02  0.1312668E+00
        -11   -1    0    0    0    0  0.00000000000E+00  0.00000000000E+00  0.45593999997E+02  0.45594000000E+02  0.51100000000E-03 0.  1.
         11   -1    0    0    0    0 -0.00000000000E+00 -0.00000000000E+00 -0.45593999997E+02  0.45594000000E+02  0.51100000000E-03 0. -1.
    9900012    2    1    2    0    0 -0.97937359970E+01  0.89216222221E+01 -0.41329295400E+02  0.47787271134E+02  0.20000000408E+02 0.  0.
        -12    1    1    2    0    0  0.97937359970E+01 -0.89216222221E+01  0.41329295400E+02  0.43400728866E+02  0.00000000000E+00 0.  1.
         11    1    3    3    0    0 -0.79543903520E+01  0.25317117835E+01 -0.10701984963E+02  0.13572559553E+02  0.51100000000E-03 0. -1.
        -11    1    3    3    0    0  0.37632586372E+01 -0.14858036058E+01 -0.17206854195E+02  0.17676129652E+02  0.51100000000E-03 0.  1.
        -12    1    3    3    0    0 -0.56026042821E+01  0.78757140444E+01 -0.13420456242E+02  0.16538581929E+02  0.00000000000E+00 0.  1.
</event>
<event>
 7    1  0.2756432E-009  0.4778727E+02  0.7816164E-02  0.1312668E+00
        -11   -1    0    0    0    0  0.00000000000E+00  0.00000000000E+00  0.45593999997E+02  0.45594000000E+02  0.51100000000E-03 0.  1.
         11   -1    0    0    0    0 -0.00000000000E+00 -0.00000000000E+00 -0.45593999997E+02  0.45594000000E+02  0.51100000000E-03 0. -1.
    9900012    2    1    2    0    0 -0.21454687014E+02  0.20205926779E+02 -0.31859694042E+02  0.47787272169E+02  0.20000005125E+02 0.  0.
        -12    1    1    2    0    0  0.21454687014E+02 -0.20205926779E+02  0.31859694042E+02  0.43400727831E+02  0.00000000000E+00 0.  1.
         11    1    3    3    0    0 -0.42983501690E+01  0.95745654024E+01 -0.20723670407E+02  0.23229692900E+02  0.51100000000E-03 0. -1.
        -11    1    3    3    0    0 -0.98347158332E+01  0.27108369129E+01 -0.19419937254E+01  0.10384681612E+02  0.51100000000E-03 0.  1.
         12    1    3    3    0    0 -0.73216210119E+01  0.79205244636E+01 -0.91940299090E+01  0.14172897657E+02  0.00000000000E+00 0. -1.
</event>
<event>
 7    1  0.3340785E-009  0.4778727E+02  0.7816164E-02  0.1312668E+00
        -11   -1    0    0    0    0  0.00000000000E+00  0.00000000000E+00  0.45593999997E+02  0.45594000000E+02  0.51100000000E-03 0. -1.
         11   -1    0    0    0    0 -0.00000000000E+00 -0.00000000000E+00 -0.45593999997E+02  0.45594000000E+02  0.51100000000E-03 0.  1.
    9900012    2    1    2    0    0  0.97554259258E+01  0.31103701805E+02  0.28653351062E+02  0.47787272725E+02  0.20000007662E+02 0.  0.
        -12    1    1    2    0    0 -0.97554259258E+01 -0.31103701805E+02 -0.28653351062E+02  0.43400727275E+02  0.00000000000E+00 0.  1.
         11    1    3    3    0    0  0.35544708342E+01  0.17772096669E+02  0.23546557804E+02  0.29714004570E+02  0.51100000000E-03 0. -1.
        -11    1    3    3    0    0  0.83885750253E+01  0.84627643270E+01  0.43358938384E+01  0.12680163510E+02  0.51100000000E-03 0.  1.
        -12    1    3    3    0    0 -0.21876199337E+01  0.48688408082E+01  0.77089941942E+00  0.53931046443E+01  0.00000000000E+00 0.  1.
</event>
<event>
 7    1  0.2756432E-009  0.4778727E+02  0.7816164E-02  0.1312668E+00
        -11   -1    0    0    0    0  0.00000000000E+00  0.00000000000E+00  0.45593999997E+02  0.45594000000E+02  0.51100000000E-03 0.  1.
         11   -1    0    0    0    0 -0.00000000000E+00 -0.00000000000E+00 -0.45593999997E+02  0.45594000000E+02  0.51100000000E-03 0. -1.
    9900012    2    1    2    0    0  0.19196660452E+02 -0.18728611083E+02 -0.34122583244E+02  0.47787270365E+02  0.19999996902E+02 0.  0.
        -12    1    1    2    0    0 -0.19196660452E+02  0.18728611083E+02  0.34122583244E+02  0.43400729635E+02  0.00000000000E+00 0.  1.
         11    1    3    3    0    0  0.11252790248E+02 -0.49097424415E+01 -0.18921826759E+02  0.22555850402E+02  0.51100000000E-03 0. -1.
        -11    1    3    3    0    0 -0.25706271752E+01 -0.69912948341E+01 -0.41935668771E+01  0.85482355457E+01  0.51100000000E-03 0.  1.
        -12    1    3    3    0    0  0.10514497379E+02 -0.68275738072E+01 -0.11007189609E+02  0.16683184418E+02  0.00000000000E+00 0.  1.
</event>
<event>
 7    1  0.2756432E-009  0.4778727E+02  0.7816164E-02  0.1312668E+00
        -11   -1    0    0    0    0  0.00000000000E+00  0.00000000000E+00  0.45593999997E+02  0.45594000000E+02  0.51100000000E-03 0.  1.
         11   -1    0    0    0    0 -0.00000000000E+00 -0.00000000000E+00 -0.45593999997E+02  0.45594000000E+02  0.51100000000E-03 0. -1.
    9900012    2    1    2    0    0 -0.12148654563E+02  0.34358290866E+02 -0.23569924999E+02  0.47787270474E+02  0.19999997399E+02 0.  0.
        -12    1    1    2    0    0  0.12148654563E+02 -0.34358290866E+02  0.23569924999E+02  0.43400729526E+02  0.00000000000E+00 0.  1.
         11    1    3    3    0    0 -0.14148742132E+01  0.10448860381E+02 -0.58594667413E+01  0.12062914368E+02  0.51100000000E-03 0. -1.
        -11    1    3    3    0    0 -0.42398982438E+01  0.10221270855E+02 -0.17339182258E+02  0.20569354795E+02  0.51100000000E-03 0.  1.
        -12    1    3    3    0    0 -0.64938821064E+01  0.13688159631E+02 -0.37127599887E+00  0.15155001312E+02  0.00000000000E+00 0.  1.
</event>
<event>
 7    1  0.2756432E-009  0.4778727E+02  0.7816164E-02  0.1312668E+00
        -11   -1    0    0    0    0  0.00000000000E+00  0.00000000000E+00  0.45593999997E+02  0.45594000000E+02  0.51100000000E-03 0.  1.
         11   -1    0    0    0    0 -0.00000000000E+00 -0.00000000000E+00 -0.45593999997E+02  0.45594000000E+02  0.51100000000E-03 0. -1.
    9900012    2    1    2    0    0 -0.26348985054E+02  0.55420803720E+01 -0.34038794711E+02  0.47787271739E+02  0.20000003168E+02 0.  0.
        -12    1    1    2    0    0  0.26348985054E+02 -0.55420803720E+01  0.34038794711E+02  0.43400728261E+02  0.00000000000E+00 0.  1.
         11    1    3    3    0    0 -0.12852539568E+02 -0.14487387127E+01 -0.86474380718E+01  0.15558431884E+02  0.51100000000E-03 0. -1.
        -11    1    3    3    0    0 -0.66432445509E+00  0.29270144695E+01 -0.14799882038E+02  0.15101167150E+02  0.51100000000E-03 0.  1.
        -12    1    3    3    0    0 -0.12832121031E+02  0.40638046153E+01 -0.10591474601E+02  0.17127672706E+02  0.00000000000E+00 0.  1.
</event>
<event>
 7    1  0.2756432E-009  0.4778727E+02  0.7816164E-02  0.1312668E+00
        -11   -1    0    0    0    0  0.00000000000E+00  0.00000000000E+00  0.45593999997E+02  0.45594000000E+02  0.51100000000E-03 0.  1.
         11   -1    0    0    0    0 -0.00000000000E+00 -0.00000000000E+00 -0.45593999997E+02  0.45594000000E+02  0.51100000000E-03 0. -1.
    9900012    2    1    2    0    0 -0.13206553415E+02 -0.18405048964E+02 -0.37019786195E+02  0.47787269011E+02  0.19999990730E+02 0.  0.
        -12    1    1    2    0    0  0.13206553415E+02  0.18405048964E+02  0.37019786195E+02  0.43400730989E+02  0.00000000000E+00 0.  1.
         11    1    3    3    0    0 -0.42148761002E+01 -0.20875719943E+01 -0.89658571861E+01  0.10124709019E+02  0.51100000000E-03 0. -1.
        -11    1    3    3    0    0  0.24844355432E+01 -0.22388087577E+01  0.91775544092E+00  0.34679907631E+01  0.51100000000E-03 0.  1.
        -12    1    3    3    0    0 -0.11476112858E+02 -0.14078668212E+02 -0.28971684449E+02  0.34194569229E+02  0.00000000000E+00 0.  1.
</event>
<event>
 7    1  0.2756432E-009  0.4778727E+02  0.7816164E-02  0.1312668E+00
        -11   -1    0    0    0    0  0.00000000000E+00  0.00000000000E+00  0.45593999997E+02  0.45594000000E+02  0.51100000000E-03 0.  1.
         11   -1    0    0    0    0 -0.00000000000E+00 -0.00000000000E+00 -0.45593999997E+02  0.45594000000E+02  0.51100000000E-03 0. -1.
    9900012    2    1    2    0    0 -0.14849970352E+02  0.32914460519E+02 -0.24077791018E+02  0.47787270156E+02  0.19999995948E+02 0.  0.
        -12    1    1    2    0    0  0.14849970352E+02 -0.32914460519E+02  0.24077791018E+02  0.43400729844E+02  0.00000000000E+00 0.  1.
         11    1    3    3    0    0 -0.60604519552E+01  0.14210528161E+02 -0.58639563610E+01  0.16524350909E+02  0.51100000000E-03 0. -1.
        -11    1    3    3    0    0 -0.78846038313E+01  0.52037346261E+01 -0.14369744973E+02  0.17196959106E+02  0.51100000000E-03 0.  1.
        -12    1    3    3    0    0 -0.90491456559E+00  0.13500197732E+02 -0.38440896836E+01  0.14065960140E+02  0.00000000000E+00 0.  1.
</event>
<event>
 7    1  0.2756432E-009  0.4778727E+02  0.7816164E-02  0.1312668E+00
        -11   -1    0    0    0    0  0.00000000000E+00  0.00000000000E+00  0.45593999997E+02  0.45594000000E+02  0.51100000000E-03 0.  1.
         11   -1    0    0    0    0 -0.00000000000E+00 -0.00000000000E+00 -0.45593999997E+02  0.45594000000E+02  0.51100000000E-03 0. -1.
    9900012    2    1    2    0    0  0.21727175874E+01  0.14603457980E+02 -0.40812273179E+02  0.47787270412E+02  0.19999997118E+02 0.  0.
        -12    1    1    2    0    0 -0.21727175874E+01 -0.14603457980E+02  0.40812273179E+02  0.43400729588E+02  0.00000000000E+00 0.  1.
         11    1    3    3    0    0 -0.47747195255E+01  0.19744107525E+01 -0.23857866946E+02  0.24410941396E+02  0.51100000000E-03 0. -1.
        -11    1    3    3    0    0  0.61568382739E+01  0.73066161959E+01 -0.63132634104E+01  0.11452099935E+02  0.51100000000E-03 0.  1.
         12    1    3    3    0    0  0.79059883898E+00  0.53224310315E+01 -0.10641142823E+02  0.11924229081E+02  0.00000000000E+00 0. -1.
</event>
<event>
 7    1  0.2756432E-009  0.4778728E+02  0.7816164E-02  0.1312668E+00
        -11   -1    0    0    0    0  0.00000000000E+00  0.00000000000E+00  0.45593999997E+02  0.45594000000E+02  0.51100000000E-03 0.  1.
         11   -1    0    0    0    0 -0.00000000000E+00 -0.00000000000E+00 -0.45593999997E+02  0.45594000000E+02  0.51100000000E-03 0. -1.
    9900012    2    1    2    0    0  0.75619522475E+01  0.38408392849E+02 -0.18741264249E+02  0.47787277095E+02  0.20000027589E+02 0.  0.
        -12    1    1    2    0    0 -0.75619522475E+01 -0.38408392849E+02  0.18741264249E+02  0.43400722905E+02  0.00000000000E+00 0.  1.
         11    1    3    3    0    0  0.46101879406E+01 -0.71852239177E+00 -0.24369265291E+01  0.52639071463E+01  0.51100000000E-03 0.  1.
        -11    1    3    3    0    0  0.27117027075E-02  0.16951057707E+01 -0.37353193930E+00  0.17357757049E+01  0.51100000000E-03 0. -1.
         12    1    3    3    0    0  0.29490526042E+01  0.37431809470E+02 -0.15930805780E+02  0.40787594244E+02  0.00000000000E+00 0. -1.
</event>
<event>
 7    1  0.2756432E-009  0.4778728E+02  0.7816164E-02  0.1312668E+00
        -11   -1    0    0    0    0  0.00000000000E+00  0.00000000000E+00  0.45593999997E+02  0.45594000000E+02  0.51100000000E-03 0. -1.
         11   -1    0    0    0    0 -0.00000000000E+00 -0.00000000000E+00 -0.45593999997E+02  0.45594000000E+02  0.51100000000E-03 0.  1.
    9900012    2    1    2    0    0 -0.33033456996E+02  0.86350482689E+01  0.26792713085E+02  0.47787276340E+02  0.20000024146E+02 0.  0.
        -12    1    1    2    0    0  0.33033456996E+02 -0.86350482689E+01 -0.26792713085E+02  0.43400723660E+02  0.00000000000E+00 0.  1.
         11    1    3    3    0    0 -0.72328471509E+01  0.62017193038E+01  0.16371462638E+02  0.18942021787E+02  0.51100000000E-03 0. -1.
        -11    1    3    3    0    0 -0.23557810851E+02  0.43313290393E+01  0.94733359312E+01  0.25758007633E+02  0.51100000000E-03 0.  1.
         12    1    3    3    0    0 -0.22427989947E+01 -0.18980000741E+01  0.94791451598E+00  0.30872469195E+01  0.00000000000E+00 0. -1.
</event>
<event>
 7    1  0.2756432E-009  0.4778727E+02  0.7816164E-02  0.1312668E+00
        -11   -1    0    0    0    0  0.00000000000E+00  0.00000000000E+00  0.45593999997E+02  0.45594000000E+02  0.51100000000E-03 0.  1.
         11   -1    0    0    0    0 -0.00000000000E+00 -0.00000000000E+00 -0.45593999997E+02  0.45594000000E+02  0.51100000000E-03 0. -1.
    9900012    2    1    2    0    0 -0.33408690535E+02  0.14933927229E+02 -0.23333676873E+02  0.47787271180E+02  0.20000000616E+02 0.  0.
        -12    1    1    2    0    0  0.33408690535E+02 -0.14933927229E+02  0.23333676873E+02  0.43400728820E+02  0.00000000000E+00 0.  1.
         11    1    3    3    0    0  0.26143039641E+01  0.15405662384E+01 -0.30087912734E+01  0.42732604343E+01  0.51100000000E-03 0.  1.
        -11    1    3    3    0    0 -0.32319496361E+02  0.12038732712E+02 -0.17594248466E+02  0.38717418686E+02  0.51100000000E-03 0. -1.
        -12    1    3    3    0    0 -0.37034981375E+01  0.13546282786E+01 -0.27306371338E+01  0.47965920594E+01  0.00000000000E+00 0.  1.
</event>
<event>
 7    1  0.2756432E-009  0.4778727E+02  0.7816164E-02  0.1312668E+00
        -11   -1    0    0    0    0  0.00000000000E+00  0.00000000000E+00  0.45593999997E+02  0.45594000000E+02  0.51100000000E-03 0. -1.
         11   -1    0    0    0    0 -0.00000000000E+00 -0.00000000000E+00 -0.45593999997E+02  0.45594000000E+02  0.51100000000E-03 0.  1.
    9900012    2    1    2    0    0 -0.26891925247E+02 -0.31933535400E+02  0.11861588793E+02  0.47787267111E+02  0.19999982064E+02 0.  0.
        -12    1    1    2    0    0  0.26891925247E+02  0.31933535400E+02 -0.11861588793E+02  0.43400732889E+02  0.00000000000E+00 0.  1.
         11    1    3    3    0    0 -0.66013649901E+01 -0.12518751077E+02  0.12395341918E+02  0.18813337019E+02  0.51100000000E-03 0. -1.
        -11    1    3    3    0    0 -0.65752327062E+01 -0.63851071846E+01 -0.35275127523E+01  0.98207242797E+01  0.51100000000E-03 0.  1.
         12    1    3    3    0    0 -0.13715327551E+02 -0.13029677139E+02  0.29937596269E+01  0.19153205812E+02  0.00000000000E+00 0. -1.
</event>
<event>
 7    1  0.2756432E-009  0.4778727E+02  0.7816164E-02  0.1312668E+00
        -11   -1    0    0    0    0  0.00000000000E+00  0.00000000000E+00  0.45593999997E+02  0.45594000000E+02  0.51100000000E-03 0. -1.
         11   -1    0    0    0    0 -0.00000000000E+00 -0.00000000000E+00 -0.45593999997E+02  0.45594000000E+02  0.51100000000E-03 0.  1.
    9900012    2    1    2    0    0 -0.23375772746E+02 -0.59831614717E+01 -0.36074895982E+02  0.47787273131E+02  0.20000009513E+02 0.  0.
        -12    1    1    2    0    0  0.23375772746E+02  0.59831614717E+01  0.36074895982E+02  0.43400726869E+02  0.00000000000E+00 0.  1.
         11    1    3    3    0    0 -0.86496204687E+01  0.19566413504E+01 -0.62548243482E+01  0.10852060059E+02  0.51100000000E-03 0. -1.
        -11    1    3    3    0    0 -0.88302675703E+00  0.36369443912E+01 -0.54375624936E+01  0.66010746770E+01  0.51100000000E-03 0.  1.
        -12    1    3    3    0    0 -0.13843125520E+02 -0.11576747213E+02 -0.24382509140E+02  0.30334138395E+02  0.00000000000E+00 0.  1.
</event>
<event>
 7    1  0.2756432E-009  0.4778727E+02  0.7816164E-02  0.1312668E+00
        -11   -1    0    0    0    0  0.00000000000E+00  0.00000000000E+00  0.45593999997E+02  0.45594000000E+02  0.51100000000E-03 0.  1.
         11   -1    0    0    0    0 -0.00000000000E+00 -0.00000000000E+00 -0.45593999997E+02  0.45594000000E+02  0.51100000000E-03 0. -1.
    9900012    2    1    2    0    0  0.22593488341E+02 -0.68533405924E+01 -0.36416880745E+02  0.47787271943E+02  0.20000004098E+02 0.  0.
        -12    1    1    2    0    0 -0.22593488341E+02  0.68533405924E+01  0.36416880745E+02  0.43400728057E+02  0.00000000000E+00 0.  1.
         11    1    3    3    0    0  0.91429166323E+01 -0.92110393291E+01 -0.26312014654E+02  0.29338682409E+02  0.51100000000E-03 0. -1.
        -11    1    3    3    0    0  0.52830312888E+01 -0.23635908680E+01 -0.23897639007E+01  0.62616254401E+01  0.51100000000E-03 0.  1.
         12    1    3    3    0    0  0.81675404196E+01  0.47212896047E+01 -0.77151021900E+01  0.12186964094E+02  0.00000000000E+00 0. -1.
</event>
<event>
 7    1  0.2756432E-009  0.4778728E+02  0.7816164E-02  0.1312668E+00
        -11   -1    0    0    0    0  0.00000000000E+00  0.00000000000E+00  0.45593999997E+02  0.45594000000E+02  0.51100000000E-03 0.  1.
         11   -1    0    0    0    0 -0.00000000000E+00 -0.00000000000E+00 -0.45593999997E+02  0.45594000000E+02  0.51100000000E-03 0. -1.
    9900012    2    1    2    0    0  0.17346555376E+02 -0.31386441649E+02 -0.24446082045E+02  0.47787278461E+02  0.20000033813E+02 0.  0.
        -12    1    1    2    0    0 -0.17346555376E+02  0.31386441649E+02  0.24446082045E+02  0.43400721539E+02  0.00000000000E+00 0.  1.
         11    1    3    3    0    0  0.81226072969E+01 -0.14140460974E+02 -0.26594698396E+01  0.16522777186E+02  0.51100000000E-03 0. -1.
        -11    1    3    3    0    0  0.69189718831E+01 -0.30027185584E+01 -0.10589054971E+02  0.13000637527E+02  0.51100000000E-03 0.  1.
         12    1    3    3    0    0  0.23049761965E+01 -0.14243262117E+02 -0.11197557234E+02  0.18263863748E+02  0.00000000000E+00 0. -1.
</event>
<event>
 7    1  0.2756432E-009  0.4778727E+02  0.7816164E-02  0.1312668E+00
        -11   -1    0    0    0    0  0.00000000000E+00  0.00000000000E+00  0.45593999997E+02  0.45594000000E+02  0.51100000000E-03 0.  1.
         11   -1    0    0    0    0 -0.00000000000E+00 -0.00000000000E+00 -0.45593999997E+02  0.45594000000E+02  0.51100000000E-03 0. -1.
    9900012    2    1    2    0    0  0.40648993885E+02  0.12676352589E+02 -0.84019467694E+01  0.47787270417E+02  0.19999997137E+02 0.  0.
        -12    1    1    2    0    0 -0.40648993885E+02 -0.12676352589E+02  0.84019467694E+01  0.43400729583E+02  0.00000000000E+00 0.  1.
         11    1    3    3    0    0  0.65891531453E+01 -0.37800521384E+00 -0.49845845536E+01  0.82707865737E+01  0.51100000000E-03 0. -1.
        -11    1    3    3    0    0  0.30124864374E+02  0.15132643627E+02  0.30709143002E+00  0.33713478938E+02  0.51100000000E-03 0.  1.
        -12    1    3    3    0    0  0.39349763659E+01 -0.20782858238E+01 -0.37244536458E+01  0.58030049048E+01  0.00000000000E+00 0.  1.
</event>
<event>
 7    1  0.2756432E-009  0.4778727E+02  0.7816164E-02  0.1312668E+00
        -11   -1    0    0    0    0  0.00000000000E+00  0.00000000000E+00  0.45593999997E+02  0.45594000000E+02  0.51100000000E-03 0.  1.
         11   -1    0    0    0    0 -0.00000000000E+00 -0.00000000000E+00 -0.45593999997E+02  0.45594000000E+02  0.51100000000E-03 0. -1.
    9900012    2    1    2    0    0  0.32276650314E+02  0.27468939866E+02 -0.93433573069E+01  0.47787272602E+02  0.20000007103E+02 0.  0.
        -12    1    1    2    0    0 -0.32276650314E+02 -0.27468939866E+02  0.93433573069E+01  0.43400727398E+02  0.00000000000E+00 0.  1.
         11    1    3    3    0    0  0.14910865265E+00  0.55158947568E+01 -0.77355386787E-01  0.55184519999E+01  0.51100000000E-03 0. -1.
        -11    1    3    3    0    0  0.21094105163E+02  0.16254992737E+02 -0.12527137698E+02  0.29429835893E+02  0.51100000000E-03 0.  1.
        -12    1    3    3    0    0  0.11033436499E+02  0.56980523726E+01  0.32611357780E+01  0.12838984710E+02  0.00000000000E+00 0.  1.
</event>
<event>
 7    1  0.2756432E-009  0.4778727E+02  0.7816164E-02  0.1312668E+00
        -11   -1    0    0    0    0  0.00000000000E+00  0.00000000000E+00  0.45593999997E+02  0.45594000000E+02  0.51100000000E-03 0. -1.
         11   -1    0    0    0    0 -0.00000000000E+00 -0.00000000000E+00 -0.45593999997E+02  0.45594000000E+02  0.51100000000E-03 0.  1.
    9900012    2    1    2    0    0 -0.19629621994E+02  0.35256009371E+02  0.15978584782E+02  0.47787269269E+02  0.19999991903E+02 0.  0.
        -12    1    1    2    0    0  0.19629621994E+02 -0.35256009371E+02 -0.15978584782E+02  0.43400730731E+02  0.00000000000E+00 0.  1.
         11    1    3    3    0    0 -0.17000333161E+02  0.25394989521E+02  0.56114995607E+01  0.31070979192E+02  0.51100000000E-03 0. -1.
        -11    1    3    3    0    0 -0.52369589112E+00  0.76288848868E+00 -0.14096852347E+01  0.16862588635E+01  0.51100000000E-03 0.  1.
         12    1    3    3    0    0 -0.21055929423E+01  0.90981313611E+01  0.11776770456E+02  0.15030031213E+02  0.00000000000E+00 0. -1.
</event>
<event>
 7    1  0.2756432E-009  0.4778727E+02  0.7816164E-02  0.1312668E+00
        -11   -1    0    0    0    0  0.00000000000E+00  0.00000000000E+00  0.45593999997E+02  0.45594000000E+02  0.51100000000E-03 0.  1.
         11   -1    0    0    0    0 -0.00000000000E+00 -0.00000000000E+00 -0.45593999997E+02  0.45594000000E+02  0.51100000000E-03 0. -1.
    9900012    2    1    2    0    0 -0.37165455875E+02  0.16580336315E+02 -0.15081267657E+02  0.47787270779E+02  0.19999998792E+02 0.  0.
        -12    1    1    2    0    0  0.37165455875E+02 -0.16580336315E+02  0.15081267657E+02  0.43400729221E+02  0.00000000000E+00 0.  1.
         11    1    3    3    0    0 -0.62251940111E+01  0.86866541933E+01 -0.55607141241E+01  0.12047096886E+02  0.51100000000E-03 0. -1.
        -11    1    3    3    0    0 -0.12385906717E+02 -0.13669798066E+01  0.97347127505E+00  0.12499078589E+02  0.51100000000E-03 0.  1.
        -12    1    3    3    0    0 -0.18554355148E+02  0.92606619283E+01 -0.10494024808E+02  0.23241095304E+02  0.00000000000E+00 0.  1.
</event>
<event>
 7    1  0.2756432E-009  0.4778727E+02  0.7816164E-02  0.1312668E+00
        -11   -1    0    0    0    0  0.00000000000E+00  0.00000000000E+00  0.45593999997E+02  0.45594000000E+02  0.51100000000E-03 0.  1.
         11   -1    0    0    0    0 -0.00000000000E+00 -0.00000000000E+00 -0.45593999997E+02  0.45594000000E+02  0.51100000000E-03 0. -1.
    9900012    2    1    2    0    0  0.61586113458E+01  0.95272643536E+01 -0.41891836998E+02  0.47787271126E+02  0.20000000371E+02 0.  0.
        -12    1    1    2    0    0 -0.61586113458E+01 -0.95272643536E+01  0.41891836998E+02  0.43400728874E+02  0.00000000000E+00 0.  1.
         11    1    3    3    0    0  0.72844843635E+01  0.11830390885E+01 -0.35290748760E+02  0.36054129336E+02  0.51100000000E-03 0. -1.
        -11    1    3    3    0    0 -0.70153465478E+00  0.62875520603E+01 -0.71653671615E+01  0.95586583055E+01  0.51100000000E-03 0.  1.
         12    1    3    3    0    0 -0.42433836286E+00  0.20566732049E+01  0.56427892354E+00  0.21744834839E+01  0.00000000000E+00 0. -1.
</event>
<event>
 7    1  0.2756432E-009  0.4778727E+02  0.7816164E-02  0.1312668E+00
        -11   -1    0    0    0    0  0.00000000000E+00  0.00000000000E+00  0.45593999997E+02  0.45594000000E+02  0.51100000000E-03 0.  1.
         11   -1    0    0    0    0 -0.00000000000E+00 -0.00000000000E+00 -0.45593999997E+02  0.45594000000E+02  0.51100000000E-03 0. -1.
    9900012    2    1    2    0    0  0.32116855137E+02 -0.17312187973E+02 -0.23503603743E+02  0.47787266997E+02  0.19999981548E+02 0.  0.
        -12    1    1    2    0    0 -0.32116855137E+02  0.17312187973E+02  0.23503603743E+02  0.43400733003E+02  0.00000000000E+00 0.  1.
         11    1    3    3    0    0  0.94096100238E+01 -0.13304445748E+02 -0.70686735349E+01  0.17762747064E+02  0.51100000000E-03 0. -1.
        -11    1    3    3    0    0  0.29158470009E+01  0.26003439154E+01 -0.89511780259E+00  0.40081402611E+01  0.51100000000E-03 0.  1.
         12    1    3    3    0    0  0.19791398112E+02 -0.66080861401E+01 -0.15539812405E+02  0.26016379672E+02  0.00000000000E+00 0. -1.
</event>
<event>
 7    1  0.2756432E-009  0.4778727E+02  0.7816164E-02  0.1312668E+00
        -11   -1    0    0    0    0  0.00000000000E+00  0.00000000000E+00  0.45593999997E+02  0.45594000000E+02  0.51100000000E-03 0.  1.
         11   -1    0    0    0    0 -0.00000000000E+00 -0.00000000000E+00 -0.45593999997E+02  0.45594000000E+02  0.51100000000E-03 0. -1.
    9900012    2    1    2    0    0 -0.22862067689E+02  0.20517072889E+02 -0.30659400403E+02  0.47787271296E+02  0.20000001149E+02 0.  0.
        -12    1    1    2    0    0  0.22862067689E+02 -0.20517072889E+02  0.30659400403E+02  0.43400728704E+02  0.00000000000E+00 0.  1.
         11    1    3    3    0    0 -0.16513271718E+01  0.47839086660E+00 -0.43265502624E+01  0.46556177553E+01  0.51100000000E-03 0. -1.
        -11    1    3    3    0    0 -0.18402959238E+02  0.10208240052E+02 -0.25221062620E+02  0.32847816877E+02  0.51100000000E-03 0.  1.
        -12    1    3    3    0    0 -0.28077812790E+01  0.98304419699E+01 -0.11117875209E+01  0.10283836664E+02  0.00000000000E+00 0.  1.
</event>
<event>
 7    1  0.2756432E-009  0.4778727E+02  0.7816164E-02  0.1312668E+00
        -11   -1    0    0    0    0  0.00000000000E+00  0.00000000000E+00  0.45593999997E+02  0.45594000000E+02  0.51100000000E-03 0.  1.
         11   -1    0    0    0    0 -0.00000000000E+00 -0.00000000000E+00 -0.45593999997E+02  0.45594000000E+02  0.51100000000E-03 0. -1.
    9900012    2    1    2    0    0  0.86850249263E+01  0.37203841091E+02 -0.20592907319E+02  0.47787270954E+02  0.19999999586E+02 0.  0.
        -12    1    1    2    0    0 -0.86850249263E+01 -0.37203841091E+02  0.20592907319E+02  0.43400729046E+02  0.00000000000E+00 0.  1.
         11    1    3    3    0    0 -0.36982253193E+01  0.14992842087E+02 -0.10960060426E+02  0.18936343606E+02  0.51100000000E-03 0. -1.
        -11    1    3    3    0    0  0.45096919261E+01  0.66893409561E+01  0.14787364661E+01  0.82019062109E+01  0.51100000000E-03 0.  1.
         12    1    3    3    0    0  0.78735583195E+01  0.15521658047E+02 -0.11111583359E+02  0.20649021137E+02  0.00000000000E+00 0. -1.
</event>
<event>
 7    1  0.2756432E-009  0.4778727E+02  0.7816164E-02  0.1312668E+00
        -11   -1    0    0    0    0  0.00000000000E+00  0.00000000000E+00  0.45593999997E+02  0.45594000000E+02  0.51100000000E-03 0.  1.
         11   -1    0    0    0    0 -0.00000000000E+00 -0.00000000000E+00 -0.45593999997E+02  0.45594000000E+02  0.51100000000E-03 0. -1.
    9900012    2    1    2    0    0  0.38571251513E+02 -0.48637187937E+01 -0.19293157989E+02  0.47787272483E+02  0.20000006560E+02 0.  0.
        -12    1    1    2    0    0 -0.38571251513E+02  0.48637187937E+01  0.19293157989E+02  0.43400727517E+02  0.00000000000E+00 0.  1.
         11    1    3    3    0    0  0.33772160356E+02 -0.25123145891E+01 -0.22186876827E+02  0.40486146314E+02  0.51100000000E-03 0. -1.
        -11    1    3    3    0    0  0.19051760164E+01 -0.31500173287E+01  0.18717183714E+01  0.41298468189E+01  0.51100000000E-03 0.  1.
         12    1    3    3    0    0  0.28939151408E+01  0.79861312413E+00  0.10220004672E+01  0.31712793505E+01  0.00000000000E+00 0. -1.
</event>
<event>
 7    1  0.2756432E-009  0.4778726E+02  0.7816164E-02  0.1312668E+00
        -11   -1    0    0    0    0  0.00000000000E+00  0.00000000000E+00  0.45593999997E+02  0.45594000000E+02  0.51100000000E-03 0.  1.
         11   -1    0    0    0    0 -0.00000000000E+00 -0.00000000000E+00 -0.45593999997E+02  0.45594000000E+02  0.51100000000E-03 0. -1.
    9900012    2    1    2    0    0  0.15800084106E+02  0.32140567867E+02 -0.24514590061E+02  0.47787263987E+02  0.19999967824E+02 0.  0.
        -12    1    1    2    0    0 -0.15800084106E+02 -0.32140567867E+02  0.24514590061E+02  0.43400736013E+02  0.00000000000E+00 0.  1.
         11    1    3    3    0    0  0.12882369178E+02  0.31453364444E+02 -0.24483718386E+02  0.41889402440E+02  0.51100000000E-03 0. -1.
        -11    1    3    3    0    0  0.45867601386E+00 -0.17440162835E+01  0.12674423981E+01  0.22041748970E+01  0.51100000000E-03 0.  1.
         12    1    3    3    0    0  0.24590389140E+01  0.24312197065E+01 -0.12983140732E+01  0.36936866509E+01  0.00000000000E+00 0. -1.
</event>
<event>
 7    1  0.2756432E-009  0.4778727E+02  0.7816164E-02  0.1312668E+00
        -11   -1    0    0    0    0  0.00000000000E+00  0.00000000000E+00  0.45593999997E+02  0.45594000000E+02  0.51100000000E-03 0.  1.
         11   -1    0    0    0    0 -0.00000000000E+00 -0.00000000000E+00 -0.45593999997E+02  0.45594000000E+02  0.51100000000E-03 0. -1.
    9900012    2    1    2    0    0  0.27352125062E+02 -0.29921912391E+02 -0.15497219909E+02  0.47787269460E+02  0.19999992774E+02 0.  0.
        -12    1    1    2    0    0 -0.27352125062E+02  0.29921912391E+02  0.15497219909E+02  0.43400730540E+02  0.00000000000E+00 0.  1.
         11    1    3    3    0    0 -0.39360469485E+00 -0.86048030302E+01 -0.49704613162E+01  0.99450010458E+01  0.51100000000E-03 0. -1.
        -11    1    3    3    0    0  0.27750209030E+01 -0.70086516640E+01 -0.15564679545E+01  0.76970469607E+01  0.51100000000E-03 0.  1.
         12    1    3    3    0    0  0.24970708854E+02 -0.14308457697E+02 -0.89702906381E+01  0.30145221453E+02  0.00000000000E+00 0. -1.
</event>
<event>
 7    1  0.2756432E-009  0.4778727E+02  0.7816164E-02  0.1312668E+00
        -11   -1    0    0    0    0  0.00000000000E+00  0.00000000000E+00  0.45593999997E+02  0.45594000000E+02  0.51100000000E-03 0. -1.
         11   -1    0    0    0    0 -0.00000000000E+00 -0.00000000000E+00 -0.45593999997E+02  0.45594000000E+02  0.51100000000E-03 0.  1.
    9900012    2    1    2    0    0 -0.17438112378E+02  0.39386034709E+02  0.53174703643E+01  0.47787274378E+02  0.20000015198E+02 0.  0.
        -12    1    1    2    0    0  0.17438112378E+02 -0.39386034709E+02 -0.53174703643E+01  0.43400725622E+02  0.00000000000E+00 0.  1.
         11    1    3    3    0    0 -0.84220985961E+01  0.19543465704E+02  0.10408152071E+02  0.23689838038E+02  0.51100000000E-03 0. -1.
        -11    1    3    3    0    0 -0.34369571722E+01  0.14920459730E+02 -0.63058685158E+01  0.16558887981E+02  0.51100000000E-03 0.  1.
         12    1    3    3    0    0 -0.55790566102E+01  0.49221092758E+01  0.12151868095E+01  0.75385483592E+01  0.00000000000E+00 0. -1.
</event>
<event>
 7    1  0.2756432E-009  0.4778727E+02  0.7816164E-02  0.1312668E+00
        -11   -1    0    0    0    0  0.00000000000E+00  0.00000000000E+00  0.45593999997E+02  0.45594000000E+02  0.51100000000E-03 0.  1.
         11   -1    0    0    0    0 -0.00000000000E+00 -0.00000000000E+00 -0.45593999997E+02  0.45594000000E+02  0.51100000000E-03 0. -1.
    9900012    2    1    2    0    0 -0.13148731357E+01 -0.42419601937E+02  0.90813877573E+01  0.47787272777E+02  0.20000007900E+02 0.  0.
        -12    1    1    2    0    0  0.13148731357E+01  0.42419601937E+02 -0.90813877573E+01  0.43400727223E+02  0.00000000000E+00 0.  1.
         11    1    3    3    0    0  0.43932921873E+01 -0.29350095745E+02  0.91855832447E+01  0.31066124256E+02  0.51100000000E-03 0. -1.
        -11    1    3    3    0    0 -0.47183941500E+01 -0.12261455043E+02  0.29020109432E+01  0.13454671713E+02  0.51100000000E-03 0.  1.
         12    1    3    3    0    0 -0.98977117295E+00 -0.80805114879E+00 -0.30062064306E+01  0.32664768080E+01  0.00000000000E+00 0. -1.
</event>
<event>
 7    1  0.2756432E-009  0.4778727E+02  0.7816164E-02  0.1312668E+00
        -11   -1    0    0    0    0  0.00000000000E+00  0.00000000000E+00  0.45593999997E+02  0.45594000000E+02  0.51100000000E-03 0.  1.
         11   -1    0    0    0    0 -0.00000000000E+00 -0.00000000000E+00 -0.45593999997E+02  0.45594000000E+02  0.51100000000E-03 0. -1.
    9900012    2    1    2    0    0  0.41361325152E+02  0.11797836099E+02 -0.58030343677E+01  0.47787270020E+02  0.19999995329E+02 0.  0.
        -12    1    1    2    0    0 -0.41361325152E+02 -0.11797836099E+02  0.58030343677E+01  0.43400729980E+02  0.00000000000E+00 0.  1.
         11    1    3    3    0    0  0.32558881172E+02  0.13071506496E+02 -0.32331796627E+01  0.35233485156E+02  0.51100000000E-03 0. -1.
        -11    1    3    3    0    0  0.86841329831E+01 -0.33344368905E+01 -0.57827355300E-01  0.93024716774E+01  0.51100000000E-03 0.  1.
         12    1    3    3    0    0  0.11831099674E+00  0.20607664935E+01 -0.25120273497E+01  0.32513131867E+01  0.00000000000E+00 0. -1.
</event>
<event>
 7    1  0.2756432E-009  0.4778727E+02  0.7816164E-02  0.1312668E+00
        -11   -1    0    0    0    0  0.00000000000E+00  0.00000000000E+00  0.45593999997E+02  0.45594000000E+02  0.51100000000E-03 0.  1.
         11   -1    0    0    0    0 -0.00000000000E+00 -0.00000000000E+00 -0.45593999997E+02  0.45594000000E+02  0.51100000000E-03 0. -1.
    9900012    2    1    2    0    0  0.40509662879E+02  0.15370734011E+02 -0.25162055287E+01  0.47787267969E+02  0.19999985977E+02 0.  0.
        -12    1    1    2    0    0 -0.40509662879E+02 -0.15370734011E+02  0.25162055287E+01  0.43400732031E+02  0.00000000000E+00 0.  1.
         11    1    3    3    0    0  0.16341202626E+02  0.13600626784E+02 -0.29194212366E+01  0.21460078583E+02  0.51100000000E-03 0. -1.
        -11    1    3    3    0    0  0.11228030157E+02  0.34384502776E+00  0.52962836225E+01  0.12419239553E+02  0.51100000000E-03 0.  1.
        -12    1    3    3    0    0  0.12940430096E+02  0.14262621991E+01 -0.48930679145E+01  0.13907949833E+02  0.00000000000E+00 0.  1.
</event>
<event>
 7    1  0.2756432E-009  0.4778727E+02  0.7816164E-02  0.1312668E+00
        -11   -1    0    0    0    0  0.00000000000E+00  0.00000000000E+00  0.45593999997E+02  0.45594000000E+02  0.51100000000E-03 0.  1.
         11   -1    0    0    0    0 -0.00000000000E+00 -0.00000000000E+00 -0.45593999997E+02  0.45594000000E+02  0.51100000000E-03 0. -1.
    9900012    2    1    2    0    0 -0.22643286312E+02 -0.90860158632E+01 -0.35893586327E+02  0.47787266842E+02  0.19999980837E+02 0.  0.
        -12    1    1    2    0    0  0.22643286312E+02  0.90860158632E+01  0.35893586327E+02  0.43400733158E+02  0.00000000000E+00 0.  1.
         11    1    3    3    0    0 -0.22561978593E+01 -0.95886430402E+01 -0.14209699933E+02  0.17290114996E+02  0.51100000000E-03 0. -1.
        -11    1    3    3    0    0 -0.16135228754E+02 -0.23453198711E+01 -0.15894588940E+02  0.22770245718E+02  0.51100000000E-03 0.  1.
         12    1    3    3    0    0 -0.42518596989E+01  0.28479470481E+01 -0.57892974544E+01  0.77269061276E+01  0.00000000000E+00 0. -1.
</event>
<event>
 7    1  0.2756432E-009  0.4778727E+02  0.7816164E-02  0.1312668E+00
        -11   -1    0    0    0    0  0.00000000000E+00  0.00000000000E+00  0.45593999997E+02  0.45594000000E+02  0.51100000000E-03 0.  1.
         11   -1    0    0    0    0 -0.00000000000E+00 -0.00000000000E+00 -0.45593999997E+02  0.45594000000E+02  0.51100000000E-03 0. -1.
    9900012    2    1    2    0    0 -0.14985596213E+02  0.31115939252E+02 -0.26284092990E+02  0.47787270585E+02  0.19999997907E+02 0.  0.
        -12    1    1    2    0    0  0.14985596213E+02 -0.31115939252E+02  0.26284092990E+02  0.43400729415E+02  0.00000000000E+00 0.  1.
         11    1    3    3    0    0 -0.10556184215E+02  0.74768742802E+01 -0.10852218913E+02  0.16885121551E+02  0.51100000000E-03 0. -1.
        -11    1    3    3    0    0 -0.49525658614E+01  0.23019626750E+02 -0.10289757395E+02  0.25696502327E+02  0.51100000000E-03 0.  1.
        -12    1    3    3    0    0  0.52315386376E+00  0.61943822167E+00 -0.51421166817E+01  0.52056467075E+01  0.00000000000E+00 0.  1.
</event>
<event>
 7    1  0.2756432E-009  0.4778727E+02  0.7816164E-02  0.1312668E+00
        -11   -1    0    0    0    0  0.00000000000E+00  0.00000000000E+00  0.45593999997E+02  0.45594000000E+02  0.51100000000E-03 0. -1.
         11   -1    0    0    0    0 -0.00000000000E+00 -0.00000000000E+00 -0.45593999997E+02  0.45594000000E+02  0.51100000000E-03 0.  1.
    9900012    2    1    2    0    0  0.39184635458E+02  0.17828342672E+02  0.55079894020E+01  0.47787269527E+02  0.19999993079E+02 0.  0.
        -12    1    1    2    0    0 -0.39184635458E+02 -0.17828342672E+02 -0.55079894020E+01  0.43400730473E+02  0.00000000000E+00 0.  1.
         11    1    3    3    0    0  0.49144893518E+01  0.48376792657E+01  0.80495893834E+01  0.10599586585E+02  0.51100000000E-03 0. -1.
        -11    1    3    3    0    0  0.29876600704E+02  0.12925465999E+02 -0.11294026890E+01  0.32572296382E+02  0.51100000000E-03 0.  1.
         12    1    3    3    0    0  0.43935454017E+01  0.65197407324E-01 -0.14121972925E+01  0.46153865593E+01  0.00000000000E+00 0. -1.
</event>
<event>
 7    1  0.2756432E-009  0.4778727E+02  0.7816164E-02  0.1312668E+00
        -11   -1    0    0    0    0  0.00000000000E+00  0.00000000000E+00  0.45593999997E+02  0.45594000000E+02  0.51100000000E-03 0.  1.
         11   -1    0    0    0    0 -0.00000000000E+00 -0.00000000000E+00 -0.45593999997E+02  0.45594000000E+02  0.51100000000E-03 0. -1.
    9900012    2    1    2    0    0  0.38302094784E+01 -0.11955526229E+02 -0.41545373167E+02  0.47787272545E+02  0.20000006840E+02 0.  0.
        -12    1    1    2    0    0 -0.38302094784E+01  0.11955526229E+02  0.41545373167E+02  0.43400727455E+02  0.00000000000E+00 0.  1.
         11    1    3    3    0    0 -0.20785616313E+01 -0.10486916456E+02 -0.16883049290E+02  0.19983322767E+02  0.51100000000E-03 0. -1.
        -11    1    3    3    0    0  0.91271075385E+01 -0.96484840497E+00 -0.14772250928E+02  0.17391216812E+02  0.51100000000E-03 0.  1.
         12    1    3    3    0    0 -0.32183364287E+01 -0.50376136846E+00 -0.98900729488E+01  0.10412732966E+02  0.00000000000E+00 0. -1.
</event>
<event>
 7    1  0.2756432E-009  0.4778728E+02  0.7816164E-02  0.1312668E+00
        -11   -1    0    0    0    0  0.00000000000E+00  0.00000000000E+00  0.45593999997E+02  0.45594000000E+02  0.51100000000E-03 0.  1.
         11   -1    0    0    0    0 -0.00000000000E+00 -0.00000000000E+00 -0.45593999997E+02  0.45594000000E+02  0.51100000000E-03 0. -1.
    9900012    2    1    2    0    0 -0.39216513417E+02 -0.10968416216E+02  0.15012722356E+02  0.47787275221E+02  0.20000019041E+02 0.  0.
        -12    1    1    2    0    0  0.39216513417E+02  0.10968416216E+02 -0.15012722356E+02  0.43400724779E+02  0.00000000000E+00 0.  1.
         11    1    3    3    0    0 -0.35640716865E+02 -0.91901523721E+01  0.94081905859E+01  0.37989915104E+02  0.51100000000E-03 0. -1.
        -11    1    3    3    0    0  0.13866517020E+01 -0.94759263676E+00 -0.62291428936E+00  0.17913004273E+01  0.51100000000E-03 0.  1.
         12    1    3    3    0    0 -0.49624482536E+01 -0.83067120717E+00  0.62274460590E+01  0.80060596889E+01  0.00000000000E+00 0. -1.
</event>
<event>
 7    1  0.2756432E-009  0.4778727E+02  0.7816164E-02  0.1312668E+00
        -11   -1    0    0    0    0  0.00000000000E+00  0.00000000000E+00  0.45593999997E+02  0.45594000000E+02  0.51100000000E-03 0. -1.
         11   -1    0    0    0    0 -0.00000000000E+00 -0.00000000000E+00 -0.45593999997E+02  0.45594000000E+02  0.51100000000E-03 0.  1.
    9900012    2    1    2    0    0 -0.30753016639E+02 -0.30607426353E+02 -0.10298883475E+01  0.47787271315E+02  0.20000001234E+02 0.  0.
        -12    1    1    2    0    0  0.30753016639E+02  0.30607426353E+02  0.10298883475E+01  0.43400728685E+02  0.00000000000E+00 0.  1.
         11    1    3    3    0    0 -0.19776955130E+02 -0.22204786070E+02  0.19711334854E+01  0.29800433656E+02  0.51100000000E-03 0. -1.
        -11    1    3    3    0    0 -0.22471703699E+01 -0.36854605898E+01 -0.62064704682E+01  0.75599385159E+01  0.51100000000E-03 0.  1.
        -12    1    3    3    0    0 -0.87288911393E+01 -0.47171796934E+01  0.32054486353E+01  0.10426899143E+02  0.00000000000E+00 0.  1.
</event>
<event>
 7    1  0.2756432E-009  0.4778726E+02  0.7816164E-02  0.1312668E+00
        -11   -1    0    0    0    0  0.00000000000E+00  0.00000000000E+00  0.45593999997E+02  0.45594000000E+02  0.51100000000E-03 0. -1.
         11   -1    0    0    0    0 -0.00000000000E+00 -0.00000000000E+00 -0.45593999997E+02  0.45594000000E+02  0.51100000000E-03 0.  1.
    9900012    2    1    2    0    0  0.21907409087E+02 -0.37065472112E+02  0.54626055028E+01  0.47787264353E+02  0.19999969492E+02 0.  0.
        -12    1    1    2    0    0 -0.21907409087E+02  0.37065472112E+02 -0.54626055028E+01  0.43400735647E+02  0.00000000000E+00 0.  1.
         11    1    3    3    0    0  0.21166823304E+02 -0.31137007161E+02 -0.63076185983E+00  0.37655616905E+02  0.51100000000E-03 0. -1.
        -11    1    3    3    0    0 -0.23605700087E+01 -0.24823217377E+01  0.30442404481E+01  0.45827515907E+01  0.51100000000E-03 0.  1.
         12    1    3    3    0    0  0.31011557919E+01 -0.34461432131E+01  0.30491269145E+01  0.55488958570E+01  0.00000000000E+00 0. -1.
</event>
<event>
 7    1  0.2756432E-009  0.4778727E+02  0.7816164E-02  0.1312668E+00
        -11   -1    0    0    0    0  0.00000000000E+00  0.00000000000E+00  0.45593999997E+02  0.45594000000E+02  0.51100000000E-03 0.  1.
         11   -1    0    0    0    0 -0.00000000000E+00 -0.00000000000E+00 -0.45593999997E+02  0.45594000000E+02  0.51100000000E-03 0. -1.
    9900012    2    1    2    0    0 -0.27605068243E+02 -0.13529293019E+02 -0.30635629242E+02  0.47787270267E+02  0.19999996457E+02 0.  0.
        -12    1    1    2    0    0  0.27605068243E+02  0.13529293019E+02  0.30635629242E+02  0.43400729733E+02  0.00000000000E+00 0.  1.
         11    1    3    3    0    0 -0.25168446210E+01 -0.32524358087E+01 -0.25984936695E+01  0.48646700964E+01  0.51100000000E-03 0. -1.
        -11    1    3    3    0    0 -0.10728059418E+02 -0.32229499818E+01 -0.66976109393E+00  0.11221730956E+02  0.51100000000E-03 0.  1.
        -12    1    3    3    0    0 -0.14360164204E+02 -0.70539072287E+01 -0.27367374478E+02  0.31700869215E+02  0.00000000000E+00 0.  1.
</event>
<event>
 7    1  0.2756432E-009  0.4778727E+02  0.7816164E-02  0.1312668E+00
        -11   -1    0    0    0    0  0.00000000000E+00  0.00000000000E+00  0.45593999997E+02  0.45594000000E+02  0.51100000000E-03 0.  1.
         11   -1    0    0    0    0 -0.00000000000E+00 -0.00000000000E+00 -0.45593999997E+02  0.45594000000E+02  0.51100000000E-03 0. -1.
    9900012    2    1    2    0    0 -0.34186309106E+02  0.83523631440E+01 -0.25399951565E+02  0.47787271436E+02  0.20000001786E+02 0.  0.
        -12    1    1    2    0    0  0.34186309106E+02 -0.83523631440E+01  0.25399951565E+02  0.43400728564E+02  0.00000000000E+00 0.  1.
         11    1    3    3    0    0 -0.60059440045E+01  0.48617117259E+01 -0.87941949859E+01  0.11706642132E+02  0.51100000000E-03 0. -1.
        -11    1    3    3    0    0 -0.19187064116E+02 -0.39277954893E+01 -0.64512205312E+01  0.20620117687E+02  0.51100000000E-03 0.  1.
        -12    1    3    3    0    0 -0.89933009847E+01  0.74184469074E+01 -0.10154536048E+02  0.15460511617E+02  0.00000000000E+00 0.  1.
</event>
<event>
 7    1  0.2756432E-009  0.4778727E+02  0.7816164E-02  0.1312668E+00
        -11   -1    0    0    0    0  0.00000000000E+00  0.00000000000E+00  0.45593999997E+02  0.45594000000E+02  0.51100000000E-03 0.  1.
         11   -1    0    0    0    0 -0.00000000000E+00 -0.00000000000E+00 -0.45593999997E+02  0.45594000000E+02  0.51100000000E-03 0. -1.
    9900012    2    1    2    0    0  0.27607092326E+02  0.12632335561E+02 -0.31014447976E+02  0.47787269227E+02  0.19999991712E+02 0.  0.
        -12    1    1    2    0    0 -0.27607092326E+02 -0.12632335561E+02  0.31014447976E+02  0.43400730773E+02  0.00000000000E+00 0.  1.
         11    1    3    3    0    0  0.50717796753E+01  0.11854597710E+01 -0.42247017321E+01  0.67064423453E+01  0.51100000000E-03 0. -1.
        -11    1    3    3    0    0  0.58232754184E+01 -0.48393048281E+01 -0.44848960860E+01  0.88002102805E+01  0.51100000000E-03 0.  1.
        -12    1    3    3    0    0  0.16712037232E+02  0.16286180618E+02 -0.22304850157E+02  0.32280616601E+02  0.00000000000E+00 0.  1.
</event>
<event>
 7    1  0.2756432E-009  0.4778727E+02  0.7816164E-02  0.1312668E+00
        -11   -1    0    0    0    0  0.00000000000E+00  0.00000000000E+00  0.45593999997E+02  0.45594000000E+02  0.51100000000E-03 0.  1.
         11   -1    0    0    0    0 -0.00000000000E+00 -0.00000000000E+00 -0.45593999997E+02  0.45594000000E+02  0.51100000000E-03 0. -1.
    9900012    2    1    2    0    0  0.26875335167E+02 -0.32734356867E+02 -0.94763491938E+01  0.47787274731E+02  0.20000016809E+02 0.  0.
        -12    1    1    2    0    0 -0.26875335167E+02  0.32734356867E+02  0.94763491938E+01  0.43400725269E+02  0.00000000000E+00 0.  1.
         11    1    3    3    0    0  0.10668553348E+02 -0.45286342289E+01 -0.42868461984E+01  0.12357330177E+02  0.51100000000E-03 0. -1.
        -11    1    3    3    0    0  0.13522667148E+02 -0.28954811478E+02 -0.60266960122E+01  0.32520219858E+02  0.51100000000E-03 0.  1.
        -12    1    3    3    0    0  0.26841146713E+01  0.74908884030E+00  0.83719301686E+00  0.29097246960E+01  0.00000000000E+00 0.  1.
</event>
<event>
 7    1  0.2756432E-009  0.4778727E+02  0.7816164E-02  0.1312668E+00
        -11   -1    0    0    0    0  0.00000000000E+00  0.00000000000E+00  0.45593999997E+02  0.45594000000E+02  0.51100000000E-03 0. -1.
         11   -1    0    0    0    0 -0.00000000000E+00 -0.00000000000E+00 -0.45593999997E+02  0.45594000000E+02  0.51100000000E-03 0.  1.
    9900012    2    1    2    0    0 -0.35649969483E+02  0.22723444136E+02 -0.98157062015E+01  0.47787270446E+02  0.19999997273E+02 0.  0.
        -12    1    1    2    0    0  0.35649969483E+02 -0.22723444136E+02  0.98157062015E+01  0.43400729554E+02  0.00000000000E+00 0.  1.
         11    1    3    3    0    0 -0.65481601314E+01  0.40366835043E+01  0.49140903801E+01  0.91280610945E+01  0.51100000000E-03 0. -1.
        -11    1    3    3    0    0 -0.17066658524E+02  0.13489401161E+02 -0.13237763853E+02  0.25465136343E+02  0.51100000000E-03 0.  1.
        -12    1    3    3    0    0 -0.12035150827E+02  0.51973594711E+01 -0.14920327288E+01  0.13194073009E+02  0.00000000000E+00 0.  1.
</event>
<event>
 7    1  0.2756432E-009  0.4778727E+02  0.7816164E-02  0.1312668E+00
        -11   -1    0    0    0    0  0.00000000000E+00  0.00000000000E+00  0.45593999997E+02  0.45594000000E+02  0.51100000000E-03 0.  1.
         11   -1    0    0    0    0 -0.00000000000E+00 -0.00000000000E+00 -0.45593999997E+02  0.45594000000E+02  0.51100000000E-03 0. -1.
    9900012    2    1    2    0    0  0.29012336840E+02 -0.32203323819E+02  0.22030907738E+01  0.47787270019E+02  0.19999995326E+02 0.  0.
        -12    1    1    2    0    0 -0.29012336840E+02  0.32203323819E+02 -0.22030907738E+01  0.43400729981E+02  0.00000000000E+00 0.  1.
         11    1    3    3    0    0  0.12718827485E+02 -0.11958362108E+02  0.13837089537E+01  0.17512442652E+02  0.51100000000E-03 0. -1.
        -11    1    3    3    0    0  0.78581399533E+01 -0.12548933826E+02  0.79570235533E+01  0.16808935950E+02  0.51100000000E-03 0.  1.
        -12    1    3    3    0    0  0.84353694009E+01 -0.76960278848E+01 -0.71376417332E+01  0.13465891417E+02  0.00000000000E+00 0.  1.
</event>
<event>
 7    1  0.2756432E-009  0.4778727E+02  0.7816164E-02  0.1312668E+00
        -11   -1    0    0    0    0  0.00000000000E+00  0.00000000000E+00  0.45593999997E+02  0.45594000000E+02  0.51100000000E-03 0. -1.
         11   -1    0    0    0    0 -0.00000000000E+00 -0.00000000000E+00 -0.45593999997E+02  0.45594000000E+02  0.51100000000E-03 0.  1.
    9900012    2    1    2    0    0  0.71343532178E+01 -0.42058696921E+02  0.79868921408E+01  0.47787269262E+02  0.19999991872E+02 0.  0.
        -12    1    1    2    0    0 -0.71343532178E+01  0.42058696921E+02 -0.79868921408E+01  0.43400730738E+02  0.00000000000E+00 0.  1.
         11    1    3    3    0    0  0.52562918452E+01 -0.70211327996E+01  0.27892311905E+01  0.92035167543E+01  0.51100000000E-03 0. -1.
        -11    1    3    3    0    0 -0.45748145883E+01 -0.24018804776E+02 -0.82713312700E+00  0.24464587895E+02  0.51100000000E-03 0.  1.
        -12    1    3    3    0    0  0.64528759610E+01 -0.11018759345E+02  0.60247940774E+01  0.14119164612E+02  0.00000000000E+00 0.  1.
</event>
<event>
 7    1  0.2756432E-009  0.4778727E+02  0.7816164E-02  0.1312668E+00
        -11   -1    0    0    0    0  0.00000000000E+00  0.00000000000E+00  0.45593999997E+02  0.45594000000E+02  0.51100000000E-03 0. -1.
         11   -1    0    0    0    0 -0.00000000000E+00 -0.00000000000E+00 -0.45593999997E+02  0.45594000000E+02  0.51100000000E-03 0.  1.
    9900012    2    1    2    0    0 -0.42360963554E+02  0.80464553624E+01  0.49423291595E+01  0.47787270805E+02  0.19999998908E+02 0.  0.
        -12    1    1    2    0    0  0.42360963554E+02 -0.80464553624E+01 -0.49423291595E+01  0.43400729195E+02  0.00000000000E+00 0.  1.
         11    1    3    3    0    0 -0.87144794807E+01  0.96680112437E+00  0.29891625070E+01  0.92634739589E+01  0.51100000000E-03 0. -1.
        -11    1    3    3    0    0 -0.12358855135E+02  0.80849052464E+01  0.74125104155E+01  0.16524294358E+02  0.51100000000E-03 0.  1.
        -12    1    3    3    0    0 -0.21287628938E+02 -0.10052510084E+01 -0.54593437630E+01  0.21999502488E+02  0.00000000000E+00 0.  1.
</event>
<event>
 7    1  0.2756432E-009  0.4778726E+02  0.7816164E-02  0.1312668E+00
        -11   -1    0    0    0    0  0.00000000000E+00  0.00000000000E+00  0.45593999997E+02  0.45594000000E+02  0.51100000000E-03 0.  1.
         11   -1    0    0    0    0 -0.00000000000E+00 -0.00000000000E+00 -0.45593999997E+02  0.45594000000E+02  0.51100000000E-03 0. -1.
    9900012    2    1    2    0    0  0.41484733777E+02 -0.66398849783E+01 -0.10888186869E+02  0.47787264726E+02  0.19999971190E+02 0.  0.
        -12    1    1    2    0    0 -0.41484733777E+02  0.66398849783E+01  0.10888186869E+02  0.43400735274E+02  0.00000000000E+00 0.  1.
         11    1    3    3    0    0  0.17665440504E+02 -0.47136068164E+00  0.29792777329E+01  0.17921106695E+02  0.51100000000E-03 0. -1.
        -11    1    3    3    0    0  0.24501135474E+02 -0.68065042492E+01 -0.12871952486E+02  0.28501250862E+02  0.51100000000E-03 0.  1.
        -12    1    3    3    0    0 -0.68184220150E+00  0.63797995259E+00 -0.99551211591E+00  0.13649071692E+01  0.00000000000E+00 0.  1.
</event>
<event>
 7    1  0.2756432E-009  0.4778727E+02  0.7816164E-02  0.1312668E+00
        -11   -1    0    0    0    0  0.00000000000E+00  0.00000000000E+00  0.45593999997E+02  0.45594000000E+02  0.51100000000E-03 0.  1.
         11   -1    0    0    0    0 -0.00000000000E+00 -0.00000000000E+00 -0.45593999997E+02  0.45594000000E+02  0.51100000000E-03 0. -1.
    9900012    2    1    2    0    0 -0.42581570163E+02 -0.66183733557E+00 -0.83663025669E+01  0.47787272301E+02  0.20000005727E+02 0.  0.
        -12    1    1    2    0    0  0.42581570163E+02  0.66183733557E+00  0.83663025669E+01  0.43400727699E+02  0.00000000000E+00 0.  1.
         11    1    3    3    0    0 -0.38117595948E+02  0.61033081284E+01 -0.71713442267E+01  0.39263592159E+02  0.51100000000E-03 0. -1.
        -11    1    3    3    0    0 -0.19432736898E+01 -0.37441617863E+01 -0.17174630573E+01  0.45546393633E+01  0.51100000000E-03 0.  1.
         12    1    3    3    0    0 -0.25207005249E+01 -0.30209836777E+01  0.52250471711E+00  0.39690407779E+01  0.00000000000E+00 0. -1.
</event>
<event>
 7    1  0.2756432E-009  0.4778728E+02  0.7816164E-02  0.1312668E+00
        -11   -1    0    0    0    0  0.00000000000E+00  0.00000000000E+00  0.45593999997E+02  0.45594000000E+02  0.51100000000E-03 0. -1.
         11   -1    0    0    0    0 -0.00000000000E+00 -0.00000000000E+00 -0.45593999997E+02  0.45594000000E+02  0.51100000000E-03 0.  1.
    9900012    2    1    2    0    0  0.20830435522E+02 -0.37918856609E+02  0.34461432924E+01  0.47787278414E+02  0.20000033601E+02 0.  0.
        -12    1    1    2    0    0 -0.20830435522E+02  0.37918856609E+02 -0.34461432924E+01  0.43400721586E+02  0.00000000000E+00 0.  1.
         11    1    3    3    0    0  0.20167823421E+02 -0.17994781099E+02  0.58717999228E+01  0.27659198884E+02  0.51100000000E-03 0. -1.
        -11    1    3    3    0    0 -0.25783500477E+00 -0.10281631713E+02 -0.92704320498E+00  0.10326559879E+02  0.51100000000E-03 0.  1.
         12    1    3    3    0    0  0.92044710588E+00 -0.96424437973E+01 -0.14986134254E+01  0.98015196504E+01  0.00000000000E+00 0. -1.
</event>
<event>
 7    1  0.2756432E-009  0.4778727E+02  0.7816164E-02  0.1312668E+00
        -11   -1    0    0    0    0  0.00000000000E+00  0.00000000000E+00  0.45593999997E+02  0.45594000000E+02  0.51100000000E-03 0. -1.
         11   -1    0    0    0    0 -0.00000000000E+00 -0.00000000000E+00 -0.45593999997E+02  0.45594000000E+02  0.51100000000E-03 0.  1.
    9900012    2    1    2    0    0 -0.21316055413E+02  0.36478330033E+02  0.99287628523E+01  0.47787272908E+02  0.20000008496E+02 0.  0.
        -12    1    1    2    0    0  0.21316055413E+02 -0.36478330033E+02 -0.99287628523E+01  0.43400727092E+02  0.00000000000E+00 0.  1.
         11    1    3    3    0    0 -0.14569931904E+02  0.30796814083E+02  0.61235414474E+01  0.34615378569E+02  0.51100000000E-03 0. -1.
        -11    1    3    3    0    0  0.82653865215E+00  0.47407895866E+01  0.25245683574E+01  0.54343074720E+01  0.51100000000E-03 0.  1.
         12    1    3    3    0    0 -0.75726621609E+01  0.94072636330E+00  0.12806530475E+01  0.77375868668E+01  0.00000000000E+00 0. -1.
</event>
<event>
 7    1  0.2756432E-009  0.4778728E+02  0.7816164E-02  0.1312668E+00
        -11   -1    0    0    0    0  0.00000000000E+00  0.00000000000E+00  0.45593999997E+02  0.45594000000E+02  0.51100000000E-03 0.  1.
         11   -1    0    0    0    0 -0.00000000000E+00 -0.00000000000E+00 -0.45593999997E+02  0.45594000000E+02  0.51100000000E-03 0. -1.
    9900012    2    1    2    0    0 -0.11051920098E+02 -0.24660383966E+02 -0.33960910150E+02  0.47787275427E+02  0.20000019983E+02 0.  0.
        -12    1    1    2    0    0  0.11051920098E+02  0.24660383966E+02  0.33960910150E+02  0.43400724573E+02  0.00000000000E+00 0.  1.
         11    1    3    3    0    0 -0.88462773961E+01 -0.19159164790E+02 -0.23262905670E+02  0.31408486109E+02  0.51100000000E-03 0. -1.
        -11    1    3    3    0    0  0.17458560375E+01 -0.39461393585E+01  0.55553522671E+00  0.43507067000E+01  0.51100000000E-03 0.  1.
         12    1    3    3    0    0 -0.39514987394E+01 -0.15550798175E+01 -0.11253539707E+02  0.12028082618E+02  0.00000000000E+00 0. -1.
</event>
<event>
 7    1  0.2756432E-009  0.4778727E+02  0.7816164E-02  0.1312668E+00
        -11   -1    0    0    0    0  0.00000000000E+00  0.00000000000E+00  0.45593999997E+02  0.45594000000E+02  0.51100000000E-03 0. -1.
         11   -1    0    0    0    0 -0.00000000000E+00 -0.00000000000E+00 -0.45593999997E+02  0.45594000000E+02  0.51100000000E-03 0.  1.
    9900012    2    1    2    0    0  0.77413579931E+01 -0.39383890691E+02 -0.16510720005E+02  0.47787270229E+02  0.19999996284E+02 0.  0.
        -12    1    1    2    0    0 -0.77413579931E+01  0.39383890691E+02  0.16510720005E+02  0.43400729771E+02  0.00000000000E+00 0.  1.
         11    1    3    3    0    0  0.89592225977E+00 -0.88872196633E+01 -0.88951123338E+01  0.12605886471E+02  0.51100000000E-03 0. -1.
        -11    1    3    3    0    0  0.51114523956E+01 -0.27769557871E+02 -0.15138044724E+01  0.28276613909E+02  0.51100000000E-03 0.  1.
        -12    1    3    3    0    0  0.17339833377E+01 -0.27271131569E+01 -0.61018031990E+01  0.69047698489E+01  0.00000000000E+00 0.  1.
</event>
<event>
 7    1  0.2756432E-009  0.4778727E+02  0.7816164E-02  0.1312668E+00
        -11   -1    0    0    0    0  0.00000000000E+00  0.00000000000E+00  0.45593999997E+02  0.45594000000E+02  0.51100000000E-03 0.  1.
         11   -1    0    0    0    0 -0.00000000000E+00 -0.00000000000E+00 -0.45593999997E+02  0.45594000000E+02  0.51100000000E-03 0. -1.
    9900012    2    1    2    0    0 -0.32053201107E+02 -0.29149720497E+02 -0.25513075195E+01  0.47787273320E+02  0.20000010377E+02 0.  0.
        -12    1    1    2    0    0  0.32053201107E+02  0.29149720497E+02  0.25513075195E+01  0.43400726680E+02  0.00000000000E+00 0.  1.
         11    1    3    3    0    0  0.10236060883E+01 -0.52716060223E+01  0.30639161830E+01  0.61826517059E+01  0.51100000000E-03 0. -1.
        -11    1    3    3    0    0 -0.12525217110E+02 -0.87418099450E+01 -0.50050995711E+01  0.16073311008E+02  0.51100000000E-03 0.  1.
         12    1    3    3    0    0 -0.20551590085E+02 -0.15136304530E+02 -0.61012413145E+00  0.25531310607E+02  0.00000000000E+00 0. -1.
</event>
<event>
 7    1  0.2756432E-009  0.4778727E+02  0.7816164E-02  0.1312668E+00
        -11   -1    0    0    0    0  0.00000000000E+00  0.00000000000E+00  0.45593999997E+02  0.45594000000E+02  0.51100000000E-03 0.  1.
         11   -1    0    0    0    0 -0.00000000000E+00 -0.00000000000E+00 -0.45593999997E+02  0.45594000000E+02  0.51100000000E-03 0. -1.
    9900012    2    1    2    0    0  0.40512251542E+02  0.96166317275E+01 -0.12243410130E+02  0.47787271637E+02  0.20000002703E+02 0.  0.
        -12    1    1    2    0    0 -0.40512251542E+02 -0.96166317275E+01  0.12243410130E+02  0.43400728363E+02  0.00000000000E+00 0.  1.
         11    1    3    3    0    0  0.12423196255E+02  0.57222569762E+01 -0.85809418863E+01  0.16146596980E+02  0.51100000000E-03 0. -1.
        -11    1    3    3    0    0  0.18034397456E+02  0.79049757707E+01  0.12973333503E+01  0.19733504697E+02  0.51100000000E-03 0.  1.
        -12    1    3    3    0    0  0.10054657831E+02 -0.40106010194E+01 -0.49598015935E+01  0.11907169961E+02  0.00000000000E+00 0.  1.
</event>
<event>
 7    1  0.2756432E-009  0.4778727E+02  0.7816164E-02  0.1312668E+00
        -11   -1    0    0    0    0  0.00000000000E+00  0.00000000000E+00  0.45593999997E+02  0.45594000000E+02  0.51100000000E-03 0.  1.
         11   -1    0    0    0    0 -0.00000000000E+00 -0.00000000000E+00 -0.45593999997E+02  0.45594000000E+02  0.51100000000E-03 0. -1.
    9900012    2    1    2    0    0  0.31673208811E+02 -0.29376988927E+02  0.41741573408E+01  0.47787271616E+02  0.20000002605E+02 0.  0.
        -12    1    1    2    0    0 -0.31673208811E+02  0.29376988927E+02 -0.41741573408E+01  0.43400728384E+02  0.00000000000E+00 0.  1.
         11    1    3    3    0    0  0.19622592102E+02 -0.22695607278E+02  0.18183619903E+01  0.30057331071E+02  0.51100000000E-03 0. -1.
        -11    1    3    3    0    0  0.91713733811E+01 -0.32407896519E+01  0.64376858101E+01  0.11664501966E+02  0.51100000000E-03 0.  1.
         12    1    3    3    0    0  0.28792433275E+01 -0.34405919975E+01 -0.40818904596E+01  0.60654385791E+01  0.00000000000E+00 0. -1.
</event>
<event>
 7    1  0.2756432E-009  0.4778727E+02  0.7816164E-02  0.1312668E+00
        -11   -1    0    0    0    0  0.00000000000E+00  0.00000000000E+00  0.45593999997E+02  0.45594000000E+02  0.51100000000E-03 0.  1.
         11   -1    0    0    0    0 -0.00000000000E+00 -0.00000000000E+00 -0.45593999997E+02  0.45594000000E+02  0.51100000000E-03 0. -1.
    9900012    2    1    2    0    0 -0.94508599786E+01  0.51590025522E+01 -0.42043893473E+02  0.47787273739E+02  0.20000012284E+02 0.  0.
        -12    1    1    2    0    0  0.94508599786E+01 -0.51590025522E+01  0.42043893473E+02  0.43400726261E+02  0.00000000000E+00 0.  1.
         11    1    3    3    0    0 -0.70944303812E+01  0.66581737383E+01 -0.41018231894E+02  0.42156346710E+02  0.51100000000E-03 0. -1.
        -11    1    3    3    0    0 -0.93159156595E+00 -0.20769844163E+01  0.14627662411E+01  0.27058108671E+01  0.51100000000E-03 0.  1.
        -12    1    3    3    0    0 -0.14248380314E+01  0.57781323021E+00 -0.24884278201E+01  0.29251161619E+01  0.00000000000E+00 0.  1.
</event>
<event>
 7    1  0.2756432E-009  0.4778727E+02  0.7816164E-02  0.1312668E+00
        -11   -1    0    0    0    0  0.00000000000E+00  0.00000000000E+00  0.45593999997E+02  0.45594000000E+02  0.51100000000E-03 0.  1.
         11   -1    0    0    0    0 -0.00000000000E+00 -0.00000000000E+00 -0.45593999997E+02  0.45594000000E+02  0.51100000000E-03 0. -1.
    9900012    2    1    2    0    0 -0.41745396651E+02  0.10759957788E+02  0.50168125590E+01  0.47787271418E+02  0.20000001705E+02 0.  0.
        -12    1    1    2    0    0  0.41745396651E+02 -0.10759957788E+02 -0.50168125590E+01  0.43400728582E+02  0.00000000000E+00 0.  1.
         11    1    3    3    0    0 -0.10755556166E+02  0.25774026733E+01  0.45121013559E+00  0.11069263021E+02  0.51100000000E-03 0. -1.
        -11    1    3    3    0    0 -0.10890519021E+02 -0.49170346385E+01  0.43783721623E+01  0.12725988261E+02  0.51100000000E-03 0.  1.
        -12    1    3    3    0    0 -0.20099321464E+02  0.13099589753E+02  0.18723026102E+00  0.23992020136E+02  0.00000000000E+00 0.  1.
</event>
<event>
 7    1  0.2756432E-009  0.4778727E+02  0.7816164E-02  0.1312668E+00
        -11   -1    0    0    0    0  0.00000000000E+00  0.00000000000E+00  0.45593999997E+02  0.45594000000E+02  0.51100000000E-03 0. -1.
         11   -1    0    0    0    0 -0.00000000000E+00 -0.00000000000E+00 -0.45593999997E+02  0.45594000000E+02  0.51100000000E-03 0.  1.
    9900012    2    1    2    0    0  0.61944139691E+00  0.32819498809E+02  0.28392255023E+02  0.47787270110E+02  0.19999995740E+02 0.  0.
        -12    1    1    2    0    0 -0.61944139691E+00 -0.32819498809E+02 -0.28392255023E+02  0.43400729890E+02  0.00000000000E+00 0.  1.
         11    1    3    3    0    0  0.16462550849E+01  0.27651976646E+02  0.27912005669E+02  0.39324572839E+02  0.51100000000E-03 0. -1.
        -11    1    3    3    0    0  0.97306071849E+00  0.60854578146E+01 -0.17971402173E+00  0.61653824996E+01  0.51100000000E-03 0.  1.
         12    1    3    3    0    0 -0.19998744064E+01 -0.91793565200E+00  0.65996337591E+00  0.22973147717E+01  0.00000000000E+00 0. -1.
</event>
<event>
 7    1  0.2756432E-009  0.4778728E+02  0.7816164E-02  0.1312668E+00
        -11   -1    0    0    0    0  0.00000000000E+00  0.00000000000E+00  0.45593999997E+02  0.45594000000E+02  0.51100000000E-03 0.  1.
         11   -1    0    0    0    0 -0.00000000000E+00 -0.00000000000E+00 -0.45593999997E+02  0.45594000000E+02  0.51100000000E-03 0. -1.
    9900012    2    1    2    0    0  0.32058404057E+02 -0.14780140164E+02 -0.25247346928E+02  0.47787281794E+02  0.20000049011E+02 0.  0.
        -12    1    1    2    0    0 -0.32058404057E+02  0.14780140164E+02  0.25247346928E+02  0.43400718206E+02  0.00000000000E+00 0.  1.
         11    1    3    3    0    0  0.17196094616E+00 -0.60733811001E+00 -0.77933291241E+01  0.78188496113E+01  0.51100000000E-03 0. -1.
        -11    1    3    3    0    0  0.17841653629E+02 -0.58331832256E+01 -0.49927833296E+01  0.19423658677E+02  0.51100000000E-03 0.  1.
         12    1    3    3    0    0  0.14044789481E+02 -0.83396188279E+01 -0.12461234474E+02  0.20544773505E+02  0.00000000000E+00 0. -1.
</event>
<event>
 7    1  0.2756432E-009  0.4778727E+02  0.7816164E-02  0.1312668E+00
        -11   -1    0    0    0    0  0.00000000000E+00  0.00000000000E+00  0.45593999997E+02  0.45594000000E+02  0.51100000000E-03 0.  1.
         11   -1    0    0    0    0 -0.00000000000E+00 -0.00000000000E+00 -0.45593999997E+02  0.45594000000E+02  0.51100000000E-03 0. -1.
    9900012    2    1    2    0    0  0.64283147686E+01 -0.37173906794E+02 -0.21456959758E+02  0.47787266145E+02  0.19999977661E+02 0.  0.
        -12    1    1    2    0    0 -0.64283147686E+01  0.37173906794E+02  0.21456959758E+02  0.43400733855E+02  0.00000000000E+00 0.  1.
         11    1    3    3    0    0  0.97758484180E+01 -0.82529313508E+01 -0.87116215777E+01  0.15478063152E+02  0.51100000000E-03 0.  1.
        -11    1    3    3    0    0 -0.31556072579E+01 -0.28732310778E+02 -0.11621946005E+02  0.31154023320E+02  0.51100000000E-03 0. -1.
        -12    1    3    3    0    0 -0.19192639150E+00 -0.18866466466E+00 -0.11233921756E+01  0.11551796724E+01  0.00000000000E+00 0.  1.
</event>
<event>
 7    1  0.2756432E-009  0.4778727E+02  0.7816164E-02  0.1312668E+00
        -11   -1    0    0    0    0  0.00000000000E+00  0.00000000000E+00  0.45593999997E+02  0.45594000000E+02  0.51100000000E-03 0.  1.
         11   -1    0    0    0    0 -0.00000000000E+00 -0.00000000000E+00 -0.45593999997E+02  0.45594000000E+02  0.51100000000E-03 0. -1.
    9900012    2    1    2    0    0 -0.30806849215E+02  0.12074675729E+02 -0.28084939962E+02  0.47787267228E+02  0.19999982599E+02 0.  0.
        -12    1    1    2    0    0  0.30806849215E+02 -0.12074675729E+02  0.28084939962E+02  0.43400732772E+02  0.00000000000E+00 0.  1.
         11    1    3    3    0    0 -0.25465636427E+02  0.47609804672E+01 -0.20229623681E+02  0.32869488104E+02  0.51100000000E-03 0. -1.
        -11    1    3    3    0    0 -0.66387353185E+00  0.71332568563E+01 -0.20325039122E+01  0.74468217287E+01  0.51100000000E-03 0.  1.
        -12    1    3    3    0    0 -0.46773392558E+01  0.18043840560E+00 -0.58228123684E+01  0.74709573958E+01  0.00000000000E+00 0.  1.
</event>
<event>
 7    1  0.2756432E-009  0.4778726E+02  0.7816164E-02  0.1312668E+00
        -11   -1    0    0    0    0  0.00000000000E+00  0.00000000000E+00  0.45593999997E+02  0.45594000000E+02  0.51100000000E-03 0.  1.
         11   -1    0    0    0    0 -0.00000000000E+00 -0.00000000000E+00 -0.45593999997E+02  0.45594000000E+02  0.51100000000E-03 0. -1.
    9900012    2    1    2    0    0 -0.40003535871E+02  0.13773766518E+02 -0.96759660659E+01  0.47787264459E+02  0.19999969972E+02 0.  0.
        -12    1    1    2    0    0  0.40003535871E+02 -0.13773766518E+02  0.96759660659E+01  0.43400735541E+02  0.00000000000E+00 0.  1.
         11    1    3    3    0    0 -0.29462234977E+01  0.23357651340E+01  0.50252131578E+01  0.62760496494E+01  0.51100000000E-03 0.  1.
        -11    1    3    3    0    0 -0.21986852343E+02  0.75470170342E+01 -0.92689527225E+01  0.25025839185E+02  0.51100000000E-03 0. -1.
        -12    1    3    3    0    0 -0.15070460030E+02  0.38909843494E+01 -0.54322265012E+01  0.16485375624E+02  0.00000000000E+00 0.  1.
</event>
<event>
 7    1  0.2756432E-009  0.4778727E+02  0.7816164E-02  0.1312668E+00
        -11   -1    0    0    0    0  0.00000000000E+00  0.00000000000E+00  0.45593999997E+02  0.45594000000E+02  0.51100000000E-03 0.  1.
         11   -1    0    0    0    0 -0.00000000000E+00 -0.00000000000E+00 -0.45593999997E+02  0.45594000000E+02  0.51100000000E-03 0. -1.
    9900012    2    1    2    0    0 -0.21226803329E+02  0.21548813355E+02 -0.31123859471E+02  0.47787272299E+02  0.20000005721E+02 0.  0.
        -12    1    1    2    0    0  0.21226803329E+02 -0.21548813355E+02  0.31123859471E+02  0.43400727701E+02  0.00000000000E+00 0.  1.
         11    1    3    3    0    0 -0.97995388233E+01  0.17927460005E+02 -0.16445355700E+02  0.26227361814E+02  0.51100000000E-03 0. -1.
        -11    1    3    3    0    0 -0.37694088720E+00  0.45901912620E+01 -0.54079787916E+01  0.71033918043E+01  0.51100000000E-03 0.  1.
         12    1    3    3    0    0 -0.11050323619E+02 -0.96883791125E+00 -0.92705249794E+01  0.14456518681E+02  0.00000000000E+00 0. -1.
</event>
<event>
 7    1  0.2756432E-009  0.4778726E+02  0.7816164E-02  0.1312668E+00
        -11   -1    0    0    0    0  0.00000000000E+00  0.00000000000E+00  0.45593999997E+02  0.45594000000E+02  0.51100000000E-03 0.  1.
         11   -1    0    0    0    0 -0.00000000000E+00 -0.00000000000E+00 -0.45593999997E+02  0.45594000000E+02  0.51100000000E-03 0. -1.
    9900012    2    1    2    0    0  0.41800429392E+02  0.82176127497E+01  0.82957331437E+01  0.47787259856E+02  0.19999948986E+02 0.  0.
        -12    1    1    2    0    0 -0.41800429392E+02 -0.82176127497E+01 -0.82957331437E+01  0.43400740144E+02  0.00000000000E+00 0.  1.
         11    1    3    3    0    0  0.34120635995E+02  0.17593487944E+01  0.44462904043E+01  0.34454065181E+02  0.51100000000E-03 0. -1.
        -11    1    3    3    0    0  0.25075164447E+01  0.10113690114E+01  0.50482619118E+01  0.57267315800E+01  0.51100000000E-03 0.  1.
         12    1    3    3    0    0  0.51722769528E+01  0.54468949440E+01 -0.11988191724E+01  0.76064630949E+01  0.00000000000E+00 0. -1.
</event>
<event>
 7    1  0.2756432E-009  0.4778729E+02  0.7816164E-02  0.1312668E+00
        -11   -1    0    0    0    0  0.00000000000E+00  0.00000000000E+00  0.45593999997E+02  0.45594000000E+02  0.51100000000E-03 0. -1.
         11   -1    0    0    0    0 -0.00000000000E+00 -0.00000000000E+00 -0.45593999997E+02  0.45594000000E+02  0.51100000000E-03 0.  1.
    9900012    2    1    2    0    0 -0.30660607735E+02 -0.37074179383E+01  0.30492691304E+02  0.47787285289E+02  0.20000064948E+02 0.  0.
        -12    1    1    2    0    0  0.30660607735E+02  0.37074179383E+01 -0.30492691304E+02  0.43400714711E+02  0.00000000000E+00 0.  1.
         11    1    3    3    0    0 -0.34984932255E+01 -0.11315316642E+01  0.21508336286E+01  0.42598009713E+01  0.51100000000E-03 0. -1.
        -11    1    3    3    0    0 -0.18965216825E+02 -0.10456386837E+02  0.19055356438E+02  0.28846526379E+02  0.51100000000E-03 0.  1.
        -12    1    3    3    0    0 -0.81968976846E+01  0.78805005630E+01  0.92865012372E+01  0.14680957939E+02  0.00000000000E+00 0.  1.
</event>
<event>
 7    1  0.2756432E-009  0.4778727E+02  0.7816164E-02  0.1312668E+00
        -11   -1    0    0    0    0  0.00000000000E+00  0.00000000000E+00  0.45593999997E+02  0.45594000000E+02  0.51100000000E-03 0.  1.
         11   -1    0    0    0    0 -0.00000000000E+00 -0.00000000000E+00 -0.45593999997E+02  0.45594000000E+02  0.51100000000E-03 0. -1.
    9900012    2    1    2    0    0 -0.20241823162E+02 -0.35988744078E+02 -0.13367955691E+02  0.47787270230E+02  0.19999996287E+02 0.  0.
        -12    1    1    2    0    0  0.20241823162E+02  0.35988744078E+02  0.13367955691E+02  0.43400729770E+02  0.00000000000E+00 0.  1.
         11    1    3    3    0    0 -0.71124712652E+01 -0.11756096671E+02  0.13113976251E+01  0.13802638169E+02  0.51100000000E-03 0. -1.
        -11    1    3    3    0    0 -0.11157727061E+02 -0.85910834365E+01 -0.10806549501E+02  0.17750580277E+02  0.51100000000E-03 0.  1.
        -12    1    3    3    0    0 -0.19716248354E+01 -0.15641563971E+02 -0.38728038146E+01  0.16234051784E+02  0.00000000000E+00 0.  1.
</event>
<event>
 7    1  0.2756432E-009  0.4778727E+02  0.7816164E-02  0.1312668E+00
        -11   -1    0    0    0    0  0.00000000000E+00  0.00000000000E+00  0.45593999997E+02  0.45594000000E+02  0.51100000000E-03 0. -1.
         11   -1    0    0    0    0 -0.00000000000E+00 -0.00000000000E+00 -0.45593999997E+02  0.45594000000E+02  0.51100000000E-03 0.  1.
    9900012    2    1    2    0    0  0.39667433045E+02 -0.16834602177E+02  0.51685898878E+01  0.47787269635E+02  0.19999993573E+02 0.  0.
        -12    1    1    2    0    0 -0.39667433045E+02  0.16834602177E+02 -0.51685898878E+01  0.43400730365E+02  0.00000000000E+00 0.  1.
         11    1    3    3    0    0  0.21389244431E+02 -0.10188281718E+02  0.11108621864E+02  0.26166817569E+02  0.51100000000E-03 0. -1.
        -11    1    3    3    0    0  0.67819952972E+01 -0.24072780219E+00 -0.49947869619E+01  0.84262273374E+01  0.51100000000E-03 0.  1.
         12    1    3    3    0    0  0.11496193316E+02 -0.64055926564E+01 -0.94524501449E+00  0.13194224728E+02  0.00000000000E+00 0. -1.
</event>
<event>
 7    1  0.2756432E-009  0.4778727E+02  0.7816164E-02  0.1312668E+00
        -11   -1    0    0    0    0  0.00000000000E+00  0.00000000000E+00  0.45593999997E+02  0.45594000000E+02  0.51100000000E-03 0.  1.
         11   -1    0    0    0    0 -0.00000000000E+00 -0.00000000000E+00 -0.45593999997E+02  0.45594000000E+02  0.51100000000E-03 0. -1.
    9900012    2    1    2    0    0  0.34617312959E+02 -0.99463300394E+01 -0.24214361692E+02  0.47787272473E+02  0.20000006512E+02 0.  0.
        -12    1    1    2    0    0 -0.34617312959E+02  0.99463300394E+01  0.24214361692E+02  0.43400727527E+02  0.00000000000E+00 0.  1.
         11    1    3    3    0    0  0.29082677137E+02 -0.59288988796E+01 -0.21012504601E+02  0.36365908503E+02  0.51100000000E-03 0. -1.
        -11    1    3    3    0    0  0.57426478065E+00 -0.56405682099E+01 -0.10023470802E+01  0.57576461944E+01  0.51100000000E-03 0.  1.
        -12    1    3    3    0    0  0.49603710416E+01  0.16231370501E+01 -0.21995100107E+01  0.56637177755E+01  0.00000000000E+00 0.  1.
</event>
<event>
 7    1  0.2756432E-009  0.4778727E+02  0.7816164E-02  0.1312668E+00
        -11   -1    0    0    0    0  0.00000000000E+00  0.00000000000E+00  0.45593999997E+02  0.45594000000E+02  0.51100000000E-03 0.  1.
         11   -1    0    0    0    0 -0.00000000000E+00 -0.00000000000E+00 -0.45593999997E+02  0.45594000000E+02  0.51100000000E-03 0. -1.
    9900012    2    1    2    0    0  0.36484274552E+02  0.14219063853E+02 -0.18717352552E+02  0.47787270133E+02  0.19999995846E+02 0.  0.
        -12    1    1    2    0    0 -0.36484274552E+02 -0.14219063853E+02  0.18717352552E+02  0.43400729867E+02  0.00000000000E+00 0.  1.
         11    1    3    3    0    0  0.32350113707E+02  0.14620505560E+02 -0.13837048402E+02  0.38101875917E+02  0.51100000000E-03 0. -1.
        -11    1    3    3    0    0  0.44579919410E+00 -0.34588614735E+01 -0.13731854528E+01  0.37480792632E+01  0.51100000000E-03 0.  1.
        -12    1    3    3    0    0  0.36883616508E+01  0.30574197668E+01 -0.35071186972E+01  0.59373149532E+01  0.00000000000E+00 0.  1.
</event>
<event>
 7    1  0.2756432E-009  0.4778727E+02  0.7816164E-02  0.1312668E+00
        -11   -1    0    0    0    0  0.00000000000E+00  0.00000000000E+00  0.45593999997E+02  0.45594000000E+02  0.51100000000E-03 0. -1.
         11   -1    0    0    0    0 -0.00000000000E+00 -0.00000000000E+00 -0.45593999997E+02  0.45594000000E+02  0.51100000000E-03 0.  1.
    9900012    2    1    2    0    0  0.25058572954E+02 -0.25189435573E+02  0.24923553238E+02  0.47787271331E+02  0.20000001305E+02 0.  0.
        -12    1    1    2    0    0 -0.25058572954E+02  0.25189435573E+02 -0.24923553238E+02  0.43400728669E+02  0.00000000000E+00 0.  1.
         11    1    3    3    0    0  0.31884047278E+01 -0.54147830331E+01  0.60648734805E+01  0.87331833028E+01  0.51100000000E-03 0. -1.
        -11    1    3    3    0    0  0.38136061422E+01 -0.23645213480E+01  0.12350839493E+02  0.13140692123E+02  0.51100000000E-03 0.  1.
        -12    1    3    3    0    0  0.18056562084E+02 -0.17410131192E+02  0.65078402645E+01  0.25913395905E+02  0.00000000000E+00 0.  1.
</event>
<event>
 7    1  0.2756432E-009  0.4778727E+02  0.7816164E-02  0.1312668E+00
        -11   -1    0    0    0    0  0.00000000000E+00  0.00000000000E+00  0.45593999997E+02  0.45594000000E+02  0.51100000000E-03 0.  1.
         11   -1    0    0    0    0 -0.00000000000E+00 -0.00000000000E+00 -0.45593999997E+02  0.45594000000E+02  0.51100000000E-03 0. -1.
    9900012    2    1    2    0    0 -0.11991374544E+01  0.22956543667E+02 -0.36812804493E+02  0.47787269563E+02  0.19999993248E+02 0.  0.
        -12    1    1    2    0    0  0.11991374544E+01 -0.22956543667E+02  0.36812804493E+02  0.43400730437E+02  0.00000000000E+00 0.  1.
         11    1    3    3    0    0 -0.15834255074E+01  0.34445780348E+01 -0.16920302605E+02  0.17339809534E+02  0.51100000000E-03 0.  1.
        -11    1    3    3    0    0  0.72662128813E+00 -0.14378645322E+01 -0.34702918632E+01  0.38260108189E+01  0.51100000000E-03 0. -1.
         12    1    3    3    0    0 -0.34233323509E+00  0.20949830164E+02 -0.16422210025E+02  0.26621449210E+02  0.00000000000E+00 0. -1.
</event>
<event>
 7    1  0.2756432E-009  0.4778727E+02  0.7816164E-02  0.1312668E+00
        -11   -1    0    0    0    0  0.00000000000E+00  0.00000000000E+00  0.45593999997E+02  0.45594000000E+02  0.51100000000E-03 0. -1.
         11   -1    0    0    0    0 -0.00000000000E+00 -0.00000000000E+00 -0.45593999997E+02  0.45594000000E+02  0.51100000000E-03 0.  1.
    9900012    2    1    2    0    0 -0.16137969477E+02 -0.16096123674E+02  0.36933778248E+02  0.47787271529E+02  0.20000002208E+02 0.  0.
        -12    1    1    2    0    0  0.16137969477E+02  0.16096123674E+02 -0.36933778248E+02  0.43400728471E+02  0.00000000000E+00 0.  1.
         11    1    3    3    0    0 -0.10957242497E+02 -0.13239452578E+02  0.26626612372E+02  0.31691020090E+02  0.51100000000E-03 0. -1.
        -11    1    3    3    0    0 -0.48295210446E+01  0.35187276679E+01  0.51548780978E+01  0.78916719639E+01  0.51100000000E-03 0.  1.
        -12    1    3    3    0    0 -0.35120593550E+00 -0.63753987640E+01  0.51522877787E+01  0.82045794752E+01  0.00000000000E+00 0.  1.
</event>
<event>
 7    1  0.2756432E-009  0.4778727E+02  0.7816164E-02  0.1312668E+00
        -11   -1    0    0    0    0  0.00000000000E+00  0.00000000000E+00  0.45593999997E+02  0.45594000000E+02  0.51100000000E-03 0.  1.
         11   -1    0    0    0    0 -0.00000000000E+00 -0.00000000000E+00 -0.45593999997E+02  0.45594000000E+02  0.51100000000E-03 0. -1.
    9900012    2    1    2    0    0  0.72850022935E+01 -0.12735048234E+02 -0.40845693026E+02  0.47787270159E+02  0.19999995962E+02 0.  0.
        -12    1    1    2    0    0 -0.72850022935E+01  0.12735048234E+02  0.40845693026E+02  0.43400729841E+02  0.00000000000E+00 0.  1.
         11    1    3    3    0    0 -0.35283633512E+01 -0.49529256496E+01 -0.11605102371E+02  0.13101878557E+02  0.51100000000E-03 0. -1.
        -11    1    3    3    0    0  0.11952889994E+02 -0.12719687037E+01 -0.17962609639E+02  0.21613533467E+02  0.51100000000E-03 0.  1.
        -12    1    3    3    0    0 -0.11395243497E+01 -0.65101538808E+01 -0.11277981016E+02  0.13071858135E+02  0.00000000000E+00 0.  1.
</event>
<event>
 7    1  0.2805057E-009  0.4778727E+02  0.7816164E-02  0.1312668E+00
        -11   -1    0    0    0    0  0.00000000000E+00  0.00000000000E+00  0.45593999997E+02  0.45594000000E+02  0.51100000000E-03 0. -1.
         11   -1    0    0    0    0 -0.00000000000E+00 -0.00000000000E+00 -0.45593999997E+02  0.45594000000E+02  0.51100000000E-03 0.  1.
    9900012    2    1    2    0    0 -0.22326566421E+02 -0.33990127471E+02  0.15159785497E+02  0.47787269246E+02  0.19999991802E+02 0.  0.
        -12    1    1    2    0    0  0.22326566421E+02  0.33990127471E+02 -0.15159785497E+02  0.43400730754E+02  0.00000000000E+00 0.  1.
         11    1    3    3    0    0 -0.16385709554E+02 -0.23828916906E+02  0.56963387197E+01  0.29474684622E+02  0.51100000000E-03 0. -1.
        -11    1    3    3    0    0 -0.56181487588E+01 -0.97065946176E+01  0.11581843090E+02  0.16122055209E+02  0.51100000000E-03 0.  1.
        -12    1    3    3    0    0 -0.32270810811E+00 -0.45461594733E+00 -0.21183963125E+01  0.21905294153E+01  0.00000000000E+00 0.  1.
</event>
<event>
 7    1  0.2756432E-009  0.4778727E+02  0.7816164E-02  0.1312668E+00
        -11   -1    0    0    0    0  0.00000000000E+00  0.00000000000E+00  0.45593999997E+02  0.45594000000E+02  0.51100000000E-03 0.  1.
         11   -1    0    0    0    0 -0.00000000000E+00 -0.00000000000E+00 -0.45593999997E+02  0.45594000000E+02  0.51100000000E-03 0. -1.
    9900012    2    1    2    0    0 -0.40821419497E+02 -0.49749658838E+01 -0.13873884315E+02  0.47787271420E+02  0.20000001712E+02 0.  0.
        -12    1    1    2    0    0  0.40821419497E+02  0.49749658838E+01  0.13873884315E+02  0.43400728580E+02  0.00000000000E+00 0.  1.
         11    1    3    3    0    0  0.16020645853E+01 -0.14670173380E+01  0.19983447699E+00  0.21814410111E+01  0.51100000000E-03 0. -1.
        -11    1    3    3    0    0 -0.35791741189E+02 -0.11922364524E+01 -0.14340944445E+02  0.38576325032E+02  0.51100000000E-03 0.  1.
        -12    1    3    3    0    0 -0.66317428930E+01 -0.23157120934E+01  0.26722565293E+00  0.70295053771E+01  0.00000000000E+00 0.  1.
</event>
<event>
 7    1  0.2756432E-009  0.4778728E+02  0.7816164E-02  0.1312668E+00
        -11   -1    0    0    0    0  0.00000000000E+00  0.00000000000E+00  0.45593999997E+02  0.45594000000E+02  0.51100000000E-03 0.  1.
         11   -1    0    0    0    0 -0.00000000000E+00 -0.00000000000E+00 -0.45593999997E+02  0.45594000000E+02  0.51100000000E-03 0. -1.
    9900012    2    1    2    0    0  0.30530730702E+02 -0.29377584348E+02 -0.94050468929E+01  0.47787275509E+02  0.20000020354E+02 0.  0.
        -12    1    1    2    0    0 -0.30530730702E+02  0.29377584348E+02  0.94050468929E+01  0.43400724491E+02  0.00000000000E+00 0.  1.
         11    1    3    3    0    0  0.26693648380E+02 -0.26433814090E+02 -0.80227191164E+01  0.38414338644E+02  0.51100000000E-03 0. -1.
        -11    1    3    3    0    0  0.20911671960E+01 -0.41133948475E+01 -0.39364775376E+01  0.60653815278E+01  0.51100000000E-03 0.  1.
         12    1    3    3    0    0  0.17459151259E+01  0.11696245891E+01  0.25541497610E+01  0.33075553371E+01  0.00000000000E+00 0. -1.
</event>
<event>
 7    1  0.2756432E-009  0.4778727E+02  0.7816164E-02  0.1312668E+00
        -11   -1    0    0    0    0  0.00000000000E+00  0.00000000000E+00  0.45593999997E+02  0.45594000000E+02  0.51100000000E-03 0.  1.
         11   -1    0    0    0    0 -0.00000000000E+00 -0.00000000000E+00 -0.45593999997E+02  0.45594000000E+02  0.51100000000E-03 0. -1.
    9900012    2    1    2    0    0 -0.44939239474E+01 -0.17733204386E+02 -0.39356847317E+02  0.47787270502E+02  0.19999997525E+02 0.  0.
        -12    1    1    2    0    0  0.44939239474E+01  0.17733204386E+02  0.39356847317E+02  0.43400729498E+02  0.00000000000E+00 0.  1.
         11    1    3    3    0    0 -0.34323553009E+01 -0.50418215672E+01 -0.85729464405E+01  0.10521237501E+02  0.51100000000E-03 0. -1.
        -11    1    3    3    0    0  0.23816299022E+01 -0.15836739846E+02 -0.26326306276E+02  0.30814751213E+02  0.51100000000E-03 0.  1.
        -12    1    3    3    0    0 -0.34431985487E+01  0.31453570267E+01 -0.44575946006E+01  0.64512817869E+01  0.00000000000E+00 0.  1.
</event>
<event>
 7    1  0.2756432E-009  0.4778727E+02  0.7816164E-02  0.1312668E+00
        -11   -1    0    0    0    0  0.00000000000E+00  0.00000000000E+00  0.45593999997E+02  0.45594000000E+02  0.51100000000E-03 0. -1.
         11   -1    0    0    0    0 -0.00000000000E+00 -0.00000000000E+00 -0.45593999997E+02  0.45594000000E+02  0.51100000000E-03 0.  1.
    9900012    2    1    2    0    0 -0.24599106510E+01  0.28084239919E+02  0.32997692103E+02  0.47787269864E+02  0.19999994616E+02 0.  0.
        -12    1    1    2    0    0  0.24599106510E+01 -0.28084239919E+02 -0.32997692103E+02  0.43400730136E+02  0.00000000000E+00 0.  1.
         11    1    3    3    0    0  0.10096504367E+01  0.19768478881E+02  0.24858880126E+02  0.31776973938E+02  0.51100000000E-03 0. -1.
        -11    1    3    3    0    0 -0.19761261015E+01 -0.11045814713E+01 -0.12840672437E+01  0.26026915959E+01  0.51100000000E-03 0.  1.
        -12    1    3    3    0    0 -0.14934349862E+01  0.94203425093E+01  0.94228792209E+01  0.13407604330E+02  0.00000000000E+00 0.  1.
</event>
<event>
 7    1  0.2756432E-009  0.4778727E+02  0.7816164E-02  0.1312668E+00
        -11   -1    0    0    0    0  0.00000000000E+00  0.00000000000E+00  0.45593999997E+02  0.45594000000E+02  0.51100000000E-03 0. -1.
         11   -1    0    0    0    0 -0.00000000000E+00 -0.00000000000E+00 -0.45593999997E+02  0.45594000000E+02  0.51100000000E-03 0.  1.
    9900012    2    1    2    0    0 -0.37773081180E+02 -0.18438999278E+02  0.10808376925E+02  0.47787269960E+02  0.19999995057E+02 0.  0.
        -12    1    1    2    0    0  0.37773081180E+02  0.18438999278E+02 -0.10808376925E+02  0.43400730040E+02  0.00000000000E+00 0.  1.
         11    1    3    3    0    0 -0.80501090957E+01 -0.10780341518E+02  0.57754404458E+01  0.14641575472E+02  0.51100000000E-03 0. -1.
        -11    1    3    3    0    0 -0.26214417198E+02 -0.48265639260E+01  0.36764751145E+00  0.26657579660E+02  0.51100000000E-03 0.  1.
        -12    1    3    3    0    0 -0.35085548866E+01 -0.28320938341E+01  0.46652889679E+01  0.64881148288E+01  0.00000000000E+00 0.  1.
</event>
<event>
 7    1  0.2756432E-009  0.4778727E+02  0.7816164E-02  0.1312668E+00
        -11   -1    0    0    0    0  0.00000000000E+00  0.00000000000E+00  0.45593999997E+02  0.45594000000E+02  0.51100000000E-03 0.  1.
         11   -1    0    0    0    0 -0.00000000000E+00 -0.00000000000E+00 -0.45593999997E+02  0.45594000000E+02  0.51100000000E-03 0. -1.
    9900012    2    1    2    0    0  0.32679825041E+02 -0.21191127884E+02 -0.19146497327E+02  0.47787271601E+02  0.20000002537E+02 0.  0.
        -12    1    1    2    0    0 -0.32679825041E+02  0.21191127884E+02  0.19146497327E+02  0.43400728399E+02  0.00000000000E+00 0.  1.
         11    1    3    3    0    0  0.11050791719E+02 -0.10335267889E+02 -0.61408884892E+01  0.16329368379E+02  0.51100000000E-03 0. -1.
        -11    1    3    3    0    0 -0.67170451565E-01 -0.27894471516E+01 -0.70128284168E+01  0.75475353557E+01  0.51100000000E-03 0.  1.
        -12    1    3    3    0    0  0.21696203773E+02 -0.80664128432E+01 -0.59927804213E+01  0.23910367866E+02  0.00000000000E+00 0.  1.
</event>
<event>
 7    1  0.2756432E-009  0.4778727E+02  0.7816164E-02  0.1312668E+00
        -11   -1    0    0    0    0  0.00000000000E+00  0.00000000000E+00  0.45593999997E+02  0.45594000000E+02  0.51100000000E-03 0.  1.
         11   -1    0    0    0    0 -0.00000000000E+00 -0.00000000000E+00 -0.45593999997E+02  0.45594000000E+02  0.51100000000E-03 0. -1.
    9900012    2    1    2    0    0  0.10992820157E+02 -0.13319291529E+02 -0.39816799162E+02  0.47787272848E+02  0.20000008223E+02 0.  0.
        -12    1    1    2    0    0 -0.10992820157E+02  0.13319291529E+02  0.39816799162E+02  0.43400727152E+02  0.00000000000E+00 0.  1.
         11    1    3    3    0    0  0.97167579302E+00  0.69259326178E+00 -0.62183417384E+01  0.63317938619E+01  0.51100000000E-03 0. -1.
        -11    1    3    3    0    0  0.36743082151E+01  0.33895486987E+01 -0.12016210746E+02  0.13014565002E+02  0.51100000000E-03 0.  1.
        -12    1    3    3    0    0  0.63468361493E+01 -0.17401433489E+02 -0.21582246677E+02  0.28440913984E+02  0.00000000000E+00 0.  1.
</event>
<event>
 7    1  0.2756432E-009  0.4778727E+02  0.7816164E-02  0.1312668E+00
        -11   -1    0    0    0    0  0.00000000000E+00  0.00000000000E+00  0.45593999997E+02  0.45594000000E+02  0.51100000000E-03 0.  1.
         11   -1    0    0    0    0 -0.00000000000E+00 -0.00000000000E+00 -0.45593999997E+02  0.45594000000E+02  0.51100000000E-03 0. -1.
    9900012    2    1    2    0    0 -0.82103083000E+01  0.25982107292E+02 -0.33780828900E+02  0.47787268867E+02  0.19999990072E+02 0.  0.
        -12    1    1    2    0    0  0.82103083000E+01 -0.25982107292E+02  0.33780828900E+02  0.43400731133E+02  0.00000000000E+00 0.  1.
         11    1    3    3    0    0  0.44669075005E+01  0.74309204404E+01 -0.16903337815E+02  0.18997227975E+02  0.51100000000E-03 0. -1.
        -11    1    3    3    0    0 -0.80641833075E+01  0.70646920305E+01 -0.58556985320E+01  0.12215978531E+02  0.51100000000E-03 0.  1.
         12    1    3    3    0    0 -0.46130324931E+01  0.11486494821E+02 -0.11021792553E+02  0.16574062361E+02  0.00000000000E+00 0. -1.
</event>
<event>
 7    1  0.2756432E-009  0.4778727E+02  0.7816164E-02  0.1312668E+00
        -11   -1    0    0    0    0  0.00000000000E+00  0.00000000000E+00  0.45593999997E+02  0.45594000000E+02  0.51100000000E-03 0.  1.
         11   -1    0    0    0    0 -0.00000000000E+00 -0.00000000000E+00 -0.45593999997E+02  0.45594000000E+02  0.51100000000E-03 0. -1.
    9900012    2    1    2    0    0 -0.16080822480E+02  0.39529491642E+02 -0.79025178537E+01  0.47787270173E+02  0.19999996026E+02 0.  0.
        -12    1    1    2    0    0  0.16080822480E+02 -0.39529491642E+02  0.79025178537E+01  0.43400729827E+02  0.00000000000E+00 0.  1.
         11    1    3    3    0    0 -0.80693900500E+01  0.16197906857E+02 -0.33942319783E+01  0.18412171336E+02  0.51100000000E-03 0. -1.
        -11    1    3    3    0    0 -0.98452240546E+01  0.85875595814E+01 -0.61268236013E+01  0.14429573242E+02  0.51100000000E-03 0.  1.
        -12    1    3    3    0    0  0.18337916248E+01  0.14744025204E+02  0.16185377258E+01  0.14945525595E+02  0.00000000000E+00 0.  1.
</event>
<event>
 7    1  0.2756432E-009  0.4778727E+02  0.7816164E-02  0.1312668E+00
        -11   -1    0    0    0    0  0.00000000000E+00  0.00000000000E+00  0.45593999997E+02  0.45594000000E+02  0.51100000000E-03 0. -1.
         11   -1    0    0    0    0 -0.00000000000E+00 -0.00000000000E+00 -0.45593999997E+02  0.45594000000E+02  0.51100000000E-03 0.  1.
    9900012    2    1    2    0    0 -0.26768068522E+02  0.34154765550E+02 -0.73874977311E+00  0.47787271280E+02  0.20000001075E+02 0.  0.
        -12    1    1    2    0    0  0.26768068522E+02 -0.34154765550E+02  0.73874977311E+00  0.43400728720E+02  0.00000000000E+00 0.  1.
         11    1    3    3    0    0 -0.51179437966E+01  0.16605630886E+02 -0.33664290628E+01  0.17699524590E+02  0.51100000000E-03 0. -1.
        -11    1    3    3    0    0 -0.46636487183E+01 -0.89968402107E+00  0.15142446385E+01  0.49851768065E+01  0.51100000000E-03 0.  1.
        -12    1    3    3    0    0 -0.16986476008E+02  0.18448818685E+02  0.11134346512E+01  0.25102569883E+02  0.00000000000E+00 0.  1.
</event>
<event>
 7    1  0.2756432E-009  0.4778727E+02  0.7816164E-02  0.1312668E+00
        -11   -1    0    0    0    0  0.00000000000E+00  0.00000000000E+00  0.45593999997E+02  0.45594000000E+02  0.51100000000E-03 0.  1.
         11   -1    0    0    0    0 -0.00000000000E+00 -0.00000000000E+00 -0.45593999997E+02  0.45594000000E+02  0.51100000000E-03 0. -1.
    9900012    2    1    2    0    0  0.10296627658E+02  0.34498027794E+02 -0.24238171042E+02  0.47787269611E+02  0.19999993464E+02 0.  0.
        -12    1    1    2    0    0 -0.10296627658E+02 -0.34498027794E+02  0.24238171042E+02  0.43400730389E+02  0.00000000000E+00 0.  1.
         11    1    3    3    0    0 -0.15490487547E+01  0.18510792264E+02 -0.15822348140E+02  0.24400731203E+02  0.51100000000E-03 0. -1.
        -11    1    3    3    0    0  0.97489166808E+01  0.16205892005E+02 -0.53292625316E+01  0.19648749363E+02  0.51100000000E-03 0.  1.
        -12    1    3    3    0    0  0.20967597317E+01 -0.21865647475E+00 -0.30865603707E+01  0.37377890455E+01  0.00000000000E+00 0.  1.
</event>
<event>
 7    1  0.2756432E-009  0.4778727E+02  0.7816164E-02  0.1312668E+00
        -11   -1    0    0    0    0  0.00000000000E+00  0.00000000000E+00  0.45593999997E+02  0.45594000000E+02  0.51100000000E-03 0.  1.
         11   -1    0    0    0    0 -0.00000000000E+00 -0.00000000000E+00 -0.45593999997E+02  0.45594000000E+02  0.51100000000E-03 0. -1.
    9900012    2    1    2    0    0 -0.11733658033E+02  0.19696093347E+02 -0.36851162023E+02  0.47787274587E+02  0.20000016152E+02 0.  0.
        -12    1    1    2    0    0  0.11733658033E+02 -0.19696093347E+02  0.36851162023E+02  0.43400725413E+02  0.00000000000E+00 0.  1.
         11    1    3    3    0    0 -0.27731350395E+01  0.48033642706E+01 -0.63648529081E+01  0.84423894169E+01  0.51100000000E-03 0. -1.
        -11    1    3    3    0    0 -0.28414848872E+01  0.38112443165E+01  0.14673043981E+01  0.49751986957E+01  0.51100000000E-03 0.  1.
        -12    1    3    3    0    0 -0.61190381063E+01  0.11081484759E+02 -0.31953613513E+02  0.34369686474E+02  0.00000000000E+00 0.  1.
</event>
<event>
 7    1  0.2756432E-009  0.4778727E+02  0.7816164E-02  0.1312668E+00
        -11   -1    0    0    0    0  0.00000000000E+00  0.00000000000E+00  0.45593999997E+02  0.45594000000E+02  0.51100000000E-03 0. -1.
         11   -1    0    0    0    0 -0.00000000000E+00 -0.00000000000E+00 -0.45593999997E+02  0.45594000000E+02  0.51100000000E-03 0.  1.
    9900012    2    1    2    0    0  0.22394934801E+01 -0.32048423720E+02  0.29180584127E+02  0.47787270928E+02  0.19999999468E+02 0.  0.
        -12    1    1    2    0    0 -0.22394934801E+01  0.32048423720E+02 -0.29180584127E+02  0.43400729072E+02  0.00000000000E+00 0.  1.
         11    1    3    3    0    0 -0.10139698307E+01 -0.24577183285E+01  0.45111741259E+01  0.52363352123E+01  0.51100000000E-03 0. -1.
        -11    1    3    3    0    0 -0.13595762547E+01 -0.22566983795E+01  0.11615534988E+02  0.11910574650E+02  0.51100000000E-03 0.  1.
        -12    1    3    3    0    0  0.46130395656E+01 -0.27334007012E+02  0.13053875013E+02  0.30640361066E+02  0.00000000000E+00 0.  1.
</event>
<event>
 7    1  0.2756432E-009  0.4778727E+02  0.7816164E-02  0.1312668E+00
        -11   -1    0    0    0    0  0.00000000000E+00  0.00000000000E+00  0.45593999997E+02  0.45594000000E+02  0.51100000000E-03 0.  1.
         11   -1    0    0    0    0 -0.00000000000E+00 -0.00000000000E+00 -0.45593999997E+02  0.45594000000E+02  0.51100000000E-03 0. -1.
    9900012    2    1    2    0    0 -0.32529146337E+01  0.32149622646E+02 -0.28973153357E+02  0.47787270682E+02  0.19999998348E+02 0.  0.
        -12    1    1    2    0    0  0.32529146337E+01 -0.32149622646E+02  0.28973153357E+02  0.43400729318E+02  0.00000000000E+00 0.  1.
         11    1    3    3    0    0  0.19480538295E+01  0.58327016378E+01 -0.49512783660E+01  0.78949654741E+01  0.51100000000E-03 0. -1.
        -11    1    3    3    0    0  0.60977422907E+01  0.11293886448E+02 -0.74981906662E+01  0.14864629012E+02  0.51100000000E-03 0.  1.
        -12    1    3    3    0    0 -0.11298710754E+02  0.15023034560E+02 -0.16523684325E+02  0.25027676196E+02  0.00000000000E+00 0.  1.
</event>
<event>
 7    1  0.2756432E-009  0.4778728E+02  0.7816164E-02  0.1312668E+00
        -11   -1    0    0    0    0  0.00000000000E+00  0.00000000000E+00  0.45593999997E+02  0.45594000000E+02  0.51100000000E-03 0. -1.
         11   -1    0    0    0    0 -0.00000000000E+00 -0.00000000000E+00 -0.45593999997E+02  0.45594000000E+02  0.51100000000E-03 0.  1.
    9900012    2    1    2    0    0 -0.24531882623E+02 -0.35688549652E+02  0.28525468552E+01  0.47787275757E+02  0.20000021486E+02 0.  0.
        -12    1    1    2    0    0  0.24531882623E+02  0.35688549652E+02 -0.28525468552E+01  0.43400724243E+02  0.00000000000E+00 0.  1.
         11    1    3    3    0    0 -0.20622483894E+02 -0.23634072293E+02  0.49672839128E+01  0.31757363317E+02  0.51100000000E-03 0. -1.
        -11    1    3    3    0    0 -0.54231758047E+01 -0.98100151411E+01 -0.48209733760E+01  0.12202008746E+02  0.51100000000E-03 0.  1.
         12    1    3    3    0    0  0.15137770757E+01 -0.22444622179E+01  0.27062363184E+01  0.38279036944E+01  0.00000000000E+00 0. -1.
</event>
<event>
 7    1  0.2756432E-009  0.4778729E+02  0.7816164E-02  0.1312668E+00
        -11   -1    0    0    0    0  0.00000000000E+00  0.00000000000E+00  0.45593999997E+02  0.45594000000E+02  0.51100000000E-03 0.  1.
         11   -1    0    0    0    0 -0.00000000000E+00 -0.00000000000E+00 -0.45593999997E+02  0.45594000000E+02  0.51100000000E-03 0. -1.
    9900012    2    1    2    0    0 -0.29522976932E+02 -0.25038845994E+02 -0.19623246348E+02  0.47787288337E+02  0.20000078844E+02 0.  0.
        -12    1    1    2    0    0  0.29522976932E+02  0.25038845994E+02  0.19623246348E+02  0.43400711663E+02  0.00000000000E+00 0.  1.
         11    1    3    3    0    0 -0.15370951435E+02 -0.75628742213E+01 -0.16082667319E+02  0.23497136057E+02  0.51100000000E-03 0. -1.
        -11    1    3    3    0    0 -0.92180502599E+01 -0.13500833234E+02  0.11781251416E+01  0.16390025250E+02  0.51100000000E-03 0.  1.
        -12    1    3    3    0    0 -0.49339752374E+01 -0.39751385387E+01 -0.47187041699E+01  0.79001270299E+01  0.00000000000E+00 0.  1.
</event>
<event>
 7    1  0.2756432E-009  0.4778727E+02  0.7816164E-02  0.1312668E+00
        -11   -1    0    0    0    0  0.00000000000E+00  0.00000000000E+00  0.45593999997E+02  0.45594000000E+02  0.51100000000E-03 0. -1.
         11   -1    0    0    0    0 -0.00000000000E+00 -0.00000000000E+00 -0.45593999997E+02  0.45594000000E+02  0.51100000000E-03 0.  1.
    9900012    2    1    2    0    0 -0.27772539174E+02  0.30742532567E+02 -0.12930809121E+02  0.47787273447E+02  0.20000010952E+02 0.  0.
        -12    1    1    2    0    0  0.27772539174E+02 -0.30742532567E+02  0.12930809121E+02  0.43400726553E+02  0.00000000000E+00 0.  1.
         11    1    3    3    0    0 -0.18013613879E+02  0.13141315386E+02 -0.33701243599E+01  0.22550880105E+02  0.51100000000E-03 0. -1.
        -11    1    3    3    0    0  0.25784382542E+01  0.16282909320E+01 -0.21707181498E+01  0.37432195684E+01  0.51100000000E-03 0.  1.
        -12    1    3    3    0    0 -0.12337363550E+02  0.15972926249E+02 -0.73899666115E+01  0.21493173773E+02  0.00000000000E+00 0.  1.
</event>
<event>
 7    1  0.2756432E-009  0.4778727E+02  0.7816164E-02  0.1312668E+00
        -11   -1    0    0    0    0  0.00000000000E+00  0.00000000000E+00  0.45593999997E+02  0.45594000000E+02  0.51100000000E-03 0.  1.
         11   -1    0    0    0    0 -0.00000000000E+00 -0.00000000000E+00 -0.45593999997E+02  0.45594000000E+02  0.51100000000E-03 0. -1.
    9900012    2    1    2    0    0 -0.25342098512E+02 -0.23806765318E+02 -0.25973820544E+02  0.47787269758E+02  0.19999994136E+02 0.  0.
        -12    1    1    2    0    0  0.25342098512E+02  0.23806765318E+02  0.25973820544E+02  0.43400730242E+02  0.00000000000E+00 0.  1.
         11    1    3    3    0    0 -0.92760522252E+00  0.19612597514E+01  0.74316466392E+00  0.22933131578E+01  0.51100000000E-03 0.  1.
        -11    1    3    3    0    0 -0.62932955833E+01 -0.44028135044E+01 -0.15516139100E+01  0.78356775099E+01  0.51100000000E-03 0. -1.
         12    1    3    3    0    0 -0.18121197706E+02 -0.21365211565E+02 -0.25165371297E+02  0.37658279090E+02  0.00000000000E+00 0. -1.
</event>
<event>
 7    1  0.2756432E-009  0.4778727E+02  0.7816164E-02  0.1312668E+00
        -11   -1    0    0    0    0  0.00000000000E+00  0.00000000000E+00  0.45593999997E+02  0.45594000000E+02  0.51100000000E-03 0.  1.
         11   -1    0    0    0    0 -0.00000000000E+00 -0.00000000000E+00 -0.45593999997E+02  0.45594000000E+02  0.51100000000E-03 0. -1.
    9900012    2    1    2    0    0  0.12453771999E+02 -0.39615699458E+02 -0.12614407333E+02  0.47787270134E+02  0.19999995849E+02 0.  0.
        -12    1    1    2    0    0 -0.12453771999E+02  0.39615699458E+02  0.12614407333E+02  0.43400729866E+02  0.00000000000E+00 0.  1.
         11    1    3    3    0    0 -0.21296821321E+01 -0.17534512706E+02 -0.73259244308E+01  0.19122339053E+02  0.51100000000E-03 0. -1.
        -11    1    3    3    0    0  0.91927520648E+01 -0.97065687627E+01 -0.69462967131E+01  0.15065696332E+02  0.51100000000E-03 0.  1.
         12    1    3    3    0    0  0.53907020662E+01 -0.12374617989E+02  0.16578138112E+01  0.13599234749E+02  0.00000000000E+00 0. -1.
</event>
<event>
 7    1  0.2756432E-009  0.4778728E+02  0.7816164E-02  0.1312668E+00
        -11   -1    0    0    0    0  0.00000000000E+00  0.00000000000E+00  0.45593999997E+02  0.45594000000E+02  0.51100000000E-03 0. -1.
         11   -1    0    0    0    0 -0.00000000000E+00 -0.00000000000E+00 -0.45593999997E+02  0.45594000000E+02  0.51100000000E-03 0.  1.
    9900012    2    1    2    0    0 -0.33329957141E+02 -0.20357379684E+01  0.27723502915E+02  0.47787275513E+02  0.20000020373E+02 0.  0.
        -12    1    1    2    0    0  0.33329957141E+02  0.20357379684E+01 -0.27723502915E+02  0.43400724487E+02  0.00000000000E+00 0.  1.
         11    1    3    3    0    0 -0.15226797240E+02 -0.42085594762E+01  0.21085021353E+02  0.26346640256E+02  0.51100000000E-03 0. -1.
        -11    1    3    3    0    0 -0.86377132588E+00  0.25890293877E+01  0.25120433789E+01  0.37093848913E+01  0.51100000000E-03 0.  1.
         12    1    3    3    0    0 -0.17239388575E+02 -0.41620787990E+00  0.41264381839E+01  0.17731250366E+02  0.00000000000E+00 0. -1.
</event>
<event>
 7    1  0.2756432E-009  0.4778727E+02  0.7816164E-02  0.1312668E+00
        -11   -1    0    0    0    0  0.00000000000E+00  0.00000000000E+00  0.45593999997E+02  0.45594000000E+02  0.51100000000E-03 0.  1.
         11   -1    0    0    0    0 -0.00000000000E+00 -0.00000000000E+00 -0.45593999997E+02  0.45594000000E+02  0.51100000000E-03 0. -1.
    9900012    2    1    2    0    0  0.45652002285E+01  0.18233726456E+02 -0.39119223589E+02  0.47787268580E+02  0.19999988763E+02 0.  0.
        -12    1    1    2    0    0 -0.45652002285E+01 -0.18233726456E+02  0.39119223589E+02  0.43400731420E+02  0.00000000000E+00 0.  1.
         11    1    3    3    0    0  0.30766328584E+01  0.26918624118E+01  0.24836482890E+00  0.40955437171E+01  0.51100000000E-03 0. -1.
        -11    1    3    3    0    0  0.36039106713E+01  0.15205469935E+02 -0.27477445658E+02  0.31610196270E+02  0.51100000000E-03 0.  1.
        -12    1    3    3    0    0 -0.21153433011E+01  0.33639410853E+00 -0.11890142760E+02  0.12081528593E+02  0.00000000000E+00 0.  1.
</event>
<event>
 7    1  0.2756432E-009  0.4778727E+02  0.7816164E-02  0.1312668E+00
        -11   -1    0    0    0    0  0.00000000000E+00  0.00000000000E+00  0.45593999997E+02  0.45594000000E+02  0.51100000000E-03 0.  1.
         11   -1    0    0    0    0 -0.00000000000E+00 -0.00000000000E+00 -0.45593999997E+02  0.45594000000E+02  0.51100000000E-03 0. -1.
    9900012    2    1    2    0    0  0.39401565931E+02 -0.17607328143E+01 -0.18111878737E+02  0.47787265799E+02  0.19999976082E+02 0.  0.
        -12    1    1    2    0    0 -0.39401565931E+02  0.17607328143E+01  0.18111878737E+02  0.43400734201E+02  0.00000000000E+00 0.  1.
         11    1    3    3    0    0  0.88140584031E+01 -0.65065368966E+01 -0.68204863140E+00  0.10976695246E+02  0.51100000000E-03 0. -1.
        -11    1    3    3    0    0  0.20851913854E+01 -0.22553982291E+01 -0.17481699144E+01  0.35342527636E+01  0.51100000000E-03 0.  1.
         12    1    3    3    0    0  0.28502316142E+02  0.70012023115E+01 -0.15681660191E+02  0.33276317789E+02  0.00000000000E+00 0. -1.
</event>
<event>
 7    1  0.2756432E-009  0.4778726E+02  0.7816164E-02  0.1312668E+00
        -11   -1    0    0    0    0  0.00000000000E+00  0.00000000000E+00  0.45593999997E+02  0.45594000000E+02  0.51100000000E-03 0. -1.
         11   -1    0    0    0    0 -0.00000000000E+00 -0.00000000000E+00 -0.45593999997E+02  0.45594000000E+02  0.51100000000E-03 0.  1.
    9900012    2    1    2    0    0  0.36789858136E+02  0.20583604663E+02 -0.10317236898E+02  0.47787264756E+02  0.19999971326E+02 0.  0.
        -12    1    1    2    0    0 -0.36789858136E+02 -0.20583604663E+02  0.10317236898E+02  0.43400735244E+02  0.00000000000E+00 0.  1.
         11    1    3    3    0    0 -0.47654974198E+00  0.61713369442E+01  0.38116363588E+00  0.62014341336E+01  0.51100000000E-03 0.  1.
        -11    1    3    3    0    0  0.29497787211E+02  0.13155480026E+02 -0.90952073966E+01  0.33554566051E+02  0.51100000000E-03 0. -1.
        -12    1    3    3    0    0  0.77686206670E+01  0.12567876931E+01 -0.16031931368E+01  0.80312645709E+01  0.00000000000E+00 0.  1.
</event>
<event>
 7    1  0.2756432E-009  0.4778727E+02  0.7816164E-02  0.1312668E+00
        -11   -1    0    0    0    0  0.00000000000E+00  0.00000000000E+00  0.45593999997E+02  0.45594000000E+02  0.51100000000E-03 0.  1.
         11   -1    0    0    0    0 -0.00000000000E+00 -0.00000000000E+00 -0.45593999997E+02  0.45594000000E+02  0.51100000000E-03 0. -1.
    9900012    2    1    2    0    0  0.95980501788E+01 -0.41099403338E+02 -0.10116308244E+02  0.47787271729E+02  0.20000003120E+02 0.  0.
        -12    1    1    2    0    0 -0.95980501788E+01  0.41099403338E+02  0.10116308244E+02  0.43400728271E+02  0.00000000000E+00 0.  1.
         11    1    3    3    0    0  0.13462763626E+02 -0.34296179778E+02 -0.10133309302E+02  0.38212012634E+02  0.51100000000E-03 0. -1.
        -11    1    3    3    0    0  0.47442092248E+00  0.82483343629E-01 -0.12489197336E+01  0.13385363184E+01  0.51100000000E-03 0.  1.
         12    1    3    3    0    0 -0.43391343702E+01 -0.68857069039E+01  0.12659207922E+01  0.82367227768E+01  0.00000000000E+00 0. -1.
</event>
<event>
 7    1  0.2756432E-009  0.4778727E+02  0.7816164E-02  0.1312668E+00
        -11   -1    0    0    0    0  0.00000000000E+00  0.00000000000E+00  0.45593999997E+02  0.45594000000E+02  0.51100000000E-03 0.  1.
         11   -1    0    0    0    0 -0.00000000000E+00 -0.00000000000E+00 -0.45593999997E+02  0.45594000000E+02  0.51100000000E-03 0. -1.
    9900012    2    1    2    0    0 -0.60983067890E+00  0.42864878690E+02 -0.67715242755E+01  0.47787271209E+02  0.20000000751E+02 0.  0.
        -12    1    1    2    0    0  0.60983067890E+00 -0.42864878690E+02  0.67715242755E+01  0.43400728791E+02  0.00000000000E+00 0.  1.
         11    1    3    3    0    0 -0.36597717345E+01  0.10310851130E+02 -0.31654138643E+01  0.11389794791E+02  0.51100000000E-03 0. -1.
        -11    1    3    3    0    0  0.15458885432E+00 -0.16441307165E+01  0.72735861879E+00  0.18044706560E+01  0.51100000000E-03 0.  1.
        -12    1    3    3    0    0  0.28953522013E+01  0.34198158276E+02 -0.43334690300E+01  0.34593005763E+02  0.00000000000E+00 0.  1.
</event>
<event>
 7    1  0.2756432E-009  0.4778727E+02  0.7816164E-02  0.1312668E+00
        -11   -1    0    0    0    0  0.00000000000E+00  0.00000000000E+00  0.45593999997E+02  0.45594000000E+02  0.51100000000E-03 0.  1.
         11   -1    0    0    0    0 -0.00000000000E+00 -0.00000000000E+00 -0.45593999997E+02  0.45594000000E+02  0.51100000000E-03 0. -1.
    9900012    2    1    2    0    0 -0.39434220083E+02 -0.16177578805E+02  0.81762976585E+01  0.47787267138E+02  0.19999982189E+02 0.  0.
        -12    1    1    2    0    0  0.39434220083E+02  0.16177578805E+02 -0.81762976585E+01  0.43400732862E+02  0.00000000000E+00 0.  1.
         11    1    3    3    0    0 -0.25534589029E+02 -0.50681165170E+01  0.95183690116E+00  0.26050087057E+02  0.51100000000E-03 0. -1.
        -11    1    3    3    0    0  0.13058939155E+01 -0.62374189721E-01 -0.52305640139E+00  0.14081327062E+01  0.51100000000E-03 0.  1.
         12    1    3    3    0    0 -0.15205524970E+02 -0.11047088098E+02  0.77475171587E+01  0.20329047375E+02  0.00000000000E+00 0. -1.
</event>
<event>
 7    1  0.2756432E-009  0.4778727E+02  0.7816164E-02  0.1312668E+00
        -11   -1    0    0    0    0  0.00000000000E+00  0.00000000000E+00  0.45593999997E+02  0.45594000000E+02  0.51100000000E-03 0.  1.
         11   -1    0    0    0    0 -0.00000000000E+00 -0.00000000000E+00 -0.45593999997E+02  0.45594000000E+02  0.51100000000E-03 0. -1.
    9900012    2    1    2    0    0  0.24327228620E+02  0.21053416116E+02 -0.29130106817E+02  0.47787268374E+02  0.19999987824E+02 0.  0.
        -12    1    1    2    0    0 -0.24327228620E+02 -0.21053416116E+02  0.29130106817E+02  0.43400731626E+02  0.00000000000E+00 0.  1.
         11    1    3    3    0    0  0.88713482885E+01  0.15068647620E+02 -0.75192356390E+01  0.19034281347E+02  0.51100000000E-03 0.  1.
        -11    1    3    3    0    0 -0.29390305072E+00 -0.14505526990E+01 -0.24242023946E+01  0.28402886556E+01  0.51100000000E-03 0. -1.
         12    1    3    3    0    0  0.15749783382E+02  0.74353211953E+01 -0.19186668784E+02  0.25912698371E+02  0.00000000000E+00 0. -1.
</event>
<event>
 7    1  0.2756432E-009  0.4778725E+02  0.7816164E-02  0.1312668E+00
        -11   -1    0    0    0    0  0.00000000000E+00  0.00000000000E+00  0.45593999997E+02  0.45594000000E+02  0.51100000000E-03 0.  1.
         11   -1    0    0    0    0 -0.00000000000E+00 -0.00000000000E+00 -0.45593999997E+02  0.45594000000E+02  0.51100000000E-03 0. -1.
    9900012    2    1    2    0    0  0.43329115042E+02  0.24659793897E+01  0.36297415654E+00  0.47787250987E+02  0.19999908551E+02 0.  0.
        -12    1    1    2    0    0 -0.43329115042E+02 -0.24659793897E+01 -0.36297415654E+00  0.43400749013E+02  0.00000000000E+00 0.  1.
         11    1    3    3    0    0  0.23754606025E+02 -0.45891119907E+01 -0.56212760968E+01  0.24838276943E+02  0.51100000000E-03 0. -1.
        -11    1    3    3    0    0  0.13321747892E+02  0.71466608015E+01  0.69195218790E+01  0.16625989017E+02  0.51100000000E-03 0.  1.
        -12    1    3    3    0    0  0.62527611246E+01 -0.91569421119E-01 -0.93527162561E+00  0.63229850272E+01  0.00000000000E+00 0.  1.
</event>
<event>
 7    1  0.2756432E-009  0.4778727E+02  0.7816164E-02  0.1312668E+00
        -11   -1    0    0    0    0  0.00000000000E+00  0.00000000000E+00  0.45593999997E+02  0.45594000000E+02  0.51100000000E-03 0. -1.
         11   -1    0    0    0    0 -0.00000000000E+00 -0.00000000000E+00 -0.45593999997E+02  0.45594000000E+02  0.51100000000E-03 0.  1.
    9900012    2    1    2    0    0 -0.20708824607E+02  0.20471577251E+02  0.32182020502E+02  0.47787270336E+02  0.19999996771E+02 0.  0.
        -12    1    1    2    0    0  0.20708824607E+02 -0.20471577251E+02 -0.32182020502E+02  0.43400729664E+02  0.00000000000E+00 0.  1.
         11    1    3    3    0    0 -0.68722764571E+01  0.67597364208E+01  0.88733243245E+01  0.13101835940E+02  0.51100000000E-03 0. -1.
        -11    1    3    3    0    0 -0.47430814447E+01  0.15541622134E+02  0.16665886218E+02  0.23276395852E+02  0.51100000000E-03 0.  1.
        -12    1    3    3    0    0 -0.90934667052E+01 -0.18297813042E+01  0.66428099599E+01  0.11409038544E+02  0.00000000000E+00 0.  1.
</event>
<event>
 7    1  0.2756432E-009  0.4778727E+02  0.7816164E-02  0.1312668E+00
        -11   -1    0    0    0    0  0.00000000000E+00  0.00000000000E+00  0.45593999997E+02  0.45594000000E+02  0.51100000000E-03 0.  1.
         11   -1    0    0    0    0 -0.00000000000E+00 -0.00000000000E+00 -0.45593999997E+02  0.45594000000E+02  0.51100000000E-03 0. -1.
    9900012    2    1    2    0    0  0.35393659091E+02  0.23783003426E+02  0.80796421555E+01  0.47787274508E+02  0.20000015793E+02 0.  0.
        -12    1    1    2    0    0 -0.35393659091E+02 -0.23783003426E+02 -0.80796421555E+01  0.43400725492E+02  0.00000000000E+00 0.  1.
         11    1    3    3    0    0  0.59469877486E+01  0.57417558725E+00  0.48510264649E+01  0.76960248772E+01  0.51100000000E-03 0. -1.
        -11    1    3    3    0    0 -0.14167112170E+01  0.12683098967E+01 -0.68749582171E+00  0.20219622727E+01  0.51100000000E-03 0.  1.
         12    1    3    3    0    0  0.30863382560E+02  0.21940517943E+02  0.39161115123E+01  0.38069287358E+02  0.00000000000E+00 0. -1.
</event>
<event>
 7    1  0.2756432E-009  0.4778727E+02  0.7816164E-02  0.1312668E+00
        -11   -1    0    0    0    0  0.00000000000E+00  0.00000000000E+00  0.45593999997E+02  0.45594000000E+02  0.51100000000E-03 0.  1.
         11   -1    0    0    0    0 -0.00000000000E+00 -0.00000000000E+00 -0.45593999997E+02  0.45594000000E+02  0.51100000000E-03 0. -1.
    9900012    2    1    2    0    0  0.19662423312E+02 -0.11343371709E+02 -0.36991085462E+02  0.47787269869E+02  0.19999994642E+02 0.  0.
        -12    1    1    2    0    0 -0.19662423312E+02  0.11343371709E+02  0.36991085462E+02  0.43400730131E+02  0.00000000000E+00 0.  1.
         11    1    3    3    0    0  0.12064367865E+02 -0.75510218384E+01 -0.21940662643E+02  0.26152620906E+02  0.51100000000E-03 0. -1.
        -11    1    3    3    0    0  0.54239739130E+01  0.27491873600E+01 -0.12495512479E+01  0.62079709029E+01  0.51100000000E-03 0.  1.
        -12    1    3    3    0    0  0.21740815339E+01 -0.65415372309E+01 -0.13800871571E+02  0.15426678060E+02  0.00000000000E+00 0.  1.
</event>
<event>
 7    1  0.2756432E-009  0.4778727E+02  0.7816164E-02  0.1312668E+00
        -11   -1    0    0    0    0  0.00000000000E+00  0.00000000000E+00  0.45593999997E+02  0.45594000000E+02  0.51100000000E-03 0.  1.
         11   -1    0    0    0    0 -0.00000000000E+00 -0.00000000000E+00 -0.45593999997E+02  0.45594000000E+02  0.51100000000E-03 0. -1.
    9900012    2    1    2    0    0  0.34992879949E+02  0.40505941950E+01 -0.25351813333E+02  0.47787269595E+02  0.19999993391E+02 0.  0.
        -12    1    1    2    0    0 -0.34992879949E+02 -0.40505941950E+01  0.25351813333E+02  0.43400730405E+02  0.00000000000E+00 0.  1.
         11    1    3    3    0    0  0.69138907908E+01  0.29801248096E-01 -0.48574518856E+01  0.84497108273E+01  0.51100000000E-03 0. -1.
        -11    1    3    3    0    0  0.30052093397E+02  0.13351737997E+01 -0.19540597541E+02  0.35871241394E+02  0.51100000000E-03 0.  1.
        -12    1    3    3    0    0 -0.19731042395E+01  0.26856191472E+01 -0.95376390589E+00  0.34663173732E+01  0.00000000000E+00 0.  1.
</event>
<event>
 7    1  0.2756432E-009  0.4778728E+02  0.7816164E-02  0.1312668E+00
        -11   -1    0    0    0    0  0.00000000000E+00  0.00000000000E+00  0.45593999997E+02  0.45594000000E+02  0.51100000000E-03 0.  1.
         11   -1    0    0    0    0 -0.00000000000E+00 -0.00000000000E+00 -0.45593999997E+02  0.45594000000E+02  0.51100000000E-03 0. -1.
    9900012    2    1    2    0    0  0.33992674949E+02  0.26562592428E+02  0.47486389542E+01  0.47787276059E+02  0.20000022863E+02 0.  0.
        -12    1    1    2    0    0 -0.33992674949E+02 -0.26562592428E+02 -0.47486389542E+01  0.43400723941E+02  0.00000000000E+00 0.  1.
         11    1    3    3    0    0  0.30376272247E+02  0.21351143553E+02  0.10401910736E+02  0.38558902913E+02  0.51100000000E-03 0. -1.
        -11    1    3    3    0    0  0.20467786647E+01  0.48736302571E+01 -0.54792680584E+01  0.76134061696E+01  0.51100000000E-03 0.  1.
        -12    1    3    3    0    0  0.15696240373E+01  0.33781861768E+00 -0.17400372361E+00  0.16149669758E+01  0.00000000000E+00 0.  1.
</event>
<event>
 7    1  0.2756432E-009  0.4778730E+02  0.7816164E-02  0.1312668E+00
        -11   -1    0    0    0    0  0.00000000000E+00  0.00000000000E+00  0.45593999997E+02  0.45594000000E+02  0.51100000000E-03 0.  1.
         11   -1    0    0    0    0 -0.00000000000E+00 -0.00000000000E+00 -0.45593999997E+02  0.45594000000E+02  0.51100000000E-03 0. -1.
    9900012    2    1    2    0    0 -0.44729921355E+01  0.45328927947E+01 -0.42930944929E+02  0.47787299450E+02  0.20000129510E+02 0.  0.
        -12    1    1    2    0    0  0.44729921355E+01 -0.45328927947E+01  0.42930944929E+02  0.43400700550E+02  0.00000000000E+00 0.  1.
         11    1    3    3    0    0 -0.18262580118E+01  0.48892574286E+01 -0.22235781129E+02  0.22840096743E+02  0.51100000000E-03 0. -1.
        -11    1    3    3    0    0  0.12585308822E+00 -0.67133240314E+01 -0.12680260565E+02  0.14348294909E+02  0.51100000000E-03 0.  1.
         12    1    3    3    0    0 -0.27725872119E+01  0.63569593976E+01 -0.80149032349E+01  0.10598907797E+02  0.00000000000E+00 0. -1.
</event>
<event>
 7    1  0.2756432E-009  0.4778727E+02  0.7816164E-02  0.1312668E+00
        -11   -1    0    0    0    0  0.00000000000E+00  0.00000000000E+00  0.45593999997E+02  0.45594000000E+02  0.51100000000E-03 0.  1.
         11   -1    0    0    0    0 -0.00000000000E+00 -0.00000000000E+00 -0.45593999997E+02  0.45594000000E+02  0.51100000000E-03 0. -1.
    9900012    2    1    2    0    0 -0.33986236831E+02 -0.12057391383E+02 -0.24149081756E+02  0.47787272695E+02  0.20000007527E+02 0.  0.
        -12    1    1    2    0    0  0.33986236831E+02  0.12057391383E+02  0.24149081756E+02  0.43400727305E+02  0.00000000000E+00 0.  1.
         11    1    3    3    0    0 -0.22695032282E+02 -0.15737929846E+02 -0.14265152700E+02  0.31084425488E+02  0.51100000000E-03 0. -1.
        -11    1    3    3    0    0 -0.44159659694E+01  0.32897128807E+01 -0.77235615848E+01  0.94855874934E+01  0.51100000000E-03 0.  1.
         12    1    3    3    0    0 -0.68752385799E+01  0.39082558196E+00 -0.21603674714E+01  0.72172597139E+01  0.00000000000E+00 0. -1.
</event>
<event>
 7    1  0.2756432E-009  0.4778727E+02  0.7816164E-02  0.1312668E+00
        -11   -1    0    0    0    0  0.00000000000E+00  0.00000000000E+00  0.45593999997E+02  0.45594000000E+02  0.51100000000E-03 0.  1.
         11   -1    0    0    0    0 -0.00000000000E+00 -0.00000000000E+00 -0.45593999997E+02  0.45594000000E+02  0.51100000000E-03 0. -1.
    9900012    2    1    2    0    0  0.49221692750E+01 -0.32563947476E+02 -0.28266314285E+02  0.47787274789E+02  0.20000017071E+02 0.  0.
        -12    1    1    2    0    0 -0.49221692750E+01  0.32563947476E+02  0.28266314285E+02  0.43400725211E+02  0.00000000000E+00 0.  1.
         11    1    3    3    0    0  0.66115161270E+01 -0.19037690603E+02 -0.75170333640E+01  0.21509337504E+02  0.51100000000E-03 0.  1.
        -11    1    3    3    0    0 -0.56059221898E+00 -0.13070670911E+02 -0.21255998146E+02  0.24959450297E+02  0.51100000000E-03 0. -1.
        -12    1    3    3    0    0 -0.11287546330E+01 -0.45558596175E+00  0.50671722463E+00  0.13184869873E+01  0.00000000000E+00 0.  1.
</event>
<event>
 7    1  0.2756432E-009  0.4778724E+02  0.7816164E-02  0.1312668E+00
        -11   -1    0    0    0    0  0.00000000000E+00  0.00000000000E+00  0.45593999997E+02  0.45594000000E+02  0.51100000000E-03 0. -1.
         11   -1    0    0    0    0 -0.00000000000E+00 -0.00000000000E+00 -0.45593999997E+02  0.45594000000E+02  0.51100000000E-03 0.  1.
    9900012    2    1    2    0    0 -0.33156380974E+02  0.26567713510E+02 -0.88564546613E+01  0.47787242062E+02  0.19999867856E+02 0.  0.
        -12    1    1    2    0    0  0.33156380974E+02 -0.26567713510E+02  0.88564546613E+01  0.43400757938E+02  0.00000000000E+00 0.  1.
         11    1    3    3    0    0 -0.22961026317E+02  0.17543032694E+02 -0.16215748317E+01  0.28941254825E+02  0.51100000000E-03 0. -1.
        -11    1    3    3    0    0  0.76813990481E+00 -0.19422524941E+00 -0.41088235867E+01  0.41845183581E+01  0.51100000000E-03 0.  1.
        -12    1    3    3    0    0 -0.10963494562E+02  0.92189060653E+01 -0.31260562428E+01  0.14661468879E+02  0.00000000000E+00 0.  1.
</event>
<event>
 7    1  0.2756432E-009  0.4778727E+02  0.7816164E-02  0.1312668E+00
        -11   -1    0    0    0    0  0.00000000000E+00  0.00000000000E+00  0.45593999997E+02  0.45594000000E+02  0.51100000000E-03 0.  1.
         11   -1    0    0    0    0 -0.00000000000E+00 -0.00000000000E+00 -0.45593999997E+02  0.45594000000E+02  0.51100000000E-03 0. -1.
    9900012    2    1    2    0    0 -0.23919522296E+02  0.35744032534E+02 -0.58175509989E+01  0.47787270648E+02  0.19999998194E+02 0.  0.
        -12    1    1    2    0    0  0.23919522296E+02 -0.35744032534E+02  0.58175509989E+01  0.43400729352E+02  0.00000000000E+00 0.  1.
         11    1    3    3    0    0 -0.15479722372E+02  0.15549272050E+02 -0.18678957973E+01  0.22020233899E+02  0.51100000000E-03 0.  1.
        -11    1    3    3    0    0 -0.10947556918E+02  0.16964329385E+02 -0.61723935424E+01  0.21112458793E+02  0.51100000000E-03 0. -1.
        -12    1    3    3    0    0  0.25077569942E+01  0.32304310983E+01  0.22227383408E+01  0.46545779567E+01  0.00000000000E+00 0.  1.
</event>
<event>
 7    1  0.2756432E-009  0.4778727E+02  0.7816164E-02  0.1312668E+00
        -11   -1    0    0    0    0  0.00000000000E+00  0.00000000000E+00  0.45593999997E+02  0.45594000000E+02  0.51100000000E-03 0.  1.
         11   -1    0    0    0    0 -0.00000000000E+00 -0.00000000000E+00 -0.45593999997E+02  0.45594000000E+02  0.51100000000E-03 0. -1.
    9900012    2    1    2    0    0 -0.19438110540E+02  0.28470219476E+02 -0.26367205532E+02  0.47787273440E+02  0.20000010923E+02 0.  0.
        -12    1    1    2    0    0  0.19438110540E+02 -0.28470219476E+02  0.26367205532E+02  0.43400726560E+02  0.00000000000E+00 0.  1.
         11    1    3    3    0    0 -0.25444981368E+01  0.13962524473E+02 -0.17041419146E+02  0.22177387745E+02  0.51100000000E-03 0. -1.
        -11    1    3    3    0    0  0.96116499855E+00  0.79206417323E+00 -0.10275121835E+01  0.16146161641E+01  0.51100000000E-03 0.  1.
         12    1    3    3    0    0 -0.17854777402E+02  0.13715630830E+02 -0.82982742021E+01  0.23995269531E+02  0.00000000000E+00 0. -1.
</event>
<event>
 7    1  0.2756432E-009  0.4778727E+02  0.7816164E-02  0.1312668E+00
        -11   -1    0    0    0    0  0.00000000000E+00  0.00000000000E+00  0.45593999997E+02  0.45594000000E+02  0.51100000000E-03 0.  1.
         11   -1    0    0    0    0 -0.00000000000E+00 -0.00000000000E+00 -0.45593999997E+02  0.45594000000E+02  0.51100000000E-03 0. -1.
    9900012    2    1    2    0    0  0.18640957975E+02  0.15969721268E+02 -0.35792542960E+02  0.47787269094E+02  0.19999991107E+02 0.  0.
        -12    1    1    2    0    0 -0.18640957975E+02 -0.15969721268E+02  0.35792542960E+02  0.43400730906E+02  0.00000000000E+00 0.  1.
         11    1    3    3    0    0  0.71460615579E+01  0.31198928829E+01 -0.13744812120E+02  0.15802524731E+02  0.51100000000E-03 0. -1.
        -11    1    3    3    0    0  0.71542211339E+01  0.81717372362E+01 -0.21276436424E+01  0.11067386196E+02  0.51100000000E-03 0.  1.
        -12    1    3    3    0    0  0.43406752834E+01  0.46780911489E+01 -0.19920087197E+02  0.20917358166E+02  0.00000000000E+00 0.  1.
</event>
<event>
 7    1  0.2756432E-009  0.4778728E+02  0.7816164E-02  0.1312668E+00
        -11   -1    0    0    0    0  0.00000000000E+00  0.00000000000E+00  0.45593999997E+02  0.45594000000E+02  0.51100000000E-03 0.  1.
         11   -1    0    0    0    0 -0.00000000000E+00 -0.00000000000E+00 -0.45593999997E+02  0.45594000000E+02  0.51100000000E-03 0. -1.
    9900012    2    1    2    0    0  0.35807656033E+02  0.99888569606E+01  0.22397708926E+02  0.47787275823E+02  0.20000021788E+02 0.  0.
        -12    1    1    2    0    0 -0.35807656033E+02 -0.99888569606E+01 -0.22397708926E+02  0.43400724177E+02  0.00000000000E+00 0.  1.
         11    1    3    3    0    0  0.14844325452E+02  0.61465608853E+01  0.15859226135E+02  0.22575412792E+02  0.51100000000E-03 0. -1.
        -11    1    3    3    0    0  0.10710075075E+02 -0.29965490486E+01 -0.28360523245E+00  0.11124991978E+02  0.51100000000E-03 0.  1.
         12    1    3    3    0    0  0.10253255506E+02  0.68388451238E+01  0.68220880229E+01  0.14086871054E+02  0.00000000000E+00 0. -1.
</event>
<event>
 7    1  0.2756432E-009  0.4778727E+02  0.7816164E-02  0.1312668E+00
        -11   -1    0    0    0    0  0.00000000000E+00  0.00000000000E+00  0.45593999997E+02  0.45594000000E+02  0.51100000000E-03 0.  1.
         11   -1    0    0    0    0 -0.00000000000E+00 -0.00000000000E+00 -0.45593999997E+02  0.45594000000E+02  0.51100000000E-03 0. -1.
    9900012    2    1    2    0    0 -0.12946689371E+01 -0.32978264523E+02 -0.28184772832E+02  0.47787268230E+02  0.19999987167E+02 0.  0.
        -12    1    1    2    0    0  0.12946689371E+01  0.32978264523E+02  0.28184772832E+02  0.43400731770E+02  0.00000000000E+00 0.  1.
         11    1    3    3    0    0 -0.49265128016E+01 -0.18770338021E+02 -0.13091262646E+02  0.23408914450E+02  0.51100000000E-03 0. -1.
        -11    1    3    3    0    0  0.71342549849E+01 -0.71335184760E+01 -0.12512506571E+02  0.16073191997E+02  0.51100000000E-03 0.  1.
        -12    1    3    3    0    0 -0.35024111205E+01 -0.70744080257E+01 -0.25810036155E+01  0.83051617825E+01  0.00000000000E+00 0.  1.
</event>
<event>
 7    1  0.2756432E-009  0.4778728E+02  0.7816164E-02  0.1312668E+00
        -11   -1    0    0    0    0  0.00000000000E+00  0.00000000000E+00  0.45593999997E+02  0.45594000000E+02  0.51100000000E-03 0.  1.
         11   -1    0    0    0    0 -0.00000000000E+00 -0.00000000000E+00 -0.45593999997E+02  0.45594000000E+02  0.51100000000E-03 0. -1.
    9900012    2    1    2    0    0 -0.27256823282E+02 -0.19795293935E+02 -0.27364846402E+02  0.47787275397E+02  0.20000019847E+02 0.  0.
        -12    1    1    2    0    0  0.27256823282E+02  0.19795293935E+02  0.27364846402E+02  0.43400724603E+02  0.00000000000E+00 0.  1.
         11    1    3    3    0    0 -0.10413279512E+02 -0.43347344300E+00 -0.37969793685E+01  0.11092400192E+02  0.51100000000E-03 0. -1.
        -11    1    3    3    0    0 -0.62595448049E+00 -0.58861340329E+01 -0.10001737026E+02  0.11622096914E+02  0.51100000000E-03 0.  1.
         12    1    3    3    0    0 -0.16217589290E+02 -0.13475686459E+02 -0.13566130007E+02  0.25072778292E+02  0.00000000000E+00 0. -1.
</event>
<event>
 7    1  0.2756432E-009  0.4778727E+02  0.7816164E-02  0.1312668E+00
        -11   -1    0    0    0    0  0.00000000000E+00  0.00000000000E+00  0.45593999997E+02  0.45594000000E+02  0.51100000000E-03 0.  1.
         11   -1    0    0    0    0 -0.00000000000E+00 -0.00000000000E+00 -0.45593999997E+02  0.45594000000E+02  0.51100000000E-03 0. -1.
    9900012    2    1    2    0    0  0.19848987460E+02  0.12512690217E+02 -0.36511278927E+02  0.47787271797E+02  0.20000003432E+02 0.  0.
        -12    1    1    2    0    0 -0.19848987460E+02 -0.12512690217E+02  0.36511278927E+02  0.43400728203E+02  0.00000000000E+00 0.  1.
         11    1    3    3    0    0  0.11672081538E+02  0.51386209524E+01 -0.32436552828E+02  0.34853591957E+02  0.51100000000E-03 0. -1.
        -11    1    3    3    0    0  0.43800829533E+01  0.13772046027E+01  0.29106433827E+00  0.46007105870E+01  0.51100000000E-03 0.  1.
        -12    1    3    3    0    0  0.37968229688E+01  0.59968646616E+01 -0.43657904374E+01  0.83329692528E+01  0.00000000000E+00 0.  1.
</event>
<event>
 7    1  0.2756432E-009  0.4778727E+02  0.7816164E-02  0.1312668E+00
        -11   -1    0    0    0    0  0.00000000000E+00  0.00000000000E+00  0.45593999997E+02  0.45594000000E+02  0.51100000000E-03 0.  1.
         11   -1    0    0    0    0 -0.00000000000E+00 -0.00000000000E+00 -0.45593999997E+02  0.45594000000E+02  0.51100000000E-03 0. -1.
    9900012    2    1    2    0    0  0.11666454054E+02  0.23619896108E+02 -0.34490835012E+02  0.47787270258E+02  0.19999996413E+02 0.  0.
        -12    1    1    2    0    0 -0.11666454054E+02 -0.23619896108E+02  0.34490835012E+02  0.43400729742E+02  0.00000000000E+00 0.  1.
         11    1    3    3    0    0  0.14566202490E+02  0.18158088382E+02 -0.28383037148E+02  0.36708135701E+02  0.51100000000E-03 0. -1.
        -11    1    3    3    0    0 -0.45670704685E+01  0.15165081780E+01 -0.22399796188E+01  0.53080541323E+01  0.51100000000E-03 0.  1.
         12    1    3    3    0    0  0.16673220325E+01  0.39452995479E+01 -0.38678182452E+01  0.57710804241E+01  0.00000000000E+00 0. -1.
</event>
<event>
 7    1  0.2756432E-009  0.4778727E+02  0.7816164E-02  0.1312668E+00
        -11   -1    0    0    0    0  0.00000000000E+00  0.00000000000E+00  0.45593999997E+02  0.45594000000E+02  0.51100000000E-03 0.  1.
         11   -1    0    0    0    0 -0.00000000000E+00 -0.00000000000E+00 -0.45593999997E+02  0.45594000000E+02  0.51100000000E-03 0. -1.
    9900012    2    1    2    0    0 -0.33298361946E+02  0.16976351136E+02 -0.22060055253E+02  0.47787269085E+02  0.19999991065E+02 0.  0.
        -12    1    1    2    0    0  0.33298361946E+02 -0.16976351136E+02  0.22060055253E+02  0.43400730915E+02  0.00000000000E+00 0.  1.
         11    1    3    3    0    0 -0.24022326324E+01  0.91622371881E+01 -0.38238117835E+01  0.10214638943E+02  0.51100000000E-03 0. -1.
        -11    1    3    3    0    0 -0.15710377105E+02  0.46769987786E+01 -0.48682122063E+01  0.17099408080E+02  0.51100000000E-03 0.  1.
         12    1    3    3    0    0 -0.15185752209E+02  0.31371151694E+01 -0.13368031263E+02  0.20473222062E+02  0.00000000000E+00 0. -1.
</event>
<event>
 7    1  0.2756432E-009  0.4778727E+02  0.7816164E-02  0.1312668E+00
        -11   -1    0    0    0    0  0.00000000000E+00  0.00000000000E+00  0.45593999997E+02  0.45594000000E+02  0.51100000000E-03 0. -1.
         11   -1    0    0    0    0 -0.00000000000E+00 -0.00000000000E+00 -0.45593999997E+02  0.45594000000E+02  0.51100000000E-03 0.  1.
    9900012    2    1    2    0    0  0.36187391388E+02  0.21639703893E+02 -0.10286866601E+02  0.47787266083E+02  0.19999977379E+02 0.  0.
        -12    1    1    2    0    0 -0.36187391388E+02 -0.21639703893E+02  0.10286866601E+02  0.43400733917E+02  0.00000000000E+00 0.  1.
         11    1    3    3    0    0  0.74935361237E+01  0.43594477899E+01 -0.33494687845E+01  0.92939125276E+01  0.51100000000E-03 0. -1.
        -11    1    3    3    0    0  0.29753385780E+02  0.18751525346E+02 -0.45007605758E+01  0.35456177377E+02  0.51100000000E-03 0.  1.
        -12    1    3    3    0    0 -0.10595305153E+01 -0.14712692427E+01 -0.24366372407E+01  0.30371761787E+01  0.00000000000E+00 0.  1.
</event>
<event>
 7    1  0.2756432E-009  0.4778727E+02  0.7816164E-02  0.1312668E+00
        -11   -1    0    0    0    0  0.00000000000E+00  0.00000000000E+00  0.45593999997E+02  0.45594000000E+02  0.51100000000E-03 0.  1.
         11   -1    0    0    0    0 -0.00000000000E+00 -0.00000000000E+00 -0.45593999997E+02  0.45594000000E+02  0.51100000000E-03 0. -1.
    9900012    2    1    2    0    0 -0.41696129289E+02  0.87182112433E+01 -0.83095631105E+01  0.47787271388E+02  0.20000001566E+02 0.  0.
        -12    1    1    2    0    0  0.41696129289E+02 -0.87182112433E+01  0.83095631105E+01  0.43400728612E+02  0.00000000000E+00 0.  1.
         11    1    3    3    0    0 -0.32591786143E+02  0.21320951743E+01 -0.68960761120E+01  0.33381525127E+02  0.51100000000E-03 0. -1.
        -11    1    3    3    0    0 -0.82599493625E+01  0.86862058763E+01 -0.17628058776E+01  0.12115462056E+02  0.51100000000E-03 0.  1.
         12    1    3    3    0    0 -0.84439378380E+00 -0.21000898072E+01  0.34931887913E+00  0.22902842050E+01  0.00000000000E+00 0. -1.
</event>
<event>
 7    1  0.2756432E-009  0.4778727E+02  0.7816164E-02  0.1312668E+00
        -11   -1    0    0    0    0  0.00000000000E+00  0.00000000000E+00  0.45593999997E+02  0.45594000000E+02  0.51100000000E-03 0.  1.
         11   -1    0    0    0    0 -0.00000000000E+00 -0.00000000000E+00 -0.45593999997E+02  0.45594000000E+02  0.51100000000E-03 0. -1.
    9900012    2    1    2    0    0 -0.10200423190E+02 -0.42136860852E+02 -0.20148914111E+01  0.47787268864E+02  0.19999990059E+02 0.  0.
        -12    1    1    2    0    0  0.10200423190E+02  0.42136860852E+02  0.20148914111E+01  0.43400731136E+02  0.00000000000E+00 0.  1.
         11    1    3    3    0    0 -0.30310409759E+01 -0.26157490153E+02 -0.32110720850E+01  0.26527579699E+02  0.51100000000E-03 0. -1.
        -11    1    3    3    0    0 -0.55762306510E+01 -0.14234658158E+01 -0.23126246449E+01  0.62023250649E+01  0.51100000000E-03 0.  1.
        -12    1    3    3    0    0 -0.15931515635E+01 -0.14555904884E+02  0.35088053189E+01  0.15057364100E+02  0.00000000000E+00 0.  1.
</event>
<event>
 7    1  0.2756432E-009  0.4778728E+02  0.7816164E-02  0.1312668E+00
        -11   -1    0    0    0    0  0.00000000000E+00  0.00000000000E+00  0.45593999997E+02  0.45594000000E+02  0.51100000000E-03 0.  1.
         11   -1    0    0    0    0 -0.00000000000E+00 -0.00000000000E+00 -0.45593999997E+02  0.45594000000E+02  0.51100000000E-03 0. -1.
    9900012    2    1    2    0    0  0.28252461956E+02  0.32885398668E+02  0.19929533534E+01  0.47787275177E+02  0.20000018841E+02 0.  0.
        -12    1    1    2    0    0 -0.28252461956E+02 -0.32885398668E+02 -0.19929533534E+01  0.43400724823E+02  0.00000000000E+00 0.  1.
         11    1    3    3    0    0  0.16351002370E+01 -0.26383384109E+01  0.97515794826E+00  0.32535082051E+01  0.51100000000E-03 0. -1.
        -11    1    3    3    0    0  0.14752295835E+02  0.22456647709E+02  0.35376903300E+00  0.26871107375E+02  0.51100000000E-03 0.  1.
         12    1    3    3    0    0  0.11865065884E+02  0.13067089369E+02  0.66402637217E+00  0.17662659597E+02  0.00000000000E+00 0. -1.
</event>
<event>
 7    1  0.2756432E-009  0.4778728E+02  0.7816164E-02  0.1312668E+00
        -11   -1    0    0    0    0  0.00000000000E+00  0.00000000000E+00  0.45593999997E+02  0.45594000000E+02  0.51100000000E-03 0. -1.
         11   -1    0    0    0    0 -0.00000000000E+00 -0.00000000000E+00 -0.45593999997E+02  0.45594000000E+02  0.51100000000E-03 0.  1.
    9900012    2    1    2    0    0 -0.41345643632E+02  0.70208873721E+01  0.11174426516E+02  0.47787275181E+02  0.20000018860E+02 0.  0.
        -12    1    1    2    0    0  0.41345643632E+02 -0.70208873721E+01 -0.11174426516E+02  0.43400724819E+02  0.00000000000E+00 0.  1.
         11    1    3    3    0    0 -0.59860639839E+01 -0.52072064001E+01  0.48028585422E+01  0.92744493610E+01  0.51100000000E-03 0. -1.
        -11    1    3    3    0    0 -0.30282101330E+02  0.90250017902E+01  0.33025872914E+01  0.31770480030E+02  0.51100000000E-03 0.  1.
        -12    1    3    3    0    0 -0.50774783187E+01  0.32030919820E+01  0.30689806820E+01  0.67423457898E+01  0.00000000000E+00 0.  1.
</event>
<event>
 7    1  0.2756432E-009  0.4778727E+02  0.7816164E-02  0.1312668E+00
        -11   -1    0    0    0    0  0.00000000000E+00  0.00000000000E+00  0.45593999997E+02  0.45594000000E+02  0.51100000000E-03 0. -1.
         11   -1    0    0    0    0 -0.00000000000E+00 -0.00000000000E+00 -0.45593999997E+02  0.45594000000E+02  0.51100000000E-03 0.  1.
    9900012    2    1    2    0    0  0.24811852121E+02 -0.35606343879E+02  0.42833758800E+00  0.47787271858E+02  0.20000003712E+02 0.  0.
        -12    1    1    2    0    0 -0.24811852121E+02  0.35606343879E+02 -0.42833758800E+00  0.43400728142E+02  0.00000000000E+00 0.  1.
         11    1    3    3    0    0  0.16703867103E+02 -0.14933893196E+02 -0.37973516906E+01  0.22725761204E+02  0.51100000000E-03 0. -1.
        -11    1    3    3    0    0  0.34253508239E+01 -0.19122592140E+02  0.16496184073E+01  0.19496866404E+02  0.51100000000E-03 0.  1.
        -12    1    3    3    0    0  0.46826341946E+01 -0.15498585433E+01  0.25760708713E+01  0.55646442508E+01  0.00000000000E+00 0.  1.
</event>
<event>
 7    1  0.2756432E-009  0.4778726E+02  0.7816164E-02  0.1312668E+00
        -11   -1    0    0    0    0  0.00000000000E+00  0.00000000000E+00  0.45593999997E+02  0.45594000000E+02  0.51100000000E-03 0.  1.
         11   -1    0    0    0    0 -0.00000000000E+00 -0.00000000000E+00 -0.45593999997E+02  0.45594000000E+02  0.51100000000E-03 0. -1.
    9900012    2    1    2    0    0  0.23628098140E+02  0.32931685416E+02 -0.15519065014E+02  0.47787259166E+02  0.19999945840E+02 0.  0.
        -12    1    1    2    0    0 -0.23628098140E+02 -0.32931685416E+02  0.15519065014E+02  0.43400740834E+02  0.00000000000E+00 0.  1.
         11    1    3    3    0    0 -0.22676586240E+01  0.51872200549E+01  0.58731422052E+00  0.56916136365E+01  0.51100000000E-03 0.  1.
        -11    1    3    3    0    0  0.18121038009E+02  0.16296968882E+02 -0.64151851192E+01  0.25201543874E+02  0.51100000000E-03 0. -1.
        -12    1    3    3    0    0  0.77747187553E+01  0.11447496479E+02 -0.96911941150E+01  0.16894101655E+02  0.00000000000E+00 0.  1.
</event>
<event>
 7    1  0.2756432E-009  0.4778727E+02  0.7816164E-02  0.1312668E+00
        -11   -1    0    0    0    0  0.00000000000E+00  0.00000000000E+00  0.45593999997E+02  0.45594000000E+02  0.51100000000E-03 0. -1.
         11   -1    0    0    0    0 -0.00000000000E+00 -0.00000000000E+00 -0.45593999997E+02  0.45594000000E+02  0.51100000000E-03 0.  1.
    9900012    2    1    2    0    0 -0.25738871055E+02  0.23522083974E+02  0.25842697581E+02  0.47787274938E+02  0.20000017750E+02 0.  0.
        -12    1    1    2    0    0  0.25738871055E+02 -0.23522083974E+02 -0.25842697581E+02  0.43400725062E+02  0.00000000000E+00 0.  1.
         11    1    3    3    0    0 -0.40248552217E+01 -0.82072727265E+00 -0.74862018893E+00  0.41753425321E+01  0.51100000000E-03 0.  1.
        -11    1    3    3    0    0 -0.10673039807E+02  0.10115893585E+02  0.19105582284E+02  0.24109507594E+02  0.51100000000E-03 0. -1.
        -12    1    3    3    0    0 -0.11040976027E+02  0.14226917662E+02  0.74857354863E+01  0.19502424812E+02  0.00000000000E+00 0.  1.
</event>
<event>
 7    1  0.2756432E-009  0.4778726E+02  0.7816164E-02  0.1312668E+00
        -11   -1    0    0    0    0  0.00000000000E+00  0.00000000000E+00  0.45593999997E+02  0.45594000000E+02  0.51100000000E-03 0.  1.
         11   -1    0    0    0    0 -0.00000000000E+00 -0.00000000000E+00 -0.45593999997E+02  0.45594000000E+02  0.51100000000E-03 0. -1.
    9900012    2    1    2    0    0  0.14206286441E+02  0.54270624676E+01 -0.40649136950E+02  0.47787263644E+02  0.19999966259E+02 0.  0.
        -12    1    1    2    0    0 -0.14206286441E+02 -0.54270624676E+01  0.40649136950E+02  0.43400736356E+02  0.00000000000E+00 0.  1.
         11    1    3    3    0    0  0.16364996573E+02  0.83354973865E+00 -0.25085779905E+02  0.29963382180E+02  0.51100000000E-03 0. -1.
        -11    1    3    3    0    0 -0.14635652936E+01  0.63501707976E+01 -0.13697230025E+02  0.15168414655E+02  0.51100000000E-03 0.  1.
         12    1    3    3    0    0 -0.69514483862E+00 -0.17566580687E+01 -0.18661270200E+01  0.26554668087E+01  0.00000000000E+00 0. -1.
</event>
<event>
 7    1  0.2756432E-009  0.4778727E+02  0.7816164E-02  0.1312668E+00
        -11   -1    0    0    0    0  0.00000000000E+00  0.00000000000E+00  0.45593999997E+02  0.45594000000E+02  0.51100000000E-03 0. -1.
         11   -1    0    0    0    0 -0.00000000000E+00 -0.00000000000E+00 -0.45593999997E+02  0.45594000000E+02  0.51100000000E-03 0.  1.
    9900012    2    1    2    0    0 -0.14303237156E+02 -0.38908773286E+02  0.12850995241E+02  0.47787270623E+02  0.19999998080E+02 0.  0.
        -12    1    1    2    0    0  0.14303237156E+02  0.38908773286E+02 -0.12850995241E+02  0.43400729377E+02  0.00000000000E+00 0.  1.
         11    1    3    3    0    0 -0.58204222182E+01 -0.54752632477E+01  0.41604046256E+01  0.90091503117E+01  0.51100000000E-03 0. -1.
        -11    1    3    3    0    0 -0.90690436049E+01 -0.32196301689E+02  0.11728607949E+02  0.35445869140E+02  0.51100000000E-03 0.  1.
        -12    1    3    3    0    0  0.58622866741E+00 -0.12372083490E+01 -0.30380173344E+01  0.33322511720E+01  0.00000000000E+00 0.  1.
</event>
<event>
 7    1  0.2756432E-009  0.4778727E+02  0.7816164E-02  0.1312668E+00
        -11   -1    0    0    0    0  0.00000000000E+00  0.00000000000E+00  0.45593999997E+02  0.45594000000E+02  0.51100000000E-03 0. -1.
         11   -1    0    0    0    0 -0.00000000000E+00 -0.00000000000E+00 -0.45593999997E+02  0.45594000000E+02  0.51100000000E-03 0.  1.
    9900012    2    1    2    0    0  0.18534365316E+02 -0.38720415974E+02 -0.63898303474E+01  0.47787271403E+02  0.20000001636E+02 0.  0.
        -12    1    1    2    0    0 -0.18534365316E+02  0.38720415974E+02  0.63898303474E+01  0.43400728597E+02  0.00000000000E+00 0.  1.
         11    1    3    3    0    0  0.77784056927E+01 -0.11390242215E+02 -0.67017414295E+01  0.15334749796E+02  0.51100000000E-03 0. -1.
        -11    1    3    3    0    0  0.30305732263E+01 -0.68334506671E+01  0.62652271681E+01  0.97536400296E+01  0.51100000000E-03 0.  1.
        -12    1    3    3    0    0  0.77253863964E+01 -0.20496723092E+02 -0.59533160860E+01  0.22698881578E+02  0.00000000000E+00 0.  1.
</event>
<event>
 7    1  0.2756432E-009  0.4778727E+02  0.7816164E-02  0.1312668E+00
        -11   -1    0    0    0    0  0.00000000000E+00  0.00000000000E+00  0.45593999997E+02  0.45594000000E+02  0.51100000000E-03 0.  1.
         11   -1    0    0    0    0 -0.00000000000E+00 -0.00000000000E+00 -0.45593999997E+02  0.45594000000E+02  0.51100000000E-03 0. -1.
    9900012    2    1    2    0    0  0.24505063319E+02  0.11207470256E+01 -0.35803201049E+02  0.47787269505E+02  0.19999992979E+02 0.  0.
        -12    1    1    2    0    0 -0.24505063319E+02 -0.11207470256E+01  0.35803201049E+02  0.43400730495E+02  0.00000000000E+00 0.  1.
         11    1    3    3    0    0  0.13373177852E+02  0.89893946442E+01 -0.19880122910E+02  0.25590435501E+02  0.51100000000E-03 0. -1.
        -11    1    3    3    0    0  0.11312791266E+02 -0.88895823179E+01 -0.14413534317E+02  0.20365507403E+02  0.51100000000E-03 0.  1.
        -12    1    3    3    0    0 -0.18090579883E+00  0.10209346993E+01 -0.15095438220E+01  0.18313266008E+01  0.00000000000E+00 0.  1.
</event>
<event>
 7    1  0.2756432E-009  0.4778727E+02  0.7816164E-02  0.1312668E+00
        -11   -1    0    0    0    0  0.00000000000E+00  0.00000000000E+00  0.45593999997E+02  0.45594000000E+02  0.51100000000E-03 0.  1.
         11   -1    0    0    0    0 -0.00000000000E+00 -0.00000000000E+00 -0.45593999997E+02  0.45594000000E+02  0.51100000000E-03 0. -1.
    9900012    2    1    2    0    0  0.13455549981E+02  0.27249667538E+02 -0.30984298700E+02  0.47787274521E+02  0.20000015849E+02 0.  0.
        -12    1    1    2    0    0 -0.13455549981E+02 -0.27249667538E+02  0.30984298700E+02  0.43400725479E+02  0.00000000000E+00 0.  1.
         11    1    3    3    0    0  0.16632071849E+02  0.21086095099E+02 -0.24781821095E+02  0.36542959343E+02  0.51100000000E-03 0. -1.
        -11    1    3    3    0    0 -0.33852065868E+01  0.40460084211E+01 -0.67125730983E+00  0.53179314039E+01  0.51100000000E-03 0.  1.
         12    1    3    3    0    0  0.20868471927E+00  0.21175640183E+01 -0.55312202950E+01  0.59263837739E+01  0.00000000000E+00 0. -1.
</event>
<event>
 7    1  0.2756432E-009  0.4778727E+02  0.7816164E-02  0.1312668E+00
        -11   -1    0    0    0    0  0.00000000000E+00  0.00000000000E+00  0.45593999997E+02  0.45594000000E+02  0.51100000000E-03 0.  1.
         11   -1    0    0    0    0 -0.00000000000E+00 -0.00000000000E+00 -0.45593999997E+02  0.45594000000E+02  0.51100000000E-03 0. -1.
    9900012    2    1    2    0    0  0.29590642386E+02 -0.12914999307E+02  0.29003795897E+02  0.47787268435E+02  0.19999988103E+02 0.  0.
        -12    1    1    2    0    0 -0.29590642386E+02  0.12914999307E+02 -0.29003795897E+02  0.43400731565E+02  0.00000000000E+00 0.  1.
         11    1    3    3    0    0  0.11050068063E+02 -0.68242730104E+01  0.19218881501E+02  0.23195691684E+02  0.51100000000E-03 0.  1.
        -11    1    3    3    0    0  0.14839341994E+02 -0.39515880801E+01  0.17054806089E+01  0.15450882937E+02  0.51100000000E-03 0. -1.
         12    1    3    3    0    0  0.37012323289E+01 -0.21391382164E+01  0.80794337879E+01  0.91406938137E+01  0.00000000000E+00 0. -1.
</event>
<event>
 7    1  0.2756432E-009  0.4778728E+02  0.7816164E-02  0.1312668E+00
        -11   -1    0    0    0    0  0.00000000000E+00  0.00000000000E+00  0.45593999997E+02  0.45594000000E+02  0.51100000000E-03 0.  1.
         11   -1    0    0    0    0 -0.00000000000E+00 -0.00000000000E+00 -0.45593999997E+02  0.45594000000E+02  0.51100000000E-03 0. -1.
    9900012    2    1    2    0    0 -0.33867588322E+02 -0.80342149795E+01 -0.25924130357E+02  0.47787277842E+02  0.20000030993E+02 0.  0.
        -12    1    1    2    0    0  0.33867588322E+02  0.80342149795E+01  0.25924130357E+02  0.43400722158E+02  0.00000000000E+00 0.  1.
         11    1    3    3    0    0 -0.56567563492E+01 -0.30913598656E+01 -0.15439095746E+02  0.16730842057E+02  0.51100000000E-03 0. -1.
        -11    1    3    3    0    0 -0.27417125145E+02 -0.57311633361E+01 -0.95331491342E+01  0.29587597353E+02  0.51100000000E-03 0.  1.
        -12    1    3    3    0    0 -0.79370682739E+00  0.78830822211E+00 -0.95188547624E+00  0.14688384325E+01  0.00000000000E+00 0.  1.
</event>
<event>
 7    1  0.2756432E-009  0.4778727E+02  0.7816164E-02  0.1312668E+00
        -11   -1    0    0    0    0  0.00000000000E+00  0.00000000000E+00  0.45593999997E+02  0.45594000000E+02  0.51100000000E-03 0.  1.
         11   -1    0    0    0    0 -0.00000000000E+00 -0.00000000000E+00 -0.45593999997E+02  0.45594000000E+02  0.51100000000E-03 0. -1.
    9900012    2    1    2    0    0  0.10737311058E+02 -0.28056699685E+02 -0.31323392541E+02  0.47787272284E+02  0.20000005652E+02 0.  0.
        -12    1    1    2    0    0 -0.10737311058E+02  0.28056699685E+02  0.31323392541E+02  0.43400727716E+02  0.00000000000E+00 0.  1.
         11    1    3    3    0    0 -0.34680140521E+01 -0.56297051884E+01 -0.10128257383E+02  0.12095548762E+02  0.51100000000E-03 0. -1.
        -11    1    3    3    0    0  0.10814406482E+02 -0.15193019827E+02 -0.80564390990E+01  0.20314660968E+02  0.51100000000E-03 0.  1.
         12    1    3    3    0    0  0.33909186276E+01 -0.72339746697E+01 -0.13138696059E+02  0.15377062554E+02  0.00000000000E+00 0. -1.
</event>
<event>
 7    1  0.2756432E-009  0.4778727E+02  0.7816164E-02  0.1312668E+00
        -11   -1    0    0    0    0  0.00000000000E+00  0.00000000000E+00  0.45593999997E+02  0.45594000000E+02  0.51100000000E-03 0. -1.
         11   -1    0    0    0    0 -0.00000000000E+00 -0.00000000000E+00 -0.45593999997E+02  0.45594000000E+02  0.51100000000E-03 0.  1.
    9900012    2    1    2    0    0 -0.24896718047E+02 -0.11366103146E+02  0.33683651109E+02  0.47787271639E+02  0.20000002709E+02 0.  0.
        -12    1    1    2    0    0  0.24896718047E+02  0.11366103146E+02 -0.33683651109E+02  0.43400728361E+02  0.00000000000E+00 0.  1.
         11    1    3    3    0    0 -0.14034544831E+02 -0.10964315378E+02  0.29432179270E+02  0.34401131335E+02  0.51100000000E-03 0. -1.
        -11    1    3    3    0    0 -0.83502977439E+01  0.16081411799E+01  0.52789063599E+01  0.10009018088E+02  0.51100000000E-03 0.  1.
         12    1    3    3    0    0 -0.25118754725E+01 -0.20099289480E+01 -0.10274345205E+01  0.33771222156E+01  0.00000000000E+00 0. -1.
</event>
<event>
 7    1  0.2982998E-009  0.4778727E+02  0.7816164E-02  0.1312668E+00
        -11   -1    0    0    0    0  0.00000000000E+00  0.00000000000E+00  0.45593999997E+02  0.45594000000E+02  0.51100000000E-03 0.  1.
         11   -1    0    0    0    0 -0.00000000000E+00 -0.00000000000E+00 -0.45593999997E+02  0.45594000000E+02  0.51100000000E-03 0. -1.
    9900012    2    1    2    0    0  0.33545180841E+02  0.43199858180E+01 -0.27197087578E+02  0.47787274109E+02  0.20000013973E+02 0.  0.
        -12    1    1    2    0    0 -0.33545180841E+02 -0.43199858180E+01  0.27197087578E+02  0.43400725891E+02  0.00000000000E+00 0.  1.
         11    1    3    3    0    0  0.22171796154E+02  0.31804439544E+01 -0.13136354707E+02  0.25966662930E+02  0.51100000000E-03 0. -1.
        -11    1    3    3    0    0  0.75654557670E+01 -0.14562083329E+01 -0.15228507577E+02  0.17066461465E+02  0.51100000000E-03 0.  1.
        -12    1    3    3    0    0  0.38079289199E+01  0.25957501965E+01  0.11677747058E+01  0.47541497142E+01  0.00000000000E+00 0.  1.
</event>
<event>
 7    1  0.2756432E-009  0.4778727E+02  0.7816164E-02  0.1312668E+00
        -11   -1    0    0    0    0  0.00000000000E+00  0.00000000000E+00  0.45593999997E+02  0.45594000000E+02  0.51100000000E-03 0.  1.
         11   -1    0    0    0    0 -0.00000000000E+00 -0.00000000000E+00 -0.45593999997E+02  0.45594000000E+02  0.51100000000E-03 0. -1.
    9900012    2    1    2    0    0  0.19157615453E+02 -0.32562127017E+02 -0.21361582126E+02  0.47787268017E+02  0.19999986195E+02 0.  0.
        -12    1    1    2    0    0 -0.19157615453E+02  0.32562127017E+02  0.21361582126E+02  0.43400731983E+02  0.00000000000E+00 0.  1.
         11    1    3    3    0    0  0.33058884630E+01 -0.67236144023E+01 -0.64836540409E+01  0.99082621657E+01  0.51100000000E-03 0. -1.
        -11    1    3    3    0    0  0.14189110887E+01 -0.16282160054E+02 -0.12127880517E+02  0.20352089102E+02  0.51100000000E-03 0.  1.
        -12    1    3    3    0    0  0.14432815901E+02 -0.95563525607E+01 -0.27500475688E+01  0.17526916749E+02  0.00000000000E+00 0.  1.
</event>
<event>
 7    1  0.2756432E-009  0.4778728E+02  0.7816164E-02  0.1312668E+00
        -11   -1    0    0    0    0  0.00000000000E+00  0.00000000000E+00  0.45593999997E+02  0.45594000000E+02  0.51100000000E-03 0. -1.
         11   -1    0    0    0    0 -0.00000000000E+00 -0.00000000000E+00 -0.45593999997E+02  0.45594000000E+02  0.51100000000E-03 0.  1.
    9900012    2    1    2    0    0  0.27687220441E+02  0.32292230818E+02  0.86169748811E+01  0.47787278773E+02  0.20000035236E+02 0.  0.
        -12    1    1    2    0    0 -0.27687220441E+02 -0.32292230818E+02 -0.86169748811E+01  0.43400721227E+02  0.00000000000E+00 0.  1.
         11    1    3    3    0    0  0.13134664657E+02  0.17026741076E+02  0.14324391607E+02  0.25838295657E+02  0.51100000000E-03 0.  1.
        -11    1    3    3    0    0  0.97114937675E+01  0.11065947966E+02 -0.31974510269E+01  0.15066253977E+02  0.51100000000E-03 0. -1.
        -12    1    3    3    0    0  0.48410620165E+01  0.41995417765E+01 -0.25099656987E+01  0.68827291381E+01  0.00000000000E+00 0.  1.
</event>
<event>
 7    1  0.2756432E-009  0.4778727E+02  0.7816164E-02  0.1312668E+00
        -11   -1    0    0    0    0  0.00000000000E+00  0.00000000000E+00  0.45593999997E+02  0.45594000000E+02  0.51100000000E-03 0.  1.
         11   -1    0    0    0    0 -0.00000000000E+00 -0.00000000000E+00 -0.45593999997E+02  0.45594000000E+02  0.51100000000E-03 0. -1.
    9900012    2    1    2    0    0  0.29824753998E+02  0.15060273612E+02 -0.27700096533E+02  0.47787272584E+02  0.20000007017E+02 0.  0.
        -12    1    1    2    0    0 -0.29824753998E+02 -0.15060273612E+02  0.27700096533E+02  0.43400727416E+02  0.00000000000E+00 0.  1.
         11    1    3    3    0    0  0.14595230703E+01  0.88026578222E+01 -0.49691839777E+01  0.10213216046E+02  0.51100000000E-03 0.  1.
        -11    1    3    3    0    0  0.25114647367E+02  0.46644964562E+01 -0.22336555434E+02  0.33932650184E+02  0.51100000000E-03 0. -1.
         12    1    3    3    0    0  0.32505835608E+01  0.15931193337E+01 -0.39435712119E+00  0.36414063542E+01  0.00000000000E+00 0. -1.
</event>
<event>
 7    1  0.2756432E-009  0.4778727E+02  0.7816164E-02  0.1312668E+00
        -11   -1    0    0    0    0  0.00000000000E+00  0.00000000000E+00  0.45593999997E+02  0.45594000000E+02  0.51100000000E-03 0. -1.
         11   -1    0    0    0    0 -0.00000000000E+00 -0.00000000000E+00 -0.45593999997E+02  0.45594000000E+02  0.51100000000E-03 0.  1.
    9900012    2    1    2    0    0 -0.19978531723E+02  0.26446756753E+02  0.28018752876E+02  0.47787272065E+02  0.20000004653E+02 0.  0.
        -12    1    1    2    0    0  0.19978531723E+02 -0.26446756753E+02 -0.28018752876E+02  0.43400727935E+02  0.00000000000E+00 0.  1.
         11    1    3    3    0    0 -0.14090931451E+02  0.17535317998E+02  0.13454752062E+02  0.26212059815E+02  0.51100000000E-03 0. -1.
        -11    1    3    3    0    0  0.34899700234E+01  0.36559418253E+01  0.34928008781E+01  0.61437333625E+01  0.51100000000E-03 0.  1.
        -12    1    3    3    0    0 -0.93775702945E+01  0.52554969300E+01  0.11071199937E+02  0.15431478887E+02  0.00000000000E+00 0.  1.
</event>
<event>
 7    1  0.2756432E-009  0.4778727E+02  0.7816164E-02  0.1312668E+00
        -11   -1    0    0    0    0  0.00000000000E+00  0.00000000000E+00  0.45593999997E+02  0.45594000000E+02  0.51100000000E-03 0. -1.
         11   -1    0    0    0    0 -0.00000000000E+00 -0.00000000000E+00 -0.45593999997E+02  0.45594000000E+02  0.51100000000E-03 0.  1.
    9900012    2    1    2    0    0 -0.25181382842E+02 -0.72410377559E+01  0.34598969431E+02  0.47787270107E+02  0.19999995724E+02 0.  0.
        -12    1    1    2    0    0  0.25181382842E+02  0.72410377559E+01 -0.34598969431E+02  0.43400729893E+02  0.00000000000E+00 0.  1.
         11    1    3    3    0    0 -0.16184135190E+01  0.44466989141E+01  0.14036248731E+01  0.49358440612E+01  0.51100000000E-03 0. -1.
        -11    1    3    3    0    0  0.29701201327E-01  0.14634571123E+00 -0.22205742284E+00  0.26759855888E+00  0.51100000000E-03 0.  1.
         12    1    3    3    0    0 -0.23592670525E+02 -0.11834082381E+02  0.33417401980E+02  0.42583827486E+02  0.00000000000E+00 0. -1.
</event>
<event>
 7    1  0.2756432E-009  0.4778727E+02  0.7816164E-02  0.1312668E+00
        -11   -1    0    0    0    0  0.00000000000E+00  0.00000000000E+00  0.45593999997E+02  0.45594000000E+02  0.51100000000E-03 0. -1.
         11   -1    0    0    0    0 -0.00000000000E+00 -0.00000000000E+00 -0.45593999997E+02  0.45594000000E+02  0.51100000000E-03 0.  1.
    9900012    2    1    2    0    0 -0.29087112391E+01  0.35726833244E+02 -0.24469500444E+02  0.47787266519E+02  0.19999979367E+02 0.  0.
        -12    1    1    2    0    0  0.29087112391E+01 -0.35726833244E+02  0.24469500444E+02  0.43400733481E+02  0.00000000000E+00 0.  1.
         11    1    3    3    0    0 -0.44199490016E+01  0.27690297040E+02 -0.17469922033E+02  0.33037655417E+02  0.51100000000E-03 0. -1.
        -11    1    3    3    0    0  0.69431024717E+00 -0.23844722961E+01 -0.18512862182E+01  0.30975854747E+01  0.51100000000E-03 0.  1.
        -12    1    3    3    0    0  0.81692751529E+00  0.10421008500E+02 -0.51482921927E+01  0.11652025627E+02  0.00000000000E+00 0.  1.
</event>
<event>
 7    1  0.2756432E-009  0.4778727E+02  0.7816164E-02  0.1312668E+00
        -11   -1    0    0    0    0  0.00000000000E+00  0.00000000000E+00  0.45593999997E+02  0.45594000000E+02  0.51100000000E-03 0.  1.
         11   -1    0    0    0    0 -0.00000000000E+00 -0.00000000000E+00 -0.45593999997E+02  0.45594000000E+02  0.51100000000E-03 0. -1.
    9900012    2    1    2    0    0 -0.24422832537E+02 -0.33845147789E+02 -0.11901866409E+02  0.47787271872E+02  0.20000003774E+02 0.  0.
        -12    1    1    2    0    0  0.24422832537E+02  0.33845147789E+02  0.11901866409E+02  0.43400728128E+02  0.00000000000E+00 0.  1.
         11    1    3    3    0    0 -0.82195918713E+01 -0.22303153582E+02 -0.10740780651E+02  0.26083648508E+02  0.51100000000E-03 0. -1.
        -11    1    3    3    0    0 -0.43718472906E+01 -0.43409913980E+01  0.35051071832E+01  0.70882319147E+01  0.51100000000E-03 0.  1.
        -12    1    3    3    0    0 -0.11831393375E+02 -0.72010028089E+01 -0.46661929412E+01  0.14615391449E+02  0.00000000000E+00 0.  1.
</event>
<event>
 7    1  0.2756432E-009  0.4778727E+02  0.7816164E-02  0.1312668E+00
        -11   -1    0    0    0    0  0.00000000000E+00  0.00000000000E+00  0.45593999997E+02  0.45594000000E+02  0.51100000000E-03 0.  1.
         11   -1    0    0    0    0 -0.00000000000E+00 -0.00000000000E+00 -0.45593999997E+02  0.45594000000E+02  0.51100000000E-03 0. -1.
    9900012    2    1    2    0    0 -0.41752600957E+02 -0.11577615867E+02  0.25104719468E+01  0.47787270222E+02  0.19999996251E+02 0.  0.
        -12    1    1    2    0    0  0.41752600957E+02  0.11577615867E+02 -0.25104719468E+01  0.43400729778E+02  0.00000000000E+00 0.  1.
         11    1    3    3    0    0 -0.32330109739E+02 -0.14974998243E+02 -0.10735256097E+01  0.35646023980E+02  0.51100000000E-03 0. -1.
        -11    1    3    3    0    0 -0.40550211605E+01  0.16385974329E+00  0.42054412861E+01  0.58442949360E+01  0.51100000000E-03 0.  1.
         12    1    3    3    0    0 -0.53674700577E+01  0.32335226329E+01 -0.62144372961E+00  0.62969513058E+01  0.00000000000E+00 0. -1.
</event>
<event>
 7    1  0.2756432E-009  0.4778727E+02  0.7816164E-02  0.1312668E+00
        -11   -1    0    0    0    0  0.00000000000E+00  0.00000000000E+00  0.45593999997E+02  0.45594000000E+02  0.51100000000E-03 0. -1.
         11   -1    0    0    0    0 -0.00000000000E+00 -0.00000000000E+00 -0.45593999997E+02  0.45594000000E+02  0.51100000000E-03 0.  1.
    9900012    2    1    2    0    0 -0.13942444559E+02 -0.10790013718E+02  0.39658635569E+02  0.47787268076E+02  0.19999986466E+02 0.  0.
        -12    1    1    2    0    0  0.13942444559E+02  0.10790013718E+02 -0.39658635569E+02  0.43400731924E+02  0.00000000000E+00 0.  1.
         11    1    3    3    0    0 -0.17075746749E+02 -0.78367988067E+01  0.21645218219E+02  0.28662030887E+02  0.51100000000E-03 0. -1.
        -11    1    3    3    0    0  0.30727072393E+01  0.33970278937E+00  0.98025389567E+01  0.10278457959E+02  0.51100000000E-03 0.  1.
         12    1    3    3    0    0  0.60594951156E-01 -0.32929177011E+01  0.82108783938E+01  0.88467792293E+01  0.00000000000E+00 0. -1.
</event>
<event>
 7    1  0.2756432E-009  0.4778727E+02  0.7816164E-02  0.1312668E+00
        -11   -1    0    0    0    0  0.00000000000E+00  0.00000000000E+00  0.45593999997E+02  0.45594000000E+02  0.51100000000E-03 0. -1.
         11   -1    0    0    0    0 -0.00000000000E+00 -0.00000000000E+00 -0.45593999997E+02  0.45594000000E+02  0.51100000000E-03 0.  1.
    9900012    2    1    2    0    0  0.17755782858E+02  0.39286884252E+02 -0.49896342105E+01  0.47787267879E+02  0.19999985567E+02 0.  0.
        -12    1    1    2    0    0 -0.17755782858E+02 -0.39286884252E+02  0.49896342105E+01  0.43400732121E+02  0.00000000000E+00 0.  1.
         11    1    3    3    0    0  0.32010329916E+01  0.75222239943E+01  0.12125319065E+01  0.82644237499E+01  0.51100000000E-03 0. -1.
        -11    1    3    3    0    0  0.24943977402E+01 -0.19691671547E+01 -0.82803531451E-01  0.31790715713E+01  0.51100000000E-03 0.  1.
        -12    1    3    3    0    0  0.12060352126E+02  0.33733827412E+02 -0.61193625856E+01  0.36343772558E+02  0.00000000000E+00 0.  1.
</event>
<event>
 7    1  0.2756432E-009  0.4778721E+02  0.7816164E-02  0.1312668E+00
        -11   -1    0    0    0    0  0.00000000000E+00  0.00000000000E+00  0.45593999997E+02  0.45594000000E+02  0.51100000000E-03 0.  1.
         11   -1    0    0    0    0 -0.00000000000E+00 -0.00000000000E+00 -0.45593999997E+02  0.45594000000E+02  0.51100000000E-03 0. -1.
    9900012    2    1    2    0    0 -0.37772712057E+02  0.20952402284E+02  0.42246944946E+01  0.47787205293E+02  0.19999700210E+02 0.  0.
        -12    1    1    2    0    0  0.37772712057E+02 -0.20952402284E+02 -0.42246944946E+01  0.43400794707E+02  0.00000000000E+00 0.  1.
         11    1    3    3    0    0 -0.20499019282E+02  0.20704721166E+01 -0.28742633325E+01  0.20802837217E+02  0.51100000000E-03 0. -1.
        -11    1    3    3    0    0 -0.45980554043E+01  0.23101814436E+01  0.18735270268E+01  0.54762355304E+01  0.51100000000E-03 0.  1.
         12    1    3    3    0    0 -0.12675637371E+02  0.16571748724E+02  0.52254308003E+01  0.21508132545E+02  0.00000000000E+00 0. -1.
</event>
<event>
 7    1  0.2756432E-009  0.4778727E+02  0.7816164E-02  0.1312668E+00
        -11   -1    0    0    0    0  0.00000000000E+00  0.00000000000E+00  0.45593999997E+02  0.45594000000E+02  0.51100000000E-03 0.  1.
         11   -1    0    0    0    0 -0.00000000000E+00 -0.00000000000E+00 -0.45593999997E+02  0.45594000000E+02  0.51100000000E-03 0. -1.
    9900012    2    1    2    0    0 -0.10781248460E+02 -0.39822804500E+02  0.13473387625E+02  0.47787271311E+02  0.20000001218E+02 0.  0.
        -12    1    1    2    0    0  0.10781248460E+02  0.39822804500E+02 -0.13473387625E+02  0.43400728689E+02  0.00000000000E+00 0.  1.
         11    1    3    3    0    0 -0.10785757708E+01 -0.89483778669E+01 -0.32340085266E+01  0.95757821379E+01  0.51100000000E-03 0. -1.
        -11    1    3    3    0    0 -0.11267167515E+02 -0.20152331565E+02  0.14146098657E+02  0.27077253161E+02  0.51100000000E-03 0.  1.
        -12    1    3    3    0    0  0.15644948259E+01 -0.10722095068E+02  0.25612974949E+01  0.11134236012E+02  0.00000000000E+00 0.  1.
</event>
<event>
 7    1  0.2756432E-009  0.4778728E+02  0.7816164E-02  0.1312668E+00
        -11   -1    0    0    0    0  0.00000000000E+00  0.00000000000E+00  0.45593999997E+02  0.45594000000E+02  0.51100000000E-03 0.  1.
         11   -1    0    0    0    0 -0.00000000000E+00 -0.00000000000E+00 -0.45593999997E+02  0.45594000000E+02  0.51100000000E-03 0. -1.
    9900012    2    1    2    0    0 -0.10872035758E+02 -0.17415401561E+02 -0.38237743232E+02  0.47787281336E+02  0.20000046923E+02 0.  0.
        -12    1    1    2    0    0  0.10872035758E+02  0.17415401561E+02  0.38237743232E+02  0.43400718664E+02  0.00000000000E+00 0.  1.
         11    1    3    3    0    0  0.23924147148E+01 -0.57021092279E+01 -0.22821027559E+02  0.23643963224E+02  0.51100000000E-03 0. -1.
        -11    1    3    3    0    0 -0.66848463261E+01 -0.45251870726E+01 -0.36330638329E+01  0.88523240746E+01  0.51100000000E-03 0.  1.
         12    1    3    3    0    0 -0.65796041465E+01 -0.71881052604E+01 -0.11783651840E+02  0.15290994037E+02  0.00000000000E+00 0. -1.
</event>
<event>
 7    1  0.2756432E-009  0.4778726E+02  0.7816164E-02  0.1312668E+00
        -11   -1    0    0    0    0  0.00000000000E+00  0.00000000000E+00  0.45593999997E+02  0.45594000000E+02  0.51100000000E-03 0. -1.
         11   -1    0    0    0    0 -0.00000000000E+00 -0.00000000000E+00 -0.45593999997E+02  0.45594000000E+02  0.51100000000E-03 0.  1.
    9900012    2    1    2    0    0  0.86803518013E+01 -0.42071462836E+02  0.61860689604E+01  0.47787263350E+02  0.19999964917E+02 0.  0.
        -12    1    1    2    0    0 -0.86803518013E+01  0.42071462836E+02 -0.61860689604E+01  0.43400736650E+02  0.00000000000E+00 0.  1.
         11    1    3    3    0    0  0.43948474953E+01 -0.35060822993E+02  0.35472529052E+01  0.35512800466E+02  0.51100000000E-03 0. -1.
        -11    1    3    3    0    0  0.10577429250E+01 -0.46439251621E+01  0.55587082813E+01  0.73201160527E+01  0.51100000000E-03 0.  1.
        -12    1    3    3    0    0  0.32277613811E+01 -0.23667146809E+01 -0.29198922261E+01  0.49543468315E+01  0.00000000000E+00 0.  1.
</event>
<event>
 7    1  0.2756432E-009  0.4778727E+02  0.7816164E-02  0.1312668E+00
        -11   -1    0    0    0    0  0.00000000000E+00  0.00000000000E+00  0.45593999997E+02  0.45594000000E+02  0.51100000000E-03 0.  1.
         11   -1    0    0    0    0 -0.00000000000E+00 -0.00000000000E+00 -0.45593999997E+02  0.45594000000E+02  0.51100000000E-03 0. -1.
    9900012    2    1    2    0    0  0.35131096955E+02 -0.14690682270E+02 -0.20823376521E+02  0.47787272719E+02  0.20000007635E+02 0.  0.
        -12    1    1    2    0    0 -0.35131096955E+02  0.14690682270E+02  0.20823376521E+02  0.43400727281E+02  0.00000000000E+00 0.  1.
         11    1    3    3    0    0  0.28702755099E+01 -0.65850432427E+01 -0.94729153988E+01  0.11888540803E+02  0.51100000000E-03 0. -1.
        -11    1    3    3    0    0  0.30748573742E+02 -0.66914097821E+01 -0.89243612029E+01  0.32709233790E+02  0.51100000000E-03 0.  1.
        -12    1    3    3    0    0  0.15122477031E+01 -0.14142292448E+01 -0.24260999195E+01  0.31894981254E+01  0.00000000000E+00 0.  1.
</event>
<event>
 7    1  0.2756432E-009  0.4778727E+02  0.7816164E-02  0.1312668E+00
        -11   -1    0    0    0    0  0.00000000000E+00  0.00000000000E+00  0.45593999997E+02  0.45594000000E+02  0.51100000000E-03 0.  1.
         11   -1    0    0    0    0 -0.00000000000E+00 -0.00000000000E+00 -0.45593999997E+02  0.45594000000E+02  0.51100000000E-03 0. -1.
    9900012    2    1    2    0    0 -0.31517183795E+02 -0.95090057174E+01 -0.28281959066E+02  0.47787271058E+02  0.20000000060E+02 0.  0.
        -12    1    1    2    0    0  0.31517183795E+02  0.95090057174E+01  0.28281959066E+02  0.43400728942E+02  0.00000000000E+00 0.  1.
         11    1    3    3    0    0 -0.22070221567E+01 -0.40756334200E+01 -0.44138569010E+01  0.64003021474E+01  0.51100000000E-03 0. -1.
        -11    1    3    3    0    0 -0.27953467990E+02 -0.23393738902E+01 -0.14812928910E+02  0.31722104375E+02  0.51100000000E-03 0.  1.
        -12    1    3    3    0    0 -0.13566936489E+01 -0.30939984072E+01 -0.90551732550E+01  0.96648645350E+01  0.00000000000E+00 0.  1.
</event>
<event>
 7    1  0.2756432E-009  0.4778727E+02  0.7816164E-02  0.1312668E+00
        -11   -1    0    0    0    0  0.00000000000E+00  0.00000000000E+00  0.45593999997E+02  0.45594000000E+02  0.51100000000E-03 0.  1.
         11   -1    0    0    0    0 -0.00000000000E+00 -0.00000000000E+00 -0.45593999997E+02  0.45594000000E+02  0.51100000000E-03 0. -1.
    9900012    2    1    2    0    0 -0.11247557874E+02 -0.13954150633E+02 -0.39527173366E+02  0.47787270601E+02  0.19999997979E+02 0.  0.
        -12    1    1    2    0    0  0.11247557874E+02  0.13954150633E+02  0.39527173366E+02  0.43400729399E+02  0.00000000000E+00 0.  1.
         11    1    3    3    0    0 -0.19237436121E+01  0.23055363594E+00 -0.18374335344E+02  0.18476204807E+02  0.51100000000E-03 0.  1.
        -11    1    3    3    0    0 -0.11561260631E+00 -0.54902408616E+01 -0.11101565039E+01  0.56025493052E+01  0.51100000000E-03 0. -1.
         12    1    3    3    0    0 -0.92082016552E+01 -0.86944634075E+01 -0.20042681518E+02  0.23708516489E+02  0.00000000000E+00 0. -1.
</event>
<event>
 7    1  0.2756432E-009  0.4778727E+02  0.7816164E-02  0.1312668E+00
        -11   -1    0    0    0    0  0.00000000000E+00  0.00000000000E+00  0.45593999997E+02  0.45594000000E+02  0.51100000000E-03 0.  1.
         11   -1    0    0    0    0 -0.00000000000E+00 -0.00000000000E+00 -0.45593999997E+02  0.45594000000E+02  0.51100000000E-03 0. -1.
    9900012    2    1    2    0    0  0.23020395896E+02 -0.11984484417E+02 -0.34785866945E+02  0.47787273819E+02  0.20000012651E+02 0.  0.
        -12    1    1    2    0    0 -0.23020395896E+02  0.11984484417E+02  0.34785866945E+02  0.43400726181E+02  0.00000000000E+00 0.  1.
         11    1    3    3    0    0  0.12603091731E+02 -0.37937747326E+01 -0.42010948313E+01  0.13815927256E+02  0.51100000000E-03 0. -1.
        -11    1    3    3    0    0  0.77277278116E+01 -0.32985742023E+01 -0.23463906709E+02  0.24922947001E+02  0.51100000000E-03 0.  1.
        -12    1    3    3    0    0  0.26895763531E+01 -0.48921354821E+01 -0.71208654044E+01  0.90483995625E+01  0.00000000000E+00 0.  1.
</event>
<event>
 7    1  0.2756432E-009  0.4778727E+02  0.7816164E-02  0.1312668E+00
        -11   -1    0    0    0    0  0.00000000000E+00  0.00000000000E+00  0.45593999997E+02  0.45594000000E+02  0.51100000000E-03 0. -1.
         11   -1    0    0    0    0 -0.00000000000E+00 -0.00000000000E+00 -0.45593999997E+02  0.45594000000E+02  0.51100000000E-03 0.  1.
    9900012    2    1    2    0    0  0.27919337147E+02 -0.17318988353E+02  0.28358190738E+02  0.47787265833E+02  0.19999976238E+02 0.  0.
        -12    1    1    2    0    0 -0.27919337147E+02  0.17318988353E+02 -0.28358190738E+02  0.43400734167E+02  0.00000000000E+00 0.  1.
         11    1    3    3    0    0  0.15204085125E+02 -0.71499424121E+01  0.40431621587E+01  0.17281002329E+02  0.51100000000E-03 0. -1.
        -11    1    3    3    0    0 -0.32623734456E+00  0.23721753755E+00 -0.47587858379E+00  0.62382982675E+00  0.51100000000E-03 0.  1.
         12    1    3    3    0    0  0.13041489367E+02 -0.10406263478E+02  0.24790907164E+02  0.29882433677E+02  0.00000000000E+00 0. -1.
</event>
<event>
 7    1  0.2756432E-009  0.4778727E+02  0.7816164E-02  0.1312668E+00
        -11   -1    0    0    0    0  0.00000000000E+00  0.00000000000E+00  0.45593999997E+02  0.45594000000E+02  0.51100000000E-03 0.  1.
         11   -1    0    0    0    0 -0.00000000000E+00 -0.00000000000E+00 -0.45593999997E+02  0.45594000000E+02  0.51100000000E-03 0. -1.
    9900012    2    1    2    0    0  0.19699406373E+02 -0.33757075372E+02 -0.18868400546E+02  0.47787270878E+02  0.19999999243E+02 0.  0.
        -12    1    1    2    0    0 -0.19699406373E+02  0.33757075372E+02  0.18868400546E+02  0.43400729122E+02  0.00000000000E+00 0.  1.
         11    1    3    3    0    0  0.13730589200E+02 -0.78378479919E+01 -0.48647571630E+01  0.16541668702E+02  0.51100000000E-03 0. -1.
        -11    1    3    3    0    0  0.43589183153E+00 -0.93676763265E+01 -0.92174815125E+01  0.13149347023E+02  0.51100000000E-03 0.  1.
         12    1    3    3    0    0  0.55329253415E+01 -0.16551551054E+02 -0.47861618701E+01  0.18096255153E+02  0.00000000000E+00 0. -1.
</event>
<event>
 7    1  0.2756432E-009  0.4778727E+02  0.7816164E-02  0.1312668E+00
        -11   -1    0    0    0    0  0.00000000000E+00  0.00000000000E+00  0.45593999997E+02  0.45594000000E+02  0.51100000000E-03 0. -1.
         11   -1    0    0    0    0 -0.00000000000E+00 -0.00000000000E+00 -0.45593999997E+02  0.45594000000E+02  0.51100000000E-03 0.  1.
    9900012    2    1    2    0    0  0.15587886645E+02 -0.16253346209E+02  0.37100806580E+02  0.47787270491E+02  0.19999997475E+02 0.  0.
        -12    1    1    2    0    0 -0.15587886645E+02  0.16253346209E+02 -0.37100806580E+02  0.43400729509E+02  0.00000000000E+00 0.  1.
         11    1    3    3    0    0  0.45035640868E+01 -0.15951849801E+02  0.14098465469E+02  0.21760292516E+02  0.51100000000E-03 0. -1.
        -11    1    3    3    0    0  0.47110675156E+01  0.20449801519E+01  0.12570749622E+02  0.13579390535E+02  0.51100000000E-03 0.  1.
         12    1    3    3    0    0  0.63732550430E+01 -0.23464765604E+01  0.10431591488E+02  0.12447587440E+02  0.00000000000E+00 0. -1.
</event>
<event>
 7    1  0.2756432E-009  0.4778727E+02  0.7816164E-02  0.1312668E+00
        -11   -1    0    0    0    0  0.00000000000E+00  0.00000000000E+00  0.45593999997E+02  0.45594000000E+02  0.51100000000E-03 0. -1.
         11   -1    0    0    0    0 -0.00000000000E+00 -0.00000000000E+00 -0.45593999997E+02  0.45594000000E+02  0.51100000000E-03 0.  1.
    9900012    2    1    2    0    0 -0.33887794267E+02 -0.17397978749E+02 -0.20797864555E+02  0.47787269189E+02  0.19999991541E+02 0.  0.
        -12    1    1    2    0    0  0.33887794267E+02  0.17397978749E+02  0.20797864555E+02  0.43400730811E+02  0.00000000000E+00 0.  1.
         11    1    3    3    0    0 -0.15246320040E+02  0.38085407982E+00 -0.49400588035E+01  0.16031204129E+02  0.51100000000E-03 0. -1.
        -11    1    3    3    0    0 -0.41398900417E-01 -0.40890334156E+01 -0.42877218069E+01  0.59250710288E+01  0.51100000000E-03 0.  1.
         12    1    3    3    0    0 -0.18600075327E+02 -0.13689799414E+02 -0.11570083944E+02  0.25830994031E+02  0.00000000000E+00 0. -1.
</event>
<event>
 7    1  0.2756432E-009  0.4778727E+02  0.7816164E-02  0.1312668E+00
        -11   -1    0    0    0    0  0.00000000000E+00  0.00000000000E+00  0.45593999997E+02  0.45594000000E+02  0.51100000000E-03 0.  1.
         11   -1    0    0    0    0 -0.00000000000E+00 -0.00000000000E+00 -0.45593999997E+02  0.45594000000E+02  0.51100000000E-03 0. -1.
    9900012    2    1    2    0    0  0.39186116220E+02 -0.80551584723E+01 -0.16828136392E+02  0.47787268937E+02  0.19999990391E+02 0.  0.
        -12    1    1    2    0    0 -0.39186116220E+02  0.80551584723E+01  0.16828136392E+02  0.43400731063E+02  0.00000000000E+00 0.  1.
         11    1    3    3    0    0  0.26044650433E+01 -0.61657776151E+01 -0.33708929588E+01  0.74941958448E+01  0.51100000000E-03 0. -1.
        -11    1    3    3    0    0  0.26350447770E+02 -0.10260668253E+01 -0.14287151023E+02  0.29992025530E+02  0.51100000000E-03 0.  1.
        -12    1    3    3    0    0  0.10231203406E+02 -0.86331403190E+00  0.82990758975E+00  0.10301047562E+02  0.00000000000E+00 0.  1.
</event>
<event>
 7    1  0.2756432E-009  0.4778724E+02  0.7816164E-02  0.1312668E+00
        -11   -1    0    0    0    0  0.00000000000E+00  0.00000000000E+00  0.45593999997E+02  0.45594000000E+02  0.51100000000E-03 0.  1.
         11   -1    0    0    0    0 -0.00000000000E+00 -0.00000000000E+00 -0.45593999997E+02  0.45594000000E+02  0.51100000000E-03 0. -1.
    9900012    2    1    2    0    0  0.26553676579E+02  0.13978128456E+02 -0.31355065358E+02  0.47787240346E+02  0.19999860031E+02 0.  0.
        -12    1    1    2    0    0 -0.26553676579E+02 -0.13978128456E+02  0.31355065358E+02  0.43400759654E+02  0.00000000000E+00 0.  1.
         11    1    3    3    0    0  0.74311564157E+01  0.70285676345E+01 -0.25323462166E+01  0.10537344366E+02  0.51100000000E-03 0. -1.
        -11    1    3    3    0    0  0.15705954673E+02  0.24418302108E+00 -0.22385077320E+02  0.27346449942E+02  0.51100000000E-03 0.  1.
        -12    1    3    3    0    0  0.34165654902E+01  0.67053778009E+01 -0.64376418212E+01  0.99034460376E+01  0.00000000000E+00 0.  1.
</event>
<event>
 7    1  0.2756432E-009  0.4778726E+02  0.7816164E-02  0.1312668E+00
        -11   -1    0    0    0    0  0.00000000000E+00  0.00000000000E+00  0.45593999997E+02  0.45594000000E+02  0.51100000000E-03 0.  1.
         11   -1    0    0    0    0 -0.00000000000E+00 -0.00000000000E+00 -0.45593999997E+02  0.45594000000E+02  0.51100000000E-03 0. -1.
    9900012    2    1    2    0    0 -0.32712137102E+02 -0.10798047487E+02 -0.26399661458E+02  0.47787264195E+02  0.19999968770E+02 0.  0.
        -12    1    1    2    0    0  0.32712137102E+02  0.10798047487E+02  0.26399661458E+02  0.43400735805E+02  0.00000000000E+00 0.  1.
         11    1    3    3    0    0 -0.22779790114E+02 -0.11292305376E+02 -0.22123318720E+02  0.33702762940E+02  0.51100000000E-03 0. -1.
        -11    1    3    3    0    0 -0.16537044239E+01 -0.17071513551E+01  0.22827358802E+01  0.32954495036E+01  0.51100000000E-03 0.  1.
         12    1    3    3    0    0 -0.82786425642E+01  0.22014092443E+01 -0.65590786185E+01  0.10789051751E+02  0.00000000000E+00 0. -1.
</event>
<event>
 7    1  0.2756432E-009  0.4778727E+02  0.7816164E-02  0.1312668E+00
        -11   -1    0    0    0    0  0.00000000000E+00  0.00000000000E+00  0.45593999997E+02  0.45594000000E+02  0.51100000000E-03 0.  1.
         11   -1    0    0    0    0 -0.00000000000E+00 -0.00000000000E+00 -0.45593999997E+02  0.45594000000E+02  0.51100000000E-03 0. -1.
    9900012    2    1    2    0    0  0.18493352599E+02  0.56869064370E+01 -0.38849435147E+02  0.47787267213E+02  0.19999982533E+02 0.  0.
        -12    1    1    2    0    0 -0.18493352599E+02 -0.56869064370E+01  0.38849435147E+02  0.43400732787E+02  0.00000000000E+00 0.  1.
         11    1    3    3    0    0  0.46650091982E+01  0.33098526240E+01 -0.14687030927E+01  0.59054656250E+01  0.51100000000E-03 0. -1.
        -11    1    3    3    0    0  0.13170718230E+02 -0.23441981117E+01 -0.32054086784E+02  0.34733666136E+02  0.51100000000E-03 0.  1.
        -12    1    3    3    0    0  0.65762517088E+00  0.47212519247E+01 -0.53266452705E+01  0.71481354520E+01  0.00000000000E+00 0.  1.
</event>
<event>
 7    1  0.2756432E-009  0.4778728E+02  0.7816164E-02  0.1312668E+00
        -11   -1    0    0    0    0  0.00000000000E+00  0.00000000000E+00  0.45593999997E+02  0.45594000000E+02  0.51100000000E-03 0. -1.
         11   -1    0    0    0    0 -0.00000000000E+00 -0.00000000000E+00 -0.45593999997E+02  0.45594000000E+02  0.51100000000E-03 0.  1.
    9900012    2    1    2    0    0 -0.11670885006E+02  0.30926815889E+02  0.28123751951E+02  0.47787275102E+02  0.20000018500E+02 0.  0.
        -12    1    1    2    0    0  0.11670885006E+02 -0.30926815889E+02 -0.28123751951E+02  0.43400724898E+02  0.00000000000E+00 0.  1.
         11    1    3    3    0    0 -0.24772736409E+01  0.13001335796E+02  0.58154969322E+01  0.14456542533E+02  0.51100000000E-03 0. -1.
        -11    1    3    3    0    0 -0.10870147784E+02  0.13711058311E+02  0.98649701913E+01  0.20086584328E+02  0.51100000000E-03 0.  1.
        -12    1    3    3    0    0  0.16765364183E+01  0.42144217817E+01  0.12443284828E+02  0.13244148241E+02  0.00000000000E+00 0.  1.
</event>
<event>
 7    1  0.2756432E-009  0.4778729E+02  0.7816164E-02  0.1312668E+00
        -11   -1    0    0    0    0  0.00000000000E+00  0.00000000000E+00  0.45593999997E+02  0.45594000000E+02  0.51100000000E-03 0.  1.
         11   -1    0    0    0    0 -0.00000000000E+00 -0.00000000000E+00 -0.45593999997E+02  0.45594000000E+02  0.51100000000E-03 0. -1.
    9900012    2    1    2    0    0  0.54577634402E+01 -0.36938020446E+02 -0.22122773295E+02  0.47787289931E+02  0.20000086113E+02 0.  0.
        -12    1    1    2    0    0 -0.54577634402E+01  0.36938020446E+02  0.22122773295E+02  0.43400710069E+02  0.00000000000E+00 0.  1.
         11    1    3    3    0    0  0.41044681587E+01 -0.17070731632E+02 -0.10589299532E+02  0.20503409525E+02  0.51100000000E-03 0. -1.
        -11    1    3    3    0    0  0.64923550929E+01 -0.34603411306E+01 -0.19968255561E+01  0.76231193061E+01  0.51100000000E-03 0.  1.
        -12    1    3    3    0    0 -0.51390598114E+01 -0.16406947683E+02 -0.95366482065E+01  0.19660761100E+02  0.00000000000E+00 0.  1.
</event>
<event>
 7    1  0.2756432E-009  0.4778727E+02  0.7816164E-02  0.1312668E+00
        -11   -1    0    0    0    0  0.00000000000E+00  0.00000000000E+00  0.45593999997E+02  0.45594000000E+02  0.51100000000E-03 0. -1.
         11   -1    0    0    0    0 -0.00000000000E+00 -0.00000000000E+00 -0.45593999997E+02  0.45594000000E+02  0.51100000000E-03 0.  1.
    9900012    2    1    2    0    0  0.13679020274E+02 -0.41013022759E+02 -0.37999859274E+01  0.47787268156E+02  0.19999986831E+02 0.  0.
        -12    1    1    2    0    0 -0.13679020274E+02  0.41013022759E+02  0.37999859274E+01  0.43400731844E+02  0.00000000000E+00 0.  1.
         11    1    3    3    0    0  0.14120487762E+02 -0.19599945741E+02  0.35883076787E+01  0.24421752598E+02  0.51100000000E-03 0. -1.
        -11    1    3    3    0    0 -0.19296523991E+01 -0.19688989608E+02 -0.72969730751E+01  0.21086149162E+02  0.51100000000E-03 0.  1.
        -12    1    3    3    0    0  0.14881849116E+01 -0.17240874103E+01 -0.91320530947E-01  0.22793663963E+01  0.00000000000E+00 0.  1.
</event>
<event>
 7    1  0.2756432E-009  0.4778727E+02  0.7816164E-02  0.1312668E+00
        -11   -1    0    0    0    0  0.00000000000E+00  0.00000000000E+00  0.45593999997E+02  0.45594000000E+02  0.51100000000E-03 0. -1.
         11   -1    0    0    0    0 -0.00000000000E+00 -0.00000000000E+00 -0.45593999997E+02  0.45594000000E+02  0.51100000000E-03 0.  1.
    9900012    2    1    2    0    0 -0.25796715623E+02 -0.31096498708E+02  0.15848050568E+02  0.47787268720E+02  0.19999989402E+02 0.  0.
        -12    1    1    2    0    0  0.25796715623E+02  0.31096498708E+02 -0.15848050568E+02  0.43400731280E+02  0.00000000000E+00 0.  1.
         11    1    3    3    0    0 -0.25609682509E+02 -0.29759502201E+02  0.10571511972E+02  0.40660062409E+02  0.51100000000E-03 0. -1.
        -11    1    3    3    0    0  0.64373179591E+00 -0.17321963745E+01  0.57871486263E+01  0.60750295793E+01  0.51100000000E-03 0.  1.
        -12    1    3    3    0    0 -0.83076490996E+00  0.39519986775E+00 -0.51061003030E+00  0.10521767314E+01  0.00000000000E+00 0.  1.
</event>
<event>
 7    1  0.2756432E-009  0.4778728E+02  0.7816164E-02  0.1312668E+00
        -11   -1    0    0    0    0  0.00000000000E+00  0.00000000000E+00  0.45593999997E+02  0.45594000000E+02  0.51100000000E-03 0.  1.
         11   -1    0    0    0    0 -0.00000000000E+00 -0.00000000000E+00 -0.45593999997E+02  0.45594000000E+02  0.51100000000E-03 0. -1.
    9900012    2    1    2    0    0  0.21204432243E+02  0.37641175288E+02 -0.41395860748E+01  0.47787283455E+02  0.20000056583E+02 0.  0.
        -12    1    1    2    0    0 -0.21204432243E+02 -0.37641175288E+02  0.41395860748E+01  0.43400716545E+02  0.00000000000E+00 0.  1.
         11    1    3    3    0    0  0.36863482123E+01  0.26027762218E+01 -0.43740175799E+01  0.62845554539E+01  0.51100000000E-03 0. -1.
        -11    1    3    3    0    0  0.13364026371E+02  0.24116360503E+02  0.63795625947E+01  0.28300085934E+02  0.51100000000E-03 0.  1.
         12    1    3    3    0    0  0.41540576598E+01  0.10922038563E+02 -0.61451310896E+01  0.13202642066E+02  0.00000000000E+00 0. -1.
</event>
<event>
 7    1  0.2756432E-009  0.4778728E+02  0.7816164E-02  0.1312668E+00
        -11   -1    0    0    0    0  0.00000000000E+00  0.00000000000E+00  0.45593999997E+02  0.45594000000E+02  0.51100000000E-03 0. -1.
         11   -1    0    0    0    0 -0.00000000000E+00 -0.00000000000E+00 -0.45593999997E+02  0.45594000000E+02  0.51100000000E-03 0.  1.
    9900012    2    1    2    0    0  0.55938973971E+00 -0.28207636021E+02  0.32979375871E+02  0.47787275586E+02  0.20000020708E+02 0.  0.
        -12    1    1    2    0    0 -0.55938973971E+00  0.28207636021E+02 -0.32979375871E+02  0.43400724414E+02  0.00000000000E+00 0.  1.
         11    1    3    3    0    0 -0.83759839001E+01 -0.13088856375E+02  0.16829099981E+02  0.22906197282E+02  0.51100000000E-03 0. -1.
        -11    1    3    3    0    0  0.47199566199E+01 -0.62158744882E+01  0.11718213249E+02  0.14079474712E+02  0.51100000000E-03 0.  1.
         12    1    3    3    0    0  0.42154170200E+01 -0.89029051587E+01  0.44320626408E+01  0.10801603592E+02  0.00000000000E+00 0. -1.
</event>
<event>
 7    1  0.2756432E-009  0.4778728E+02  0.7816164E-02  0.1312668E+00
        -11   -1    0    0    0    0  0.00000000000E+00  0.00000000000E+00  0.45593999997E+02  0.45594000000E+02  0.51100000000E-03 0.  1.
         11   -1    0    0    0    0 -0.00000000000E+00 -0.00000000000E+00 -0.45593999997E+02  0.45594000000E+02  0.51100000000E-03 0. -1.
    9900012    2    1    2    0    0  0.19833369494E+02 -0.23250498290E+01 -0.38533803296E+02  0.47787281128E+02  0.20000045975E+02 0.  0.
        -12    1    1    2    0    0 -0.19833369494E+02  0.23250498290E+01  0.38533803296E+02  0.43400718872E+02  0.00000000000E+00 0.  1.
         11    1    3    3    0    0  0.68231872254E+01 -0.73189480890E+01 -0.23568244183E+02  0.25604394528E+02  0.51100000000E-03 0. -1.
        -11    1    3    3    0    0  0.12034441329E+02  0.36038153627E+01 -0.77289175658E+01  0.14749624750E+02  0.51100000000E-03 0.  1.
        -12    1    3    3    0    0  0.97574093906E+00  0.13900828973E+01 -0.72366415472E+01  0.74332618495E+01  0.00000000000E+00 0.  1.
</event>
<event>
 7    1  0.2756432E-009  0.4778727E+02  0.7816164E-02  0.1312668E+00
        -11   -1    0    0    0    0  0.00000000000E+00  0.00000000000E+00  0.45593999997E+02  0.45594000000E+02  0.51100000000E-03 0.  1.
         11   -1    0    0    0    0 -0.00000000000E+00 -0.00000000000E+00 -0.45593999997E+02  0.45594000000E+02  0.51100000000E-03 0. -1.
    9900012    2    1    2    0    0  0.17495458969E+02 -0.35652873707E+02 -0.17504417541E+02  0.47787272800E+02  0.20000008004E+02 0.  0.
        -12    1    1    2    0    0 -0.17495458969E+02  0.35652873707E+02  0.17504417541E+02  0.43400727200E+02  0.00000000000E+00 0.  1.
         11    1    3    3    0    0  0.18124790111E+02 -0.23640981982E+02 -0.13953805661E+02  0.32895482035E+02  0.51100000000E-03 0. -1.
        -11    1    3    3    0    0 -0.26859381776E+01 -0.92011091804E+01 -0.53441574084E+01  0.10974274131E+02  0.51100000000E-03 0.  1.
         12    1    3    3    0    0  0.20566070353E+01 -0.28107825443E+01  0.17935455288E+01  0.39175166334E+01  0.00000000000E+00 0. -1.
</event>
<event>
 7    1  0.2756432E-009  0.4778727E+02  0.7816164E-02  0.1312668E+00
        -11   -1    0    0    0    0  0.00000000000E+00  0.00000000000E+00  0.45593999997E+02  0.45594000000E+02  0.51100000000E-03 0.  1.
         11   -1    0    0    0    0 -0.00000000000E+00 -0.00000000000E+00 -0.45593999997E+02  0.45594000000E+02  0.51100000000E-03 0. -1.
    9900012    2    1    2    0    0 -0.19302427107E+02 -0.10085565063E+02 -0.37540925303E+02  0.47787269736E+02  0.19999994033E+02 0.  0.
        -12    1    1    2    0    0  0.19302427107E+02  0.10085565063E+02  0.37540925303E+02  0.43400730264E+02  0.00000000000E+00 0.  1.
         11    1    3    3    0    0 -0.13237961641E+02 -0.11316764030E+02 -0.35840503100E+02  0.39847891277E+02  0.51100000000E-03 0. -1.
        -11    1    3    3    0    0 -0.11441337035E+01  0.21984256255E+01  0.38587162568E+00  0.25081894535E+01  0.51100000000E-03 0.  1.
        -12    1    3    3    0    0 -0.49203317630E+01 -0.96722665863E+00 -0.20862938286E+01  0.54311890048E+01  0.00000000000E+00 0.  1.
</event>
<event>
 7    1  0.2877684E-009  0.4778727E+02  0.7816164E-02  0.1312668E+00
        -11   -1    0    0    0    0  0.00000000000E+00  0.00000000000E+00  0.45593999997E+02  0.45594000000E+02  0.51100000000E-03 0. -1.
         11   -1    0    0    0    0 -0.00000000000E+00 -0.00000000000E+00 -0.45593999997E+02  0.45594000000E+02  0.51100000000E-03 0.  1.
    9900012    2    1    2    0    0 -0.33968941485E+02  0.18254198388E+02  0.19912770577E+02  0.47787272166E+02  0.20000005115E+02 0.  0.
        -12    1    1    2    0    0  0.33968941485E+02 -0.18254198388E+02 -0.19912770577E+02  0.43400727834E+02  0.00000000000E+00 0.  1.
         11    1    3    3    0    0 -0.19952196716E+02  0.96872562806E+01  0.49546348095E+01  0.22726229216E+02  0.51100000000E-03 0. -1.
        -11    1    3    3    0    0 -0.10111883008E+02  0.58761929998E+01  0.16365088330E+02  0.20114570303E+02  0.51100000000E-03 0.  1.
        -12    1    3    3    0    0 -0.39048617617E+01  0.26907491081E+01 -0.14069525625E+01  0.49464726476E+01  0.00000000000E+00 0.  1.
</event>
<event>
 7    1  0.2756432E-009  0.4778727E+02  0.7816164E-02  0.1312668E+00
        -11   -1    0    0    0    0  0.00000000000E+00  0.00000000000E+00  0.45593999997E+02  0.45594000000E+02  0.51100000000E-03 0.  1.
         11   -1    0    0    0    0 -0.00000000000E+00 -0.00000000000E+00 -0.45593999997E+02  0.45594000000E+02  0.51100000000E-03 0. -1.
    9900012    2    1    2    0    0 -0.54481483735E+01 -0.34034427467E+02 -0.26374199204E+02  0.47787274691E+02  0.20000016624E+02 0.  0.
        -12    1    1    2    0    0  0.54481483735E+01  0.34034427467E+02  0.26374199204E+02  0.43400725309E+02  0.00000000000E+00 0.  1.
         11    1    3    3    0    0 -0.60153683988E+01 -0.19000224455E+01 -0.70182824078E+01  0.94366853547E+01  0.51100000000E-03 0.  1.
        -11    1    3    3    0    0 -0.35553101792E+01 -0.19266240396E+02 -0.11172559432E+02  0.22553366356E+02  0.51100000000E-03 0. -1.
         12    1    3    3    0    0  0.41225302046E+01 -0.12868164626E+02 -0.81833573645E+01  0.15797222980E+02  0.00000000000E+00 0. -1.
</event>
<event>
 7    1  0.2756432E-009  0.4778727E+02  0.7816164E-02  0.1312668E+00
        -11   -1    0    0    0    0  0.00000000000E+00  0.00000000000E+00  0.45593999997E+02  0.45594000000E+02  0.51100000000E-03 0. -1.
         11   -1    0    0    0    0 -0.00000000000E+00 -0.00000000000E+00 -0.45593999997E+02  0.45594000000E+02  0.51100000000E-03 0.  1.
    9900012    2    1    2    0    0 -0.40400462909E+01  0.41787994315E+02 -0.11002952915E+02  0.47787269410E+02  0.19999992546E+02 0.  0.
        -12    1    1    2    0    0  0.40400462909E+01 -0.41787994315E+02  0.11002952915E+02  0.43400730590E+02  0.00000000000E+00 0.  1.
         11    1    3    3    0    0  0.15749334121E+01  0.12807050063E+02 -0.35537292439E+01  0.13383943304E+02  0.51100000000E-03 0. -1.
        -11    1    3    3    0    0 -0.54469337504E+01  0.28880821830E+02 -0.10602533979E+02  0.31243954358E+02  0.51100000000E-03 0.  1.
        -12    1    3    3    0    0 -0.16804595261E+00  0.10012242251E+00  0.31533103082E+01  0.31593717479E+01  0.00000000000E+00 0.  1.
</event>
<event>
 7    1  0.2756432E-009  0.4778728E+02  0.7816164E-02  0.1312668E+00
        -11   -1    0    0    0    0  0.00000000000E+00  0.00000000000E+00  0.45593999997E+02  0.45594000000E+02  0.51100000000E-03 0.  1.
         11   -1    0    0    0    0 -0.00000000000E+00 -0.00000000000E+00 -0.45593999997E+02  0.45594000000E+02  0.51100000000E-03 0. -1.
    9900012    2    1    2    0    0 -0.39627411421E+02  0.16040915698E+02  0.74819751809E+01  0.47787278059E+02  0.20000031983E+02 0.  0.
        -12    1    1    2    0    0  0.39627411421E+02 -0.16040915698E+02 -0.74819751809E+01  0.43400721941E+02  0.00000000000E+00 0.  1.
         11    1    3    3    0    0 -0.14681038965E+02  0.11368224064E+02  0.45381349819E+01  0.19114499545E+02  0.51100000000E-03 0. -1.
        -11    1    3    3    0    0 -0.25280370647E+02  0.56433723361E+01  0.49943227158E+01  0.26379690124E+02  0.51100000000E-03 0.  1.
        -12    1    3    3    0    0  0.33399819143E+00 -0.97068070139E+00 -0.20504825168E+01  0.22930883908E+01  0.00000000000E+00 0.  1.
</event>
<event>
 7    1  0.2756432E-009  0.4778727E+02  0.7816164E-02  0.1312668E+00
        -11   -1    0    0    0    0  0.00000000000E+00  0.00000000000E+00  0.45593999997E+02  0.45594000000E+02  0.51100000000E-03 0.  1.
         11   -1    0    0    0    0 -0.00000000000E+00 -0.00000000000E+00 -0.45593999997E+02  0.45594000000E+02  0.51100000000E-03 0. -1.
    9900012    2    1    2    0    0 -0.19939428398E+02 -0.21283705340E+02 -0.32141038433E+02  0.47787271096E+02  0.20000000237E+02 0.  0.
        -12    1    1    2    0    0  0.19939428398E+02  0.21283705340E+02  0.32141038433E+02  0.43400728904E+02  0.00000000000E+00 0.  1.
         11    1    3    3    0    0 -0.30749323454E+01 -0.26158175830E+01 -0.37361257959E+01  0.55005769498E+01  0.51100000000E-03 0. -1.
        -11    1    3    3    0    0 -0.15324756282E+02 -0.22226919784E+02 -0.22123131301E+02  0.34904398821E+02  0.51100000000E-03 0.  1.
        -12    1    3    3    0    0 -0.15397397710E+01  0.35590320273E+01 -0.62817813352E+01  0.73822953258E+01  0.00000000000E+00 0.  1.
</event>
<event>
 7    1  0.2756432E-009  0.4778727E+02  0.7816164E-02  0.1312668E+00
        -11   -1    0    0    0    0  0.00000000000E+00  0.00000000000E+00  0.45593999997E+02  0.45594000000E+02  0.51100000000E-03 0. -1.
         11   -1    0    0    0    0 -0.00000000000E+00 -0.00000000000E+00 -0.45593999997E+02  0.45594000000E+02  0.51100000000E-03 0.  1.
    9900012    2    1    2    0    0  0.38611701217E+02  0.19780062093E+02 -0.12283416108E+01  0.47787272467E+02  0.20000006486E+02 0.  0.
        -12    1    1    2    0    0 -0.38611701217E+02 -0.19780062093E+02  0.12283416108E+01  0.43400727533E+02  0.00000000000E+00 0.  1.
         11    1    3    3    0    0  0.25230093206E+02  0.98672525149E+01 -0.42562975009E+01  0.27423281059E+02  0.51100000000E-03 0. -1.
        -11    1    3    3    0    0  0.35776910041E+01  0.33679716199E+01  0.64324608638E+01  0.80944214604E+01  0.51100000000E-03 0.  1.
        -12    1    3    3    0    0  0.98039170069E+01  0.65448379585E+01 -0.34045049738E+01  0.12269569948E+02  0.00000000000E+00 0.  1.
</event>
<event>
 7    1  0.2756432E-009  0.4778727E+02  0.7816164E-02  0.1312668E+00
        -11   -1    0    0    0    0  0.00000000000E+00  0.00000000000E+00  0.45593999997E+02  0.45594000000E+02  0.51100000000E-03 0.  1.
         11   -1    0    0    0    0 -0.00000000000E+00 -0.00000000000E+00 -0.45593999997E+02  0.45594000000E+02  0.51100000000E-03 0. -1.
    9900012    2    1    2    0    0 -0.16249091421E+02 -0.12837892591E+02 -0.38141564352E+02  0.47787269713E+02  0.19999993932E+02 0.  0.
        -12    1    1    2    0    0  0.16249091421E+02  0.12837892591E+02  0.38141564352E+02  0.43400730287E+02  0.00000000000E+00 0.  1.
         11    1    3    3    0    0 -0.18223325882E+02 -0.10290791898E+02 -0.30279115212E+02  0.36807809258E+02  0.51100000000E-03 0. -1.
        -11    1    3    3    0    0  0.18972045710E+01 -0.32621669124E+01 -0.77107707058E+00  0.38517110819E+01  0.51100000000E-03 0.  1.
         12    1    3    3    0    0  0.77029890457E-01  0.71506621945E+00 -0.70913720698E+01  0.71277493738E+01  0.00000000000E+00 0. -1.
</event>
<event>
 7    1  0.2756432E-009  0.4778727E+02  0.7816164E-02  0.1312668E+00
        -11   -1    0    0    0    0  0.00000000000E+00  0.00000000000E+00  0.45593999997E+02  0.45594000000E+02  0.51100000000E-03 0.  1.
         11   -1    0    0    0    0 -0.00000000000E+00 -0.00000000000E+00 -0.45593999997E+02  0.45594000000E+02  0.51100000000E-03 0. -1.
    9900012    2    1    2    0    0 -0.91570465864E+01 -0.15896653353E+02 -0.39332786404E+02  0.47787272168E+02  0.20000005125E+02 0.  0.
        -12    1    1    2    0    0  0.91570465864E+01  0.15896653353E+02  0.39332786404E+02  0.43400727832E+02  0.00000000000E+00 0.  1.
         11    1    3    3    0    0  0.44925110519E+01 -0.33818943369E+01 -0.50439921496E+01  0.75539209636E+01  0.51100000000E-03 0. -1.
        -11    1    3    3    0    0 -0.73637538994E+01 -0.37007681505E+01 -0.23691773020E+02  0.25084271276E+02  0.51100000000E-03 0.  1.
         12    1    3    3    0    0 -0.62858037389E+01 -0.88139908661E+01 -0.10597021235E+02  0.15149079928E+02  0.00000000000E+00 0. -1.
</event>
<event>
 7    1  0.2756432E-009  0.4778727E+02  0.7816164E-02  0.1312668E+00
        -11   -1    0    0    0    0  0.00000000000E+00  0.00000000000E+00  0.45593999997E+02  0.45594000000E+02  0.51100000000E-03 0.  1.
         11   -1    0    0    0    0 -0.00000000000E+00 -0.00000000000E+00 -0.45593999997E+02  0.45594000000E+02  0.51100000000E-03 0. -1.
    9900012    2    1    2    0    0  0.17630461886E+02 -0.14170091238E+02 -0.37040504471E+02  0.47787266787E+02  0.19999980587E+02 0.  0.
        -12    1    1    2    0    0 -0.17630461886E+02  0.14170091238E+02  0.37040504471E+02  0.43400733213E+02  0.00000000000E+00 0.  1.
         11    1    3    3    0    0  0.59646520496E+00  0.15036344576E+01 -0.70390035790E+01  0.72224828812E+01  0.51100000000E-03 0.  1.
        -11    1    3    3    0    0  0.62015652783E+01  0.19476747810E+01 -0.88458813521E+01  0.10977361528E+02  0.51100000000E-03 0. -1.
        -12    1    3    3    0    0  0.10832431403E+02 -0.17621400477E+02 -0.21155619539E+02  0.29587422378E+02  0.00000000000E+00 0.  1.
</event>
<event>
 7    1  0.2756432E-009  0.4778727E+02  0.7816164E-02  0.1312668E+00
        -11   -1    0    0    0    0  0.00000000000E+00  0.00000000000E+00  0.45593999997E+02  0.45594000000E+02  0.51100000000E-03 0. -1.
         11   -1    0    0    0    0 -0.00000000000E+00 -0.00000000000E+00 -0.45593999997E+02  0.45594000000E+02  0.51100000000E-03 0.  1.
    9900012    2    1    2    0    0  0.30591947429E+02  0.17381800196E+02  0.25409231727E+02  0.47787270945E+02  0.19999999548E+02 0.  0.
        -12    1    1    2    0    0 -0.30591947429E+02 -0.17381800196E+02 -0.25409231727E+02  0.43400729055E+02  0.00000000000E+00 0.  1.
         11    1    3    3    0    0  0.24551184753E+02  0.82194804391E+01  0.24410535537E+02  0.35583630744E+02  0.51100000000E-03 0. -1.
        -11    1    3    3    0    0  0.65626674797E+00  0.32120456411E+01 -0.17560793165E+01  0.37191044717E+01  0.51100000000E-03 0.  1.
         12    1    3    3    0    0  0.53844959280E+01  0.59502741159E+01  0.27547755058E+01  0.84845357292E+01  0.00000000000E+00 0. -1.
</event>
<event>
 7    1  0.2756432E-009  0.4778728E+02  0.7816164E-02  0.1312668E+00
        -11   -1    0    0    0    0  0.00000000000E+00  0.00000000000E+00  0.45593999997E+02  0.45594000000E+02  0.51100000000E-03 0.  1.
         11   -1    0    0    0    0 -0.00000000000E+00 -0.00000000000E+00 -0.45593999997E+02  0.45594000000E+02  0.51100000000E-03 0. -1.
    9900012    2    1    2    0    0  0.14506070411E+02  0.85021242977E+01 -0.40011372392E+02  0.47787284372E+02  0.20000060764E+02 0.  0.
        -12    1    1    2    0    0 -0.14506070411E+02 -0.85021242977E+01  0.40011372392E+02  0.43400715628E+02  0.00000000000E+00 0.  1.
         11    1    3    3    0    0  0.32320301392E+01 -0.22495072873E+01 -0.23246673629E+02  0.23577831472E+02  0.51100000000E-03 0. -1.
        -11    1    3    3    0    0  0.33312499113E+01  0.44532061129E+01 -0.12880802950E+01  0.57085393721E+01  0.51100000000E-03 0.  1.
        -12    1    3    3    0    0  0.79427903606E+01  0.62984254721E+01 -0.15476618468E+02  0.18500913527E+02  0.00000000000E+00 0.  1.
</event>
<event>
 7    1  0.2756432E-009  0.4778728E+02  0.7816164E-02  0.1312668E+00
        -11   -1    0    0    0    0  0.00000000000E+00  0.00000000000E+00  0.45593999997E+02  0.45594000000E+02  0.51100000000E-03 0.  1.
         11   -1    0    0    0    0 -0.00000000000E+00 -0.00000000000E+00 -0.45593999997E+02  0.45594000000E+02  0.51100000000E-03 0. -1.
    9900012    2    1    2    0    0  0.11142593288E+02  0.28332158695E+02 -0.30931431636E+02  0.47787284976E+02  0.20000063521E+02 0.  0.
        -12    1    1    2    0    0 -0.11142593288E+02 -0.28332158695E+02  0.30931431636E+02  0.43400715024E+02  0.00000000000E+00 0.  1.
         11    1    3    3    0    0  0.30137550139E+00  0.10443530058E+02 -0.23095958379E+02  0.25349190144E+02  0.51100000000E-03 0. -1.
        -11    1    3    3    0    0  0.53867406957E+01  0.74473740064E+01 -0.26383653706E+01  0.95624958564E+01  0.51100000000E-03 0.  1.
         12    1    3    3    0    0  0.54544770909E+01  0.10441254631E+02 -0.51971078872E+01  0.12875598976E+02  0.00000000000E+00 0. -1.
</event>
<event>
 7    1  0.2756432E-009  0.4778727E+02  0.7816164E-02  0.1312668E+00
        -11   -1    0    0    0    0  0.00000000000E+00  0.00000000000E+00  0.45593999997E+02  0.45594000000E+02  0.51100000000E-03 0. -1.
         11   -1    0    0    0    0 -0.00000000000E+00 -0.00000000000E+00 -0.45593999997E+02  0.45594000000E+02  0.51100000000E-03 0.  1.
    9900012    2    1    2    0    0  0.80952712543E+01  0.45418327720E+01  0.42396480409E+02  0.47787271749E+02  0.20000003214E+02 0.  0.
        -12    1    1    2    0    0 -0.80952712543E+01 -0.45418327720E+01 -0.42396480409E+02  0.43400728251E+02  0.00000000000E+00 0.  1.
         11    1    3    3    0    0 -0.35033749620E+01 -0.37745142536E+01  0.59489711104E+01  0.78683449028E+01  0.51100000000E-03 0. -1.
        -11    1    3    3    0    0  0.37332000883E+00 -0.70264025002E+00  0.74316864775E-01  0.79912102178E+00  0.51100000000E-03 0.  1.
         12    1    3    3    0    0  0.11225326207E+02  0.90189872756E+01  0.36373192434E+02  0.39119805825E+02  0.00000000000E+00 0. -1.
</event>
<event>
 7    1  0.2756432E-009  0.4778728E+02  0.7816164E-02  0.1312668E+00
        -11   -1    0    0    0    0  0.00000000000E+00  0.00000000000E+00  0.45593999997E+02  0.45594000000E+02  0.51100000000E-03 0.  1.
         11   -1    0    0    0    0 -0.00000000000E+00 -0.00000000000E+00 -0.45593999997E+02  0.45594000000E+02  0.51100000000E-03 0. -1.
    9900012    2    1    2    0    0 -0.32805658473E+02 -0.20232942284E+02  0.19950929416E+02  0.47787276897E+02  0.20000026683E+02 0.  0.
        -12    1    1    2    0    0  0.32805658473E+02  0.20232942284E+02 -0.19950929416E+02  0.43400723103E+02  0.00000000000E+00 0.  1.
         11    1    3    3    0    0 -0.25604590459E+02 -0.14440989336E+02  0.79210730297E+01  0.30444714218E+02  0.51100000000E-03 0. -1.
        -11    1    3    3    0    0  0.53151366536E+00 -0.38457786863E+01  0.67257006330E+01  0.77657948561E+01  0.51100000000E-03 0.  1.
         12    1    3    3    0    0 -0.77325816791E+01 -0.19461742621E+01  0.53041557534E+01  0.95767678231E+01  0.00000000000E+00 0. -1.
</event>
<event>
 7    1  0.2756432E-009  0.4778727E+02  0.7816164E-02  0.1312668E+00
        -11   -1    0    0    0    0  0.00000000000E+00  0.00000000000E+00  0.45593999997E+02  0.45594000000E+02  0.51100000000E-03 0.  1.
         11   -1    0    0    0    0 -0.00000000000E+00 -0.00000000000E+00 -0.45593999997E+02  0.45594000000E+02  0.51100000000E-03 0. -1.
    9900012    2    1    2    0    0  0.26327132140E+02  0.17001936710E+02 -0.30023982870E+02  0.47787270905E+02  0.19999999366E+02 0.  0.
        -12    1    1    2    0    0 -0.26327132140E+02 -0.17001936710E+02  0.30023982870E+02  0.43400729095E+02  0.00000000000E+00 0.  1.
         11    1    3    3    0    0  0.19557814463E+02  0.33566664862E+01 -0.16412617202E+02  0.25751685773E+02  0.51100000000E-03 0. -1.
        -11    1    3    3    0    0  0.19859874206E+01  0.21380914945E+01  0.75823704267E+00  0.30150464255E+01  0.51100000000E-03 0.  1.
         12    1    3    3    0    0  0.47833302561E+01  0.11507178729E+02 -0.14369602710E+02  0.19020538706E+02  0.00000000000E+00 0. -1.
</event>
<event>
 7    1  0.2756432E-009  0.4778727E+02  0.7816164E-02  0.1312668E+00
        -11   -1    0    0    0    0  0.00000000000E+00  0.00000000000E+00  0.45593999997E+02  0.45594000000E+02  0.51100000000E-03 0.  1.
         11   -1    0    0    0    0 -0.00000000000E+00 -0.00000000000E+00 -0.45593999997E+02  0.45594000000E+02  0.51100000000E-03 0. -1.
    9900012    2    1    2    0    0  0.29866508726E+00 -0.35486759135E+02 -0.24984475245E+02  0.47787270997E+02  0.19999999785E+02 0.  0.
        -12    1    1    2    0    0 -0.29866508726E+00  0.35486759135E+02  0.24984475245E+02  0.43400729003E+02  0.00000000000E+00 0.  1.
         11    1    3    3    0    0 -0.17780695871E+01 -0.15581597020E+02 -0.53316142536E+01  0.16564232792E+02  0.51100000000E-03 0. -1.
        -11    1    3    3    0    0  0.50457096892E+01 -0.18672939511E+02 -0.20194193169E+02  0.27963248993E+02  0.51100000000E-03 0.  1.
        -12    1    3    3    0    0 -0.29689750148E+01 -0.12322226033E+01  0.54133217798E+00  0.32597892125E+01  0.00000000000E+00 0.  1.
</event>
<event>
 7    1  0.2756432E-009  0.4778727E+02  0.7816164E-02  0.1312668E+00
        -11   -1    0    0    0    0  0.00000000000E+00  0.00000000000E+00  0.45593999997E+02  0.45594000000E+02  0.51100000000E-03 0. -1.
         11   -1    0    0    0    0 -0.00000000000E+00 -0.00000000000E+00 -0.45593999997E+02  0.45594000000E+02  0.51100000000E-03 0.  1.
    9900012    2    1    2    0    0 -0.17579264805E+02 -0.38055407304E+02 -0.11241830489E+02  0.47787270410E+02  0.19999997109E+02 0.  0.
        -12    1    1    2    0    0  0.17579264805E+02  0.38055407304E+02  0.11241830489E+02  0.43400729590E+02  0.00000000000E+00 0.  1.
         11    1    3    3    0    0 -0.67825808764E+01 -0.26157229313E+02 -0.39195939509E+01  0.27305077653E+02  0.51100000000E-03 0. -1.
        -11    1    3    3    0    0  0.65640232495E+00  0.13553146779E+01 -0.12035721417E+01  0.19277780084E+01  0.51100000000E-03 0.  1.
         12    1    3    3    0    0 -0.11453086254E+02 -0.13253492669E+02 -0.61186643962E+01  0.18554414749E+02  0.00000000000E+00 0. -1.
</event>
<event>
 7    1  0.2756432E-009  0.4778726E+02  0.7816164E-02  0.1312668E+00
        -11   -1    0    0    0    0  0.00000000000E+00  0.00000000000E+00  0.45593999997E+02  0.45594000000E+02  0.51100000000E-03 0.  1.
         11   -1    0    0    0    0 -0.00000000000E+00 -0.00000000000E+00 -0.45593999997E+02  0.45594000000E+02  0.51100000000E-03 0. -1.
    9900012    2    1    2    0    0  0.16232573444E+02  0.19113647800E+02 -0.35423100097E+02  0.47787262756E+02  0.19999962209E+02 0.  0.
        -12    1    1    2    0    0 -0.16232573444E+02 -0.19113647800E+02  0.35423100097E+02  0.43400737244E+02  0.00000000000E+00 0.  1.
         11    1    3    3    0    0  0.41572956648E+01 -0.14386342338E+01 -0.66406027058E+00  0.44490169709E+01  0.51100000000E-03 0. -1.
        -11    1    3    3    0    0  0.64274013582E+01  0.78280308496E+01 -0.70874660623E+01  0.12362108665E+02  0.51100000000E-03 0.  1.
         12    1    3    3    0    0  0.56478764214E+01  0.12724251184E+02 -0.27671573764E+02  0.30976137120E+02  0.00000000000E+00 0. -1.
</event>
<event>
 7    1  0.2756432E-009  0.4778727E+02  0.7816164E-02  0.1312668E+00
        -11   -1    0    0    0    0  0.00000000000E+00  0.00000000000E+00  0.45593999997E+02  0.45594000000E+02  0.51100000000E-03 0.  1.
         11   -1    0    0    0    0 -0.00000000000E+00 -0.00000000000E+00 -0.45593999997E+02  0.45594000000E+02  0.51100000000E-03 0. -1.
    9900012    2    1    2    0    0  0.18945184713E+02  0.37773541961E+02 -0.98925557117E+01  0.47787272418E+02  0.20000006265E+02 0.  0.
        -12    1    1    2    0    0 -0.18945184713E+02 -0.37773541961E+02  0.98925557117E+01  0.43400727582E+02  0.00000000000E+00 0.  1.
         11    1    3    3    0    0  0.11291778210E+00 -0.17511858255E+01 -0.53950896691E+00  0.18358846389E+01  0.51100000000E-03 0. -1.
        -11    1    3    3    0    0  0.32572156859E+01  0.23634283686E+01  0.13779124728E+01  0.42536914229E+01  0.51100000000E-03 0.  1.
         12    1    3    3    0    0  0.15575051245E+02  0.37161299418E+02 -0.10730959218E+02  0.41697696357E+02  0.00000000000E+00 0. -1.
</event>
<event>
 7    1  0.2756432E-009  0.4778727E+02  0.7816164E-02  0.1312668E+00
        -11   -1    0    0    0    0  0.00000000000E+00  0.00000000000E+00  0.45593999997E+02  0.45594000000E+02  0.51100000000E-03 0.  1.
         11   -1    0    0    0    0 -0.00000000000E+00 -0.00000000000E+00 -0.45593999997E+02  0.45594000000E+02  0.51100000000E-03 0. -1.
    9900012    2    1    2    0    0  0.39406159609E+02  0.12876528695E+02 -0.12844176044E+02  0.47787271151E+02  0.20000000487E+02 0.  0.
        -12    1    1    2    0    0 -0.39406159609E+02 -0.12876528695E+02  0.12844176044E+02  0.43400728849E+02  0.00000000000E+00 0.  1.
         11    1    3    3    0    0  0.23629847649E+02  0.49406679435E+01 -0.16360235857E+02  0.29162256724E+02  0.51100000000E-03 0. -1.
        -11    1    3    3    0    0  0.52651461721E+01  0.28500924258E+00  0.13742399856E+01  0.54489935109E+01  0.51100000000E-03 0.  1.
         12    1    3    3    0    0  0.10511165787E+02  0.76508515088E+01  0.21418198274E+01  0.13176020917E+02  0.00000000000E+00 0. -1.
</event>
<event>
 7    1  0.2756432E-009  0.4778729E+02  0.7816164E-02  0.1312668E+00
        -11   -1    0    0    0    0  0.00000000000E+00  0.00000000000E+00  0.45593999997E+02  0.45594000000E+02  0.51100000000E-03 0. -1.
         11   -1    0    0    0    0 -0.00000000000E+00 -0.00000000000E+00 -0.45593999997E+02  0.45594000000E+02  0.51100000000E-03 0.  1.
    9900012    2    1    2    0    0 -0.30807110839E+02 -0.26905994073E+02  0.14512444737E+02  0.47787289780E+02  0.20000085424E+02 0.  0.
        -12    1    1    2    0    0  0.30807110839E+02  0.26905994073E+02 -0.14512444737E+02  0.43400710220E+02  0.00000000000E+00 0.  1.
         11    1    3    3    0    0 -0.17191376449E+02 -0.92701505294E+01  0.57643379714E+01  0.20364348936E+02  0.51100000000E-03 0. -1.
        -11    1    3    3    0    0  0.18072287517E+01 -0.68338772652E+01  0.34288367061E+01  0.78565180363E+01  0.51100000000E-03 0.  1.
        -12    1    3    3    0    0 -0.15422963141E+02 -0.10801966279E+02  0.53192700599E+01  0.19566422808E+02  0.00000000000E+00 0.  1.
</event>
<event>
 7    1  0.2756432E-009  0.4778732E+02  0.7816164E-02  0.1312668E+00
        -11   -1    0    0    0    0  0.00000000000E+00  0.00000000000E+00  0.45593999997E+02  0.45594000000E+02  0.51100000000E-03 0.  1.
         11   -1    0    0    0    0 -0.00000000000E+00 -0.00000000000E+00 -0.45593999997E+02  0.45594000000E+02  0.51100000000E-03 0. -1.
    9900012    2    1    2    0    0  0.53451840106E+01 -0.34287438354E+02 -0.26065683050E+02  0.47787317357E+02  0.20000211156E+02 0.  0.
        -12    1    1    2    0    0 -0.53451840106E+01  0.34287438354E+02  0.26065683050E+02  0.43400682643E+02  0.00000000000E+00 0.  1.
         11    1    3    3    0    0  0.11683933350E+02 -0.22645757511E+02 -0.15523418549E+02  0.29838249873E+02  0.51100000000E-03 0. -1.
        -11    1    3    3    0    0 -0.50167560456E+01 -0.47619595608E+01 -0.78018764602E+01  0.10426570704E+02  0.51100000000E-03 0.  1.
         12    1    3    3    0    0 -0.13219932935E+01 -0.68797212824E+01 -0.27403880411E+01  0.75224967802E+01  0.00000000000E+00 0. -1.
</event>
<event>
 7    1  0.2756432E-009  0.4778728E+02  0.7816164E-02  0.1312668E+00
        -11   -1    0    0    0    0  0.00000000000E+00  0.00000000000E+00  0.45593999997E+02  0.45594000000E+02  0.51100000000E-03 0.  1.
         11   -1    0    0    0    0 -0.00000000000E+00 -0.00000000000E+00 -0.45593999997E+02  0.45594000000E+02  0.51100000000E-03 0. -1.
    9900012    2    1    2    0    0 -0.40745125289E+01 -0.36593126178E+02 -0.22977470003E+02  0.47787278075E+02  0.20000032056E+02 0.  0.
        -12    1    1    2    0    0  0.40745125289E+01  0.36593126178E+02  0.22977470003E+02  0.43400721925E+02  0.00000000000E+00 0.  1.
         11    1    3    3    0    0 -0.66272296700E+01 -0.12686614389E+02 -0.25818264620E+01  0.14544283616E+02  0.51100000000E-03 0. -1.
        -11    1    3    3    0    0 -0.26799315800E+01 -0.47746413670E+01 -0.11272865097E+01  0.55901707123E+01  0.51100000000E-03 0.  1.
         12    1    3    3    0    0  0.52326487211E+01 -0.19131870422E+02 -0.19268357031E+02  0.27652823747E+02  0.00000000000E+00 0. -1.
</event>
<event>
 7    1  0.2756432E-009  0.4778727E+02  0.7816164E-02  0.1312668E+00
        -11   -1    0    0    0    0  0.00000000000E+00  0.00000000000E+00  0.45593999997E+02  0.45594000000E+02  0.51100000000E-03 0.  1.
         11   -1    0    0    0    0 -0.00000000000E+00 -0.00000000000E+00 -0.45593999997E+02  0.45594000000E+02  0.51100000000E-03 0. -1.
    9900012    2    1    2    0    0  0.42244565364E+01  0.15465894193E+02 -0.40330924865E+02  0.47787269399E+02  0.19999992499E+02 0.  0.
        -12    1    1    2    0    0 -0.42244565364E+01 -0.15465894193E+02  0.40330924865E+02  0.43400730601E+02  0.00000000000E+00 0.  1.
         11    1    3    3    0    0  0.26416345763E+01  0.79123197137E+01 -0.33728804333E+02  0.34745003647E+02  0.51100000000E-03 0. -1.
        -11    1    3    3    0    0  0.31927249817E+01 -0.32021502630E+00 -0.20049693899E+01  0.37836401768E+01  0.51100000000E-03 0.  1.
         12    1    3    3    0    0 -0.16099030216E+01  0.78737895053E+01 -0.45971511424E+01  0.92586255750E+01  0.00000000000E+00 0. -1.
</event>
<event>
 7    1  0.2756432E-009  0.4778727E+02  0.7816164E-02  0.1312668E+00
        -11   -1    0    0    0    0  0.00000000000E+00  0.00000000000E+00  0.45593999997E+02  0.45594000000E+02  0.51100000000E-03 0.  1.
         11   -1    0    0    0    0 -0.00000000000E+00 -0.00000000000E+00 -0.45593999997E+02  0.45594000000E+02  0.51100000000E-03 0. -1.
    9900012    2    1    2    0    0  0.21141559966E+02 -0.27514720273E+01 -0.37803268610E+02  0.47787271046E+02  0.20000000009E+02 0.  0.
        -12    1    1    2    0    0 -0.21141559966E+02  0.27514720273E+01  0.37803268610E+02  0.43400728954E+02  0.00000000000E+00 0.  1.
         11    1    3    3    0    0  0.15658245936E+01  0.34900798285E+01 -0.16750358513E+02  0.17181588240E+02  0.51100000000E-03 0. -1.
        -11    1    3    3    0    0  0.29183583755E+01 -0.33754542545E+01 -0.13833263295E+01  0.46716270214E+01  0.51100000000E-03 0.  1.
         12    1    3    3    0    0  0.16657376997E+02 -0.28660976012E+01 -0.19669583767E+02  0.25934055785E+02  0.00000000000E+00 0. -1.
</event>
<event>
 7    1  0.2756432E-009  0.4778727E+02  0.7816164E-02  0.1312668E+00
        -11   -1    0    0    0    0  0.00000000000E+00  0.00000000000E+00  0.45593999997E+02  0.45594000000E+02  0.51100000000E-03 0.  1.
         11   -1    0    0    0    0 -0.00000000000E+00 -0.00000000000E+00 -0.45593999997E+02  0.45594000000E+02  0.51100000000E-03 0. -1.
    9900012    2    1    2    0    0  0.30855881412E+01  0.21006948611E+02 -0.37852479329E+02  0.47787274943E+02  0.20000017774E+02 0.  0.
        -12    1    1    2    0    0 -0.30855881412E+01 -0.21006948611E+02  0.37852479329E+02  0.43400725057E+02  0.00000000000E+00 0.  1.
         11    1    3    3    0    0  0.62058718736E+01  0.13733692101E+02 -0.27245462703E+02  0.31135869710E+02  0.51100000000E-03 0. -1.
        -11    1    3    3    0    0 -0.11107657015E+01  0.24491468616E+01  0.17678743852E+01  0.32183071476E+01  0.51100000000E-03 0.  1.
        -12    1    3    3    0    0 -0.20095180309E+01  0.48241096486E+01 -0.12374891012E+02  0.13433098085E+02  0.00000000000E+00 0.  1.
</event>
<event>
 7    1  0.2756432E-009  0.4778727E+02  0.7816164E-02  0.1312668E+00
        -11   -1    0    0    0    0  0.00000000000E+00  0.00000000000E+00  0.45593999997E+02  0.45594000000E+02  0.51100000000E-03 0. -1.
         11   -1    0    0    0    0 -0.00000000000E+00 -0.00000000000E+00 -0.45593999997E+02  0.45594000000E+02  0.51100000000E-03 0.  1.
    9900012    2    1    2    0    0  0.37363792975E+02 -0.68155067553E+01  0.21002833896E+02  0.47787272017E+02  0.20000004433E+02 0.  0.
        -12    1    1    2    0    0 -0.37363792975E+02  0.68155067553E+01 -0.21002833896E+02  0.43400727983E+02  0.00000000000E+00 0.  1.
         11    1    3    3    0    0  0.80923774860E+01  0.39422700769E+01  0.88621060484E+01  0.12631903681E+02  0.51100000000E-03 0. -1.
        -11    1    3    3    0    0  0.29795727238E+02 -0.94863238576E+01  0.12589592191E+02  0.33708656659E+02  0.51100000000E-03 0.  1.
         12    1    3    3    0    0 -0.52431174855E+00 -0.12714529746E+01 -0.44886434349E+00  0.14467116766E+01  0.00000000000E+00 0. -1.
</event>
<event>
 7    1  0.2756432E-009  0.4778727E+02  0.7816164E-02  0.1312668E+00
        -11   -1    0    0    0    0  0.00000000000E+00  0.00000000000E+00  0.45593999997E+02  0.45594000000E+02  0.51100000000E-03 0. -1.
         11   -1    0    0    0    0 -0.00000000000E+00 -0.00000000000E+00 -0.45593999997E+02  0.45594000000E+02  0.51100000000E-03 0.  1.
    9900012    2    1    2    0    0  0.32833467117E+02  0.21552739729E+02  0.18467974138E+02  0.47787271648E+02  0.20000002753E+02 0.  0.
        -12    1    1    2    0    0 -0.32833467117E+02 -0.21552739729E+02 -0.18467974138E+02  0.43400728352E+02  0.00000000000E+00 0.  1.
         11    1    3    3    0    0  0.28343634462E+02  0.17271996028E+02  0.21140864210E+02  0.39352504382E+02  0.51100000000E-03 0. -1.
        -11    1    3    3    0    0  0.19662739976E+01 -0.64249534353E+00 -0.19724972911E+01  0.28582826180E+01  0.51100000000E-03 0.  1.
         12    1    3    3    0    0  0.25235586570E+01  0.49232390444E+01 -0.70039278168E+00  0.55764846483E+01  0.00000000000E+00 0. -1.
</event>
<event>
 7    1  0.2756432E-009  0.4778727E+02  0.7816164E-02  0.1312668E+00
        -11   -1    0    0    0    0  0.00000000000E+00  0.00000000000E+00  0.45593999997E+02  0.45594000000E+02  0.51100000000E-03 0.  1.
         11   -1    0    0    0    0 -0.00000000000E+00 -0.00000000000E+00 -0.45593999997E+02  0.45594000000E+02  0.51100000000E-03 0. -1.
    9900012    2    1    2    0    0  0.36080883762E+02  0.23142311409E+02  0.67989994649E+01  0.47787272539E+02  0.20000006813E+02 0.  0.
        -12    1    1    2    0    0 -0.36080883762E+02 -0.23142311409E+02 -0.67989994649E+01  0.43400727461E+02  0.00000000000E+00 0.  1.
         11    1    3    3    0    0  0.11035503733E+02  0.17547654854E+02  0.44668917795E+01  0.21205085615E+02  0.51100000000E-03 0. -1.
        -11    1    3    3    0    0  0.23431852982E+02  0.43021598543E+01  0.51396368130E+00  0.23829067806E+02  0.51100000000E-03 0.  1.
         12    1    3    3    0    0  0.16135270480E+01  0.12924967009E+01  0.18181440041E+01  0.27531191176E+01  0.00000000000E+00 0. -1.
</event>
<event>
 7    1  0.3460900E-009  0.4778728E+02  0.7816164E-02  0.1312668E+00
        -11   -1    0    0    0    0  0.00000000000E+00  0.00000000000E+00  0.45593999997E+02  0.45594000000E+02  0.51100000000E-03 0. -1.
         11   -1    0    0    0    0 -0.00000000000E+00 -0.00000000000E+00 -0.45593999997E+02  0.45594000000E+02  0.51100000000E-03 0.  1.
    9900012    2    1    2    0    0  0.39344004185E+02 -0.14272959299E+02  0.11487137243E+02  0.47787281636E+02  0.20000048292E+02 0.  0.
        -12    1    1    2    0    0 -0.39344004185E+02  0.14272959299E+02 -0.11487137243E+02  0.43400718364E+02  0.00000000000E+00 0.  1.
         11    1    3    3    0    0  0.11540985537E+02 -0.66995591226E+01  0.46059698377E+01  0.14117131367E+02  0.51100000000E-03 0. -1.
        -11    1    3    3    0    0  0.93498639442E+01 -0.93234098238E+00  0.10101186655E+02  0.13795767017E+02  0.51100000000E-03 0.  1.
        -12    1    3    3    0    0  0.18453154703E+02 -0.66410591940E+01 -0.32200192496E+01  0.19874383253E+02  0.00000000000E+00 0.  1.
</event>
<event>
 7    1  0.2756432E-009  0.4778727E+02  0.7816164E-02  0.1312668E+00
        -11   -1    0    0    0    0  0.00000000000E+00  0.00000000000E+00  0.45593999997E+02  0.45594000000E+02  0.51100000000E-03 0.  1.
         11   -1    0    0    0    0 -0.00000000000E+00 -0.00000000000E+00 -0.45593999997E+02  0.45594000000E+02  0.51100000000E-03 0. -1.
    9900012    2    1    2    0    0  0.24657145709E+02 -0.44132265224E+01 -0.35442522322E+02  0.47787265082E+02  0.19999972816E+02 0.  0.
        -12    1    1    2    0    0 -0.24657145709E+02  0.44132265224E+01  0.35442522322E+02  0.43400734918E+02  0.00000000000E+00 0.  1.
         11    1    3    3    0    0  0.76772074054E+01  0.11953281661E+01 -0.15267204745E+02  0.17130553522E+02  0.51100000000E-03 0. -1.
        -11    1    3    3    0    0  0.15658739221E+02 -0.11356345484E+01 -0.80040701948E+01  0.17622454987E+02  0.51100000000E-03 0.  1.
        -12    1    3    3    0    0  0.13211990830E+01 -0.44729201402E+01 -0.12171247382E+02  0.13034256574E+02  0.00000000000E+00 0.  1.
</event>
<event>
 7    1  0.2756432E-009  0.4778727E+02  0.7816164E-02  0.1312668E+00
        -11   -1    0    0    0    0  0.00000000000E+00  0.00000000000E+00  0.45593999997E+02  0.45594000000E+02  0.51100000000E-03 0.  1.
         11   -1    0    0    0    0 -0.00000000000E+00 -0.00000000000E+00 -0.45593999997E+02  0.45594000000E+02  0.51100000000E-03 0. -1.
    9900012    2    1    2    0    0  0.38667357883E+02  0.30897892984E+01 -0.19465672272E+02  0.47787265438E+02  0.19999974437E+02 0.  0.
        -12    1    1    2    0    0 -0.38667357883E+02 -0.30897892984E+01  0.19465672272E+02  0.43400734562E+02  0.00000000000E+00 0.  1.
         11    1    3    3    0    0  0.18504115860E+02 -0.15738523739E+00 -0.12572417067E+02  0.22371695176E+02  0.51100000000E-03 0. -1.
        -11    1    3    3    0    0  0.33042185943E+01  0.67624018222E+00  0.39595161960E+01  0.52012431274E+01  0.51100000000E-03 0.  1.
         12    1    3    3    0    0  0.16859023428E+02  0.25709343536E+01 -0.10852771401E+02  0.20214327134E+02  0.00000000000E+00 0. -1.
</event>
<event>
 7    1  0.2756432E-009  0.4778727E+02  0.7816164E-02  0.1312668E+00
        -11   -1    0    0    0    0  0.00000000000E+00  0.00000000000E+00  0.45593999997E+02  0.45594000000E+02  0.51100000000E-03 0.  1.
         11   -1    0    0    0    0 -0.00000000000E+00 -0.00000000000E+00 -0.45593999997E+02  0.45594000000E+02  0.51100000000E-03 0. -1.
    9900012    2    1    2    0    0 -0.12584319160E+02 -0.27750406834E+01 -0.41443423449E+02  0.47787270897E+02  0.19999999326E+02 0.  0.
        -12    1    1    2    0    0  0.12584319160E+02  0.27750406834E+01  0.41443423449E+02  0.43400729103E+02  0.00000000000E+00 0.  1.
         11    1    3    3    0    0 -0.11062342446E+02 -0.41429323580E+01 -0.42163252051E+02  0.43786746085E+02  0.51100000000E-03 0. -1.
        -11    1    3    3    0    0 -0.21299415488E+01  0.20371355039E+01  0.19194321158E+00  0.29535427067E+01  0.51100000000E-03 0.  1.
         12    1    3    3    0    0  0.60796483465E+00 -0.66924382932E+00  0.52788539011E+00  0.10469821051E+01  0.00000000000E+00 0. -1.
</event>
<event>
 7    1  0.2756432E-009  0.4778730E+02  0.7816164E-02  0.1312668E+00
        -11   -1    0    0    0    0  0.00000000000E+00  0.00000000000E+00  0.45593999997E+02  0.45594000000E+02  0.51100000000E-03 0.  1.
         11   -1    0    0    0    0 -0.00000000000E+00 -0.00000000000E+00 -0.45593999997E+02  0.45594000000E+02  0.51100000000E-03 0. -1.
    9900012    2    1    2    0    0 -0.34935387620E+02 -0.22419567613E+02 -0.12668959962E+02  0.47787298777E+02  0.20000126444E+02 0.  0.
        -12    1    1    2    0    0  0.34935387620E+02  0.22419567613E+02  0.12668959962E+02  0.43400701223E+02  0.00000000000E+00 0.  1.
         11    1    3    3    0    0 -0.23944750069E+02 -0.21679239929E+02 -0.10847773551E+02  0.34073665653E+02  0.51100000000E-03 0. -1.
        -11    1    3    3    0    0 -0.91167605293E+00  0.23840409231E+01  0.10776453681E+01  0.27705819152E+01  0.51100000000E-03 0.  1.
         12    1    3    3    0    0 -0.10078961498E+02 -0.31243686074E+01 -0.28988317798E+01  0.10943051209E+02  0.00000000000E+00 0. -1.
</event>
<event>
 7    1  0.2756432E-009  0.4778728E+02  0.7816164E-02  0.1312668E+00
        -11   -1    0    0    0    0  0.00000000000E+00  0.00000000000E+00  0.45593999997E+02  0.45594000000E+02  0.51100000000E-03 0.  1.
         11   -1    0    0    0    0 -0.00000000000E+00 -0.00000000000E+00 -0.45593999997E+02  0.45594000000E+02  0.51100000000E-03 0. -1.
    9900012    2    1    2    0    0 -0.23339342891E+01  0.79918337678E+01 -0.42594671674E+02  0.47787277526E+02  0.20000029551E+02 0.  0.
        -12    1    1    2    0    0  0.23339342891E+01 -0.79918337678E+01  0.42594671674E+02  0.43400722474E+02  0.00000000000E+00 0.  1.
         11    1    3    3    0    0 -0.11300377879E+01 -0.13083013483E+01 -0.27656305661E+02  0.27710284749E+02  0.51100000000E-03 0. -1.
        -11    1    3    3    0    0  0.16221205037E+01  0.10235030290E+02 -0.10677748267E+02  0.14879564117E+02  0.51100000000E-03 0.  1.
         12    1    3    3    0    0 -0.28260170049E+01 -0.93489517438E+00 -0.42606177461E+01  0.51974286601E+01  0.00000000000E+00 0. -1.
</event>
<event>
 7    1  0.2756432E-009  0.4778727E+02  0.7816164E-02  0.1312668E+00
        -11   -1    0    0    0    0  0.00000000000E+00  0.00000000000E+00  0.45593999997E+02  0.45594000000E+02  0.51100000000E-03 0.  1.
         11   -1    0    0    0    0 -0.00000000000E+00 -0.00000000000E+00 -0.45593999997E+02  0.45594000000E+02  0.51100000000E-03 0. -1.
    9900012    2    1    2    0    0  0.11343624694E+02  0.20132804332E+02 -0.36737115652E+02  0.47787270768E+02  0.19999998740E+02 0.  0.
        -12    1    1    2    0    0 -0.11343624694E+02 -0.20132804332E+02  0.36737115652E+02  0.43400729232E+02  0.00000000000E+00 0.  1.
         11    1    3    3    0    0 -0.20642684759E+01  0.11491825780E+00 -0.11119467857E+02  0.11310038737E+02  0.51100000000E-03 0. -1.
        -11    1    3    3    0    0  0.10528220378E+02  0.20492352969E+02 -0.22399808584E+02  0.32133026303E+02  0.51100000000E-03 0.  1.
        -12    1    3    3    0    0  0.28796727916E+01 -0.47446689482E+00 -0.32178392111E+01  0.43442057282E+01  0.00000000000E+00 0.  1.
</event>
<event>
 7    1  0.2756432E-009  0.4778727E+02  0.7816164E-02  0.1312668E+00
        -11   -1    0    0    0    0  0.00000000000E+00  0.00000000000E+00  0.45593999997E+02  0.45594000000E+02  0.51100000000E-03 0. -1.
         11   -1    0    0    0    0 -0.00000000000E+00 -0.00000000000E+00 -0.45593999997E+02  0.45594000000E+02  0.51100000000E-03 0.  1.
    9900012    2    1    2    0    0 -0.25487612158E+02  0.28017671705E+02  0.21189978412E+02  0.47787268596E+02  0.19999988839E+02 0.  0.
        -12    1    1    2    0    0  0.25487612158E+02 -0.28017671705E+02 -0.21189978412E+02  0.43400731404E+02  0.00000000000E+00 0.  1.
         11    1    3    3    0    0 -0.81449736748E+01  0.13109495393E+02  0.16749910464E+02  0.22776280785E+02  0.51100000000E-03 0. -1.
        -11    1    3    3    0    0 -0.75073287832E+01  0.10662790985E+02 -0.84083715005E+00  0.13067597500E+02  0.51100000000E-03 0.  1.
         12    1    3    3    0    0 -0.98353096998E+01  0.42453853276E+01  0.52809050979E+01  0.11943390311E+02  0.00000000000E+00 0. -1.
</event>
<event>
 7    1  0.2756432E-009  0.4778728E+02  0.7816164E-02  0.1312668E+00
        -11   -1    0    0    0    0  0.00000000000E+00  0.00000000000E+00  0.45593999997E+02  0.45594000000E+02  0.51100000000E-03 0.  1.
         11   -1    0    0    0    0 -0.00000000000E+00 -0.00000000000E+00 -0.45593999997E+02  0.45594000000E+02  0.51100000000E-03 0. -1.
    9900012    2    1    2    0    0 -0.18466588501E+02  0.25800231882E+02 -0.29613431242E+02  0.47787283808E+02  0.20000058195E+02 0.  0.
        -12    1    1    2    0    0  0.18466588501E+02 -0.25800231882E+02  0.29613431242E+02  0.43400716192E+02  0.00000000000E+00 0.  1.
         11    1    3    3    0    0 -0.10918178800E+02  0.12040491363E+01 -0.85267191915E+01  0.13905441491E+02  0.51100000000E-03 0. -1.
        -11    1    3    3    0    0  0.52752407991E+00  0.12206548288E+01  0.75998785060E-01  0.13319369138E+01  0.51100000000E-03 0.  1.
         12    1    3    3    0    0 -0.80759337807E+01  0.23375527917E+02 -0.21162710836E+02  0.32549905403E+02  0.00000000000E+00 0. -1.
</event>
<event>
 7    1  0.2756432E-009  0.4778728E+02  0.7816164E-02  0.1312668E+00
        -11   -1    0    0    0    0  0.00000000000E+00  0.00000000000E+00  0.45593999997E+02  0.45594000000E+02  0.51100000000E-03 0.  1.
         11   -1    0    0    0    0 -0.00000000000E+00 -0.00000000000E+00 -0.45593999997E+02  0.45594000000E+02  0.51100000000E-03 0. -1.
    9900012    2    1    2    0    0  0.29408251722E+02 -0.18451722144E+02 -0.26044409792E+02  0.47787278798E+02  0.20000035352E+02 0.  0.
        -12    1    1    2    0    0 -0.29408251722E+02  0.18451722144E+02  0.26044409792E+02  0.43400721202E+02  0.00000000000E+00 0.  1.
         11    1    3    3    0    0  0.19651293559E+02 -0.84304496599E+01 -0.22421396109E+02  0.30983299110E+02  0.51100000000E-03 0. -1.
        -11    1    3    3    0    0  0.35231348104E+01 -0.38836931562E+01 -0.57695004361E+01  0.77963252220E+01  0.51100000000E-03 0.  1.
         12    1    3    3    0    0  0.62338233522E+01 -0.61375793281E+01  0.21464867532E+01  0.90076544659E+01  0.00000000000E+00 0. -1.
</event>
<event>
 7    1  0.2756432E-009  0.4778729E+02  0.7816164E-02  0.1312668E+00
        -11   -1    0    0    0    0  0.00000000000E+00  0.00000000000E+00  0.45593999997E+02  0.45594000000E+02  0.51100000000E-03 0.  1.
         11   -1    0    0    0    0 -0.00000000000E+00 -0.00000000000E+00 -0.45593999997E+02  0.45594000000E+02  0.51100000000E-03 0. -1.
    9900012    2    1    2    0    0  0.40266518634E+02 -0.75226441765E+01 -0.14340127208E+02  0.47787286335E+02  0.20000069714E+02 0.  0.
        -12    1    1    2    0    0 -0.40266518634E+02  0.75226441765E+01  0.14340127208E+02  0.43400713665E+02  0.00000000000E+00 0.  1.
         11    1    3    3    0    0  0.26836928548E+02 -0.11800433954E+02 -0.15907456702E+02  0.33354432305E+02  0.51100000000E-03 0. -1.
        -11    1    3    3    0    0  0.99898207217E+01  0.19254308106E+01  0.13105305951E+01  0.10257743054E+02  0.51100000000E-03 0.  1.
         12    1    3    3    0    0  0.34397693647E+01  0.23523589664E+01  0.25679889916E+00  0.41751109762E+01  0.00000000000E+00 0. -1.
</event>
<event>
 7    1  0.2756432E-009  0.4778729E+02  0.7816164E-02  0.1312668E+00
        -11   -1    0    0    0    0  0.00000000000E+00  0.00000000000E+00  0.45593999997E+02  0.45594000000E+02  0.51100000000E-03 0. -1.
         11   -1    0    0    0    0 -0.00000000000E+00 -0.00000000000E+00 -0.45593999997E+02  0.45594000000E+02  0.51100000000E-03 0.  1.
    9900012    2    1    2    0    0 -0.31110448184E+02  0.17030264010E+02 -0.25014629280E+02  0.47787290830E+02  0.20000090209E+02 0.  0.
        -12    1    1    2    0    0  0.31110448184E+02 -0.17030264010E+02  0.25014629280E+02  0.43400709170E+02  0.00000000000E+00 0.  1.
         11    1    3    3    0    0 -0.12550576192E+02 -0.14553419969E+01 -0.57131129226E+01  0.13866313231E+02  0.51100000000E-03 0. -1.
        -11    1    3    3    0    0  0.74265755910E+00  0.55232082558E+00 -0.25161131417E+01  0.26809371771E+01  0.51100000000E-03 0.  1.
         12    1    3    3    0    0 -0.19302529551E+02  0.17933285181E+02 -0.16785403216E+02  0.31240040422E+02  0.00000000000E+00 0. -1.
</event>
<event>
 7    1  0.2756432E-009  0.4778727E+02  0.7816164E-02  0.1312668E+00
        -11   -1    0    0    0    0  0.00000000000E+00  0.00000000000E+00  0.45593999997E+02  0.45594000000E+02  0.51100000000E-03 0. -1.
         11   -1    0    0    0    0 -0.00000000000E+00 -0.00000000000E+00 -0.45593999997E+02  0.45594000000E+02  0.51100000000E-03 0.  1.
    9900012    2    1    2    0    0 -0.15793534016E+02 -0.37298179075E+02 -0.15589526516E+02  0.47787271711E+02  0.20000003037E+02 0.  0.
        -12    1    1    2    0    0  0.15793534016E+02  0.37298179075E+02  0.15589526516E+02  0.43400728289E+02  0.00000000000E+00 0.  1.
         11    1    3    3    0    0  0.24392721618E+01 -0.89003097361E+01 -0.27545597918E+01  0.96308443029E+01  0.51100000000E-03 0. -1.
        -11    1    3    3    0    0 -0.95874318090E+01 -0.64280405169E+01 -0.58436109955E+00  0.11557682801E+02  0.51100000000E-03 0.  1.
        -12    1    3    3    0    0 -0.86453743689E+01 -0.21969828822E+02 -0.12250605625E+02  0.26598744606E+02  0.00000000000E+00 0.  1.
</event>
<event>
 7    1  0.2756432E-009  0.4778727E+02  0.7816164E-02  0.1312668E+00
        -11   -1    0    0    0    0  0.00000000000E+00  0.00000000000E+00  0.45593999997E+02  0.45594000000E+02  0.51100000000E-03 0.  1.
         11   -1    0    0    0    0 -0.00000000000E+00 -0.00000000000E+00 -0.45593999997E+02  0.45594000000E+02  0.51100000000E-03 0. -1.
    9900012    2    1    2    0    0  0.18123647233E+02  0.44641489317E+01 -0.39181984215E+02  0.47787273028E+02  0.20000009042E+02 0.  0.
        -12    1    1    2    0    0 -0.18123647233E+02 -0.44641489317E+01  0.39181984215E+02  0.43400726972E+02  0.00000000000E+00 0.  1.
         11    1    3    3    0    0  0.98611813924E+01 -0.30287688754E+01 -0.27883105707E+02  0.29730185393E+02  0.51100000000E-03 0. -1.
        -11    1    3    3    0    0  0.27764163512E+01  0.79787086350E-01  0.75646347432E+00  0.28787307938E+01  0.51100000000E-03 0.  1.
        -12    1    3    3    0    0  0.54860494899E+01  0.74131307208E+01 -0.12055341982E+02  0.15178356841E+02  0.00000000000E+00 0.  1.
</event>
<event>
 7    1  0.2756432E-009  0.4778727E+02  0.7816164E-02  0.1312668E+00
        -11   -1    0    0    0    0  0.00000000000E+00  0.00000000000E+00  0.45593999997E+02  0.45594000000E+02  0.51100000000E-03 0.  1.
         11   -1    0    0    0    0 -0.00000000000E+00 -0.00000000000E+00 -0.45593999997E+02  0.45594000000E+02  0.51100000000E-03 0. -1.
    9900012    2    1    2    0    0 -0.71793077321E+01 -0.19089107256E+01 -0.42760230777E+02  0.47787265723E+02  0.19999975739E+02 0.  0.
        -12    1    1    2    0    0  0.71793077321E+01  0.19089107256E+01  0.42760230777E+02  0.43400734277E+02  0.00000000000E+00 0.  1.
         11    1    3    3    0    0 -0.91073806940E+01 -0.66717703906E+01 -0.19692992801E+02  0.22699578608E+02  0.51100000000E-03 0. -1.
        -11    1    3    3    0    0  0.71191837186E+00  0.59889465112E+01 -0.85217713083E+01  0.10440062000E+02  0.51100000000E-03 0.  1.
        -12    1    3    3    0    0  0.12161545901E+01 -0.12260868462E+01 -0.14545466667E+02  0.14647625115E+02  0.00000000000E+00 0.  1.
</event>
<event>
 7    1  0.3166553E-009  0.4778727E+02  0.7816164E-02  0.1312668E+00
        -11   -1    0    0    0    0  0.00000000000E+00  0.00000000000E+00  0.45593999997E+02  0.45594000000E+02  0.51100000000E-03 0.  1.
         11   -1    0    0    0    0 -0.00000000000E+00 -0.00000000000E+00 -0.45593999997E+02  0.45594000000E+02  0.51100000000E-03 0. -1.
    9900012    2    1    2    0    0 -0.26865668219E+02  0.34076748031E+02 -0.79643939199E+00  0.47787271885E+02  0.20000003832E+02 0.  0.
        -12    1    1    2    0    0  0.26865668219E+02 -0.34076748031E+02  0.79643939199E+00  0.43400728115E+02  0.00000000000E+00 0.  1.
         11    1    3    3    0    0 -0.21408695949E+02  0.21832325129E+02  0.41889050779E+00  0.30580355660E+02  0.51100000000E-03 0. -1.
        -11    1    3    3    0    0  0.16773824810E+01  0.77039558984E+01  0.20420666895E+01  0.81446046618E+01  0.51100000000E-03 0.  1.
        -12    1    3    3    0    0 -0.71343547509E+01  0.45404670038E+01 -0.32573965893E+01  0.90623115630E+01  0.00000000000E+00 0.  1.
</event>
<event>
 7    1  0.2756432E-009  0.4778725E+02  0.7816164E-02  0.1312668E+00
        -11   -1    0    0    0    0  0.00000000000E+00  0.00000000000E+00  0.45593999997E+02  0.45594000000E+02  0.51100000000E-03 0.  1.
         11   -1    0    0    0    0 -0.00000000000E+00 -0.00000000000E+00 -0.45593999997E+02  0.45594000000E+02  0.51100000000E-03 0. -1.
    9900012    2    1    2    0    0  0.10535444082E+02 -0.24129706380E+02 -0.34501983413E+02  0.47787249183E+02  0.19999900326E+02 0.  0.
        -12    1    1    2    0    0 -0.10535444082E+02  0.24129706380E+02  0.34501983413E+02  0.43400750817E+02  0.00000000000E+00 0.  1.
         11    1    3    3    0    0  0.33993139094E+01 -0.21348344229E+01 -0.34853909400E+01  0.53160891014E+01  0.51100000000E-03 0. -1.
        -11    1    3    3    0    0  0.11976897955E+02 -0.20838898155E+02 -0.25569696581E+02  0.35092950067E+02  0.51100000000E-03 0.  1.
        -12    1    3    3    0    0 -0.48407677824E+01 -0.11559738020E+01 -0.54468958927E+01  0.73782100146E+01  0.00000000000E+00 0.  1.
</event>
<event>
 7    1  0.2756432E-009  0.4778727E+02  0.7816164E-02  0.1312668E+00
        -11   -1    0    0    0    0  0.00000000000E+00  0.00000000000E+00  0.45593999997E+02  0.45594000000E+02  0.51100000000E-03 0. -1.
         11   -1    0    0    0    0 -0.00000000000E+00 -0.00000000000E+00 -0.45593999997E+02  0.45594000000E+02  0.51100000000E-03 0.  1.
    9900012    2    1    2    0    0  0.31960262350E+02  0.63147506306E+01  0.28675580806E+02  0.47787269827E+02  0.19999994450E+02 0.  0.
        -12    1    1    2    0    0 -0.31960262350E+02 -0.63147506306E+01 -0.28675580806E+02  0.43400730173E+02  0.00000000000E+00 0.  1.
         11    1    3    3    0    0  0.63639997410E+01  0.36309010320E+01  0.88020709651E-01  0.73274608777E+01  0.51100000000E-03 0.  1.
        -11    1    3    3    0    0  0.15552784181E+02  0.43280275709E+01  0.24818617362E+02  0.29607172889E+02  0.51100000000E-03 0. -1.
         12    1    3    3    0    0  0.10043478428E+02 -0.16441779723E+01  0.37689427340E+01  0.10852636061E+02  0.00000000000E+00 0. -1.
</event>
<event>
 7    1  0.2756432E-009  0.4778728E+02  0.7816164E-02  0.1312668E+00
        -11   -1    0    0    0    0  0.00000000000E+00  0.00000000000E+00  0.45593999997E+02  0.45594000000E+02  0.51100000000E-03 0.  1.
         11   -1    0    0    0    0 -0.00000000000E+00 -0.00000000000E+00 -0.45593999997E+02  0.45594000000E+02  0.51100000000E-03 0. -1.
    9900012    2    1    2    0    0  0.30058185051E+02  0.32825439441E+01 -0.31134437731E+02  0.47787276549E+02  0.20000025097E+02 0.  0.
        -12    1    1    2    0    0 -0.30058185051E+02 -0.32825439441E+01  0.31134437731E+02  0.43400723451E+02  0.00000000000E+00 0.  1.
         11    1    3    3    0    0  0.17056639949E+02  0.58246850667E+01 -0.12730474931E+02  0.22066284569E+02  0.51100000000E-03 0. -1.
        -11    1    3    3    0    0  0.75877716954E+01 -0.26978345390E+01 -0.18634394949E+02  0.20300080440E+02  0.51100000000E-03 0.  1.
         12    1    3    3    0    0  0.54137734065E+01  0.15569341630E+00  0.23043214995E+00  0.54209115389E+01  0.00000000000E+00 0. -1.
</event>
<event>
 7    1  0.2756432E-009  0.4778727E+02  0.7816164E-02  0.1312668E+00
        -11   -1    0    0    0    0  0.00000000000E+00  0.00000000000E+00  0.45593999997E+02  0.45594000000E+02  0.51100000000E-03 0.  1.
         11   -1    0    0    0    0 -0.00000000000E+00 -0.00000000000E+00 -0.45593999997E+02  0.45594000000E+02  0.51100000000E-03 0. -1.
    9900012    2    1    2    0    0  0.92746276176E+00 -0.33550027924E+02 -0.27516520701E+02  0.47787268758E+02  0.19999989573E+02 0.  0.
        -12    1    1    2    0    0 -0.92746276176E+00  0.33550027924E+02  0.27516520701E+02  0.43400731242E+02  0.00000000000E+00 0.  1.
         11    1    3    3    0    0 -0.28430051959E+01 -0.20350773012E+02 -0.82462845938E+01  0.22141315466E+02  0.51100000000E-03 0. -1.
        -11    1    3    3    0    0  0.56334086995E+01 -0.31490103797E+01 -0.53918976152E+01  0.84097633796E+01  0.51100000000E-03 0.  1.
         12    1    3    3    0    0 -0.18629407418E+01 -0.10050244533E+02 -0.13878338492E+02  0.17236189912E+02  0.00000000000E+00 0. -1.
</event>
<event>
 7    1  0.2756432E-009  0.4778727E+02  0.7816164E-02  0.1312668E+00
        -11   -1    0    0    0    0  0.00000000000E+00  0.00000000000E+00  0.45593999997E+02  0.45594000000E+02  0.51100000000E-03 0. -1.
         11   -1    0    0    0    0 -0.00000000000E+00 -0.00000000000E+00 -0.45593999997E+02  0.45594000000E+02  0.51100000000E-03 0.  1.
    9900012    2    1    2    0    0  0.23884393681E+02  0.26951004325E+02  0.24224003523E+02  0.47787271408E+02  0.20000001658E+02 0.  0.
        -12    1    1    2    0    0 -0.23884393681E+02 -0.26951004325E+02 -0.24224003523E+02  0.43400728592E+02  0.00000000000E+00 0.  1.
         11    1    3    3    0    0  0.89463131677E+01  0.85063163919E+01  0.15947736635E+01  0.12447378887E+02  0.51100000000E-03 0. -1.
        -11    1    3    3    0    0 -0.17298830713E+00  0.67953809143E+01  0.11191538385E+02  0.13094184145E+02  0.51100000000E-03 0.  1.
        -12    1    3    3    0    0  0.15111068820E+02  0.11649307019E+02  0.11437691474E+02  0.22245708377E+02  0.00000000000E+00 0.  1.
</event>
<event>
 7    1  0.2756432E-009  0.4778727E+02  0.7816164E-02  0.1312668E+00
        -11   -1    0    0    0    0  0.00000000000E+00  0.00000000000E+00  0.45593999997E+02  0.45594000000E+02  0.51100000000E-03 0. -1.
         11   -1    0    0    0    0 -0.00000000000E+00 -0.00000000000E+00 -0.45593999997E+02  0.45594000000E+02  0.51100000000E-03 0.  1.
    9900012    2    1    2    0    0  0.43039774426E+02 -0.36499940597E+00  0.55738703997E+01  0.47787269148E+02  0.19999991355E+02 0.  0.
        -12    1    1    2    0    0 -0.43039774426E+02  0.36499940597E+00 -0.55738703997E+01  0.43400730852E+02  0.00000000000E+00 0.  1.
         11    1    3    3    0    0  0.10749820725E+02  0.79638816300E+01  0.92736224126E+00  0.13410520393E+02  0.51100000000E-03 0.  1.
        -11    1    3    3    0    0  0.69320122183E+01  0.78213930956E+00  0.22290456066E+01  0.73234677490E+01  0.51100000000E-03 0. -1.
         12    1    3    3    0    0  0.25357941483E+02 -0.91110203455E+01  0.24174625519E+01  0.27053281006E+02  0.00000000000E+00 0. -1.
</event>
<event>
 7    1  0.2756432E-009  0.4778727E+02  0.7816164E-02  0.1312668E+00
        -11   -1    0    0    0    0  0.00000000000E+00  0.00000000000E+00  0.45593999997E+02  0.45594000000E+02  0.51100000000E-03 0.  1.
         11   -1    0    0    0    0 -0.00000000000E+00 -0.00000000000E+00 -0.45593999997E+02  0.45594000000E+02  0.51100000000E-03 0. -1.
    9900012    2    1    2    0    0  0.57475413057E+00 -0.41670190437E+02  0.12119741337E+02  0.47787271395E+02  0.20000001597E+02 0.  0.
        -12    1    1    2    0    0 -0.57475413057E+00  0.41670190437E+02 -0.12119741337E+02  0.43400728605E+02  0.00000000000E+00 0.  1.
         11    1    3    3    0    0  0.28672248161E+01 -0.27461479562E+02 -0.44763369260E+00  0.27614384187E+02  0.51100000000E-03 0. -1.
        -11    1    3    3    0    0 -0.42128296933E+00 -0.60837375431E+01  0.94999820725E+01  0.11288888407E+02  0.51100000000E-03 0.  1.
        -12    1    3    3    0    0 -0.18711877162E+01 -0.81249733325E+01  0.30673929573E+01  0.88839988000E+01  0.00000000000E+00 0.  1.
</event>
<event>
 7    1  0.2756432E-009  0.4778728E+02  0.7816164E-02  0.1312668E+00
        -11   -1    0    0    0    0  0.00000000000E+00  0.00000000000E+00  0.45593999997E+02  0.45594000000E+02  0.51100000000E-03 0.  1.
         11   -1    0    0    0    0 -0.00000000000E+00 -0.00000000000E+00 -0.45593999997E+02  0.45594000000E+02  0.51100000000E-03 0. -1.
    9900012    2    1    2    0    0 -0.87270762080E+01  0.27320425785E+02 -0.32573841131E+02  0.47787278229E+02  0.20000032756E+02 0.  0.
        -12    1    1    2    0    0  0.87270762080E+01 -0.27320425785E+02  0.32573841131E+02  0.43400721771E+02  0.00000000000E+00 0.  1.
         11    1    3    3    0    0  0.17252810536E+01  0.14432612773E+02 -0.54471139951E+01  0.15522498424E+02  0.51100000000E-03 0. -1.
        -11    1    3    3    0    0 -0.82770061398E+01  0.66689190797E+01 -0.19306808352E+02  0.22039422890E+02  0.51100000000E-03 0.  1.
         12    1    3    3    0    0 -0.21753511217E+01  0.62188939321E+01 -0.78199187843E+01  0.10225356915E+02  0.00000000000E+00 0. -1.
</event>
<event>
 7    1  0.2756432E-009  0.4778727E+02  0.7816164E-02  0.1312668E+00
        -11   -1    0    0    0    0  0.00000000000E+00  0.00000000000E+00  0.45593999997E+02  0.45594000000E+02  0.51100000000E-03 0.  1.
         11   -1    0    0    0    0 -0.00000000000E+00 -0.00000000000E+00 -0.45593999997E+02  0.45594000000E+02  0.51100000000E-03 0. -1.
    9900012    2    1    2    0    0 -0.38479264143E+01 -0.24837204353E+02 -0.35382618470E+02  0.47787274804E+02  0.20000017140E+02 0.  0.
        -12    1    1    2    0    0  0.38479264143E+01  0.24837204353E+02  0.35382618470E+02  0.43400725196E+02  0.00000000000E+00 0.  1.
         11    1    3    3    0    0  0.45633157721E+01 -0.19954336799E+01 -0.38574534860E+01  0.62996471381E+01  0.51100000000E-03 0. -1.
        -11    1    3    3    0    0 -0.73895772660E+01 -0.19973028605E+02 -0.18812936160E+02  0.28415740199E+02  0.51100000000E-03 0.  1.
         12    1    3    3    0    0 -0.10216649204E+01 -0.28687420682E+01 -0.12712228824E+02  0.13071887467E+02  0.00000000000E+00 0. -1.
</event>
<event>
 7    1  0.2756432E-009  0.4778727E+02  0.7816164E-02  0.1312668E+00
        -11   -1    0    0    0    0  0.00000000000E+00  0.00000000000E+00  0.45593999997E+02  0.45594000000E+02  0.51100000000E-03 0.  1.
         11   -1    0    0    0    0 -0.00000000000E+00 -0.00000000000E+00 -0.45593999997E+02  0.45594000000E+02  0.51100000000E-03 0. -1.
    9900012    2    1    2    0    0  0.57712469829E+01  0.20982791081E+02 -0.37550484299E+02  0.47787266315E+02  0.19999978436E+02 0.  0.
        -12    1    1    2    0    0 -0.57712469829E+01 -0.20982791081E+02  0.37550484299E+02  0.43400733685E+02  0.00000000000E+00 0.  1.
         11    1    3    3    0    0  0.82536783719E+01  0.71560243283E+01 -0.86025061522E+01  0.13904495791E+02  0.51100000000E-03 0. -1.
        -11    1    3    3    0    0 -0.59165475805E+01  0.71579470633E+01 -0.10787835139E+02  0.14234434610E+02  0.51100000000E-03 0.  1.
         12    1    3    3    0    0  0.34341161914E+01  0.66688196894E+01 -0.18160143008E+02  0.19648335913E+02  0.00000000000E+00 0. -1.
</event>
<event>
 7    1  0.2756432E-009  0.4778727E+02  0.7816164E-02  0.1312668E+00
        -11   -1    0    0    0    0  0.00000000000E+00  0.00000000000E+00  0.45593999997E+02  0.45594000000E+02  0.51100000000E-03 0. -1.
         11   -1    0    0    0    0 -0.00000000000E+00 -0.00000000000E+00 -0.45593999997E+02  0.45594000000E+02  0.51100000000E-03 0.  1.
    9900012    2    1    2    0    0 -0.47244971947E+01  0.25543492035E+02  0.34768266882E+02  0.47787271422E+02  0.20000001721E+02 0.  0.
        -12    1    1    2    0    0  0.47244971947E+01 -0.25543492035E+02 -0.34768266882E+02  0.43400728578E+02  0.00000000000E+00 0.  1.
         11    1    3    3    0    0 -0.86525448750E+01  0.93435265012E+01  0.11714914294E+02  0.17303388035E+02  0.51100000000E-03 0. -1.
        -11    1    3    3    0    0  0.47807809670E+01  0.14730548365E+02  0.12803374445E+02  0.20094061790E+02  0.51100000000E-03 0.  1.
        -12    1    3    3    0    0 -0.85273328666E+00  0.14694171686E+01  0.10249978143E+02  0.10389821597E+02  0.00000000000E+00 0.  1.
</event>
<event>
 7    1  0.2756432E-009  0.4778727E+02  0.7816164E-02  0.1312668E+00
        -11   -1    0    0    0    0  0.00000000000E+00  0.00000000000E+00  0.45593999997E+02  0.45594000000E+02  0.51100000000E-03 0.  1.
         11   -1    0    0    0    0 -0.00000000000E+00 -0.00000000000E+00 -0.45593999997E+02  0.45594000000E+02  0.51100000000E-03 0. -1.
    9900012    2    1    2    0    0 -0.16621223165E+02  0.17634163953E+02 -0.36005478833E+02  0.47787270700E+02  0.19999998428E+02 0.  0.
        -12    1    1    2    0    0  0.16621223165E+02 -0.17634163953E+02  0.36005478833E+02  0.43400729300E+02  0.00000000000E+00 0.  1.
         11    1    3    3    0    0 -0.95931341654E+01  0.74072032530E+00 -0.10714439073E+02  0.14400558830E+02  0.51100000000E-03 0. -1.
        -11    1    3    3    0    0 -0.62633489172E+01  0.20771147545E+01 -0.10744634032E+02  0.12609167542E+02  0.51100000000E-03 0.  1.
         12    1    3    3    0    0 -0.76474008243E+00  0.14816328873E+02 -0.14546405728E+02  0.20777544327E+02  0.00000000000E+00 0. -1.
</event>
<event>
 7    1  0.2756432E-009  0.4778727E+02  0.7816164E-02  0.1312668E+00
        -11   -1    0    0    0    0  0.00000000000E+00  0.00000000000E+00  0.45593999997E+02  0.45594000000E+02  0.51100000000E-03 0.  1.
         11   -1    0    0    0    0 -0.00000000000E+00 -0.00000000000E+00 -0.45593999997E+02  0.45594000000E+02  0.51100000000E-03 0. -1.
    9900012    2    1    2    0    0 -0.23266499641E+02  0.35381849143E+02  0.95088357213E+01  0.47787271768E+02  0.20000003298E+02 0.  0.
        -12    1    1    2    0    0  0.23266499641E+02 -0.35381849143E+02 -0.95088357213E+01  0.43400728232E+02  0.00000000000E+00 0.  1.
         11    1    3    3    0    0 -0.48515104656E+01  0.22731678824E+02  0.10506520440E+01  0.23267364396E+02  0.51100000000E-03 0. -1.
        -11    1    3    3    0    0 -0.72269475685E+01  0.33625753679E+01  0.60452786317E+00  0.79938187658E+01  0.51100000000E-03 0.  1.
         12    1    3    3    0    0 -0.11188041607E+02  0.92875949513E+01  0.78536558141E+01  0.16526088606E+02  0.00000000000E+00 0. -1.
</event>
<event>
 7    1  0.2756432E-009  0.4778727E+02  0.7816164E-02  0.1312668E+00
        -11   -1    0    0    0    0  0.00000000000E+00  0.00000000000E+00  0.45593999997E+02  0.45594000000E+02  0.51100000000E-03 0.  1.
         11   -1    0    0    0    0 -0.00000000000E+00 -0.00000000000E+00 -0.45593999997E+02  0.45594000000E+02  0.51100000000E-03 0. -1.
    9900012    2    1    2    0    0  0.34651620867E+02  0.25912022529E+02  0.33846179263E+01  0.47787269836E+02  0.19999994491E+02 0.  0.
        -12    1    1    2    0    0 -0.34651620867E+02 -0.25912022529E+02 -0.33846179263E+01  0.43400730164E+02  0.00000000000E+00 0.  1.
         11    1    3    3    0    0  0.12564781953E+02  0.11224091335E+02 -0.25203768309E+01  0.17035441628E+02  0.51100000000E-03 0. -1.
        -11    1    3    3    0    0  0.11359424214E+02 -0.28619883357E-01  0.52880663035E+01  0.12530003314E+02  0.51100000000E-03 0.  1.
        -12    1    3    3    0    0  0.10727414701E+02  0.14716551077E+02  0.61692845377E+00  0.18221824894E+02  0.00000000000E+00 0.  1.
</event>
<event>
 7    1  0.2756432E-009  0.4778727E+02  0.7816164E-02  0.1312668E+00
        -11   -1    0    0    0    0  0.00000000000E+00  0.00000000000E+00  0.45593999997E+02  0.45594000000E+02  0.51100000000E-03 0.  1.
         11   -1    0    0    0    0 -0.00000000000E+00 -0.00000000000E+00 -0.45593999997E+02  0.45594000000E+02  0.51100000000E-03 0. -1.
    9900012    2    1    2    0    0 -0.23562370820E+02 -0.35975309945E+02 -0.58493522327E+01  0.47787272289E+02  0.20000005673E+02 0.  0.
        -12    1    1    2    0    0  0.23562370820E+02  0.35975309945E+02  0.58493522327E+01  0.43400727711E+02  0.00000000000E+00 0.  1.
         11    1    3    3    0    0 -0.12924317885E+02 -0.21227718773E+02 -0.93955983753E+01  0.26569367817E+02  0.51100000000E-03 0. -1.
        -11    1    3    3    0    0 -0.10345777113E+02 -0.96920973609E+01  0.62320424897E+01  0.15485806701E+02  0.51100000000E-03 0.  1.
        -12    1    3    3    0    0 -0.29227582202E+00 -0.50554938116E+01 -0.26857963471E+01  0.57320977707E+01  0.00000000000E+00 0.  1.
</event>
<event>
 7    1  0.2756432E-009  0.4778726E+02  0.7816164E-02  0.1312668E+00
        -11   -1    0    0    0    0  0.00000000000E+00  0.00000000000E+00  0.45593999997E+02  0.45594000000E+02  0.51100000000E-03 0.  1.
         11   -1    0    0    0    0 -0.00000000000E+00 -0.00000000000E+00 -0.45593999997E+02  0.45594000000E+02  0.51100000000E-03 0. -1.
    9900012    2    1    2    0    0 -0.38530023888E+02 -0.19975694674E+02 -0.18212960738E+00  0.47787259342E+02  0.19999946643E+02 0.  0.
        -12    1    1    2    0    0  0.38530023888E+02  0.19975694674E+02  0.18212960738E+00  0.43400740658E+02  0.00000000000E+00 0.  1.
         11    1    3    3    0    0 -0.88334212974E+01 -0.99617271407E+01  0.26583506438E+01  0.13576898315E+02  0.51100000000E-03 0. -1.
        -11    1    3    3    0    0 -0.11167833099E+02  0.10494333234E+01 -0.54532509644E+01  0.12472359551E+02  0.51100000000E-03 0.  1.
        -12    1    3    3    0    0 -0.18528769491E+02 -0.11063400856E+02  0.26127707132E+01  0.21738001476E+02  0.00000000000E+00 0.  1.
</event>
<event>
 7    1  0.2756432E-009  0.4778727E+02  0.7816164E-02  0.1312668E+00
        -11   -1    0    0    0    0  0.00000000000E+00  0.00000000000E+00  0.45593999997E+02  0.45594000000E+02  0.51100000000E-03 0.  1.
         11   -1    0    0    0    0 -0.00000000000E+00 -0.00000000000E+00 -0.45593999997E+02  0.45594000000E+02  0.51100000000E-03 0. -1.
    9900012    2    1    2    0    0  0.32056988533E+02 -0.11438279510E+02 -0.26928394343E+02  0.47787272197E+02  0.20000005255E+02 0.  0.
        -12    1    1    2    0    0 -0.32056988533E+02  0.11438279510E+02  0.26928394343E+02  0.43400727803E+02  0.00000000000E+00 0.  1.
         11    1    3    3    0    0  0.20390769732E+02 -0.74467305781E+01 -0.22140474603E+02  0.31007062138E+02  0.51100000000E-03 0. -1.
        -11    1    3    3    0    0  0.39522141250E+01  0.34663391640E+01 -0.72339570542E+00  0.53064870958E+01  0.51100000000E-03 0.  1.
        -12    1    3    3    0    0  0.77140046761E+01 -0.74578880962E+01 -0.40645240346E+01  0.11473722963E+02  0.00000000000E+00 0.  1.
</event>
<event>
 7    1  0.2756432E-009  0.4778725E+02  0.7816164E-02  0.1312668E+00
        -11   -1    0    0    0    0  0.00000000000E+00  0.00000000000E+00  0.45593999997E+02  0.45594000000E+02  0.51100000000E-03 0.  1.
         11   -1    0    0    0    0 -0.00000000000E+00 -0.00000000000E+00 -0.45593999997E+02  0.45594000000E+02  0.51100000000E-03 0. -1.
    9900012    2    1    2    0    0 -0.14304660965E+02  0.32878391351E+01 -0.40843502209E+02  0.47787252492E+02  0.19999915414E+02 0.  0.
        -12    1    1    2    0    0  0.14304660965E+02 -0.32878391351E+01  0.40843502209E+02  0.43400747508E+02  0.00000000000E+00 0.  1.
         11    1    3    3    0    0 -0.11377028095E+01 -0.33648589598E+00 -0.15568203491E+02  0.15613345274E+02  0.51100000000E-03 0. -1.
        -11    1    3    3    0    0 -0.13732054006E+02 -0.67423318858E-01 -0.11531787958E+02  0.17931982236E+02  0.51100000000E-03 0.  1.
        -12    1    3    3    0    0  0.56509585070E+00  0.36917483499E+01 -0.13743510760E+02  0.14241924983E+02  0.00000000000E+00 0.  1.
</event>
<event>
 7    1  0.2756432E-009  0.4778730E+02  0.7816164E-02  0.1312668E+00
        -11   -1    0    0    0    0  0.00000000000E+00  0.00000000000E+00  0.45593999997E+02  0.45594000000E+02  0.51100000000E-03 0.  1.
         11   -1    0    0    0    0 -0.00000000000E+00 -0.00000000000E+00 -0.45593999997E+02  0.45594000000E+02  0.51100000000E-03 0. -1.
    9900012    2    1    2    0    0 -0.43094824939E+02 -0.48780978966E+01  0.16311967036E+01  0.47787302099E+02  0.20000141590E+02 0.  0.
        -12    1    1    2    0    0  0.43094824939E+02  0.48780978966E+01 -0.16311967036E+01  0.43400697901E+02  0.00000000000E+00 0.  1.
         11    1    3    3    0    0 -0.64611634299E+01 -0.75349750801E+01 -0.35039488480E+00  0.99320319755E+01  0.51100000000E-03 0. -1.
        -11    1    3    3    0    0 -0.11125584275E+01 -0.78576931421E+00 -0.14665973255E+01  0.20015313253E+01  0.51100000000E-03 0.  1.
         12    1    3    3    0    0 -0.35521103081E+02  0.34426464978E+01  0.34481889139E+01  0.35853738798E+02  0.00000000000E+00 0. -1.
</event>
<event>
 7    1  0.2756432E-009  0.4778727E+02  0.7816164E-02  0.1312668E+00
        -11   -1    0    0    0    0  0.00000000000E+00  0.00000000000E+00  0.45593999997E+02  0.45594000000E+02  0.51100000000E-03 0.  1.
         11   -1    0    0    0    0 -0.00000000000E+00 -0.00000000000E+00 -0.45593999997E+02  0.45594000000E+02  0.51100000000E-03 0. -1.
    9900012    2    1    2    0    0  0.10168959133E+02  0.41277461645E+02  0.87399408464E+01  0.47787272637E+02  0.20000007259E+02 0.  0.
        -12    1    1    2    0    0 -0.10168959133E+02 -0.41277461645E+02 -0.87399408464E+01  0.43400727363E+02  0.00000000000E+00 0.  1.
         11    1    3    3    0    0  0.36664798509E+01  0.34799511773E+02  0.46596874500E+01  0.35301016721E+02  0.51100000000E-03 0. -1.
        -11    1    3    3    0    0  0.53573377947E+01  0.53918582120E+01  0.62241179492E+01  0.98240952628E+01  0.51100000000E-03 0.  1.
         12    1    3    3    0    0  0.11451414874E+01  0.10860916594E+01 -0.21438645529E+01  0.26621606525E+01  0.00000000000E+00 0. -1.
</event>
<event>
 7    1  0.2756432E-009  0.4778727E+02  0.7816164E-02  0.1312668E+00
        -11   -1    0    0    0    0  0.00000000000E+00  0.00000000000E+00  0.45593999997E+02  0.45594000000E+02  0.51100000000E-03 0.  1.
         11   -1    0    0    0    0 -0.00000000000E+00 -0.00000000000E+00 -0.45593999997E+02  0.45594000000E+02  0.51100000000E-03 0. -1.
    9900012    2    1    2    0    0 -0.30106273196E+02  0.27495728728E+02 -0.14873478582E+02  0.47787272481E+02  0.20000006552E+02 0.  0.
        -12    1    1    2    0    0  0.30106273196E+02 -0.27495728728E+02  0.14873478582E+02  0.43400727519E+02  0.00000000000E+00 0.  1.
         11    1    3    3    0    0 -0.15179925451E+02  0.14204345461E+02 -0.56576434282E+01  0.21545359039E+02  0.51100000000E-03 0. -1.
        -11    1    3    3    0    0  0.19301887407E+01  0.58017818105E+01 -0.19647424913E+01  0.64223449043E+01  0.51100000000E-03 0.  1.
        -12    1    3    3    0    0 -0.16856536485E+02  0.74896014562E+01 -0.72510926623E+01  0.19819568538E+02  0.00000000000E+00 0.  1.
</event>
<event>
 7    1  0.2756432E-009  0.4778727E+02  0.7816164E-02  0.1312668E+00
        -11   -1    0    0    0    0  0.00000000000E+00  0.00000000000E+00  0.45593999997E+02  0.45594000000E+02  0.51100000000E-03 0.  1.
         11   -1    0    0    0    0 -0.00000000000E+00 -0.00000000000E+00 -0.45593999997E+02  0.45594000000E+02  0.51100000000E-03 0. -1.
    9900012    2    1    2    0    0  0.39985441034E+01  0.11216714087E+02 -0.41735118921E+02  0.47787272112E+02  0.20000004868E+02 0.  0.
        -12    1    1    2    0    0 -0.39985441034E+01 -0.11216714087E+02  0.41735118921E+02  0.43400727888E+02  0.00000000000E+00 0.  1.
         11    1    3    3    0    0  0.90994051327E+01  0.10561103947E+02 -0.33422050672E+02  0.36212836974E+02  0.51100000000E-03 0. -1.
        -11    1    3    3    0    0 -0.78241056688E+00 -0.12694170323E+01  0.50035486331E+00  0.15728767108E+01  0.51100000000E-03 0.  1.
         12    1    3    3    0    0 -0.43184504623E+01  0.19250271715E+01 -0.88134231124E+01  0.10001558427E+02  0.00000000000E+00 0. -1.
</event>
<event>
 7    1  0.2756432E-009  0.4778727E+02  0.7816164E-02  0.1312668E+00
        -11   -1    0    0    0    0  0.00000000000E+00  0.00000000000E+00  0.45593999997E+02  0.45594000000E+02  0.51100000000E-03 0. -1.
         11   -1    0    0    0    0 -0.00000000000E+00 -0.00000000000E+00 -0.45593999997E+02  0.45594000000E+02  0.51100000000E-03 0.  1.
    9900012    2    1    2    0    0  0.77552719771E+01 -0.29561337027E+02 -0.30815678696E+02  0.47787274847E+02  0.20000017338E+02 0.  0.
        -12    1    1    2    0    0 -0.77552719771E+01  0.29561337027E+02  0.30815678696E+02  0.43400725153E+02  0.00000000000E+00 0.  1.
         11    1    3    3    0    0  0.76022706630E+01 -0.16527166473E+02 -0.22781136938E+02  0.29153420920E+02  0.51100000000E-03 0. -1.
        -11    1    3    3    0    0 -0.41996214964E+01 -0.33614044916E+01 -0.87266099319E-01  0.53799141724E+01  0.51100000000E-03 0.  1.
        -12    1    3    3    0    0  0.43526228104E+01 -0.96727660626E+01 -0.79472756589E+01  0.13253939755E+02  0.00000000000E+00 0.  1.
</event>
<event>
 7    1  0.2756432E-009  0.4778731E+02  0.7816164E-02  0.1312668E+00
        -11   -1    0    0    0    0  0.00000000000E+00  0.00000000000E+00  0.45593999997E+02  0.45594000000E+02  0.51100000000E-03 0. -1.
         11   -1    0    0    0    0 -0.00000000000E+00 -0.00000000000E+00 -0.45593999997E+02  0.45594000000E+02  0.51100000000E-03 0.  1.
    9900012    2    1    2    0    0 -0.17585056645E+02 -0.39678279495E+02  0.13998005868E+00  0.47787312502E+02  0.20000189022E+02 0.  0.
        -12    1    1    2    0    0  0.17585056645E+02  0.39678279495E+02 -0.13998005868E+00  0.43400687498E+02  0.00000000000E+00 0.  1.
         11    1    3    3    0    0 -0.64777037061E+00 -0.19757123938E+02  0.14462339446E+01  0.19820573797E+02  0.51100000000E-03 0.  1.
        -11    1    3    3    0    0 -0.14549331713E+02 -0.16366134905E+02 -0.48255570799E+01  0.22423635442E+02  0.51100000000E-03 0. -1.
         12    1    3    3    0    0 -0.23879545610E+01 -0.35550206515E+01  0.35193031940E+01  0.55431032634E+01  0.00000000000E+00 0. -1.
</event>
<event>
 7    1  0.2756432E-009  0.4778727E+02  0.7816164E-02  0.1312668E+00
        -11   -1    0    0    0    0  0.00000000000E+00  0.00000000000E+00  0.45593999997E+02  0.45594000000E+02  0.51100000000E-03 0.  1.
         11   -1    0    0    0    0 -0.00000000000E+00 -0.00000000000E+00 -0.45593999997E+02  0.45594000000E+02  0.51100000000E-03 0. -1.
    9900012    2    1    2    0    0 -0.81112974123E+01  0.34527085504E+01 -0.42495987984E+02  0.47787270320E+02  0.19999996696E+02 0.  0.
        -12    1    1    2    0    0  0.81112974123E+01 -0.34527085504E+01  0.42495987984E+02  0.43400729680E+02  0.00000000000E+00 0.  1.
         11    1    3    3    0    0  0.48304931708E+01 -0.72875304949E+00 -0.41602176114E+01  0.64165532894E+01  0.51100000000E-03 0. -1.
        -11    1    3    3    0    0 -0.63884471613E+01  0.59833816504E+01 -0.22034362892E+02  0.23709202041E+02  0.51100000000E-03 0.  1.
         12    1    3    3    0    0 -0.65533434218E+01 -0.18019200504E+01 -0.16301407481E+02  0.17661514989E+02  0.00000000000E+00 0. -1.
</event>
<event>
 7    1  0.2756432E-009  0.4778727E+02  0.7816164E-02  0.1312668E+00
        -11   -1    0    0    0    0  0.00000000000E+00  0.00000000000E+00  0.45593999997E+02  0.45594000000E+02  0.51100000000E-03 0.  1.
         11   -1    0    0    0    0 -0.00000000000E+00 -0.00000000000E+00 -0.45593999997E+02  0.45594000000E+02  0.51100000000E-03 0. -1.
    9900012    2    1    2    0    0  0.85755782363E+01 -0.33764414147E+02  0.25885264396E+02  0.47787272844E+02  0.20000008207E+02 0.  0.
        -12    1    1    2    0    0 -0.85755782363E+01  0.33764414147E+02 -0.25885264396E+02  0.43400727156E+02  0.00000000000E+00 0.  1.
         11    1    3    3    0    0 -0.80715273522E+00 -0.23976934989E+02  0.13578597714E+02  0.27566704974E+02  0.51100000000E-03 0. -1.
        -11    1    3    3    0    0  0.56594243082E+00 -0.58114961867E+01  0.72426773874E+01  0.93032335648E+01  0.51100000000E-03 0.  1.
         12    1    3    3    0    0  0.88167885407E+01 -0.39759829718E+01  0.50639892940E+01  0.10917334305E+02  0.00000000000E+00 0. -1.
</event>
<event>
 7    1  0.2756432E-009  0.4778727E+02  0.7816164E-02  0.1312668E+00
        -11   -1    0    0    0    0  0.00000000000E+00  0.00000000000E+00  0.45593999997E+02  0.45594000000E+02  0.51100000000E-03 0.  1.
         11   -1    0    0    0    0 -0.00000000000E+00 -0.00000000000E+00 -0.45593999997E+02  0.45594000000E+02  0.51100000000E-03 0. -1.
    9900012    2    1    2    0    0  0.23437075433E+01 -0.12567718993E+02 -0.41475088174E+02  0.47787268845E+02  0.19999989972E+02 0.  0.
        -12    1    1    2    0    0 -0.23437075433E+01  0.12567718993E+02  0.41475088174E+02  0.43400731155E+02  0.00000000000E+00 0.  1.
         11    1    3    3    0    0  0.50738716126E+00 -0.22104181799E+01 -0.42702648746E+00  0.23077569507E+01  0.51100000000E-03 0.  1.
        -11    1    3    3    0    0 -0.42041980137E+01 -0.12484770758E+02 -0.28040110451E+02  0.30980519301E+02  0.51100000000E-03 0. -1.
        -12    1    3    3    0    0  0.60405183958E+01  0.21274699449E+01 -0.13007951236E+02  0.14498992593E+02  0.00000000000E+00 0.  1.
</event>
<event>
 7    1  0.2756432E-009  0.4778727E+02  0.7816164E-02  0.1312668E+00
        -11   -1    0    0    0    0  0.00000000000E+00  0.00000000000E+00  0.45593999997E+02  0.45594000000E+02  0.51100000000E-03 0.  1.
         11   -1    0    0    0    0 -0.00000000000E+00 -0.00000000000E+00 -0.45593999997E+02  0.45594000000E+02  0.51100000000E-03 0. -1.
    9900012    2    1    2    0    0  0.19226449442E+02  0.14269830217E+02 -0.36198602830E+02  0.47787271211E+02  0.20000000760E+02 0.  0.
        -12    1    1    2    0    0 -0.19226449442E+02 -0.14269830217E+02  0.36198602830E+02  0.43400728789E+02  0.00000000000E+00 0.  1.
         11    1    3    3    0    0  0.76099715231E+01 -0.16192007839E+01 -0.18059758327E+02  0.19664392918E+02  0.51100000000E-03 0. -1.
        -11    1    3    3    0    0  0.10441692816E+02  0.16764984501E+02 -0.15508565602E+02  0.25111934642E+02  0.51100000000E-03 0.  1.
        -12    1    3    3    0    0  0.11747851031E+01 -0.87595349985E+00 -0.26302789008E+01  0.30109436508E+01  0.00000000000E+00 0.  1.
</event>
<event>
 7    1  0.2756432E-009  0.4778727E+02  0.7816164E-02  0.1312668E+00
        -11   -1    0    0    0    0  0.00000000000E+00  0.00000000000E+00  0.45593999997E+02  0.45594000000E+02  0.51100000000E-03 0. -1.
         11   -1    0    0    0    0 -0.00000000000E+00 -0.00000000000E+00 -0.45593999997E+02  0.45594000000E+02  0.51100000000E-03 0.  1.
    9900012    2    1    2    0    0  0.16807959493E+02 -0.39193361631E+02 -0.80620201171E+01  0.47787271128E+02  0.20000000380E+02 0.  0.
        -12    1    1    2    0    0 -0.16807959493E+02  0.39193361631E+02  0.80620201171E+01  0.43400728872E+02  0.00000000000E+00 0.  1.
         11    1    3    3    0    0  0.22936723046E+01 -0.13748448602E+02 -0.10590320058E+02  0.17505303505E+02  0.51100000000E-03 0. -1.
        -11    1    3    3    0    0  0.12251671587E+02 -0.24883456517E+02  0.16309407800E+01  0.27783985189E+02  0.51100000000E-03 0.  1.
         12    1    3    3    0    0  0.22626156009E+01 -0.56145651224E+00  0.89735916125E+00  0.24979824332E+01  0.00000000000E+00 0. -1.
</event>
<event>
 7    1  0.2756432E-009  0.4778727E+02  0.7816164E-02  0.1312668E+00
        -11   -1    0    0    0    0  0.00000000000E+00  0.00000000000E+00  0.45593999997E+02  0.45594000000E+02  0.51100000000E-03 0.  1.
         11   -1    0    0    0    0 -0.00000000000E+00 -0.00000000000E+00 -0.45593999997E+02  0.45594000000E+02  0.51100000000E-03 0. -1.
    9900012    2    1    2    0    0 -0.17012188076E+01 -0.31171515348E+02 -0.30150713123E+02  0.47787274011E+02  0.20000013526E+02 0.  0.
        -12    1    1    2    0    0  0.17012188076E+01  0.31171515348E+02  0.30150713123E+02  0.43400725989E+02  0.00000000000E+00 0.  1.
         11    1    3    3    0    0  0.52817825768E+01 -0.88778505729E+01 -0.19539438931E+02  0.22102106958E+02  0.51100000000E-03 0. -1.
        -11    1    3    3    0    0 -0.48040414637E+01 -0.14619079695E+02 -0.64252906547E+01  0.16675750831E+02  0.51100000000E-03 0.  1.
         12    1    3    3    0    0 -0.21789599208E+01 -0.76745850800E+01 -0.41859835375E+01  0.90094162221E+01  0.00000000000E+00 0. -1.
</event>
<event>
 7    1  0.2756432E-009  0.4778727E+02  0.7816164E-02  0.1312668E+00
        -11   -1    0    0    0    0  0.00000000000E+00  0.00000000000E+00  0.45593999997E+02  0.45594000000E+02  0.51100000000E-03 0.  1.
         11   -1    0    0    0    0 -0.00000000000E+00 -0.00000000000E+00 -0.45593999997E+02  0.45594000000E+02  0.51100000000E-03 0. -1.
    9900012    2    1    2    0    0  0.77691409752E+01  0.25470400291E+02 -0.34271309508E+02  0.47787268464E+02  0.19999988233E+02 0.  0.
        -12    1    1    2    0    0 -0.77691409752E+01 -0.25470400291E+02  0.34271309508E+02  0.43400731536E+02  0.00000000000E+00 0.  1.
         11    1    3    3    0    0  0.32304497571E+01  0.93335378758E+01 -0.18278782176E+02  0.20776539967E+02  0.51100000000E-03 0. -1.
        -11    1    3    3    0    0 -0.20874690627E+01  0.11277505656E+02 -0.33783947955E+01  0.11956304302E+02  0.51100000000E-03 0.  1.
        -12    1    3    3    0    0  0.66261602807E+01  0.48593567600E+01 -0.12614132536E+02  0.15054424194E+02  0.00000000000E+00 0.  1.
</event>
<event>
 7    1  0.2756432E-009  0.4778727E+02  0.7816164E-02  0.1312668E+00
        -11   -1    0    0    0    0  0.00000000000E+00  0.00000000000E+00  0.45593999997E+02  0.45594000000E+02  0.51100000000E-03 0.  1.
         11   -1    0    0    0    0 -0.00000000000E+00 -0.00000000000E+00 -0.45593999997E+02  0.45594000000E+02  0.51100000000E-03 0. -1.
    9900012    2    1    2    0    0 -0.19933310013E+02 -0.37963876056E+02 -0.67104819107E+01  0.47787270735E+02  0.19999998589E+02 0.  0.
        -12    1    1    2    0    0  0.19933310013E+02  0.37963876056E+02  0.67104819107E+01  0.43400729265E+02  0.00000000000E+00 0.  1.
         11    1    3    3    0    0 -0.11282590241E+01  0.11287096315E+01 -0.19822073732E+01  0.25448183018E+01  0.51100000000E-03 0. -1.
        -11    1    3    3    0    0 -0.13235979478E+02 -0.28735180465E+02 -0.87318752404E+01  0.32819923744E+02  0.51100000000E-03 0.  1.
        -12    1    3    3    0    0 -0.55690715112E+01 -0.10357405222E+02  0.40036007029E+01  0.12422528689E+02  0.00000000000E+00 0.  1.
</event>
<event>
 7    1  0.2756432E-009  0.4778725E+02  0.7816164E-02  0.1312668E+00
        -11   -1    0    0    0    0  0.00000000000E+00  0.00000000000E+00  0.45593999997E+02  0.45594000000E+02  0.51100000000E-03 0.  1.
         11   -1    0    0    0    0 -0.00000000000E+00 -0.00000000000E+00 -0.45593999997E+02  0.45594000000E+02  0.51100000000E-03 0. -1.
    9900012    2    1    2    0    0 -0.33395345605E+01 -0.28484023807E+02 -0.32575039724E+02  0.47787247514E+02  0.19999892717E+02 0.  0.
        -12    1    1    2    0    0  0.33395345605E+01  0.28484023807E+02  0.32575039724E+02  0.43400752486E+02  0.00000000000E+00 0.  1.
         11    1    3    3    0    0  0.19238783801E+00 -0.20216924969E+02 -0.10226028450E+02  0.22656847230E+02  0.51100000000E-03 0. -1.
        -11    1    3    3    0    0  0.48966508168E+00 -0.78042446238E+00 -0.10546030136E+02  0.10586197907E+02  0.51100000000E-03 0.  1.
         12    1    3    3    0    0 -0.40215874802E+01 -0.74866743756E+01 -0.11802981138E+02  0.14544202378E+02  0.00000000000E+00 0. -1.
</event>
<event>
 7    1  0.2756432E-009  0.4778727E+02  0.7816164E-02  0.1312668E+00
        -11   -1    0    0    0    0  0.00000000000E+00  0.00000000000E+00  0.45593999997E+02  0.45594000000E+02  0.51100000000E-03 0. -1.
         11   -1    0    0    0    0 -0.00000000000E+00 -0.00000000000E+00 -0.45593999997E+02  0.45594000000E+02  0.51100000000E-03 0.  1.
    9900012    2    1    2    0    0  0.17277560032E+02 -0.14355672123E+02  0.37135209712E+02  0.47787271860E+02  0.20000003716E+02 0.  0.
        -12    1    1    2    0    0 -0.17277560032E+02  0.14355672123E+02 -0.37135209712E+02  0.43400728140E+02  0.00000000000E+00 0.  1.
         11    1    3    3    0    0  0.11297030784E+02 -0.14867011143E+02  0.25032366965E+02  0.31229318292E+02  0.51100000000E-03 0. -1.
        -11    1    3    3    0    0 -0.86379638582E+00 -0.13727310102E+01  0.83927020598E+01  0.85479812089E+01  0.51100000000E-03 0.  1.
         12    1    3    3    0    0  0.68443256337E+01  0.18840700306E+01  0.37101406872E+01  0.80099723582E+01  0.00000000000E+00 0. -1.
</event>
<event>
 7    1  0.2756432E-009  0.4778727E+02  0.7816164E-02  0.1312668E+00
        -11   -1    0    0    0    0  0.00000000000E+00  0.00000000000E+00  0.45593999997E+02  0.45594000000E+02  0.51100000000E-03 0. -1.
         11   -1    0    0    0    0 -0.00000000000E+00 -0.00000000000E+00 -0.45593999997E+02  0.45594000000E+02  0.51100000000E-03 0.  1.
    9900012    2    1    2    0    0 -0.25892460561E+02  0.30677878811E+02  0.16494585361E+02  0.47787272951E+02  0.20000008691E+02 0.  0.
        -12    1    1    2    0    0  0.25892460561E+02 -0.30677878811E+02 -0.16494585361E+02  0.43400727049E+02  0.00000000000E+00 0.  1.
         11    1    3    3    0    0 -0.66347122798E+01 -0.73056418528E+00 -0.86041409343E+00  0.67300403964E+01  0.51100000000E-03 0.  1.
        -11    1    3    3    0    0 -0.74902815101E+01  0.14030776355E+02  0.48539892885E+01  0.16629137515E+02  0.51100000000E-03 0. -1.
        -12    1    3    3    0    0 -0.11767466771E+02  0.17377666641E+02  0.12501010166E+02  0.24428095039E+02  0.00000000000E+00 0.  1.
</event>
<event>
 7    1  0.2756432E-009  0.4778727E+02  0.7816164E-02  0.1312668E+00
        -11   -1    0    0    0    0  0.00000000000E+00  0.00000000000E+00  0.45593999997E+02  0.45594000000E+02  0.51100000000E-03 0.  1.
         11   -1    0    0    0    0 -0.00000000000E+00 -0.00000000000E+00 -0.45593999997E+02  0.45594000000E+02  0.51100000000E-03 0. -1.
    9900012    2    1    2    0    0 -0.29410568134E+02 -0.10449689513E+02 -0.30157017862E+02  0.47787271259E+02  0.20000000978E+02 0.  0.
        -12    1    1    2    0    0  0.29410568134E+02  0.10449689513E+02  0.30157017862E+02  0.43400728741E+02  0.00000000000E+00 0.  1.
         11    1    3    3    0    0 -0.93241815562E+01 -0.89816688629E+01 -0.42442816157E+01  0.13624414261E+02  0.51100000000E-03 0. -1.
        -11    1    3    3    0    0 -0.38797223366E+01 -0.26605574790E+01 -0.16994349351E+01  0.50018887301E+01  0.51100000000E-03 0.  1.
         12    1    3    3    0    0 -0.16206664241E+02  0.11925368286E+01 -0.24213301312E+02  0.29160968268E+02  0.00000000000E+00 0. -1.
</event>
<event>
 7    1  0.2756432E-009  0.4778727E+02  0.7816164E-02  0.1312668E+00
        -11   -1    0    0    0    0  0.00000000000E+00  0.00000000000E+00  0.45593999997E+02  0.45594000000E+02  0.51100000000E-03 0.  1.
         11   -1    0    0    0    0 -0.00000000000E+00 -0.00000000000E+00 -0.45593999997E+02  0.45594000000E+02  0.51100000000E-03 0. -1.
    9900012    2    1    2    0    0  0.83261418766E+01  0.15448213778E+02 -0.39694480101E+02  0.47787266159E+02  0.19999977724E+02 0.  0.
        -12    1    1    2    0    0 -0.83261418766E+01 -0.15448213778E+02  0.39694480101E+02  0.43400733841E+02  0.00000000000E+00 0.  1.
         11    1    3    3    0    0  0.10254010676E+00  0.35393932195E+01 -0.23263049206E+02  0.23530985476E+02  0.51100000000E-03 0. -1.
        -11    1    3    3    0    0 -0.65597280701E+00  0.63876827050E+01 -0.26245499413E+01  0.69369339999E+01  0.51100000000E-03 0.  1.
         12    1    3    3    0    0  0.88795745768E+01  0.55211378530E+01 -0.13806880954E+02  0.17319346683E+02  0.00000000000E+00 0. -1.
</event>
<event>
 7    1  0.2756432E-009  0.4778727E+02  0.7816164E-02  0.1312668E+00
        -11   -1    0    0    0    0  0.00000000000E+00  0.00000000000E+00  0.45593999997E+02  0.45594000000E+02  0.51100000000E-03 0.  1.
         11   -1    0    0    0    0 -0.00000000000E+00 -0.00000000000E+00 -0.45593999997E+02  0.45594000000E+02  0.51100000000E-03 0. -1.
    9900012    2    1    2    0    0  0.12512260929E+02  0.25280330707E+02 -0.32984416401E+02  0.47787268215E+02  0.19999987099E+02 0.  0.
        -12    1    1    2    0    0 -0.12512260929E+02 -0.25280330707E+02  0.32984416401E+02  0.43400731785E+02  0.00000000000E+00 0.  1.
         11    1    3    3    0    0  0.90195503958E+01  0.26512217824E+02 -0.26080918745E+02  0.38268319876E+02  0.51100000000E-03 0. -1.
        -11    1    3    3    0    0  0.34397750907E+01 -0.31297007357E+01 -0.47358235083E+01  0.66374018963E+01  0.51100000000E-03 0.  1.
        -12    1    3    3    0    0  0.52935442292E-01  0.18978136183E+01 -0.21676741472E+01  0.28815464423E+01  0.00000000000E+00 0.  1.
</event>
<event>
 7    1  0.2756432E-009  0.4778727E+02  0.7816164E-02  0.1312668E+00
        -11   -1    0    0    0    0  0.00000000000E+00  0.00000000000E+00  0.45593999997E+02  0.45594000000E+02  0.51100000000E-03 0.  1.
         11   -1    0    0    0    0 -0.00000000000E+00 -0.00000000000E+00 -0.45593999997E+02  0.45594000000E+02  0.51100000000E-03 0. -1.
    9900012    2    1    2    0    0 -0.18270479753E+02 -0.33143777540E+02 -0.21243885344E+02  0.47787273226E+02  0.20000009946E+02 0.  0.
        -12    1    1    2    0    0  0.18270479753E+02  0.33143777540E+02  0.21243885344E+02  0.43400726774E+02  0.00000000000E+00 0.  1.
         11    1    3    3    0    0 -0.45769026863E+01 -0.12447562924E+02  0.15691885717E+01  0.13354857318E+02  0.51100000000E-03 0. -1.
        -11    1    3    3    0    0 -0.29831892258E+01 -0.58382784798E+01 -0.10443425678E+02  0.12330857786E+02  0.51100000000E-03 0.  1.
         12    1    3    3    0    0 -0.10710387841E+02 -0.14857936136E+02 -0.12369648237E+02  0.22101558122E+02  0.00000000000E+00 0. -1.
</event>
<event>
 7    1  0.2756432E-009  0.4778726E+02  0.7816164E-02  0.1312668E+00
        -11   -1    0    0    0    0  0.00000000000E+00  0.00000000000E+00  0.45593999997E+02  0.45594000000E+02  0.51100000000E-03 0.  1.
         11   -1    0    0    0    0 -0.00000000000E+00 -0.00000000000E+00 -0.45593999997E+02  0.45594000000E+02  0.51100000000E-03 0. -1.
    9900012    2    1    2    0    0 -0.39691266674E+01  0.73269555927E+00 -0.43212651248E+02  0.47787262251E+02  0.19999959906E+02 0.  0.
        -12    1    1    2    0    0  0.39691266674E+01 -0.73269555927E+00  0.43212651248E+02  0.43400737749E+02  0.00000000000E+00 0.  1.
         11    1    3    3    0    0  0.14927390977E+01 -0.73571134283E+01 -0.28003021515E+02  0.28991802328E+02  0.51100000000E-03 0. -1.
        -11    1    3    3    0    0 -0.55522464588E+01  0.53283548300E+01 -0.13520566632E+02  0.15557137534E+02  0.51100000000E-03 0.  1.
        -12    1    3    3    0    0  0.90380693793E-01  0.27614541576E+01 -0.16890631013E+01  0.32383223889E+01  0.00000000000E+00 0.  1.
</event>
<event>
 7    1  0.2756432E-009  0.4778727E+02  0.7816164E-02  0.1312668E+00
        -11   -1    0    0    0    0  0.00000000000E+00  0.00000000000E+00  0.45593999997E+02  0.45594000000E+02  0.51100000000E-03 0.  1.
         11   -1    0    0    0    0 -0.00000000000E+00 -0.00000000000E+00 -0.45593999997E+02  0.45594000000E+02  0.51100000000E-03 0. -1.
    9900012    2    1    2    0    0 -0.30746194132E+02  0.26633121063E+02 -0.15131808111E+02  0.47787271804E+02  0.20000003465E+02 0.  0.
        -12    1    1    2    0    0  0.30746194132E+02 -0.26633121063E+02  0.15131808111E+02  0.43400728196E+02  0.00000000000E+00 0.  1.
         11    1    3    3    0    0 -0.19190731537E+02  0.68726818854E+01 -0.12188645300E+02  0.23750389633E+02  0.51100000000E-03 0. -1.
        -11    1    3    3    0    0 -0.74173833022E+01  0.12474716391E+02  0.14332785050E+01  0.14583909339E+02  0.51100000000E-03 0.  1.
         12    1    3    3    0    0 -0.41380792932E+01  0.72857227869E+01 -0.43764413157E+01  0.94529728316E+01  0.00000000000E+00 0. -1.
</event>
<event>
 7    1  0.2756432E-009  0.4778727E+02  0.7816164E-02  0.1312668E+00
        -11   -1    0    0    0    0  0.00000000000E+00  0.00000000000E+00  0.45593999997E+02  0.45594000000E+02  0.51100000000E-03 0.  1.
         11   -1    0    0    0    0 -0.00000000000E+00 -0.00000000000E+00 -0.45593999997E+02  0.45594000000E+02  0.51100000000E-03 0. -1.
    9900012    2    1    2    0    0  0.41781479824E+02 -0.10464793628E+02  0.53309455707E+01  0.47787274861E+02  0.20000017400E+02 0.  0.
        -12    1    1    2    0    0 -0.41781479824E+02  0.10464793628E+02 -0.53309455707E+01  0.43400725139E+02  0.00000000000E+00 0.  1.
         11    1    3    3    0    0 -0.15572371784E+01  0.82973016888E+00  0.70734813599E+00  0.19009948526E+01  0.51100000000E-03 0. -1.
        -11    1    3    3    0    0  0.16298571907E+02 -0.41066363484E+01  0.60681639177E+01  0.17869821541E+02  0.51100000000E-03 0.  1.
         12    1    3    3    0    0  0.27040145095E+02 -0.71878874483E+01 -0.14445664830E+01  0.28016458467E+02  0.00000000000E+00 0. -1.
</event>
<event>
 7    1  0.2756432E-009  0.4778727E+02  0.7816164E-02  0.1312668E+00
        -11   -1    0    0    0    0  0.00000000000E+00  0.00000000000E+00  0.45593999997E+02  0.45594000000E+02  0.51100000000E-03 0.  1.
         11   -1    0    0    0    0 -0.00000000000E+00 -0.00000000000E+00 -0.45593999997E+02  0.45594000000E+02  0.51100000000E-03 0. -1.
    9900012    2    1    2    0    0  0.26143615243E+02  0.15399255218E+02 -0.31032202842E+02  0.47787270830E+02  0.19999999024E+02 0.  0.
        -12    1    1    2    0    0 -0.26143615243E+02 -0.15399255218E+02  0.31032202842E+02  0.43400729170E+02  0.00000000000E+00 0.  1.
         11    1    3    3    0    0  0.90991276148E+01  0.12079174454E+02 -0.67863429538E+01  0.16575736176E+02  0.51100000000E-03 0. -1.
        -11    1    3    3    0    0  0.77189137167E+01 -0.16353501579E+01 -0.15904613120E+02  0.17754230985E+02  0.51100000000E-03 0.  1.
        -12    1    3    3    0    0  0.93255739116E+01  0.49554309219E+01 -0.83412467677E+01  0.13457303669E+02  0.00000000000E+00 0.  1.
</event>
<event>
 7    1  0.2756432E-009  0.4778727E+02  0.7816164E-02  0.1312668E+00
        -11   -1    0    0    0    0  0.00000000000E+00  0.00000000000E+00  0.45593999997E+02  0.45594000000E+02  0.51100000000E-03 0.  1.
         11   -1    0    0    0    0 -0.00000000000E+00 -0.00000000000E+00 -0.45593999997E+02  0.45594000000E+02  0.51100000000E-03 0. -1.
    9900012    2    1    2    0    0 -0.67535303379E+01  0.28236013013E+02 -0.32260514730E+02  0.47787269436E+02  0.19999992666E+02 0.  0.
        -12    1    1    2    0    0  0.67535303379E+01 -0.28236013013E+02  0.32260514730E+02  0.43400730564E+02  0.00000000000E+00 0.  1.
         11    1    3    3    0    0 -0.90129717936E+01  0.55291359402E+01 -0.13493228363E+02  0.17142701559E+02  0.51100000000E-03 0. -1.
        -11    1    3    3    0    0  0.33615748323E+01  0.16466594068E+02 -0.91733942958E+01  0.19146803094E+02  0.51100000000E-03 0.  1.
         12    1    3    3    0    0 -0.11021333766E+01  0.62402830049E+01 -0.95938920704E+01  0.11497764784E+02  0.00000000000E+00 0. -1.
</event>
<event>
 7    1  0.2756432E-009  0.4778728E+02  0.7816164E-02  0.1312668E+00
        -11   -1    0    0    0    0  0.00000000000E+00  0.00000000000E+00  0.45593999997E+02  0.45594000000E+02  0.51100000000E-03 0. -1.
         11   -1    0    0    0    0 -0.00000000000E+00 -0.00000000000E+00 -0.45593999997E+02  0.45594000000E+02  0.51100000000E-03 0.  1.
    9900012    2    1    2    0    0  0.41057525342E+01  0.41293497416E+02  0.12712694800E+02  0.47787277174E+02  0.20000027947E+02 0.  0.
        -12    1    1    2    0    0 -0.41057525342E+01 -0.41293497416E+02 -0.12712694800E+02  0.43400722826E+02  0.00000000000E+00 0.  1.
         11    1    3    3    0    0  0.52647147844E+01  0.19761360529E+02  0.99446210909E+01  0.22740362368E+02  0.51100000000E-03 0. -1.
        -11    1    3    3    0    0 -0.20785713197E+01  0.20382343335E+02 -0.14893332957E+01  0.20542115093E+02  0.51100000000E-03 0.  1.
        -12    1    3    3    0    0  0.91960906951E+00  0.11497935527E+01  0.42574070048E+01  0.45047997136E+01  0.00000000000E+00 0.  1.
</event>
<event>
 7    1  0.2756432E-009  0.4778727E+02  0.7816164E-02  0.1312668E+00
        -11   -1    0    0    0    0  0.00000000000E+00  0.00000000000E+00  0.45593999997E+02  0.45594000000E+02  0.51100000000E-03 0. -1.
         11   -1    0    0    0    0 -0.00000000000E+00 -0.00000000000E+00 -0.45593999997E+02  0.45594000000E+02  0.51100000000E-03 0.  1.
    9900012    2    1    2    0    0  0.11496321279E+02  0.35060209794E+02  0.22852559614E+02  0.47787271957E+02  0.20000004162E+02 0.  0.
        -12    1    1    2    0    0 -0.11496321279E+02 -0.35060209794E+02 -0.22852559614E+02  0.43400728043E+02  0.00000000000E+00 0.  1.
         11    1    3    3    0    0  0.10756650319E+01  0.65618136521E+00  0.68673020656E+01  0.69819386395E+01  0.51100000000E-03 0. -1.
        -11    1    3    3    0    0  0.77596150733E+01  0.28064851949E+02  0.78565937104E+01  0.30159138018E+02  0.51100000000E-03 0.  1.
        -12    1    3    3    0    0  0.26610411744E+01  0.63391764798E+01  0.81286638379E+01  0.10646195300E+02  0.00000000000E+00 0.  1.
</event>
<event>
 7    1  0.2756432E-009  0.4778727E+02  0.7816164E-02  0.1312668E+00
        -11   -1    0    0    0    0  0.00000000000E+00  0.00000000000E+00  0.45593999997E+02  0.45594000000E+02  0.51100000000E-03 0.  1.
         11   -1    0    0    0    0 -0.00000000000E+00 -0.00000000000E+00 -0.45593999997E+02  0.45594000000E+02  0.51100000000E-03 0. -1.
    9900012    2    1    2    0    0  0.16290043691E+02 -0.40105209493E+02 -0.31352955124E+01  0.47787269248E+02  0.19999991807E+02 0.  0.
        -12    1    1    2    0    0 -0.16290043691E+02  0.40105209493E+02  0.31352955124E+01  0.43400730752E+02  0.00000000000E+00 0.  1.
         11    1    3    3    0    0  0.18481950578E+01 -0.25679926508E+02 -0.13219196455E+01  0.25780262261E+02  0.51100000000E-03 0. -1.
        -11    1    3    3    0    0 -0.74176003396E+00  0.73402634516E-02  0.55295096579E+00  0.92521179150E+00  0.51100000000E-03 0.  1.
         12    1    3    3    0    0  0.15183608667E+02 -0.14432623248E+02 -0.23663268327E+01  0.21081795195E+02  0.00000000000E+00 0. -1.
</event>
<event>
 7    1  0.2756432E-009  0.4778727E+02  0.7816164E-02  0.1312668E+00
        -11   -1    0    0    0    0  0.00000000000E+00  0.00000000000E+00  0.45593999997E+02  0.45594000000E+02  0.51100000000E-03 0. -1.
         11   -1    0    0    0    0 -0.00000000000E+00 -0.00000000000E+00 -0.45593999997E+02  0.45594000000E+02  0.51100000000E-03 0.  1.
    9900012    2    1    2    0    0  0.28355651988E+02 -0.27379807498E+02 -0.18163874355E+02  0.47787272013E+02  0.20000004414E+02 0.  0.
        -12    1    1    2    0    0 -0.28355651988E+02  0.27379807498E+02  0.18163874355E+02  0.43400727987E+02  0.00000000000E+00 0.  1.
         11    1    3    3    0    0  0.58930200814E+01 -0.19802316964E+01 -0.76707807830E+01  0.98736964371E+01  0.51100000000E-03 0. -1.
        -11    1    3    3    0    0  0.14691825858E+02 -0.17856078800E+02 -0.42607216453E+00  0.23127274697E+02  0.51100000000E-03 0.  1.
        -12    1    3    3    0    0  0.77708060479E+01 -0.75434970010E+01 -0.10067021408E+02  0.14786300878E+02  0.00000000000E+00 0.  1.
</event>
<event>
 7    1  0.3005960E-009  0.4778729E+02  0.7816164E-02  0.1312668E+00
        -11   -1    0    0    0    0  0.00000000000E+00  0.00000000000E+00  0.45593999997E+02  0.45594000000E+02  0.51100000000E-03 0. -1.
         11   -1    0    0    0    0 -0.00000000000E+00 -0.00000000000E+00 -0.45593999997E+02  0.45594000000E+02  0.51100000000E-03 0.  1.
    9900012    2    1    2    0    0  0.42106948966E+02 -0.79450569817E+01  0.68922400615E+01  0.47787285090E+02  0.20000064038E+02 0.  0.
        -12    1    1    2    0    0 -0.42106948966E+02  0.79450569817E+01 -0.68922400615E+01  0.43400714910E+02  0.00000000000E+00 0.  1.
         11    1    3    3    0    0  0.30417882543E+02 -0.64929883638E+01  0.47780850293E+01  0.31468024614E+02  0.51100000000E-03 0. -1.
        -11    1    3    3    0    0 -0.12184252782E+01  0.10126715061E+00  0.30490710102E+01  0.32850646083E+01  0.51100000000E-03 0.  1.
        -12    1    3    3    0    0  0.12907491701E+02 -0.15533357686E+01 -0.93491597804E+00  0.13034195868E+02  0.00000000000E+00 0.  1.
</event>
<event>
 7    1  0.2756432E-009  0.4778727E+02  0.7816164E-02  0.1312668E+00
        -11   -1    0    0    0    0  0.00000000000E+00  0.00000000000E+00  0.45593999997E+02  0.45594000000E+02  0.51100000000E-03 0.  1.
         11   -1    0    0    0    0 -0.00000000000E+00 -0.00000000000E+00 -0.45593999997E+02  0.45594000000E+02  0.51100000000E-03 0. -1.
    9900012    2    1    2    0    0  0.37784370386E+02  0.18581555467E+02 -0.10520965755E+02  0.47787267639E+02  0.19999984474E+02 0.  0.
        -12    1    1    2    0    0 -0.37784370386E+02 -0.18581555467E+02  0.10520965755E+02  0.43400732361E+02  0.00000000000E+00 0.  1.
         11    1    3    3    0    0  0.17771647472E+01 -0.55334972401E+00 -0.63854297298E+01  0.66511821168E+01  0.51100000000E-03 0. -1.
        -11    1    3    3    0    0  0.26960733803E+02  0.12911144354E+02 -0.20829011538E+01  0.29965268115E+02  0.51100000000E-03 0.  1.
         12    1    3    3    0    0  0.90464718356E+01  0.62237608373E+01 -0.20526348718E+01  0.11170817407E+02  0.00000000000E+00 0. -1.
</event>
<event>
 7    1  0.3585760E-009  0.4778730E+02  0.7816164E-02  0.1312668E+00
        -11   -1    0    0    0    0  0.00000000000E+00  0.00000000000E+00  0.45593999997E+02  0.45594000000E+02  0.51100000000E-03 0. -1.
         11   -1    0    0    0    0 -0.00000000000E+00 -0.00000000000E+00 -0.45593999997E+02  0.45594000000E+02  0.51100000000E-03 0.  1.
    9900012    2    1    2    0    0  0.39870138973E+02 -0.27811794086E+01  0.16919153541E+02  0.47787300730E+02  0.20000135346E+02 0.  0.
        -12    1    1    2    0    0 -0.39870138973E+02  0.27811794086E+01 -0.16919153541E+02  0.43400699270E+02  0.00000000000E+00 0.  1.
         11    1    3    3    0    0  0.18134259966E+02 -0.42204489961E+01  0.37793311601E+01  0.18998603068E+02  0.51100000000E-03 0. -1.
        -11    1    3    3    0    0  0.30584207764E+01  0.50476992237E+01  0.44458024685E+00  0.59186870973E+01  0.51100000000E-03 0.  1.
        -12    1    3    3    0    0  0.18677458231E+02 -0.36084296362E+01  0.12695242134E+02  0.22870010565E+02  0.00000000000E+00 0.  1.
</event>
<event>
 7    1  0.2756432E-009  0.4778727E+02  0.7816164E-02  0.1312668E+00
        -11   -1    0    0    0    0  0.00000000000E+00  0.00000000000E+00  0.45593999997E+02  0.45594000000E+02  0.51100000000E-03 0.  1.
         11   -1    0    0    0    0 -0.00000000000E+00 -0.00000000000E+00 -0.45593999997E+02  0.45594000000E+02  0.51100000000E-03 0. -1.
    9900012    2    1    2    0    0 -0.24866419673E+02 -0.18832735346E+02 -0.30176354501E+02  0.47787272829E+02  0.20000008138E+02 0.  0.
        -12    1    1    2    0    0  0.24866419673E+02  0.18832735346E+02  0.30176354501E+02  0.43400727171E+02  0.00000000000E+00 0.  1.
         11    1    3    3    0    0 -0.72808734813E+01 -0.53759602306E+01 -0.27600450689E+01  0.94620249469E+01  0.51100000000E-03 0. -1.
        -11    1    3    3    0    0 -0.13325242833E+02 -0.21206775105E+01 -0.87739989740E+01  0.16094795057E+02  0.51100000000E-03 0.  1.
        -12    1    3    3    0    0 -0.42603033591E+01 -0.11336097605E+02 -0.18642310458E+02  0.22230452826E+02  0.00000000000E+00 0.  1.
</event>
<event>
 7    1  0.2756432E-009  0.4778727E+02  0.7816164E-02  0.1312668E+00
        -11   -1    0    0    0    0  0.00000000000E+00  0.00000000000E+00  0.45593999997E+02  0.45594000000E+02  0.51100000000E-03 0. -1.
         11   -1    0    0    0    0 -0.00000000000E+00 -0.00000000000E+00 -0.45593999997E+02  0.45594000000E+02  0.51100000000E-03 0.  1.
    9900012    2    1    2    0    0  0.10091206987E+02 -0.21545029169E+02  0.36298799094E+02  0.47787267794E+02  0.19999985180E+02 0.  0.
        -12    1    1    2    0    0 -0.10091206987E+02  0.21545029169E+02 -0.36298799094E+02  0.43400732206E+02  0.00000000000E+00 0.  1.
         11    1    3    3    0    0 -0.31455419089E+00 -0.94615679747E+01  0.25567848249E+01  0.98059860177E+01  0.51100000000E-03 0. -1.
        -11    1    3    3    0    0  0.41044391662E+00  0.88713349315E+00  0.11687315147E+01  0.15236153248E+01  0.51100000000E-03 0.  1.
         12    1    3    3    0    0  0.99953172613E+01 -0.12970594688E+02  0.32573282754E+02  0.36457666451E+02  0.00000000000E+00 0. -1.
</event>
<event>
 7    1  0.2756432E-009  0.4778727E+02  0.7816164E-02  0.1312668E+00
        -11   -1    0    0    0    0  0.00000000000E+00  0.00000000000E+00  0.45593999997E+02  0.45594000000E+02  0.51100000000E-03 0.  1.
         11   -1    0    0    0    0 -0.00000000000E+00 -0.00000000000E+00 -0.45593999997E+02  0.45594000000E+02  0.51100000000E-03 0. -1.
    9900012    2    1    2    0    0  0.77079025873E+01 -0.94123433200E+01 -0.41660762531E+02  0.47787273004E+02  0.20000008936E+02 0.  0.
        -12    1    1    2    0    0 -0.77079025873E+01  0.94123433200E+01  0.41660762531E+02  0.43400726996E+02  0.00000000000E+00 0.  1.
         11    1    3    3    0    0  0.17181200835E+01 -0.27006296713E+01 -0.10841780201E+02  0.11304403364E+02  0.51100000000E-03 0. -1.
        -11    1    3    3    0    0  0.11554166687E+02 -0.13205626208E+01 -0.20639704420E+02  0.23690505530E+02  0.51100000000E-03 0.  1.
        -12    1    3    3    0    0 -0.55643841829E+01 -0.53911510279E+01 -0.10179277911E+02  0.12792364110E+02  0.00000000000E+00 0.  1.
</event>
<event>
 7    1  0.2756432E-009  0.4778727E+02  0.7816164E-02  0.1312668E+00
        -11   -1    0    0    0    0  0.00000000000E+00  0.00000000000E+00  0.45593999997E+02  0.45594000000E+02  0.51100000000E-03 0.  1.
         11   -1    0    0    0    0 -0.00000000000E+00 -0.00000000000E+00 -0.45593999997E+02  0.45594000000E+02  0.51100000000E-03 0. -1.
    9900012    2    1    2    0    0 -0.36206855209E+00 -0.27589418920E+02 -0.33500989959E+02  0.47787268921E+02  0.19999990317E+02 0.  0.
        -12    1    1    2    0    0  0.36206855209E+00  0.27589418920E+02  0.33500989959E+02  0.43400731079E+02  0.00000000000E+00 0.  1.
         11    1    3    3    0    0  0.39183262003E+01 -0.38015070346E+01 -0.42449626681E+01  0.69155219804E+01  0.51100000000E-03 0. -1.
        -11    1    3    3    0    0 -0.46752675949E+01 -0.18270201830E+02 -0.11080803496E+02  0.21873330985E+02  0.51100000000E-03 0.  1.
        -12    1    3    3    0    0  0.39487284246E+00 -0.55177100552E+01 -0.18175223795E+02  0.18998415955E+02  0.00000000000E+00 0.  1.
</event>
<event>
 7    1  0.2756432E-009  0.4778727E+02  0.7816164E-02  0.1312668E+00
        -11   -1    0    0    0    0  0.00000000000E+00  0.00000000000E+00  0.45593999997E+02  0.45594000000E+02  0.51100000000E-03 0. -1.
         11   -1    0    0    0    0 -0.00000000000E+00 -0.00000000000E+00 -0.45593999997E+02  0.45594000000E+02  0.51100000000E-03 0.  1.
    9900012    2    1    2    0    0 -0.37041697136E+02 -0.13742015736E+02  0.17963652745E+02  0.47787272550E+02  0.20000006867E+02 0.  0.
        -12    1    1    2    0    0  0.37041697136E+02  0.13742015736E+02 -0.17963652745E+02  0.43400727450E+02  0.00000000000E+00 0.  1.
         11    1    3    3    0    0 -0.81198358585E+01 -0.37115807967E+01  0.57602643573E+01  0.10624886451E+02  0.51100000000E-03 0. -1.
        -11    1    3    3    0    0 -0.30913968643E+02 -0.10816194381E+02  0.12380891089E+02  0.35013568549E+02  0.51100000000E-03 0.  1.
        -12    1    3    3    0    0  0.19921073650E+01  0.78575944138E+00 -0.17750270194E+00  0.21488175499E+01  0.00000000000E+00 0.  1.
</event>
<event>
 7    1  0.2756432E-009  0.4778728E+02  0.7816164E-02  0.1312668E+00
        -11   -1    0    0    0    0  0.00000000000E+00  0.00000000000E+00  0.45593999997E+02  0.45594000000E+02  0.51100000000E-03 0.  1.
         11   -1    0    0    0    0 -0.00000000000E+00 -0.00000000000E+00 -0.45593999997E+02  0.45594000000E+02  0.51100000000E-03 0. -1.
    9900012    2    1    2    0    0 -0.31113001270E+02 -0.24787181914E+02 -0.17355083190E+02  0.47787284017E+02  0.20000059149E+02 0.  0.
        -12    1    1    2    0    0  0.31113001270E+02  0.24787181914E+02  0.17355083190E+02  0.43400715983E+02  0.00000000000E+00 0.  1.
         11    1    3    3    0    0 -0.80650194155E+01 -0.57330713863E+01 -0.40223704618E+01  0.10681390831E+02  0.51100000000E-03 0. -1.
        -11    1    3    3    0    0 -0.23696088856E+02 -0.10383138515E+02 -0.10927231973E+02  0.28084134157E+02  0.51100000000E-03 0.  1.
        -12    1    3    3    0    0  0.64810700093E+00 -0.86709720123E+01 -0.24054807553E+01  0.90217590295E+01  0.00000000000E+00 0.  1.
</event>
<event>
 7    1  0.2756432E-009  0.4778727E+02  0.7816164E-02  0.1312668E+00
        -11   -1    0    0    0    0  0.00000000000E+00  0.00000000000E+00  0.45593999997E+02  0.45594000000E+02  0.51100000000E-03 0.  1.
         11   -1    0    0    0    0 -0.00000000000E+00 -0.00000000000E+00 -0.45593999997E+02  0.45594000000E+02  0.51100000000E-03 0. -1.
    9900012    2    1    2    0    0 -0.14744695763E+02  0.12360463014E+02 -0.38902907340E+02  0.47787270760E+02  0.19999998703E+02 0.  0.
        -12    1    1    2    0    0  0.14744695763E+02 -0.12360463014E+02  0.38902907340E+02  0.43400729240E+02  0.00000000000E+00 0.  1.
         11    1    3    3    0    0 -0.18503803869E+01  0.31884690939E+01 -0.28944045682E+01  0.46869841908E+01  0.51100000000E-03 0. -1.
        -11    1    3    3    0    0 -0.45608645075E+01  0.36372164860E+01 -0.11076216433E+00  0.58346462909E+01  0.51100000000E-03 0.  1.
        -12    1    3    3    0    0 -0.83334508690E+01  0.55347774343E+01 -0.35897740607E+02  0.37265640278E+02  0.00000000000E+00 0.  1.
</event>
<event>
 7    1  0.2756432E-009  0.4778727E+02  0.7816164E-02  0.1312668E+00
        -11   -1    0    0    0    0  0.00000000000E+00  0.00000000000E+00  0.45593999997E+02  0.45594000000E+02  0.51100000000E-03 0.  1.
         11   -1    0    0    0    0 -0.00000000000E+00 -0.00000000000E+00 -0.45593999997E+02  0.45594000000E+02  0.51100000000E-03 0. -1.
    9900012    2    1    2    0    0  0.30612916254E+02  0.11880651029E+02 -0.28378209677E+02  0.47787270802E+02  0.19999998894E+02 0.  0.
        -12    1    1    2    0    0 -0.30612916254E+02 -0.11880651029E+02  0.28378209677E+02  0.43400729198E+02  0.00000000000E+00 0.  1.
         11    1    3    3    0    0  0.13663722702E+02 -0.74472064903E+00 -0.20574409275E+02  0.24709476809E+02  0.51100000000E-03 0. -1.
        -11    1    3    3    0    0  0.75120710453E+01  0.57791494763E+01 -0.88158147132E+00  0.95187691542E+01  0.51100000000E-03 0.  1.
         12    1    3    3    0    0  0.94371225063E+01  0.68462222018E+01 -0.69222189314E+01  0.13559024838E+02  0.00000000000E+00 0. -1.
</event>
<event>
 7    1  0.2756432E-009  0.4778727E+02  0.7816164E-02  0.1312668E+00
        -11   -1    0    0    0    0  0.00000000000E+00  0.00000000000E+00  0.45593999997E+02  0.45594000000E+02  0.51100000000E-03 0. -1.
         11   -1    0    0    0    0 -0.00000000000E+00 -0.00000000000E+00 -0.45593999997E+02  0.45594000000E+02  0.51100000000E-03 0.  1.
    9900012    2    1    2    0    0 -0.12126708912E+02  0.53192576502E+01  0.41331242719E+02  0.47787271945E+02  0.20000004107E+02 0.  0.
        -12    1    1    2    0    0  0.12126708912E+02 -0.53192576502E+01 -0.41331242719E+02  0.43400728055E+02  0.00000000000E+00 0.  1.
         11    1    3    3    0    0 -0.40358027910E+01  0.94156156099E+01  0.17569380768E+02  0.20337764437E+02  0.51100000000E-03 0. -1.
        -11    1    3    3    0    0 -0.72613619188E+01 -0.34033942296E+01  0.69762687505E+01  0.10629148373E+02  0.51100000000E-03 0.  1.
         12    1    3    3    0    0 -0.82954420170E+00 -0.69296373005E+00  0.16785593201E+02  0.16820359135E+02  0.00000000000E+00 0. -1.
</event>
<event>
 7    1  0.2756432E-009  0.4778727E+02  0.7816164E-02  0.1312668E+00
        -11   -1    0    0    0    0  0.00000000000E+00  0.00000000000E+00  0.45593999997E+02  0.45594000000E+02  0.51100000000E-03 0. -1.
         11   -1    0    0    0    0 -0.00000000000E+00 -0.00000000000E+00 -0.45593999997E+02  0.45594000000E+02  0.51100000000E-03 0.  1.
    9900012    2    1    2    0    0 -0.17339516969E+02  0.29264040069E+02  0.26955151014E+02  0.47787273554E+02  0.20000011442E+02 0.  0.
        -12    1    1    2    0    0  0.17339516969E+02 -0.29264040069E+02 -0.26955151014E+02  0.43400726446E+02  0.00000000000E+00 0.  1.
         11    1    3    3    0    0 -0.10106678146E+02  0.17314711682E+02  0.21861231170E+02  0.29662393908E+02  0.51100000000E-03 0. -1.
        -11    1    3    3    0    0  0.24520978791E+01  0.29895725962E+01 -0.28441732230E+00  0.38770119668E+01  0.51100000000E-03 0.  1.
         12    1    3    3    0    0 -0.96849367020E+01  0.89597557905E+01  0.53783371656E+01  0.14247867680E+02  0.00000000000E+00 0. -1.
</event>
<event>
 7    1  0.2756432E-009  0.4778727E+02  0.7816164E-02  0.1312668E+00
        -11   -1    0    0    0    0  0.00000000000E+00  0.00000000000E+00  0.45593999997E+02  0.45594000000E+02  0.51100000000E-03 0.  1.
         11   -1    0    0    0    0 -0.00000000000E+00 -0.00000000000E+00 -0.45593999997E+02  0.45594000000E+02  0.51100000000E-03 0. -1.
    9900012    2    1    2    0    0  0.20675946198E+01 -0.42808033552E+02 -0.68425467480E+01  0.47787272701E+02  0.20000007551E+02 0.  0.
        -12    1    1    2    0    0 -0.20675946198E+01  0.42808033552E+02  0.68425467480E+01  0.43400727299E+02  0.00000000000E+00 0.  1.
         11    1    3    3    0    0  0.85524853175E+01 -0.11121892922E+02 -0.12424338307E+01  0.14084926317E+02  0.51100000000E-03 0.  1.
        -11    1    3    3    0    0 -0.44194655074E+01 -0.30204537001E+02 -0.42392360426E+01  0.30819098840E+02  0.51100000000E-03 0. -1.
        -12    1    3    3    0    0 -0.20654251904E+01 -0.14816036300E+01 -0.13608768747E+01  0.28832475442E+01  0.00000000000E+00 0.  1.
</event>
<event>
 7    1  0.2756432E-009  0.4778729E+02  0.7816164E-02  0.1312668E+00
        -11   -1    0    0    0    0  0.00000000000E+00  0.00000000000E+00  0.45593999997E+02  0.45594000000E+02  0.51100000000E-03 0. -1.
         11   -1    0    0    0    0 -0.00000000000E+00 -0.00000000000E+00 -0.45593999997E+02  0.45594000000E+02  0.51100000000E-03 0.  1.
    9900012    2    1    2    0    0 -0.23692920985E+01 -0.41794432778E+02  0.11455731329E+02  0.47787286451E+02  0.20000070242E+02 0.  0.
        -12    1    1    2    0    0  0.23692920985E+01  0.41794432778E+02 -0.11455731329E+02  0.43400713549E+02  0.00000000000E+00 0.  1.
         11    1    3    3    0    0 -0.13404747000E+01 -0.18103501461E+02  0.26881051544E+01  0.18351009431E+02  0.51100000000E-03 0. -1.
        -11    1    3    3    0    0 -0.16077927520E+01 -0.20087433207E+02  0.23189741805E+00  0.20153008387E+02  0.51100000000E-03 0.  1.
        -12    1    3    3    0    0  0.57897535357E+00 -0.36034981110E+01  0.85357287566E+01  0.92832686325E+01  0.00000000000E+00 0.  1.
</event>
<event>
 7    1  0.2756432E-009  0.4778728E+02  0.7816164E-02  0.1312668E+00
        -11   -1    0    0    0    0  0.00000000000E+00  0.00000000000E+00  0.45593999997E+02  0.45594000000E+02  0.51100000000E-03 0.  1.
         11   -1    0    0    0    0 -0.00000000000E+00 -0.00000000000E+00 -0.45593999997E+02  0.45594000000E+02  0.51100000000E-03 0. -1.
    9900012    2    1    2    0    0 -0.24017031632E+02 -0.34066642209E+02 -0.12094169540E+02  0.47787275851E+02  0.20000021916E+02 0.  0.
        -12    1    1    2    0    0  0.24017031632E+02  0.34066642209E+02  0.12094169540E+02  0.43400724149E+02  0.00000000000E+00 0.  1.
         11    1    3    3    0    0 -0.40488675114E+01 -0.14620008774E+02 -0.32795264626E+01  0.15520737056E+02  0.51100000000E-03 0. -1.
        -11    1    3    3    0    0 -0.14233875259E+02 -0.84847680782E+01 -0.10739341969E+02  0.19746593641E+02  0.51100000000E-03 0.  1.
        -12    1    3    3    0    0 -0.57342888613E+01 -0.10961865356E+02  0.19246988919E+01  0.12519945154E+02  0.00000000000E+00 0.  1.
</event>
<event>
 7    1  0.2756432E-009  0.4778727E+02  0.7816164E-02  0.1312668E+00
        -11   -1    0    0    0    0  0.00000000000E+00  0.00000000000E+00  0.45593999997E+02  0.45594000000E+02  0.51100000000E-03 0.  1.
         11   -1    0    0    0    0 -0.00000000000E+00 -0.00000000000E+00 -0.45593999997E+02  0.45594000000E+02  0.51100000000E-03 0. -1.
    9900012    2    1    2    0    0 -0.89616998135E+01  0.41944186312E+02 -0.66329773728E+01  0.47787271691E+02  0.20000002947E+02 0.  0.
        -12    1    1    2    0    0  0.89616998135E+01 -0.41944186312E+02  0.66329773728E+01  0.43400728309E+02  0.00000000000E+00 0.  1.
         11    1    3    3    0    0  0.18400205963E+01  0.13070422934E+02  0.16249395038E+01  0.13298949587E+02  0.51100000000E-03 0. -1.
        -11    1    3    3    0    0 -0.98328163827E+01  0.13737764190E+02 -0.93015712894E+01  0.19285478259E+02  0.51100000000E-03 0.  1.
        -12    1    3    3    0    0 -0.96890402711E+00  0.15135999188E+02  0.10436544128E+01  0.15202843845E+02  0.00000000000E+00 0.  1.
</event>
<event>
 7    1  0.2756432E-009  0.4778723E+02  0.7816164E-02  0.1312668E+00
        -11   -1    0    0    0    0  0.00000000000E+00  0.00000000000E+00  0.45593999997E+02  0.45594000000E+02  0.51100000000E-03 0.  1.
         11   -1    0    0    0    0 -0.00000000000E+00 -0.00000000000E+00 -0.45593999997E+02  0.45594000000E+02  0.51100000000E-03 0. -1.
    9900012    2    1    2    0    0  0.19619229753E+02  0.38080427746E+02  0.69708884780E+01  0.47787234574E+02  0.19999833715E+02 0.  0.
        -12    1    1    2    0    0 -0.19619229753E+02 -0.38080427746E+02 -0.69708884780E+01  0.43400765426E+02  0.00000000000E+00 0.  1.
         11    1    3    3    0    0  0.14001671614E+02  0.15107028239E+02  0.88438338828E+01  0.22416121614E+02  0.51100000000E-03 0. -1.
        -11    1    3    3    0    0  0.41007598772E+01  0.13362914684E+02  0.32853052710E+01  0.14358863165E+02  0.51100000000E-03 0.  1.
         12    1    3    3    0    0  0.15167982615E+01  0.96104848235E+01 -0.51582506758E+01  0.11012249795E+02  0.00000000000E+00 0. -1.
</event>
<event>
 7    1  0.2756432E-009  0.4778727E+02  0.7816164E-02  0.1312668E+00
        -11   -1    0    0    0    0  0.00000000000E+00  0.00000000000E+00  0.45593999997E+02  0.45594000000E+02  0.51100000000E-03 0.  1.
         11   -1    0    0    0    0 -0.00000000000E+00 -0.00000000000E+00 -0.45593999997E+02  0.45594000000E+02  0.51100000000E-03 0. -1.
    9900012    2    1    2    0    0  0.15701210424E+02 -0.28876224216E+02 -0.28341825854E+02  0.47787269286E+02  0.19999991982E+02 0.  0.
        -12    1    1    2    0    0 -0.15701210424E+02  0.28876224216E+02  0.28341825854E+02  0.43400730714E+02  0.00000000000E+00 0.  1.
         11    1    3    3    0    0 -0.25738131467E+01 -0.11926471570E+02 -0.41299657373E+01  0.12881065774E+02  0.51100000000E-03 0.  1.
        -11    1    3    3    0    0  0.14499994941E+02 -0.15078380946E+02 -0.20542811500E+02  0.29319183649E+02  0.51100000000E-03 0. -1.
        -12    1    3    3    0    0  0.37750286295E+01 -0.18713717003E+01 -0.36690486171E+01  0.55870198629E+01  0.00000000000E+00 0.  1.
</event>
<event>
 7    1  0.2756432E-009  0.4778727E+02  0.7816164E-02  0.1312668E+00
        -11   -1    0    0    0    0  0.00000000000E+00  0.00000000000E+00  0.45593999997E+02  0.45594000000E+02  0.51100000000E-03 0.  1.
         11   -1    0    0    0    0 -0.00000000000E+00 -0.00000000000E+00 -0.45593999997E+02  0.45594000000E+02  0.51100000000E-03 0. -1.
    9900012    2    1    2    0    0 -0.79619174077E+01 -0.33354915620E+02 -0.26602271573E+02  0.47787269849E+02  0.19999994551E+02 0.  0.
        -12    1    1    2    0    0  0.79619174077E+01  0.33354915620E+02  0.26602271573E+02  0.43400730151E+02  0.00000000000E+00 0.  1.
         11    1    3    3    0    0 -0.62353772370E+01 -0.31984027976E+02 -0.22913406600E+02  0.39835689741E+02  0.51100000000E-03 0. -1.
        -11    1    3    3    0    0 -0.38727736453E+01 -0.13349578851E+01 -0.40665005766E+01  0.57720806875E+01  0.51100000000E-03 0.  1.
         12    1    3    3    0    0  0.21462334745E+01 -0.35929758011E-01  0.37763560399E+00  0.21794994205E+01  0.00000000000E+00 0. -1.
</event>
<event>
 7    1  0.2756432E-009  0.4778727E+02  0.7816164E-02  0.1312668E+00
        -11   -1    0    0    0    0  0.00000000000E+00  0.00000000000E+00  0.45593999997E+02  0.45594000000E+02  0.51100000000E-03 0. -1.
         11   -1    0    0    0    0 -0.00000000000E+00 -0.00000000000E+00 -0.45593999997E+02  0.45594000000E+02  0.51100000000E-03 0.  1.
    9900012    2    1    2    0    0  0.21324325479E+02  0.31237519320E+02  0.21286467705E+02  0.47787272152E+02  0.20000005050E+02 0.  0.
        -12    1    1    2    0    0 -0.21324325479E+02 -0.31237519320E+02 -0.21286467705E+02  0.43400727848E+02  0.00000000000E+00 0.  1.
         11    1    3    3    0    0  0.24565426187E+02  0.29079752455E+02  0.19358700846E+02  0.42706574029E+02  0.51100000000E-03 0. -1.
        -11    1    3    3    0    0 -0.28516771171E+01  0.51647395533E+00  0.17476721670E+01  0.33842526488E+01  0.51100000000E-03 0.  1.
        -12    1    3    3    0    0 -0.38942359184E+00  0.16412929096E+01  0.18009469276E+00  0.16964454744E+01  0.00000000000E+00 0.  1.
</event>
<event>
 7    1  0.2756432E-009  0.4778727E+02  0.7816164E-02  0.1312668E+00
        -11   -1    0    0    0    0  0.00000000000E+00  0.00000000000E+00  0.45593999997E+02  0.45594000000E+02  0.51100000000E-03 0. -1.
         11   -1    0    0    0    0 -0.00000000000E+00 -0.00000000000E+00 -0.45593999997E+02  0.45594000000E+02  0.51100000000E-03 0.  1.
    9900012    2    1    2    0    0  0.11125797686E+02 -0.41883080038E+02  0.23764368954E+01  0.47787271665E+02  0.20000002831E+02 0.  0.
        -12    1    1    2    0    0 -0.11125797686E+02  0.41883080038E+02 -0.23764368954E+01  0.43400728335E+02  0.00000000000E+00 0.  1.
         11    1    3    3    0    0  0.33825207078E+01 -0.93091421941E+01 -0.11731381807E+01  0.99738572369E+01  0.51100000000E-03 0. -1.
        -11    1    3    3    0    0 -0.19287642891E+01 -0.24947693129E+02  0.46383192736E+01  0.25448409185E+02  0.51100000000E-03 0.  1.
        -12    1    3    3    0    0  0.96720412672E+01 -0.76262447157E+01 -0.10887441974E+01  0.12365005243E+02  0.00000000000E+00 0.  1.
</event>
<event>
 7    1  0.2756432E-009  0.4778727E+02  0.7816164E-02  0.1312668E+00
        -11   -1    0    0    0    0  0.00000000000E+00  0.00000000000E+00  0.45593999997E+02  0.45594000000E+02  0.51100000000E-03 0.  1.
         11   -1    0    0    0    0 -0.00000000000E+00 -0.00000000000E+00 -0.45593999997E+02  0.45594000000E+02  0.51100000000E-03 0. -1.
    9900012    2    1    2    0    0  0.22939906784E+02  0.15691653482E+02 -0.33334001308E+02  0.47787274713E+02  0.20000016727E+02 0.  0.
        -12    1    1    2    0    0 -0.22939906784E+02 -0.15691653482E+02  0.33334001308E+02  0.43400725287E+02  0.00000000000E+00 0.  1.
         11    1    3    3    0    0  0.23101985228E+02  0.19050338007E+02 -0.30289504684E+02  0.42591914654E+02  0.51100000000E-03 0. -1.
        -11    1    3    3    0    0 -0.12854285623E+01 -0.13275308527E+01 -0.17115800471E+01  0.25187638381E+01  0.51100000000E-03 0.  1.
         12    1    3    3    0    0  0.11233501182E+01 -0.20311536725E+01 -0.13329165769E+01  0.26765962210E+01  0.00000000000E+00 0. -1.
</event>
<event>
 7    1  0.2756432E-009  0.4778727E+02  0.7816164E-02  0.1312668E+00
        -11   -1    0    0    0    0  0.00000000000E+00  0.00000000000E+00  0.45593999997E+02  0.45594000000E+02  0.51100000000E-03 0. -1.
         11   -1    0    0    0    0 -0.00000000000E+00 -0.00000000000E+00 -0.45593999997E+02  0.45594000000E+02  0.51100000000E-03 0.  1.
    9900012    2    1    2    0    0 -0.37566139763E+02 -0.20795531419E+02  0.63209808626E+01  0.47787265182E+02  0.19999973271E+02 0.  0.
        -12    1    1    2    0    0  0.37566139763E+02  0.20795531419E+02 -0.63209808626E+01  0.43400734818E+02  0.00000000000E+00 0.  1.
         11    1    3    3    0    0 -0.31261870251E+02 -0.17003657163E+02  0.80014280776E+01  0.36475357984E+02  0.51100000000E-03 0. -1.
        -11    1    3    3    0    0 -0.49555011329E+00  0.13541045667E+01 -0.31035815042E+01  0.34221904544E+01  0.51100000000E-03 0.  1.
        -12    1    3    3    0    0 -0.58087193983E+01 -0.51459788228E+01  0.14231342891E+01  0.78897167439E+01  0.00000000000E+00 0.  1.
</event>
<event>
 7    1  0.2756432E-009  0.4778727E+02  0.7816164E-02  0.1312668E+00
        -11   -1    0    0    0    0  0.00000000000E+00  0.00000000000E+00  0.45593999997E+02  0.45594000000E+02  0.51100000000E-03 0.  1.
         11   -1    0    0    0    0 -0.00000000000E+00 -0.00000000000E+00 -0.45593999997E+02  0.45594000000E+02  0.51100000000E-03 0. -1.
    9900012    2    1    2    0    0  0.18252485236E+02  0.14679942863E+02 -0.36537232343E+02  0.47787270893E+02  0.19999999309E+02 0.  0.
        -12    1    1    2    0    0 -0.18252485236E+02 -0.14679942863E+02  0.36537232343E+02  0.43400729107E+02  0.00000000000E+00 0.  1.
         11    1    3    3    0    0  0.13665880104E+02  0.14912253077E+02 -0.30810713821E+02  0.36856907864E+02  0.51100000000E-03 0. -1.
        -11    1    3    3    0    0  0.47568759815E+01  0.73265917957E+00  0.30228169175E+00  0.48224509390E+01  0.51100000000E-03 0.  1.
        -12    1    3    3    0    0 -0.17027084883E+00 -0.96496939318E+00 -0.60288002132E+01  0.61079120903E+01  0.00000000000E+00 0.  1.
</event>
<event>
 7    1  0.2756432E-009  0.4778727E+02  0.7816164E-02  0.1312668E+00
        -11   -1    0    0    0    0  0.00000000000E+00  0.00000000000E+00  0.45593999997E+02  0.45594000000E+02  0.51100000000E-03 0. -1.
         11   -1    0    0    0    0 -0.00000000000E+00 -0.00000000000E+00 -0.45593999997E+02  0.45594000000E+02  0.51100000000E-03 0.  1.
    9900012    2    1    2    0    0 -0.38359387404E+02  0.33138075504E+00  0.20299525850E+02  0.47787272299E+02  0.20000005722E+02 0.  0.
        -12    1    1    2    0    0  0.38359387404E+02 -0.33138075504E+00 -0.20299525850E+02  0.43400727701E+02  0.00000000000E+00 0.  1.
         11    1    3    3    0    0 -0.43501944163E+01  0.29037202931E+01  0.34086569483E+01  0.62429740871E+01  0.51100000000E-03 0. -1.
        -11    1    3    3    0    0 -0.99177591470E+01 -0.51401830503E+00 -0.28478216747E+01  0.10331323723E+02  0.51100000000E-03 0.  1.
        -12    1    3    3    0    0 -0.24091433841E+02 -0.20583212331E+01  0.19738690576E+02  0.31212974489E+02  0.00000000000E+00 0.  1.
</event>
<event>
 7    1  0.2756432E-009  0.4778727E+02  0.7816164E-02  0.1312668E+00
        -11   -1    0    0    0    0  0.00000000000E+00  0.00000000000E+00  0.45593999997E+02  0.45594000000E+02  0.51100000000E-03 0. -1.
         11   -1    0    0    0    0 -0.00000000000E+00 -0.00000000000E+00 -0.45593999997E+02  0.45594000000E+02  0.51100000000E-03 0.  1.
    9900012    2    1    2    0    0 -0.36107537727E+02  0.10247419927E+02  0.21791269418E+02  0.47787270528E+02  0.19999997644E+02 0.  0.
        -12    1    1    2    0    0  0.36107537727E+02 -0.10247419927E+02 -0.21791269418E+02  0.43400729472E+02  0.00000000000E+00 0.  1.
         11    1    3    3    0    0 -0.24571450820E+02  0.13739069930E+01  0.16495819557E+02  0.29626945151E+02  0.51100000000E-03 0. -1.
        -11    1    3    3    0    0  0.16449619694E+00 -0.17638846524E+00 -0.17567291612E+01  0.17732088135E+01  0.51100000000E-03 0.  1.
         12    1    3    3    0    0 -0.11700583104E+02  0.90499013991E+01  0.70521790214E+01  0.16387116563E+02  0.00000000000E+00 0. -1.
</event>
<event>
 7    1  0.2756432E-009  0.4778727E+02  0.7816164E-02  0.1312668E+00
        -11   -1    0    0    0    0  0.00000000000E+00  0.00000000000E+00  0.45593999997E+02  0.45594000000E+02  0.51100000000E-03 0. -1.
         11   -1    0    0    0    0 -0.00000000000E+00 -0.00000000000E+00 -0.45593999997E+02  0.45594000000E+02  0.51100000000E-03 0.  1.
    9900012    2    1    2    0    0  0.15307120690E+02 -0.27110909394E+02 -0.30237628465E+02  0.47787268127E+02  0.19999986696E+02 0.  0.
        -12    1    1    2    0    0 -0.15307120690E+02  0.27110909394E+02  0.30237628465E+02  0.43400731873E+02  0.00000000000E+00 0.  1.
         11    1    3    3    0    0  0.49101743086E+01 -0.40441259878E+01 -0.52178341033E+01  0.82274272854E+01  0.51100000000E-03 0. -1.
        -11    1    3    3    0    0  0.15020775601E+02 -0.17602255877E+02 -0.16437126015E+02  0.28383837364E+02  0.51100000000E-03 0.  1.
        -12    1    3    3    0    0 -0.46238292198E+01 -0.54645275286E+01 -0.85826683471E+01  0.11176003477E+02  0.00000000000E+00 0.  1.
</event>
<event>
 7    1  0.2756432E-009  0.4778727E+02  0.7816164E-02  0.1312668E+00
        -11   -1    0    0    0    0  0.00000000000E+00  0.00000000000E+00  0.45593999997E+02  0.45594000000E+02  0.51100000000E-03 0. -1.
         11   -1    0    0    0    0 -0.00000000000E+00 -0.00000000000E+00 -0.45593999997E+02  0.45594000000E+02  0.51100000000E-03 0.  1.
    9900012    2    1    2    0    0 -0.20795907188E+02 -0.35984105930E+02 -0.12501908863E+02  0.47787270045E+02  0.19999995444E+02 0.  0.
        -12    1    1    2    0    0  0.20795907188E+02  0.35984105930E+02  0.12501908863E+02  0.43400729955E+02  0.00000000000E+00 0.  1.
         11    1    3    3    0    0 -0.13032136795E+01 -0.83270195151E+01 -0.92272468713E+01  0.12497187883E+02  0.51100000000E-03 0. -1.
        -11    1    3    3    0    0  0.87181085327E+00 -0.29313974746E+01 -0.80604727406E+00  0.31627294837E+01  0.51100000000E-03 0.  1.
         12    1    3    3    0    0 -0.20364504362E+02 -0.24725688941E+02 -0.24686147177E+01  0.32127352678E+02  0.00000000000E+00 0. -1.
</event>
<event>
 7    1  0.2756432E-009  0.4778727E+02  0.7816164E-02  0.1312668E+00
        -11   -1    0    0    0    0  0.00000000000E+00  0.00000000000E+00  0.45593999997E+02  0.45594000000E+02  0.51100000000E-03 0.  1.
         11   -1    0    0    0    0 -0.00000000000E+00 -0.00000000000E+00 -0.45593999997E+02  0.45594000000E+02  0.51100000000E-03 0. -1.
    9900012    2    1    2    0    0  0.42341996669E+02 -0.64310124218E+01 -0.70299927508E+01  0.47787269582E+02  0.19999993334E+02 0.  0.
        -12    1    1    2    0    0 -0.42341996669E+02  0.64310124218E+01  0.70299927508E+01  0.43400730418E+02  0.00000000000E+00 0.  1.
         11    1    3    3    0    0  0.32282884936E+02 -0.27243361071E+01 -0.68148166439E+01  0.33106621591E+02  0.51100000000E-03 0. -1.
        -11    1    3    3    0    0 -0.17668749991E+01 -0.18903351507E+01 -0.78043077693E+00  0.27026443907E+01  0.51100000000E-03 0.  1.
        -12    1    3    3    0    0  0.11825986733E+02 -0.18163411640E+01  0.56525467011E+00  0.11978003601E+02  0.00000000000E+00 0.  1.
</event>
<event>
 7    1  0.3774347E-009  0.4778727E+02  0.7816164E-02  0.1312668E+00
        -11   -1    0    0    0    0  0.00000000000E+00  0.00000000000E+00  0.45593999997E+02  0.45594000000E+02  0.51100000000E-03 0.  1.
         11   -1    0    0    0    0 -0.00000000000E+00 -0.00000000000E+00 -0.45593999997E+02  0.45594000000E+02  0.51100000000E-03 0. -1.
    9900012    2    1    2    0    0  0.37637429553E+02  0.17230413997E+01 -0.21542469155E+02  0.47787274749E+02  0.20000016888E+02 0.  0.
        -12    1    1    2    0    0 -0.37637429553E+02 -0.17230413997E+01  0.21542469155E+02  0.43400725251E+02  0.00000000000E+00 0.  1.
         11    1    3    3    0    0  0.13427388359E+02 -0.41075248051E+01 -0.92495392161E+01  0.16814294340E+02  0.51100000000E-03 0. -1.
        -11    1    3    3    0    0  0.17098382645E+02  0.63632635897E+01 -0.18643022912E+01  0.18339068566E+02  0.51100000000E-03 0.  1.
        -12    1    3    3    0    0  0.71116585494E+01 -0.53269738490E+00 -0.10428627648E+02  0.12633911843E+02  0.00000000000E+00 0.  1.
</event>
<event>
 7    1  0.2756432E-009  0.4778729E+02  0.7816164E-02  0.1312668E+00
        -11   -1    0    0    0    0  0.00000000000E+00  0.00000000000E+00  0.45593999997E+02  0.45594000000E+02  0.51100000000E-03 0. -1.
         11   -1    0    0    0    0 -0.00000000000E+00 -0.00000000000E+00 -0.45593999997E+02  0.45594000000E+02  0.51100000000E-03 0.  1.
    9900012    2    1    2    0    0  0.36847366092E+02 -0.22688873056E+02 -0.33329329876E+01  0.47787288131E+02  0.20000077904E+02 0.  0.
        -12    1    1    2    0    0 -0.36847366092E+02  0.22688873056E+02  0.33329329876E+01  0.43400711869E+02  0.00000000000E+00 0.  1.
         11    1    3    3    0    0  0.37954369057E+01 -0.53865514542E+01 -0.29561440389E+01  0.72221233522E+01  0.51100000000E-03 0. -1.
        -11    1    3    3    0    0  0.67936868080E+01 -0.11612752560E+02 -0.22135461635E+01  0.13634881347E+02  0.51100000000E-03 0.  1.
        -12    1    3    3    0    0  0.26258242378E+02 -0.56895690418E+01  0.18367572148E+01  0.26930283432E+02  0.00000000000E+00 0.  1.
</event>
<event>
 7    1  0.2756432E-009  0.4778729E+02  0.7816164E-02  0.1312668E+00
        -11   -1    0    0    0    0  0.00000000000E+00  0.00000000000E+00  0.45593999997E+02  0.45594000000E+02  0.51100000000E-03 0.  1.
         11   -1    0    0    0    0 -0.00000000000E+00 -0.00000000000E+00 -0.45593999997E+02  0.45594000000E+02  0.51100000000E-03 0. -1.
    9900012    2    1    2    0    0  0.25364408023E+02  0.34823375626E+02  0.52536414289E+01  0.47787292256E+02  0.20000096713E+02 0.  0.
        -12    1    1    2    0    0 -0.25364408023E+02 -0.34823375626E+02 -0.52536414289E+01  0.43400707744E+02  0.00000000000E+00 0.  1.
         11    1    3    3    0    0  0.14251527552E+01  0.12523054864E+02  0.70190000431E+01  0.14426514664E+02  0.51100000000E-03 0.  1.
        -11    1    3    3    0    0  0.39644954701E+01  0.44325461656E+01  0.20503299939E+01  0.62903531847E+01  0.51100000000E-03 0. -1.
         12    1    3    3    0    0  0.19974759798E+02  0.17867774597E+02 -0.38156886081E+01  0.27070424407E+02  0.00000000000E+00 0. -1.
</event>
<event>
 7    1  0.2756432E-009  0.4778727E+02  0.7816164E-02  0.1312668E+00
        -11   -1    0    0    0    0  0.00000000000E+00  0.00000000000E+00  0.45593999997E+02  0.45594000000E+02  0.51100000000E-03 0.  1.
         11   -1    0    0    0    0 -0.00000000000E+00 -0.00000000000E+00 -0.45593999997E+02  0.45594000000E+02  0.51100000000E-03 0. -1.
    9900012    2    1    2    0    0  0.12854016785E+02 -0.14925712805E+02 -0.38673256285E+02  0.47787269569E+02  0.19999993275E+02 0.  0.
        -12    1    1    2    0    0 -0.12854016785E+02  0.14925712805E+02  0.38673256285E+02  0.43400730431E+02  0.00000000000E+00 0.  1.
         11    1    3    3    0    0  0.62867106228E+01 -0.15016767451E+02 -0.32394885438E+02  0.36255408396E+02  0.51100000000E-03 0. -1.
        -11    1    3    3    0    0 -0.35274124228E+00  0.21239617299E+01 -0.32032557561E+00  0.21767518347E+01  0.51100000000E-03 0.  1.
        -12    1    3    3    0    0  0.69200474049E+01 -0.20329070832E+01 -0.59580452711E+01  0.93551093392E+01  0.00000000000E+00 0.  1.
</event>
<event>
 7    1  0.2756432E-009  0.4778727E+02  0.7816164E-02  0.1312668E+00
        -11   -1    0    0    0    0  0.00000000000E+00  0.00000000000E+00  0.45593999997E+02  0.45594000000E+02  0.51100000000E-03 0.  1.
         11   -1    0    0    0    0 -0.00000000000E+00 -0.00000000000E+00 -0.45593999997E+02  0.45594000000E+02  0.51100000000E-03 0. -1.
    9900012    2    1    2    0    0 -0.32305742644E+01  0.19437552125E+02 -0.38669997177E+02  0.47787265855E+02  0.19999976340E+02 0.  0.
        -12    1    1    2    0    0  0.32305742644E+01 -0.19437552125E+02  0.38669997177E+02  0.43400734145E+02  0.00000000000E+00 0.  1.
         11    1    3    3    0    0 -0.12027773918E+01  0.20854697325E+02 -0.20949909636E+02  0.29584857411E+02  0.51100000000E-03 0. -1.
        -11    1    3    3    0    0 -0.47225287546E+00 -0.20667043193E+01 -0.60386630270E+01  0.63999797606E+01  0.51100000000E-03 0.  1.
         12    1    3    3    0    0 -0.15555439971E+01  0.64955911880E+00 -0.11681424513E+02  0.11802428684E+02  0.00000000000E+00 0. -1.
</event>
<event>
 7    1  0.2756432E-009  0.4778727E+02  0.7816164E-02  0.1312668E+00
        -11   -1    0    0    0    0  0.00000000000E+00  0.00000000000E+00  0.45593999997E+02  0.45594000000E+02  0.51100000000E-03 0. -1.
         11   -1    0    0    0    0 -0.00000000000E+00 -0.00000000000E+00 -0.45593999997E+02  0.45594000000E+02  0.51100000000E-03 0.  1.
    9900012    2    1    2    0    0  0.38676049958E+02  0.19597517654E+02 -0.19297361472E+01  0.47787269360E+02  0.19999992318E+02 0.  0.
        -12    1    1    2    0    0 -0.38676049958E+02 -0.19597517654E+02  0.19297361472E+01  0.43400730640E+02  0.00000000000E+00 0.  1.
         11    1    3    3    0    0  0.18013465230E+02  0.10459291121E+02 -0.40395265355E+01  0.21217904591E+02  0.51100000000E-03 0. -1.
        -11    1    3    3    0    0  0.91743939699E+01 -0.31064311014E+01  0.43395978746E+00  0.96957588801E+01  0.51100000000E-03 0.  1.
        -12    1    3    3    0    0  0.11488190758E+02  0.12244657634E+02  0.16758306008E+01  0.16873605888E+02  0.00000000000E+00 0.  1.
</event>
<event>
 7    1  0.2756432E-009  0.4778728E+02  0.7816164E-02  0.1312668E+00
        -11   -1    0    0    0    0  0.00000000000E+00  0.00000000000E+00  0.45593999997E+02  0.45594000000E+02  0.51100000000E-03 0. -1.
         11   -1    0    0    0    0 -0.00000000000E+00 -0.00000000000E+00 -0.45593999997E+02  0.45594000000E+02  0.51100000000E-03 0.  1.
    9900012    2    1    2    0    0  0.26475307609E+02 -0.22178484591E+02  0.26282994517E+02  0.47787275438E+02  0.20000020031E+02 0.  0.
        -12    1    1    2    0    0 -0.26475307609E+02  0.22178484591E+02 -0.26282994517E+02  0.43400724562E+02  0.00000000000E+00 0.  1.
         11    1    3    3    0    0  0.80760139475E+01  0.15915302528E+01  0.26428770777E+01  0.86452165580E+01  0.51100000000E-03 0. -1.
        -11    1    3    3    0    0  0.27943773723E+01 -0.98711677706E+01  0.87336355800E+01  0.13473117262E+02  0.51100000000E-03 0.  1.
         12    1    3    3    0    0  0.15604916289E+02 -0.13898847074E+02  0.14906481859E+02  0.25668941618E+02  0.00000000000E+00 0. -1.
</event>
<event>
 7    1  0.2756432E-009  0.4778727E+02  0.7816164E-02  0.1312668E+00
        -11   -1    0    0    0    0  0.00000000000E+00  0.00000000000E+00  0.45593999997E+02  0.45594000000E+02  0.51100000000E-03 0.  1.
         11   -1    0    0    0    0 -0.00000000000E+00 -0.00000000000E+00 -0.45593999997E+02  0.45594000000E+02  0.51100000000E-03 0. -1.
    9900012    2    1    2    0    0 -0.29927109789E+02  0.31427353128E+02 -0.55947386706E+00  0.47787269177E+02  0.19999991486E+02 0.  0.
        -12    1    1    2    0    0  0.29927109789E+02 -0.31427353128E+02  0.55947386706E+00  0.43400730823E+02  0.00000000000E+00 0.  1.
         11    1    3    3    0    0 -0.13366117318E+02  0.22983087972E+02 -0.30403479405E+01  0.26760402477E+02  0.51100000000E-03 0. -1.
        -11    1    3    3    0    0 -0.95472434869E+00 -0.53914842504E+00  0.28103970656E+01  0.30167054104E+01  0.51100000000E-03 0.  1.
        -12    1    3    3    0    0 -0.15606268122E+02  0.89834135810E+01 -0.32952299212E+00  0.18010161289E+02  0.00000000000E+00 0.  1.
</event>
<event>
 7    1  0.2756432E-009  0.4778727E+02  0.7816164E-02  0.1312668E+00
        -11   -1    0    0    0    0  0.00000000000E+00  0.00000000000E+00  0.45593999997E+02  0.45594000000E+02  0.51100000000E-03 0.  1.
         11   -1    0    0    0    0 -0.00000000000E+00 -0.00000000000E+00 -0.45593999997E+02  0.45594000000E+02  0.51100000000E-03 0. -1.
    9900012    2    1    2    0    0  0.38104967758E+02  0.11588307269E+02 -0.17243718026E+02  0.47787271382E+02  0.20000001540E+02 0.  0.
        -12    1    1    2    0    0 -0.38104967758E+02 -0.11588307269E+02  0.17243718026E+02  0.43400728618E+02  0.00000000000E+00 0.  1.
         11    1    3    3    0    0  0.66104509721E+01  0.19891434487E+01 -0.10237111465E+02  0.12347194221E+02  0.51100000000E-03 0. -1.
        -11    1    3    3    0    0  0.17077390370E+02  0.10234777415E+02 -0.14018986956E+01  0.19958788811E+02  0.51100000000E-03 0.  1.
         12    1    3    3    0    0  0.14417126416E+02 -0.63561359480E+00 -0.56047078652E+01  0.15481288351E+02  0.00000000000E+00 0. -1.
</event>
<event>
 7    1  0.2756432E-009  0.4778727E+02  0.7816164E-02  0.1312668E+00
        -11   -1    0    0    0    0  0.00000000000E+00  0.00000000000E+00  0.45593999997E+02  0.45594000000E+02  0.51100000000E-03 0.  1.
         11   -1    0    0    0    0 -0.00000000000E+00 -0.00000000000E+00 -0.45593999997E+02  0.45594000000E+02  0.51100000000E-03 0. -1.
    9900012    2    1    2    0    0  0.21058482149E+02  0.20073036144E+02 -0.32206162173E+02  0.47787270371E+02  0.19999996930E+02 0.  0.
        -12    1    1    2    0    0 -0.21058482149E+02 -0.20073036144E+02  0.32206162173E+02  0.43400729629E+02  0.00000000000E+00 0.  1.
         11    1    3    3    0    0  0.19075509049E+02  0.11337719752E+02 -0.19869771568E+02  0.29786351859E+02  0.51100000000E-03 0. -1.
        -11    1    3    3    0    0  0.61694304127E-01  0.37687976024E+01  0.77608496375E+00  0.38483697441E+01  0.51100000000E-03 0.  1.
        -12    1    3    3    0    0  0.19212787953E+01  0.49665187892E+01 -0.13112475569E+02  0.14152548768E+02  0.00000000000E+00 0.  1.
</event>
<event>
 7    1  0.2756432E-009  0.4778727E+02  0.7816164E-02  0.1312668E+00
        -11   -1    0    0    0    0  0.00000000000E+00  0.00000000000E+00  0.45593999997E+02  0.45594000000E+02  0.51100000000E-03 0. -1.
         11   -1    0    0    0    0 -0.00000000000E+00 -0.00000000000E+00 -0.45593999997E+02  0.45594000000E+02  0.51100000000E-03 0.  1.
    9900012    2    1    2    0    0  0.32811152453E+02 -0.25607175943E+02  0.12301379095E+02  0.47787272901E+02  0.20000008466E+02 0.  0.
        -12    1    1    2    0    0 -0.32811152453E+02  0.25607175943E+02 -0.12301379095E+02  0.43400727099E+02  0.00000000000E+00 0.  1.
         11    1    3    3    0    0  0.16940578881E+02 -0.15773077126E+02  0.64522561105E+01  0.24029248511E+02  0.51100000000E-03 0. -1.
        -11    1    3    3    0    0  0.33767363141E+01  0.34086969551E+01  0.79717963420E+00  0.48638522487E+01  0.51100000000E-03 0.  1.
        -12    1    3    3    0    0  0.12493837257E+02 -0.13242795772E+02  0.50519433508E+01  0.18894172141E+02  0.00000000000E+00 0.  1.
</event>
<event>
 7    1  0.2759683E-009  0.4778727E+02  0.7816164E-02  0.1312668E+00
        -11   -1    0    0    0    0  0.00000000000E+00  0.00000000000E+00  0.45593999997E+02  0.45594000000E+02  0.51100000000E-03 0.  1.
         11   -1    0    0    0    0 -0.00000000000E+00 -0.00000000000E+00 -0.45593999997E+02  0.45594000000E+02  0.51100000000E-03 0. -1.
    9900012    2    1    2    0    0 -0.83617863835E+01 -0.37654087872E+02 -0.19896568626E+02  0.47787271341E+02  0.20000001354E+02 0.  0.
        -12    1    1    2    0    0  0.83617863835E+01  0.37654087872E+02  0.19896568626E+02  0.43400728659E+02  0.00000000000E+00 0.  1.
         11    1    3    3    0    0 -0.76184579806E+01 -0.22340213611E+02 -0.72724738105E+01  0.24698480151E+02  0.51100000000E-03 0. -1.
        -11    1    3    3    0    0  0.91991320053E-01 -0.24609642732E+01 -0.95290279063E+01  0.98421126115E+01  0.51100000000E-03 0.  1.
        -12    1    3    3    0    0 -0.83531972300E+00 -0.12852909988E+02 -0.30950669095E+01  0.13246678579E+02  0.00000000000E+00 0.  1.
</event>
<event>
 7    1  0.2756432E-009  0.4778727E+02  0.7816164E-02  0.1312668E+00
        -11   -1    0    0    0    0  0.00000000000E+00  0.00000000000E+00  0.45593999997E+02  0.45594000000E+02  0.51100000000E-03 0. -1.
         11   -1    0    0    0    0 -0.00000000000E+00 -0.00000000000E+00 -0.45593999997E+02  0.45594000000E+02  0.51100000000E-03 0.  1.
    9900012    2    1    2    0    0 -0.16115933368E+02  0.13879955099E+02  0.37831821898E+02  0.47787271780E+02  0.20000003356E+02 0.  0.
        -12    1    1    2    0    0  0.16115933368E+02 -0.13879955099E+02 -0.37831821898E+02  0.43400728220E+02  0.00000000000E+00 0.  1.
         11    1    3    3    0    0 -0.14751995886E+02  0.84481346610E+01  0.37717008710E+02  0.41371066075E+02  0.51100000000E-03 0. -1.
        -11    1    3    3    0    0 -0.20720850670E+01  0.45002541236E+01  0.86063184170E+00  0.50285694914E+01  0.51100000000E-03 0.  1.
         12    1    3    3    0    0  0.70814758522E+00  0.93156631401E+00 -0.74581865342E+00  0.13876362144E+01  0.00000000000E+00 0. -1.
</event>
<event>
 7    1  0.2756432E-009  0.4778727E+02  0.7816164E-02  0.1312668E+00
        -11   -1    0    0    0    0  0.00000000000E+00  0.00000000000E+00  0.45593999997E+02  0.45594000000E+02  0.51100000000E-03 0.  1.
         11   -1    0    0    0    0 -0.00000000000E+00 -0.00000000000E+00 -0.45593999997E+02  0.45594000000E+02  0.51100000000E-03 0. -1.
    9900012    2    1    2    0    0  0.25746385896E+02  0.34877409171E+02  0.20768762423E+01  0.47787268761E+02  0.19999989589E+02 0.  0.
        -12    1    1    2    0    0 -0.25746385896E+02 -0.34877409171E+02 -0.20768762423E+01  0.43400731239E+02  0.00000000000E+00 0.  1.
         11    1    3    3    0    0  0.76599903772E+01  0.19683729595E+02 -0.53813753876E+01  0.21796418620E+02  0.51100000000E-03 0. -1.
        -11    1    3    3    0    0  0.16389521777E+02  0.13400458975E+02  0.90815955792E+01  0.23036147754E+02  0.51100000000E-03 0.  1.
         12    1    3    3    0    0  0.16968737416E+01  0.17932206015E+01 -0.16233439494E+01  0.29547023875E+01  0.00000000000E+00 0. -1.
</event>
<event>
 7    1  0.2756432E-009  0.4778726E+02  0.7816164E-02  0.1312668E+00
        -11   -1    0    0    0    0  0.00000000000E+00  0.00000000000E+00  0.45593999997E+02  0.45594000000E+02  0.51100000000E-03 0.  1.
         11   -1    0    0    0    0 -0.00000000000E+00 -0.00000000000E+00 -0.45593999997E+02  0.45594000000E+02  0.51100000000E-03 0. -1.
    9900012    2    1    2    0    0  0.21095409078E+02  0.24917272518E+02 -0.28596106021E+02  0.47787262294E+02  0.19999960102E+02 0.  0.
        -12    1    1    2    0    0 -0.21095409078E+02 -0.24917272518E+02  0.28596106021E+02  0.43400737706E+02  0.00000000000E+00 0.  1.
         11    1    3    3    0    0  0.49474988817E+01  0.70438953375E+01 -0.69622349240E+01  0.11070994630E+02  0.51100000000E-03 0. -1.
        -11    1    3    3    0    0  0.18461785366E+02  0.91201783396E+01 -0.14395329245E+02  0.25124503501E+02  0.51100000000E-03 0.  1.
        -12    1    3    3    0    0 -0.23138751700E+01  0.87531988413E+01 -0.72385418518E+01  0.11591764162E+02  0.00000000000E+00 0.  1.
</event>
<event>
 7    1  0.2756432E-009  0.4778723E+02  0.7816164E-02  0.1312668E+00
        -11   -1    0    0    0    0  0.00000000000E+00  0.00000000000E+00  0.45593999997E+02  0.45594000000E+02  0.51100000000E-03 0. -1.
         11   -1    0    0    0    0 -0.00000000000E+00 -0.00000000000E+00 -0.45593999997E+02  0.45594000000E+02  0.51100000000E-03 0.  1.
    9900012    2    1    2    0    0 -0.47911263655E+01 -0.26036626385E+02  0.34391370843E+02  0.47787225884E+02  0.19999794096E+02 0.  0.
        -12    1    1    2    0    0  0.47911263655E+01  0.26036626385E+02 -0.34391370843E+02  0.43400774116E+02  0.00000000000E+00 0.  1.
         11    1    3    3    0    0 -0.12745823120E+01 -0.22180502170E+02  0.28091899176E+02  0.35815555785E+02  0.51100000000E-03 0. -1.
        -11    1    3    3    0    0 -0.64735738049E+00  0.17069147352E+01 -0.12141194660E+01  0.21924223659E+01  0.51100000000E-03 0.  1.
        -12    1    3    3    0    0 -0.28691866729E+01 -0.55630389500E+01  0.75135911332E+01  0.97792477338E+01  0.00000000000E+00 0.  1.
</event>
<event>
 7    1  0.2756432E-009  0.4778729E+02  0.7816164E-02  0.1312668E+00
        -11   -1    0    0    0    0  0.00000000000E+00  0.00000000000E+00  0.45593999997E+02  0.45594000000E+02  0.51100000000E-03 0.  1.
         11   -1    0    0    0    0 -0.00000000000E+00 -0.00000000000E+00 -0.45593999997E+02  0.45594000000E+02  0.51100000000E-03 0. -1.
    9900012    2    1    2    0    0  0.95121076188E+01  0.42343082297E+02  0.45231093925E+00  0.47787292690E+02  0.20000098692E+02 0.  0.
        -12    1    1    2    0    0 -0.95121076188E+01 -0.42343082297E+02 -0.45231093925E+00  0.43400707310E+02  0.00000000000E+00 0.  1.
         11    1    3    3    0    0  0.12555099313E+02  0.16948016403E+02  0.10757979098E+01  0.21119259461E+02  0.51100000000E-03 0. -1.
        -11    1    3    3    0    0 -0.26551977051E+01  0.22921313713E+02 -0.29346985159E+01  0.23260463298E+02  0.51100000000E-03 0.  1.
         12    1    3    3    0    0 -0.38779398944E+00  0.24737521817E+01  0.23112115454E+01  0.34075699321E+01  0.00000000000E+00 0. -1.
</event>
<event>
 7    1  0.2756432E-009  0.4778727E+02  0.7816164E-02  0.1312668E+00
        -11   -1    0    0    0    0  0.00000000000E+00  0.00000000000E+00  0.45593999997E+02  0.45594000000E+02  0.51100000000E-03 0.  1.
         11   -1    0    0    0    0 -0.00000000000E+00 -0.00000000000E+00 -0.45593999997E+02  0.45594000000E+02  0.51100000000E-03 0. -1.
    9900012    2    1    2    0    0  0.11361484023E+02 -0.41831868507E+02 -0.21528403619E+01  0.47787271163E+02  0.20000000539E+02 0.  0.
        -12    1    1    2    0    0 -0.11361484023E+02  0.41831868507E+02  0.21528403619E+01  0.43400728837E+02  0.00000000000E+00 0.  1.
         11    1    3    3    0    0  0.79888188041E+01 -0.30349614737E+02  0.19604927111E+01  0.31444615954E+02  0.51100000000E-03 0. -1.
        -11    1    3    3    0    0  0.23958075370E+01  0.14127348951E+01 -0.14603614479E+01  0.31413961001E+01  0.51100000000E-03 0.  1.
         12    1    3    3    0    0  0.97685768193E+00 -0.12894988666E+02 -0.26529716251E+01  0.13201259109E+02  0.00000000000E+00 0. -1.
</event>
<event>
 7    1  0.2756432E-009  0.4778729E+02  0.7816164E-02  0.1312668E+00
        -11   -1    0    0    0    0  0.00000000000E+00  0.00000000000E+00  0.45593999997E+02  0.45594000000E+02  0.51100000000E-03 0.  1.
         11   -1    0    0    0    0 -0.00000000000E+00 -0.00000000000E+00 -0.45593999997E+02  0.45594000000E+02  0.51100000000E-03 0. -1.
    9900012    2    1    2    0    0 -0.10016252692E+01 -0.17802497022E+02 -0.39568799586E+02  0.47787285097E+02  0.20000064073E+02 0.  0.
        -12    1    1    2    0    0  0.10016252692E+01  0.17802497022E+02  0.39568799586E+02  0.43400714903E+02  0.00000000000E+00 0.  1.
         11    1    3    3    0    0 -0.10829733395E+01 -0.20355735238E+02 -0.26521387861E+02  0.33450154001E+02  0.51100000000E-03 0. -1.
        -11    1    3    3    0    0 -0.16897711426E+01  0.35035053652E+01 -0.93912894143E+01  0.10164949261E+02  0.51100000000E-03 0.  1.
         12    1    3    3    0    0  0.17711192129E+01 -0.95026714888E+00 -0.36561223101E+01  0.41721818353E+01  0.00000000000E+00 0. -1.
</event>
<event>
 7    1  0.2756432E-009  0.4778727E+02  0.7816164E-02  0.1312668E+00
        -11   -1    0    0    0    0  0.00000000000E+00  0.00000000000E+00  0.45593999997E+02  0.45594000000E+02  0.51100000000E-03 0.  1.
         11   -1    0    0    0    0 -0.00000000000E+00 -0.00000000000E+00 -0.45593999997E+02  0.45594000000E+02  0.51100000000E-03 0. -1.
    9900012    2    1    2    0    0  0.12040840872E+01 -0.39500959679E+02 -0.17940124346E+02  0.47787266186E+02  0.19999977849E+02 0.  0.
        -12    1    1    2    0    0 -0.12040840872E+01  0.39500959679E+02  0.17940124346E+02  0.43400733814E+02  0.00000000000E+00 0.  1.
         11    1    3    3    0    0 -0.67543264660E+01 -0.47084160142E+01 -0.33794351011E+01  0.89000387210E+01  0.51100000000E-03 0. -1.
        -11    1    3    3    0    0  0.72757763402E+01 -0.21701183733E+02 -0.81652200292E+01  0.24301216331E+02  0.51100000000E-03 0.  1.
        -12    1    3    3    0    0  0.68263421293E+00 -0.13091359931E+02 -0.63954692160E+01  0.14586011134E+02  0.00000000000E+00 0.  1.
</event>
<event>
 7    1  0.2756432E-009  0.4778727E+02  0.7816164E-02  0.1312668E+00
        -11   -1    0    0    0    0  0.00000000000E+00  0.00000000000E+00  0.45593999997E+02  0.45594000000E+02  0.51100000000E-03 0.  1.
         11   -1    0    0    0    0 -0.00000000000E+00 -0.00000000000E+00 -0.45593999997E+02  0.45594000000E+02  0.51100000000E-03 0. -1.
    9900012    2    1    2    0    0 -0.40862685258E+02  0.46833897264E+01 -0.13853893600E+02  0.47787267821E+02  0.19999985302E+02 0.  0.
        -12    1    1    2    0    0  0.40862685258E+02 -0.46833897264E+01  0.13853893600E+02  0.43400732179E+02  0.00000000000E+00 0.  1.
         11    1    3    3    0    0 -0.16449700173E+02 -0.60404700993E+01 -0.11099436428E+02  0.20743129081E+02  0.51100000000E-03 0. -1.
        -11    1    3    3    0    0 -0.13719010041E+02  0.62479715321E+01 -0.33255186879E+01  0.15437210227E+02  0.51100000000E-03 0.  1.
         12    1    3    3    0    0 -0.10693975044E+02  0.44758882936E+01  0.57106151554E+00  0.11606928513E+02  0.00000000000E+00 0. -1.
</event>
<event>
 7    1  0.2756432E-009  0.4778727E+02  0.7816164E-02  0.1312668E+00
        -11   -1    0    0    0    0  0.00000000000E+00  0.00000000000E+00  0.45593999997E+02  0.45594000000E+02  0.51100000000E-03 0. -1.
         11   -1    0    0    0    0 -0.00000000000E+00 -0.00000000000E+00 -0.45593999997E+02  0.45594000000E+02  0.51100000000E-03 0.  1.
    9900012    2    1    2    0    0 -0.35624274337E+02  0.11527647605E+02  0.21946473679E+02  0.47787270879E+02  0.19999999245E+02 0.  0.
        -12    1    1    2    0    0  0.35624274337E+02 -0.11527647605E+02 -0.21946473679E+02  0.43400729121E+02  0.00000000000E+00 0.  1.
         11    1    3    3    0    0 -0.54855687138E+01  0.23023281783E+01  0.58256047300E+01  0.83264548210E+01  0.51100000000E-03 0. -1.
        -11    1    3    3    0    0 -0.23516445232E+02  0.12016618203E+02  0.18088741424E+02  0.32009762198E+02  0.51100000000E-03 0.  1.
        -12    1    3    3    0    0 -0.66222603912E+01 -0.27912987766E+01 -0.19678724756E+01  0.74510538603E+01  0.00000000000E+00 0.  1.
</event>
<event>
 7    1  0.2756432E-009  0.4778727E+02  0.7816164E-02  0.1312668E+00
        -11   -1    0    0    0    0  0.00000000000E+00  0.00000000000E+00  0.45593999997E+02  0.45594000000E+02  0.51100000000E-03 0.  1.
         11   -1    0    0    0    0 -0.00000000000E+00 -0.00000000000E+00 -0.45593999997E+02  0.45594000000E+02  0.51100000000E-03 0. -1.
    9900012    2    1    2    0    0 -0.24851237302E+02 -0.68646573322E+01 -0.34912975103E+02  0.47787270211E+02  0.19999996198E+02 0.  0.
        -12    1    1    2    0    0  0.24851237302E+02  0.68646573322E+01  0.34912975103E+02  0.43400729789E+02  0.00000000000E+00 0.  1.
         11    1    3    3    0    0 -0.20042975460E+02 -0.10384957726E+02 -0.35100222463E+02  0.41732407425E+02  0.51100000000E-03 0. -1.
        -11    1    3    3    0    0 -0.38428249705E+00  0.16111459209E-01  0.14499040183E+00  0.41104147528E+00  0.51100000000E-03 0.  1.
         12    1    3    3    0    0 -0.44239793450E+01  0.35041889346E+01  0.42256958328E-01  0.56438213104E+01  0.00000000000E+00 0. -1.
</event>
<event>
 7    1  0.2756432E-009  0.4778726E+02  0.7816164E-02  0.1312668E+00
        -11   -1    0    0    0    0  0.00000000000E+00  0.00000000000E+00  0.45593999997E+02  0.45594000000E+02  0.51100000000E-03 0. -1.
         11   -1    0    0    0    0 -0.00000000000E+00 -0.00000000000E+00 -0.45593999997E+02  0.45594000000E+02  0.51100000000E-03 0.  1.
    9900012    2    1    2    0    0  0.29863156097E+02  0.24792468427E+02  0.19420331739E+02  0.47787264204E+02  0.19999968813E+02 0.  0.
        -12    1    1    2    0    0 -0.29863156097E+02 -0.24792468427E+02 -0.19420331739E+02  0.43400735796E+02  0.00000000000E+00 0.  1.
         11    1    3    3    0    0  0.10739864131E+01  0.36100640003E+01 -0.91989403487E+00  0.38771399508E+01  0.51100000000E-03 0. -1.
        -11    1    3    3    0    0  0.24144142902E+02  0.90112008796E+01  0.15095002105E+02  0.29866376857E+02  0.51100000000E-03 0.  1.
        -12    1    3    3    0    0  0.46450267812E+01  0.12171203547E+02  0.52452236687E+01  0.14043747396E+02  0.00000000000E+00 0.  1.
</event>
<event>
 7    1  0.2756432E-009  0.4778728E+02  0.7816164E-02  0.1312668E+00
        -11   -1    0    0    0    0  0.00000000000E+00  0.00000000000E+00  0.45593999997E+02  0.45594000000E+02  0.51100000000E-03 0.  1.
         11   -1    0    0    0    0 -0.00000000000E+00 -0.00000000000E+00 -0.45593999997E+02  0.45594000000E+02  0.51100000000E-03 0. -1.
    9900012    2    1    2    0    0 -0.23285698894E+02 -0.70977586502E+01 -0.35930780168E+02  0.47787275187E+02  0.20000018886E+02 0.  0.
        -12    1    1    2    0    0  0.23285698894E+02  0.70977586502E+01  0.35930780168E+02  0.43400724813E+02  0.00000000000E+00 0.  1.
         11    1    3    3    0    0 -0.16978352359E+02  0.10981289470E+01 -0.30053741114E+02  0.34535455567E+02  0.51100000000E-03 0. -1.
        -11    1    3    3    0    0 -0.18688148314E+01 -0.59011273577E+01 -0.10012482091E+01  0.62704283109E+01  0.51100000000E-03 0.  1.
         12    1    3    3    0    0 -0.44385317035E+01 -0.22947602396E+01 -0.48757908456E+01  0.69813913090E+01  0.00000000000E+00 0. -1.
</event>
<event>
 7    1  0.3201017E-009  0.4778731E+02  0.7816164E-02  0.1312668E+00
        -11   -1    0    0    0    0  0.00000000000E+00  0.00000000000E+00  0.45593999997E+02  0.45594000000E+02  0.51100000000E-03 0. -1.
         11   -1    0    0    0    0 -0.00000000000E+00 -0.00000000000E+00 -0.45593999997E+02  0.45594000000E+02  0.51100000000E-03 0.  1.
    9900012    2    1    2    0    0 -0.21116672915E+02  0.17340671066E+02  0.33719539894E+02  0.47787307394E+02  0.20000165731E+02 0.  0.
        -12    1    1    2    0    0  0.21116672915E+02 -0.17340671066E+02 -0.33719539894E+02  0.43400692606E+02  0.00000000000E+00 0.  1.
         11    1    3    3    0    0 -0.17422514151E+02  0.78073329881E+01  0.29374641355E+02  0.35033812278E+02  0.51100000000E-03 0. -1.
        -11    1    3    3    0    0 -0.58460904127E+00  0.75828353520E+01  0.48912042018E+01  0.90424022534E+01  0.51100000000E-03 0.  1.
        -12    1    3    3    0    0 -0.31095497228E+01  0.19505027255E+01 -0.54630566217E+00  0.37110928629E+01  0.00000000000E+00 0.  1.
</event>
<event>
 7    1  0.2756432E-009  0.4778727E+02  0.7816164E-02  0.1312668E+00
        -11   -1    0    0    0    0  0.00000000000E+00  0.00000000000E+00  0.45593999997E+02  0.45594000000E+02  0.51100000000E-03 0.  1.
         11   -1    0    0    0    0 -0.00000000000E+00 -0.00000000000E+00 -0.45593999997E+02  0.45594000000E+02  0.51100000000E-03 0. -1.
    9900012    2    1    2    0    0  0.35211303688E+02  0.49004973558E+01 -0.24895225640E+02  0.47787273722E+02  0.20000012209E+02 0.  0.
        -12    1    1    2    0    0 -0.35211303688E+02 -0.49004973558E+01  0.24895225640E+02  0.43400726278E+02  0.00000000000E+00 0.  1.
         11    1    3    3    0    0  0.46596208646E+01 -0.33128789198E+01 -0.75223057680E+01  0.94484029162E+01  0.51100000000E-03 0. -1.
        -11    1    3    3    0    0  0.29062358437E+01 -0.29358267528E+01 -0.71882157341E+00  0.41930883866E+01  0.51100000000E-03 0.  1.
         12    1    3    3    0    0  0.27645446980E+02  0.11149203028E+02 -0.16654098299E+02  0.34145782419E+02  0.00000000000E+00 0. -1.
</event>
<event>
 7    1  0.2756432E-009  0.4778727E+02  0.7816164E-02  0.1312668E+00
        -11   -1    0    0    0    0  0.00000000000E+00  0.00000000000E+00  0.45593999997E+02  0.45594000000E+02  0.51100000000E-03 0.  1.
         11   -1    0    0    0    0 -0.00000000000E+00 -0.00000000000E+00 -0.45593999997E+02  0.45594000000E+02  0.51100000000E-03 0. -1.
    9900012    2    1    2    0    0 -0.95639891960E+01  0.29864199034E+02 -0.30004723350E+02  0.47787266174E+02  0.19999977795E+02 0.  0.
        -12    1    1    2    0    0  0.95639891960E+01 -0.29864199034E+02  0.30004723350E+02  0.43400733826E+02  0.00000000000E+00 0.  1.
         11    1    3    3    0    0 -0.23191557955E+01  0.12527254958E+02 -0.22770472431E+02  0.26092240520E+02  0.51100000000E-03 0. -1.
        -11    1    3    3    0    0 -0.47489346553E+01  0.24424771778E+01 -0.15793397526E+01  0.55688768562E+01  0.51100000000E-03 0.  1.
         12    1    3    3    0    0 -0.24958987452E+01  0.14894466899E+02 -0.56549111664E+01  0.16126148798E+02  0.00000000000E+00 0. -1.
</event>
<event>
 7    1  0.2764067E-009  0.4778727E+02  0.7816164E-02  0.1312668E+00
        -11   -1    0    0    0    0  0.00000000000E+00  0.00000000000E+00  0.45593999997E+02  0.45594000000E+02  0.51100000000E-03 0.  1.
         11   -1    0    0    0    0 -0.00000000000E+00 -0.00000000000E+00 -0.45593999997E+02  0.45594000000E+02  0.51100000000E-03 0. -1.
    9900012    2    1    2    0    0  0.18713495981E+02 -0.18257006120E+02 -0.34642603274E+02  0.47787272288E+02  0.20000005670E+02 0.  0.
        -12    1    1    2    0    0 -0.18713495981E+02  0.18257006120E+02  0.34642603274E+02  0.43400727712E+02  0.00000000000E+00 0.  1.
         11    1    3    3    0    0  0.26959860720E+01 -0.13057856372E+02 -0.16011602859E+02  0.20836203597E+02  0.51100000000E-03 0. -1.
        -11    1    3    3    0    0  0.11970043716E+02 -0.55962164272E+01 -0.77124985968E+01  0.15299745741E+02  0.51100000000E-03 0.  1.
        -12    1    3    3    0    0  0.40474661927E+01  0.39706667947E+00 -0.10918501819E+02  0.11651322950E+02  0.00000000000E+00 0.  1.
</event>
<event>
 7    1  0.2756432E-009  0.4778727E+02  0.7816164E-02  0.1312668E+00
        -11   -1    0    0    0    0  0.00000000000E+00  0.00000000000E+00  0.45593999997E+02  0.45594000000E+02  0.51100000000E-03 0. -1.
         11   -1    0    0    0    0 -0.00000000000E+00 -0.00000000000E+00 -0.45593999997E+02  0.45594000000E+02  0.51100000000E-03 0.  1.
    9900012    2    1    2    0    0  0.23139399795E+02 -0.22884454219E+01  0.36646344362E+02  0.47787270047E+02  0.19999995453E+02 0.  0.
        -12    1    1    2    0    0 -0.23139399795E+02  0.22884454219E+01 -0.36646344362E+02  0.43400729953E+02  0.00000000000E+00 0.  1.
         11    1    3    3    0    0  0.30648363028E+01 -0.16186124860E+01  0.23365384702E+02  0.23621056930E+02  0.51100000000E-03 0. -1.
        -11    1    3    3    0    0  0.11543601134E+02 -0.54878881362E+00  0.64357670102E+01  0.13227811367E+02  0.51100000000E-03 0.  1.
         12    1    3    3    0    0  0.85309623582E+01 -0.12104412230E+00  0.68451926504E+01  0.10938401751E+02  0.00000000000E+00 0. -1.
</event>
<event>
 7    1  0.2756432E-009  0.4778727E+02  0.7816164E-02  0.1312668E+00
        -11   -1    0    0    0    0  0.00000000000E+00  0.00000000000E+00  0.45593999997E+02  0.45594000000E+02  0.51100000000E-03 0.  1.
         11   -1    0    0    0    0 -0.00000000000E+00 -0.00000000000E+00 -0.45593999997E+02  0.45594000000E+02  0.51100000000E-03 0. -1.
    9900012    2    1    2    0    0 -0.40461492945E+02  0.13492407370E+02 -0.80277937302E+01  0.47787274889E+02  0.20000017528E+02 0.  0.
        -12    1    1    2    0    0  0.40461492945E+02 -0.13492407370E+02  0.80277937302E+01  0.43400725111E+02  0.00000000000E+00 0.  1.
         11    1    3    3    0    0 -0.17927219821E+02  0.32549961215E+01 -0.10707874752E+02  0.21133830515E+02  0.51100000000E-03 0. -1.
        -11    1    3    3    0    0 -0.46252171622E+01  0.64703113400E+01  0.25492215287E+01  0.83520113324E+01  0.51100000000E-03 0.  1.
         12    1    3    3    0    0 -0.17909055962E+02  0.37670999084E+01  0.13085949276E+00  0.18301433042E+02  0.00000000000E+00 0. -1.
</event>
<event>
 7    1  0.2756432E-009  0.4778727E+02  0.7816164E-02  0.1312668E+00
        -11   -1    0    0    0    0  0.00000000000E+00  0.00000000000E+00  0.45593999997E+02  0.45594000000E+02  0.51100000000E-03 0. -1.
         11   -1    0    0    0    0 -0.00000000000E+00 -0.00000000000E+00 -0.45593999997E+02  0.45594000000E+02  0.51100000000E-03 0.  1.
    9900012    2    1    2    0    0  0.22673522083E+02  0.35424905414E+02  0.10705627989E+02  0.47787274225E+02  0.20000014499E+02 0.  0.
        -12    1    1    2    0    0 -0.22673522083E+02 -0.35424905414E+02 -0.10705627989E+02  0.43400725775E+02  0.00000000000E+00 0.  1.
         11    1    3    3    0    0  0.23514369837E+02  0.23675147889E+02  0.82685362061E+01  0.34377418572E+02  0.51100000000E-03 0. -1.
        -11    1    3    3    0    0 -0.17717371458E+01  0.97176914252E+01 -0.29210176625E+00  0.98822013161E+01  0.51100000000E-03 0.  1.
         12    1    3    3    0    0  0.93088939172E+00  0.20320660990E+01  0.27291935493E+01  0.35276543368E+01  0.00000000000E+00 0. -1.
</event>
<event>
 7    1  0.2756432E-009  0.4778727E+02  0.7816164E-02  0.1312668E+00
        -11   -1    0    0    0    0  0.00000000000E+00  0.00000000000E+00  0.45593999997E+02  0.45594000000E+02  0.51100000000E-03 0. -1.
         11   -1    0    0    0    0 -0.00000000000E+00 -0.00000000000E+00 -0.45593999997E+02  0.45594000000E+02  0.51100000000E-03 0.  1.
    9900012    2    1    2    0    0 -0.19985943795E+02  0.37302267944E+02 -0.96294434718E+01  0.47787270459E+02  0.19999997329E+02 0.  0.
        -12    1    1    2    0    0  0.19985943795E+02 -0.37302267944E+02  0.96294434718E+01  0.43400729541E+02  0.00000000000E+00 0.  1.
         11    1    3    3    0    0 -0.12114522841E+01  0.10342996292E+01 -0.62365742944E+01  0.64367889161E+01  0.51100000000E-03 0. -1.
        -11    1    3    3    0    0 -0.30423156833E+01  0.24447418650E+01 -0.12933806732E+00  0.39050193470E+01  0.51100000000E-03 0.  1.
         12    1    3    3    0    0 -0.15732175828E+02  0.33823226450E+02 -0.32635311100E+01  0.37445462196E+02  0.00000000000E+00 0. -1.
</event>
<event>
 7    1  0.2756432E-009  0.4778727E+02  0.7816164E-02  0.1312668E+00
        -11   -1    0    0    0    0  0.00000000000E+00  0.00000000000E+00  0.45593999997E+02  0.45594000000E+02  0.51100000000E-03 0.  1.
         11   -1    0    0    0    0 -0.00000000000E+00 -0.00000000000E+00 -0.45593999997E+02  0.45594000000E+02  0.51100000000E-03 0. -1.
    9900012    2    1    2    0    0 -0.42678885234E+02  0.51032792475E+01 -0.60076980385E+01  0.47787272591E+02  0.20000007053E+02 0.  0.
        -12    1    1    2    0    0  0.42678885234E+02 -0.51032792475E+01  0.60076980385E+01  0.43400727409E+02  0.00000000000E+00 0.  1.
         11    1    3    3    0    0  0.36918532367E+00  0.94485174500E+00 -0.34984178783E+01  0.36425225512E+01  0.51100000000E-03 0.  1.
        -11    1    3    3    0    0 -0.41142045736E+02  0.54181591197E+01 -0.35203335805E+01  0.41646333865E+02  0.51100000000E-03 0. -1.
         12    1    3    3    0    0 -0.19060248214E+01 -0.12597316172E+01  0.10110534203E+01  0.24984161754E+01  0.00000000000E+00 0. -1.
</event>
<event>
 7    1  0.2756432E-009  0.4778728E+02  0.7816164E-02  0.1312668E+00
        -11   -1    0    0    0    0  0.00000000000E+00  0.00000000000E+00  0.45593999997E+02  0.45594000000E+02  0.51100000000E-03 0.  1.
         11   -1    0    0    0    0 -0.00000000000E+00 -0.00000000000E+00 -0.45593999997E+02  0.45594000000E+02  0.51100000000E-03 0. -1.
    9900012    2    1    2    0    0  0.19773092286E+02 -0.29576952293E+02 -0.24856617582E+02  0.47787277390E+02  0.20000028932E+02 0.  0.
        -12    1    1    2    0    0 -0.19773092286E+02  0.29576952293E+02  0.24856617582E+02  0.43400722610E+02  0.00000000000E+00 0.  1.
         11    1    3    3    0    0  0.13316899450E+02 -0.28959194286E+02 -0.15818540415E+02  0.35583717706E+02  0.51100000000E-03 0. -1.
        -11    1    3    3    0    0  0.14772746456E+01 -0.12923482556E+01 -0.60439518839E+01  0.63546722204E+01  0.51100000000E-03 0.  1.
         12    1    3    3    0    0  0.49789181902E+01  0.67459024958E+00 -0.29941252826E+01  0.58488874632E+01  0.00000000000E+00 0. -1.
</event>
<event>
 7    1  0.2756432E-009  0.4778727E+02  0.7816164E-02  0.1312668E+00
        -11   -1    0    0    0    0  0.00000000000E+00  0.00000000000E+00  0.45593999997E+02  0.45594000000E+02  0.51100000000E-03 0.  1.
         11   -1    0    0    0    0 -0.00000000000E+00 -0.00000000000E+00 -0.45593999997E+02  0.45594000000E+02  0.51100000000E-03 0. -1.
    9900012    2    1    2    0    0  0.43260158368E+02 -0.33596010782E+01  0.94618977115E+00  0.47787268480E+02  0.19999988307E+02 0.  0.
        -12    1    1    2    0    0 -0.43260158368E+02  0.33596010782E+01 -0.94618977115E+00  0.43400731520E+02  0.00000000000E+00 0.  1.
         11    1    3    3    0    0  0.17781361118E+02 -0.10306124052E+02 -0.28550091734E+01  0.20749555991E+02  0.51100000000E-03 0. -1.
        -11    1    3    3    0    0  0.17032503437E+02  0.52514996295E+01  0.55702124332E+00  0.17832405744E+02  0.51100000000E-03 0.  1.
        -12    1    3    3    0    0  0.84462938131E+01  0.16950233445E+01  0.32441777012E+01  0.92053067452E+01  0.00000000000E+00 0.  1.
</event>
<event>
 7    1  0.2756432E-009  0.4778727E+02  0.7816164E-02  0.1312668E+00
        -11   -1    0    0    0    0  0.00000000000E+00  0.00000000000E+00  0.45593999997E+02  0.45594000000E+02  0.51100000000E-03 0. -1.
         11   -1    0    0    0    0 -0.00000000000E+00 -0.00000000000E+00 -0.45593999997E+02  0.45594000000E+02  0.51100000000E-03 0.  1.
    9900012    2    1    2    0    0  0.29487601141E+02 -0.24112625973E+02  0.20801104692E+02  0.47787270643E+02  0.19999998168E+02 0.  0.
        -12    1    1    2    0    0 -0.29487601141E+02  0.24112625973E+02 -0.20801104692E+02  0.43400729357E+02  0.00000000000E+00 0.  1.
         11    1    3    3    0    0  0.23963566292E+02 -0.18976534606E+02  0.23402318905E+02  0.38497141523E+02  0.51100000000E-03 0. -1.
        -11    1    3    3    0    0 -0.36133795417E+00 -0.22983870925E+01 -0.11579789936E+01  0.25988582021E+01  0.51100000000E-03 0.  1.
         12    1    3    3    0    0  0.58853728038E+01 -0.28377042744E+01 -0.14432352199E+01  0.66912709173E+01  0.00000000000E+00 0. -1.
</event>
<event>
 7    1  0.2756432E-009  0.4778727E+02  0.7816164E-02  0.1312668E+00
        -11   -1    0    0    0    0  0.00000000000E+00  0.00000000000E+00  0.45593999997E+02  0.45594000000E+02  0.51100000000E-03 0. -1.
         11   -1    0    0    0    0 -0.00000000000E+00 -0.00000000000E+00 -0.45593999997E+02  0.45594000000E+02  0.51100000000E-03 0.  1.
    9900012    2    1    2    0    0 -0.25549149614E+02 -0.34691410891E+02 -0.52316561985E+01  0.47787271179E+02  0.20000000611E+02 0.  0.
        -12    1    1    2    0    0  0.25549149614E+02  0.34691410891E+02  0.52316561985E+01  0.43400728821E+02  0.00000000000E+00 0.  1.
         11    1    3    3    0    0 -0.16314444547E+02 -0.12921581115E+02 -0.19900936803E+00  0.20812687582E+02  0.51100000000E-03 0. -1.
        -11    1    3    3    0    0 -0.57022824598E+01 -0.22219904011E+02 -0.43384342395E+01  0.23346566588E+02  0.51100000000E-03 0.  1.
        -12    1    3    3    0    0 -0.35324226075E+01  0.45007423517E+00 -0.69421259101E+00  0.36280170088E+01  0.00000000000E+00 0.  1.
</event>
<event>
 7    1  0.2756432E-009  0.4778727E+02  0.7816164E-02  0.1312668E+00
        -11   -1    0    0    0    0  0.00000000000E+00  0.00000000000E+00  0.45593999997E+02  0.45594000000E+02  0.51100000000E-03 0. -1.
         11   -1    0    0    0    0 -0.00000000000E+00 -0.00000000000E+00 -0.45593999997E+02  0.45594000000E+02  0.51100000000E-03 0.  1.
    9900012    2    1    2    0    0  0.33674693291E+02  0.13066144847E+02  0.24060645713E+02  0.47787265196E+02  0.19999973333E+02 0.  0.
        -12    1    1    2    0    0 -0.33674693291E+02 -0.13066144847E+02 -0.24060645713E+02  0.43400734804E+02  0.00000000000E+00 0.  1.
         11    1    3    3    0    0  0.33056005418E+01  0.10366843336E+01 -0.27051309632E+01  0.43953888495E+01  0.51100000000E-03 0. -1.
        -11    1    3    3    0    0  0.45863491069E+01 -0.11701557581E+01  0.15271150809E+01  0.49735242394E+01  0.51100000000E-03 0.  1.
         12    1    3    3    0    0  0.25782743643E+02  0.13199616272E+02  0.25238661595E+02  0.38418352107E+02  0.00000000000E+00 0. -1.
</event>
<event>
 7    1  0.2756432E-009  0.4778728E+02  0.7816164E-02  0.1312668E+00
        -11   -1    0    0    0    0  0.00000000000E+00  0.00000000000E+00  0.45593999997E+02  0.45594000000E+02  0.51100000000E-03 0. -1.
         11   -1    0    0    0    0 -0.00000000000E+00 -0.00000000000E+00 -0.45593999997E+02  0.45594000000E+02  0.51100000000E-03 0.  1.
    9900012    2    1    2    0    0  0.34564952849E+02 -0.21226606723E+01  0.26160681498E+02  0.47787275234E+02  0.20000019102E+02 0.  0.
        -12    1    1    2    0    0 -0.34564952849E+02  0.21226606723E+01 -0.26160681498E+02  0.43400724766E+02  0.00000000000E+00 0.  1.
         11    1    3    3    0    0  0.17729327548E+02  0.34204016651E+01  0.62185719337E+01  0.19097089831E+02  0.51100000000E-03 0. -1.
        -11    1    3    3    0    0  0.50936092904E+01 -0.70835387704E+01  0.95379034081E+01  0.12926444940E+02  0.51100000000E-03 0.  1.
        -12    1    3    3    0    0  0.11742016011E+02  0.15404764329E+01  0.10404206156E+02  0.15763740462E+02  0.00000000000E+00 0.  1.
</event>
<event>
 7    1  0.2756432E-009  0.4778727E+02  0.7816164E-02  0.1312668E+00
        -11   -1    0    0    0    0  0.00000000000E+00  0.00000000000E+00  0.45593999997E+02  0.45594000000E+02  0.51100000000E-03 0.  1.
         11   -1    0    0    0    0 -0.00000000000E+00 -0.00000000000E+00 -0.45593999997E+02  0.45594000000E+02  0.51100000000E-03 0. -1.
    9900012    2    1    2    0    0 -0.22587985023E+02  0.28182606742E+02 -0.24065467189E+02  0.47787273034E+02  0.20000009070E+02 0.  0.
        -12    1    1    2    0    0  0.22587985023E+02 -0.28182606742E+02  0.24065467189E+02  0.43400726966E+02  0.00000000000E+00 0.  1.
         11    1    3    3    0    0 -0.23919055746E+02  0.17470631960E+02 -0.21441086873E+02  0.36565891421E+02  0.51100000000E-03 0. -1.
        -11    1    3    3    0    0  0.61184334415E+00  0.37443494679E+01 -0.16524331445E+00  0.37976059340E+01  0.51100000000E-03 0.  1.
         12    1    3    3    0    0  0.71922737816E+00  0.69676253141E+01 -0.24591370021E+01  0.74237756792E+01  0.00000000000E+00 0. -1.
</event>
<event>
 7    1  0.2756432E-009  0.4778727E+02  0.7816164E-02  0.1312668E+00
        -11   -1    0    0    0    0  0.00000000000E+00  0.00000000000E+00  0.45593999997E+02  0.45594000000E+02  0.51100000000E-03 0.  1.
         11   -1    0    0    0    0 -0.00000000000E+00 -0.00000000000E+00 -0.45593999997E+02  0.45594000000E+02  0.51100000000E-03 0. -1.
    9900012    2    1    2    0    0  0.59522533042E+01  0.72369347013E+01 -0.42377123515E+02  0.47787272579E+02  0.20000006995E+02 0.  0.
        -12    1    1    2    0    0 -0.59522533042E+01 -0.72369347013E+01  0.42377123515E+02  0.43400727421E+02  0.00000000000E+00 0.  1.
         11    1    3    3    0    0  0.25507381141E+01  0.94543445746E+01 -0.39847423646E+02  0.41033011927E+02  0.51100000000E-03 0. -1.
        -11    1    3    3    0    0  0.41045127564E+01 -0.26969819988E+01 -0.30264460331E+01  0.57688918106E+01  0.51100000000E-03 0.  1.
         12    1    3    3    0    0 -0.70299756629E+00  0.47957212555E+00  0.49674616434E+00  0.98536884140E+00  0.00000000000E+00 0. -1.
</event>
<event>
 7    1  0.2756432E-009  0.4778727E+02  0.7816164E-02  0.1312668E+00
        -11   -1    0    0    0    0  0.00000000000E+00  0.00000000000E+00  0.45593999997E+02  0.45594000000E+02  0.51100000000E-03 0. -1.
         11   -1    0    0    0    0 -0.00000000000E+00 -0.00000000000E+00 -0.45593999997E+02  0.45594000000E+02  0.51100000000E-03 0.  1.
    9900012    2    1    2    0    0 -0.58506847275E+01 -0.33291288894E+02  0.27222840263E+02  0.47787268901E+02  0.19999990227E+02 0.  0.
        -12    1    1    2    0    0  0.58506847275E+01  0.33291288894E+02 -0.27222840263E+02  0.43400731099E+02  0.00000000000E+00 0.  1.
         11    1    3    3    0    0  0.29010790156E+00 -0.12488637896E+02  0.78883219175E+01  0.14774161974E+02  0.51100000000E-03 0. -1.
        -11    1    3    3    0    0  0.45198272120E+01 -0.37446521961E+01  0.80062946534E+01  0.99273366234E+01  0.51100000000E-03 0.  1.
        -12    1    3    3    0    0 -0.10660619841E+02 -0.17057998801E+02  0.11328223692E+02  0.23085770304E+02  0.00000000000E+00 0.  1.
</event>
<event>
 7    1  0.3492090E-009  0.4778727E+02  0.7816164E-02  0.1312668E+00
        -11   -1    0    0    0    0  0.00000000000E+00  0.00000000000E+00  0.45593999997E+02  0.45594000000E+02  0.51100000000E-03 0.  1.
         11   -1    0    0    0    0 -0.00000000000E+00 -0.00000000000E+00 -0.45593999997E+02  0.45594000000E+02  0.51100000000E-03 0. -1.
    9900012    2    1    2    0    0 -0.32006885821E+02  0.26821050409E+02  0.11824289034E+02  0.47787270788E+02  0.19999998830E+02 0.  0.
        -12    1    1    2    0    0  0.32006885821E+02 -0.26821050409E+02 -0.11824289034E+02  0.43400729212E+02  0.00000000000E+00 0.  1.
         11    1    3    3    0    0 -0.25758526245E+02  0.22776894039E+02  0.87303457369E+01  0.35475449445E+02  0.51100000000E-03 0. -1.
        -11    1    3    3    0    0  0.11880943791E+01  0.32463315994E+01  0.33697995931E+01  0.48276067224E+01  0.51100000000E-03 0.  1.
        -12    1    3    3    0    0 -0.74364539551E+01  0.79782477048E+00 -0.27585629620E+00  0.74842146206E+01  0.00000000000E+00 0.  1.
</event>
<event>
 7    1  0.2805172E-009  0.4778727E+02  0.7816164E-02  0.1312668E+00
        -11   -1    0    0    0    0  0.00000000000E+00  0.00000000000E+00  0.45593999997E+02  0.45594000000E+02  0.51100000000E-03 0.  1.
         11   -1    0    0    0    0 -0.00000000000E+00 -0.00000000000E+00 -0.45593999997E+02  0.45594000000E+02  0.51100000000E-03 0. -1.
    9900012    2    1    2    0    0 -0.42444229957E+01  0.40289546018E+02  0.15567949734E+02  0.47787266091E+02  0.19999977414E+02 0.  0.
        -12    1    1    2    0    0  0.42444229957E+01 -0.40289546018E+02 -0.15567949734E+02  0.43400733909E+02  0.00000000000E+00 0.  1.
         11    1    3    3    0    0 -0.45774281413E+01  0.32205649823E+02  0.11499850455E+02  0.34502221518E+02  0.51100000000E-03 0. -1.
        -11    1    3    3    0    0  0.31903864933E+01  0.40966914833E+01 -0.19273219460E+01  0.55385934343E+01  0.51100000000E-03 0.  1.
        -12    1    3    3    0    0 -0.28573813478E+01  0.39872047124E+01  0.59954212248E+01  0.77464511389E+01  0.00000000000E+00 0.  1.
</event>
<event>
 7    1  0.2756432E-009  0.4778727E+02  0.7816164E-02  0.1312668E+00
        -11   -1    0    0    0    0  0.00000000000E+00  0.00000000000E+00  0.45593999997E+02  0.45594000000E+02  0.51100000000E-03 0.  1.
         11   -1    0    0    0    0 -0.00000000000E+00 -0.00000000000E+00 -0.45593999997E+02  0.45594000000E+02  0.51100000000E-03 0. -1.
    9900012    2    1    2    0    0 -0.22107222944E+02  0.36507779566E+02 -0.78788396694E+01  0.47787269711E+02  0.19999993919E+02 0.  0.
        -12    1    1    2    0    0  0.22107222944E+02 -0.36507779566E+02  0.78788396694E+01  0.43400730289E+02  0.00000000000E+00 0.  1.
         11    1    3    3    0    0  0.11265976279E+01 -0.11756211160E+01 -0.27528358335E+00  0.16513898800E+01  0.51100000000E-03 0. -1.
        -11    1    3    3    0    0 -0.12083111627E+01  0.35643945845E+01 -0.37985166610E+01  0.53473034050E+01  0.51100000000E-03 0.  1.
         12    1    3    3    0    0 -0.22025509409E+02  0.34119006097E+02 -0.38050394251E+01  0.40788576426E+02  0.00000000000E+00 0. -1.
</event>
<event>
 7    1  0.2756432E-009  0.4778727E+02  0.7816164E-02  0.1312668E+00
        -11   -1    0    0    0    0  0.00000000000E+00  0.00000000000E+00  0.45593999997E+02  0.45594000000E+02  0.51100000000E-03 0. -1.
         11   -1    0    0    0    0 -0.00000000000E+00 -0.00000000000E+00 -0.45593999997E+02  0.45594000000E+02  0.51100000000E-03 0.  1.
    9900012    2    1    2    0    0 -0.33940482419E+01 -0.10485212871E+02  0.41978136717E+02  0.47787271727E+02  0.20000003111E+02 0.  0.
        -12    1    1    2    0    0  0.33940482419E+01  0.10485212871E+02 -0.41978136717E+02  0.43400728273E+02  0.00000000000E+00 0.  1.
         11    1    3    3    0    0  0.35810259857E+01 -0.10345099273E+02  0.13386752887E+02  0.17293061591E+02  0.51100000000E-03 0. -1.
        -11    1    3    3    0    0 -0.45160674442E+00 -0.15915758279E+01  0.17258323083E+02  0.17337438628E+02  0.51100000000E-03 0.  1.
         12    1    3    3    0    0 -0.65234674831E+01  0.14514622299E+01  0.11333060747E+02  0.13156771507E+02  0.00000000000E+00 0. -1.
</event>
<event>
 7    1  0.2756432E-009  0.4778727E+02  0.7816164E-02  0.1312668E+00
        -11   -1    0    0    0    0  0.00000000000E+00  0.00000000000E+00  0.45593999997E+02  0.45594000000E+02  0.51100000000E-03 0.  1.
         11   -1    0    0    0    0 -0.00000000000E+00 -0.00000000000E+00 -0.45593999997E+02  0.45594000000E+02  0.51100000000E-03 0. -1.
    9900012    2    1    2    0    0  0.12364078904E+02  0.14625409435E+02 -0.38946761652E+02  0.47787270842E+02  0.19999999076E+02 0.  0.
        -12    1    1    2    0    0 -0.12364078904E+02 -0.14625409435E+02  0.38946761652E+02  0.43400729158E+02  0.00000000000E+00 0.  1.
         11    1    3    3    0    0  0.76236661710E+01  0.73194109806E+01 -0.29265164356E+02  0.31115010976E+02  0.51100000000E-03 0. -1.
        -11    1    3    3    0    0 -0.20830431463E+01  0.57887092035E+01 -0.24714544963E+01  0.66299555489E+01  0.51100000000E-03 0.  1.
        -12    1    3    3    0    0  0.68234558789E+01  0.15172892514E+01 -0.72101427993E+01  0.10042304317E+02  0.00000000000E+00 0.  1.
</event>
<event>
 7    1  0.2756432E-009  0.4778727E+02  0.7816164E-02  0.1312668E+00
        -11   -1    0    0    0    0  0.00000000000E+00  0.00000000000E+00  0.45593999997E+02  0.45594000000E+02  0.51100000000E-03 0. -1.
         11   -1    0    0    0    0 -0.00000000000E+00 -0.00000000000E+00 -0.45593999997E+02  0.45594000000E+02  0.51100000000E-03 0.  1.
    9900012    2    1    2    0    0 -0.13325312972E+02  0.40129451181E+02  0.97819401344E+01  0.47787272233E+02  0.20000005421E+02 0.  0.
        -12    1    1    2    0    0  0.13325312972E+02 -0.40129451181E+02 -0.97819401344E+01  0.43400727767E+02  0.00000000000E+00 0.  1.
         11    1    3    3    0    0  0.46377924035E+01  0.77805675680E+01  0.28989473983E+01  0.95105334412E+01  0.51100000000E-03 0. -1.
        -11    1    3    3    0    0 -0.76588271124E+01  0.14555589733E+02 -0.43048268864E+00  0.16453210654E+02  0.51100000000E-03 0.  1.
         12    1    3    3    0    0 -0.10304278263E+02  0.17793293880E+02  0.73134754247E+01  0.21823528139E+02  0.00000000000E+00 0. -1.
</event>
<event>
 7    1  0.2756432E-009  0.4778727E+02  0.7816164E-02  0.1312668E+00
        -11   -1    0    0    0    0  0.00000000000E+00  0.00000000000E+00  0.45593999997E+02  0.45594000000E+02  0.51100000000E-03 0.  1.
         11   -1    0    0    0    0 -0.00000000000E+00 -0.00000000000E+00 -0.45593999997E+02  0.45594000000E+02  0.51100000000E-03 0. -1.
    9900012    2    1    2    0    0  0.42932218656E+02  0.26080244473E+01 -0.58005199049E+01  0.47787271649E+02  0.20000002758E+02 0.  0.
        -12    1    1    2    0    0 -0.42932218656E+02 -0.26080244473E+01  0.58005199049E+01  0.43400728351E+02  0.00000000000E+00 0.  1.
         11    1    3    3    0    0  0.34136634942E+02 -0.27059223362E+01 -0.11060565589E+02  0.35985663426E+02  0.51100000000E-03 0. -1.
        -11    1    3    3    0    0  0.39184503072E+01  0.29550207930E+01  0.12590824620E+01  0.50667237545E+01  0.51100000000E-03 0.  1.
         12    1    3    3    0    0  0.48771334068E+01  0.23589259905E+01  0.40009632223E+01  0.67348844684E+01  0.00000000000E+00 0. -1.
</event>
<event>
 7    1  0.2756432E-009  0.4778727E+02  0.7816164E-02  0.1312668E+00
        -11   -1    0    0    0    0  0.00000000000E+00  0.00000000000E+00  0.45593999997E+02  0.45594000000E+02  0.51100000000E-03 0.  1.
         11   -1    0    0    0    0 -0.00000000000E+00 -0.00000000000E+00 -0.45593999997E+02  0.45594000000E+02  0.51100000000E-03 0. -1.
    9900012    2    1    2    0    0 -0.11222233324E+02  0.41653965072E+02  0.47573108018E+01  0.47787270362E+02  0.19999996891E+02 0.  0.
        -12    1    1    2    0    0  0.11222233324E+02 -0.41653965072E+02 -0.47573108018E+01  0.43400729638E+02  0.00000000000E+00 0.  1.
         11    1    3    3    0    0 -0.36798822109E+01  0.11326573511E+02  0.56038310702E+01  0.13161904251E+02  0.51100000000E-03 0. -1.
        -11    1    3    3    0    0  0.12154612059E+01  0.11677649566E+02 -0.62834354718E+01  0.13316396169E+02  0.51100000000E-03 0.  1.
        -12    1    3    3    0    0 -0.87578123192E+01  0.18649741995E+02  0.54369152033E+01  0.21308969943E+02  0.00000000000E+00 0.  1.
</event>
<event>
 7    1  0.3549580E-009  0.4778727E+02  0.7816164E-02  0.1312668E+00
        -11   -1    0    0    0    0  0.00000000000E+00  0.00000000000E+00  0.45593999997E+02  0.45594000000E+02  0.51100000000E-03 0.  1.
         11   -1    0    0    0    0 -0.00000000000E+00 -0.00000000000E+00 -0.45593999997E+02  0.45594000000E+02  0.51100000000E-03 0. -1.
    9900012    2    1    2    0    0  0.35484837891E+02  0.79855142030E+01 -0.23678709410E+02  0.47787269170E+02  0.19999991456E+02 0.  0.
        -12    1    1    2    0    0 -0.35484837891E+02 -0.79855142030E+01  0.23678709410E+02  0.43400730830E+02  0.00000000000E+00 0.  1.
         11    1    3    3    0    0  0.29750740366E+02  0.95845367974E+01 -0.19501008683E+02  0.36840999415E+02  0.51100000000E-03 0. -1.
        -11    1    3    3    0    0 -0.90634391723E+00 -0.11003251498E-01 -0.40156357984E+01  0.41166626646E+01  0.51100000000E-03 0.  1.
        -12    1    3    3    0    0  0.66404414419E+01 -0.15880193429E+01 -0.16206492803E+00  0.68296070911E+01  0.00000000000E+00 0.  1.
</event>
<event>
 7    1  0.2756432E-009  0.4778727E+02  0.7816164E-02  0.1312668E+00
        -11   -1    0    0    0    0  0.00000000000E+00  0.00000000000E+00  0.45593999997E+02  0.45594000000E+02  0.51100000000E-03 0.  1.
         11   -1    0    0    0    0 -0.00000000000E+00 -0.00000000000E+00 -0.45593999997E+02  0.45594000000E+02  0.51100000000E-03 0. -1.
    9900012    2    1    2    0    0 -0.33935303290E+02  0.26030573843E+02 -0.73775020006E+01  0.47787272820E+02  0.20000008094E+02 0.  0.
        -12    1    1    2    0    0  0.33935303290E+02 -0.26030573843E+02  0.73775020006E+01  0.43400727180E+02  0.00000000000E+00 0.  1.
         11    1    3    3    0    0 -0.30584444946E+02  0.15899787548E+02 -0.10583502502E+01  0.34486687610E+02  0.51100000000E-03 0. -1.
        -11    1    3    3    0    0 -0.18812456376E+01  0.63352785918E+01 -0.64415241797E+01  0.92286550485E+01  0.51100000000E-03 0.  1.
        -12    1    3    3    0    0 -0.14696127063E+01  0.37955077030E+01  0.12237242925E+00  0.40719301616E+01  0.00000000000E+00 0.  1.
</event>
<event>
 7    1  0.2756432E-009  0.4778726E+02  0.7816164E-02  0.1312668E+00
        -11   -1    0    0    0    0  0.00000000000E+00  0.00000000000E+00  0.45593999997E+02  0.45594000000E+02  0.51100000000E-03 0.  1.
         11   -1    0    0    0    0 -0.00000000000E+00 -0.00000000000E+00 -0.45593999997E+02  0.45594000000E+02  0.51100000000E-03 0. -1.
    9900012    2    1    2    0    0  0.35668424211E+02 -0.22533338499E+02 -0.10180203593E+02  0.47787258361E+02  0.19999942170E+02 0.  0.
        -12    1    1    2    0    0 -0.35668424211E+02  0.22533338499E+02  0.10180203593E+02  0.43400741639E+02  0.00000000000E+00 0.  1.
         11    1    3    3    0    0  0.23310758715E+02 -0.12820337303E+02  0.86934898943E+00  0.26617819000E+02  0.51100000000E-03 0. -1.
        -11    1    3    3    0    0 -0.11960755438E+01 -0.85528406966E+00  0.15597072255E+00  0.14786597559E+01  0.51100000000E-03 0.  1.
         12    1    3    3    0    0  0.13553741041E+02 -0.88577171268E+01 -0.11205523305E+02  0.19690779605E+02  0.00000000000E+00 0. -1.
</event>
<event>
 7    1  0.2756432E-009  0.4778727E+02  0.7816164E-02  0.1312668E+00
        -11   -1    0    0    0    0  0.00000000000E+00  0.00000000000E+00  0.45593999997E+02  0.45594000000E+02  0.51100000000E-03 0.  1.
         11   -1    0    0    0    0 -0.00000000000E+00 -0.00000000000E+00 -0.45593999997E+02  0.45594000000E+02  0.51100000000E-03 0. -1.
    9900012    2    1    2    0    0 -0.24563379028E+02  0.35760240488E+02 -0.12119598447E+01  0.47787271484E+02  0.20000002005E+02 0.  0.
        -12    1    1    2    0    0  0.24563379028E+02 -0.35760240488E+02  0.12119598447E+01  0.43400728516E+02  0.00000000000E+00 0.  1.
         11    1    3    3    0    0 -0.12511614952E+02  0.16883905566E+02 -0.85336910800E+01  0.22681063898E+02  0.51100000000E-03 0. -1.
        -11    1    3    3    0    0 -0.12148316851E+02  0.14766724203E+02  0.83554686432E+01  0.20867477147E+02  0.51100000000E-03 0.  1.
        -12    1    3    3    0    0  0.96552774129E-01  0.41096107193E+01 -0.10337374080E+01  0.42387304386E+01  0.00000000000E+00 0.  1.
</event>
<event>
 7    1  0.2756432E-009  0.4778727E+02  0.7816164E-02  0.1312668E+00
        -11   -1    0    0    0    0  0.00000000000E+00  0.00000000000E+00  0.45593999997E+02  0.45594000000E+02  0.51100000000E-03 0.  1.
         11   -1    0    0    0    0 -0.00000000000E+00 -0.00000000000E+00 -0.45593999997E+02  0.45594000000E+02  0.51100000000E-03 0. -1.
    9900012    2    1    2    0    0 -0.33838951549E+02  0.45415796697E+01 -0.26794077592E+02  0.47787272104E+02  0.20000004833E+02 0.  0.
        -12    1    1    2    0    0  0.33838951549E+02 -0.45415796697E+01  0.26794077592E+02  0.43400727896E+02  0.00000000000E+00 0.  1.
         11    1    3    3    0    0 -0.23544184799E+02  0.91726164605E+00 -0.19426740519E+02  0.30537980520E+02  0.51100000000E-03 0. -1.
        -11    1    3    3    0    0 -0.25683956772E+01  0.67312384080E+01 -0.42014009966E+01  0.83401437311E+01  0.51100000000E-03 0.  1.
         12    1    3    3    0    0 -0.77263710730E+01 -0.31069203843E+01 -0.31659360769E+01  0.89091478535E+01  0.00000000000E+00 0. -1.
</event>
<event>
 7    1  0.2756432E-009  0.4778727E+02  0.7816164E-02  0.1312668E+00
        -11   -1    0    0    0    0  0.00000000000E+00  0.00000000000E+00  0.45593999997E+02  0.45594000000E+02  0.51100000000E-03 0.  1.
         11   -1    0    0    0    0 -0.00000000000E+00 -0.00000000000E+00 -0.45593999997E+02  0.45594000000E+02  0.51100000000E-03 0. -1.
    9900012    2    1    2    0    0  0.38303438972E+02 -0.10878223390E+02  0.17266564718E+02  0.47787269149E+02  0.19999991359E+02 0.  0.
        -12    1    1    2    0    0 -0.38303438972E+02  0.10878223390E+02 -0.17266564718E+02  0.43400730851E+02  0.00000000000E+00 0.  1.
         11    1    3    3    0    0  0.25107194585E+00 -0.65195701336E+00 -0.17448988206E+01  0.18795630408E+01  0.51100000000E-03 0. -1.
        -11    1    3    3    0    0  0.27590994675E+02 -0.12558645820E+01  0.15561321072E+02  0.31701654480E+02  0.51100000000E-03 0.  1.
        -12    1    3    3    0    0  0.10461372351E+02 -0.89704017942E+01  0.34501424663E+01  0.14206051628E+02  0.00000000000E+00 0.  1.
</event>
<event>
 7    1  0.2756432E-009  0.4778727E+02  0.7816164E-02  0.1312668E+00
        -11   -1    0    0    0    0  0.00000000000E+00  0.00000000000E+00  0.45593999997E+02  0.45594000000E+02  0.51100000000E-03 0. -1.
         11   -1    0    0    0    0 -0.00000000000E+00 -0.00000000000E+00 -0.45593999997E+02  0.45594000000E+02  0.51100000000E-03 0.  1.
    9900012    2    1    2    0    0 -0.80506017511E+01  0.12449071788E+02  0.40790093952E+02  0.47787270265E+02  0.19999996445E+02 0.  0.
        -12    1    1    2    0    0  0.80506017511E+01 -0.12449071788E+02 -0.40790093952E+02  0.43400729735E+02  0.00000000000E+00 0.  1.
         11    1    3    3    0    0 -0.34908787365E+01 -0.18223009027E+01  0.50663874129E+01  0.64167980030E+01  0.51100000000E-03 0. -1.
        -11    1    3    3    0    0 -0.42611014867E+01  0.11911497465E+02  0.36684888894E+02  0.38804920193E+02  0.51100000000E-03 0.  1.
        -12    1    3    3    0    0 -0.29862152792E+00  0.23598752258E+01 -0.96118235506E+00  0.25655520688E+01  0.00000000000E+00 0.  1.
</event>
<event>
 7    1  0.2756432E-009  0.4778727E+02  0.7816164E-02  0.1312668E+00
        -11   -1    0    0    0    0  0.00000000000E+00  0.00000000000E+00  0.45593999997E+02  0.45594000000E+02  0.51100000000E-03 0.  1.
         11   -1    0    0    0    0 -0.00000000000E+00 -0.00000000000E+00 -0.45593999997E+02  0.45594000000E+02  0.51100000000E-03 0. -1.
    9900012    2    1    2    0    0 -0.28463182624E+02 -0.70109612822E+01 -0.32004953105E+02  0.47787269978E+02  0.19999995137E+02 0.  0.
        -12    1    1    2    0    0  0.28463182624E+02  0.70109612822E+01  0.32004953105E+02  0.43400730022E+02  0.00000000000E+00 0.  1.
         11    1    3    3    0    0 -0.49763133108E+00 -0.45793881168E+01 -0.32799662701E+01  0.56547865972E+01  0.51100000000E-03 0. -1.
        -11    1    3    3    0    0 -0.19964139205E+02 -0.19946293512E+01 -0.11477770643E+02  0.23114597545E+02  0.51100000000E-03 0.  1.
        -12    1    3    3    0    0 -0.80014120878E+01 -0.43694381427E+00 -0.17247216192E+02  0.19017885836E+02  0.00000000000E+00 0.  1.
</event>
<event>
 7    1  0.2756432E-009  0.4778726E+02  0.7816164E-02  0.1312668E+00
        -11   -1    0    0    0    0  0.00000000000E+00  0.00000000000E+00  0.45593999997E+02  0.45594000000E+02  0.51100000000E-03 0.  1.
         11   -1    0    0    0    0 -0.00000000000E+00 -0.00000000000E+00 -0.45593999997E+02  0.45594000000E+02  0.51100000000E-03 0. -1.
    9900012    2    1    2    0    0 -0.48634111962E+01  0.80982928651E+00 -0.43119778018E+02  0.47787264427E+02  0.19999969828E+02 0.  0.
        -12    1    1    2    0    0  0.48634111962E+01 -0.80982928651E+00  0.43119778018E+02  0.43400735573E+02  0.00000000000E+00 0.  1.
         11    1    3    3    0    0  0.28436922439E+01  0.47762521109E+00 -0.11622635360E+02  0.11974989118E+02  0.51100000000E-03 0. -1.
        -11    1    3    3    0    0  0.34726243061E+01 -0.33937394190E+01 -0.59618197417E+01  0.76889454224E+01  0.51100000000E-03 0.  1.
        -12    1    3    3    0    0 -0.11179727746E+02  0.37259434944E+01 -0.25535322917E+02  0.28123329886E+02  0.00000000000E+00 0.  1.
</event>
<event>
 7    1  0.2756432E-009  0.4778727E+02  0.7816164E-02  0.1312668E+00
        -11   -1    0    0    0    0  0.00000000000E+00  0.00000000000E+00  0.45593999997E+02  0.45594000000E+02  0.51100000000E-03 0. -1.
         11   -1    0    0    0    0 -0.00000000000E+00 -0.00000000000E+00 -0.45593999997E+02  0.45594000000E+02  0.51100000000E-03 0.  1.
    9900012    2    1    2    0    0 -0.33024152379E+02 -0.23948785594E+02 -0.14815016615E+02  0.47787266261E+02  0.19999978190E+02 0.  0.
        -12    1    1    2    0    0  0.33024152379E+02  0.23948785594E+02  0.14815016615E+02  0.43400733739E+02  0.00000000000E+00 0.  1.
         11    1    3    3    0    0 -0.24440460565E+02 -0.18151418190E+02 -0.10144177244E+02  0.32089163703E+02  0.51100000000E-03 0. -1.
        -11    1    3    3    0    0 -0.11647942366E+01 -0.64800752428E+00  0.33588996052E+01  0.36137053261E+01  0.51100000000E-03 0.  1.
        -12    1    3    3    0    0 -0.74188975776E+01 -0.51493598803E+01 -0.80297389753E+01  0.12084397232E+02  0.00000000000E+00 0.  1.
</event>
<event>
 7    1  0.2756432E-009  0.4778726E+02  0.7816164E-02  0.1312668E+00
        -11   -1    0    0    0    0  0.00000000000E+00  0.00000000000E+00  0.45593999997E+02  0.45594000000E+02  0.51100000000E-03 0.  1.
         11   -1    0    0    0    0 -0.00000000000E+00 -0.00000000000E+00 -0.45593999997E+02  0.45594000000E+02  0.51100000000E-03 0. -1.
    9900012    2    1    2    0    0 -0.15879832307E+02  0.33034796933E+01 -0.40255962201E+02  0.47787256401E+02  0.19999933235E+02 0.  0.
        -12    1    1    2    0    0  0.15879832307E+02 -0.33034796933E+01  0.40255962201E+02  0.43400743599E+02  0.00000000000E+00 0.  1.
         11    1    3    3    0    0  0.60338219898E+00  0.14381491782E+01 -0.54581184473E+01  0.56765658970E+01  0.51100000000E-03 0. -1.
        -11    1    3    3    0    0 -0.48650449195E+01 -0.46559374694E+00 -0.28053702866E+02  0.28476230164E+02  0.51100000000E-03 0.  1.
        -12    1    3    3    0    0 -0.11618169586E+02  0.23309242620E+01 -0.67441408885E+01  0.13634460340E+02  0.00000000000E+00 0.  1.
</event>
<event>
 7    1  0.2873582E-009  0.4778733E+02  0.7816164E-02  0.1312668E+00
        -11   -1    0    0    0    0  0.00000000000E+00  0.00000000000E+00  0.45593999997E+02  0.45594000000E+02  0.51100000000E-03 0. -1.
         11   -1    0    0    0    0 -0.00000000000E+00 -0.00000000000E+00 -0.45593999997E+02  0.45594000000E+02  0.51100000000E-03 0.  1.
    9900012    2    1    2    0    0 -0.25867858272E+02  0.12421727391E+02  0.32560297020E+02  0.47787327828E+02  0.20000258897E+02 0.  0.
        -12    1    1    2    0    0  0.25867858272E+02 -0.12421727391E+02 -0.32560297020E+02  0.43400672172E+02  0.00000000000E+00 0.  1.
         11    1    3    3    0    0 -0.22105244014E+02  0.82211933232E+01  0.23192435435E+02  0.33077468075E+02  0.51100000000E-03 0. -1.
        -11    1    3    3    0    0  0.12780515895E+01 -0.10646502504E+01 -0.10707285147E+01  0.19782203705E+01  0.51100000000E-03 0.  1.
        -12    1    3    3    0    0 -0.50406658472E+01  0.52651843181E+01  0.10438590100E+02  0.12731639382E+02  0.00000000000E+00 0.  1.
</event>
<event>
 7    1  0.2756432E-009  0.4778728E+02  0.7816164E-02  0.1312668E+00
        -11   -1    0    0    0    0  0.00000000000E+00  0.00000000000E+00  0.45593999997E+02  0.45594000000E+02  0.51100000000E-03 0. -1.
         11   -1    0    0    0    0 -0.00000000000E+00 -0.00000000000E+00 -0.45593999997E+02  0.45594000000E+02  0.51100000000E-03 0.  1.
    9900012    2    1    2    0    0 -0.17967139592E+02 -0.37694276331E+02 -0.11829874124E+02  0.47787280017E+02  0.20000040909E+02 0.  0.
        -12    1    1    2    0    0  0.17967139592E+02  0.37694276331E+02  0.11829874124E+02  0.43400719983E+02  0.00000000000E+00 0.  1.
         11    1    3    3    0    0 -0.10751056460E+02 -0.19510641207E+02 -0.10077485288E+02  0.24450072501E+02  0.51100000000E-03 0. -1.
        -11    1    3    3    0    0  0.35343511870E+01 -0.42709337246E+01  0.68875089237E+00  0.55863128489E+01  0.51100000000E-03 0.  1.
         12    1    3    3    0    0 -0.10750434320E+02 -0.13912701400E+02 -0.24411397276E+01  0.17750894667E+02  0.00000000000E+00 0. -1.
</event>
<event>
 7    1  0.2756432E-009  0.4778727E+02  0.7816164E-02  0.1312668E+00
        -11   -1    0    0    0    0  0.00000000000E+00  0.00000000000E+00  0.45593999997E+02  0.45594000000E+02  0.51100000000E-03 0.  1.
         11   -1    0    0    0    0 -0.00000000000E+00 -0.00000000000E+00 -0.45593999997E+02  0.45594000000E+02  0.51100000000E-03 0. -1.
    9900012    2    1    2    0    0 -0.39291713218E+02 -0.17373476292E+02 -0.61600770228E+01  0.47787274718E+02  0.20000016749E+02 0.  0.
        -12    1    1    2    0    0  0.39291713218E+02  0.17373476292E+02  0.61600770228E+01  0.43400725282E+02  0.00000000000E+00 0.  1.
         11    1    3    3    0    0 -0.22480896332E+02 -0.33633750385E+01 -0.38717601874E+01  0.23058480408E+02  0.51100000000E-03 0. -1.
        -11    1    3    3    0    0 -0.11483129389E+02 -0.88504632076E+01  0.39620457029E+01  0.15029662869E+02  0.51100000000E-03 0.  1.
         12    1    3    3    0    0 -0.53276874969E+01 -0.51596380463E+01 -0.62503625383E+01  0.96991314402E+01  0.00000000000E+00 0. -1.
</event>
<event>
 7    1  0.2756432E-009  0.4778727E+02  0.7816164E-02  0.1312668E+00
        -11   -1    0    0    0    0  0.00000000000E+00  0.00000000000E+00  0.45593999997E+02  0.45594000000E+02  0.51100000000E-03 0.  1.
         11   -1    0    0    0    0 -0.00000000000E+00 -0.00000000000E+00 -0.45593999997E+02  0.45594000000E+02  0.51100000000E-03 0. -1.
    9900012    2    1    2    0    0  0.18263030113E+02  0.37232767147E+02 -0.12798673573E+02  0.47787271164E+02  0.20000000544E+02 0.  0.
        -12    1    1    2    0    0 -0.18263030113E+02 -0.37232767147E+02  0.12798673573E+02  0.43400728836E+02  0.00000000000E+00 0.  1.
         11    1    3    3    0    0 -0.21998196850E+01  0.57430300524E+01 -0.55333861087E+01  0.82728449109E+01  0.51100000000E-03 0.  1.
        -11    1    3    3    0    0  0.14836537128E+02  0.29154556157E+02 -0.67440360322E+01  0.33400494022E+02  0.51100000000E-03 0. -1.
        -12    1    3    3    0    0  0.56263126697E+01  0.23351809370E+01 -0.52125143235E+00  0.61139322307E+01  0.00000000000E+00 0.  1.
</event>
<event>
 7    1  0.2756432E-009  0.4778727E+02  0.7816164E-02  0.1312668E+00
        -11   -1    0    0    0    0  0.00000000000E+00  0.00000000000E+00  0.45593999997E+02  0.45594000000E+02  0.51100000000E-03 0. -1.
         11   -1    0    0    0    0 -0.00000000000E+00 -0.00000000000E+00 -0.45593999997E+02  0.45594000000E+02  0.51100000000E-03 0.  1.
    9900012    2    1    2    0    0 -0.29299889537E+02  0.18911220888E+02 -0.25836128361E+02  0.47787270386E+02  0.19999996999E+02 0.  0.
        -12    1    1    2    0    0  0.29299889537E+02 -0.18911220888E+02  0.25836128361E+02  0.43400729614E+02  0.00000000000E+00 0.  1.
         11    1    3    3    0    0 -0.15681186078E+02  0.20179857037E+02 -0.17848305242E+02  0.31171914075E+02  0.51100000000E-03 0. -1.
        -11    1    3    3    0    0 -0.11490428610E+02  0.58812856476E-01 -0.81721616666E+01  0.14100270748E+02  0.51100000000E-03 0.  1.
         12    1    3    3    0    0 -0.21282748482E+01 -0.13274490049E+01  0.18433854805E+00  0.25150855632E+01  0.00000000000E+00 0. -1.
</event>
<event>
 7    1  0.2756432E-009  0.4778727E+02  0.7816164E-02  0.1312668E+00
        -11   -1    0    0    0    0  0.00000000000E+00  0.00000000000E+00  0.45593999997E+02  0.45594000000E+02  0.51100000000E-03 0. -1.
         11   -1    0    0    0    0 -0.00000000000E+00 -0.00000000000E+00 -0.45593999997E+02  0.45594000000E+02  0.51100000000E-03 0.  1.
    9900012    2    1    2    0    0 -0.21819674623E+02  0.31647083072E+01  0.37383282446E+02  0.47787269756E+02  0.19999994124E+02 0.  0.
        -12    1    1    2    0    0  0.21819674623E+02 -0.31647083072E+01 -0.37383282446E+02  0.43400730244E+02  0.00000000000E+00 0.  1.
         11    1    3    3    0    0 -0.19811572792E+02  0.80617352657E+01  0.34361533537E+02  0.40474744956E+02  0.51100000000E-03 0. -1.
        -11    1    3    3    0    0  0.30375809681E+00 -0.42460882627E+01  0.19645690310E+01  0.46883969814E+01  0.51100000000E-03 0.  1.
        -12    1    3    3    0    0 -0.23118599280E+01 -0.65093869576E+00  0.10571798776E+01  0.26241278182E+01  0.00000000000E+00 0.  1.
</event>
<event>
 7    1  0.2756432E-009  0.4778728E+02  0.7816164E-02  0.1312668E+00
        -11   -1    0    0    0    0  0.00000000000E+00  0.00000000000E+00  0.45593999997E+02  0.45594000000E+02  0.51100000000E-03 0. -1.
         11   -1    0    0    0    0 -0.00000000000E+00 -0.00000000000E+00 -0.45593999997E+02  0.45594000000E+02  0.51100000000E-03 0.  1.
    9900012    2    1    2    0    0 -0.36352082720E+02  0.18105323438E+02  0.15308349031E+02  0.47787283359E+02  0.20000056148E+02 0.  0.
        -12    1    1    2    0    0  0.36352082720E+02 -0.18105323438E+02 -0.15308349031E+02  0.43400716641E+02  0.00000000000E+00 0.  1.
         11    1    3    3    0    0 -0.24770430869E+00  0.23220117931E+01  0.58663738375E+01  0.63140667128E+01  0.51100000000E-03 0.  1.
        -11    1    3    3    0    0 -0.24506650916E+02  0.60477802012E+01  0.59017791840E+01  0.25922626840E+02  0.51100000000E-03 0. -1.
        -12    1    3    3    0    0 -0.11597727495E+02  0.97355314439E+01  0.35401960097E+01  0.15550589806E+02  0.00000000000E+00 0.  1.
</event>
<event>
 7    1  0.2756432E-009  0.4778727E+02  0.7816164E-02  0.1312668E+00
        -11   -1    0    0    0    0  0.00000000000E+00  0.00000000000E+00  0.45593999997E+02  0.45594000000E+02  0.51100000000E-03 0. -1.
         11   -1    0    0    0    0 -0.00000000000E+00 -0.00000000000E+00 -0.45593999997E+02  0.45594000000E+02  0.51100000000E-03 0.  1.
    9900012    2    1    2    0    0 -0.41637949162E+02 -0.56369392041E+01  0.10868729598E+02  0.47787272160E+02  0.20000005085E+02 0.  0.
        -12    1    1    2    0    0  0.41637949162E+02  0.56369392041E+01 -0.10868729598E+02  0.43400727840E+02  0.00000000000E+00 0.  1.
         11    1    3    3    0    0 -0.30949421615E+02 -0.56878092828E+00  0.46385311050E+01  0.31300258484E+02  0.51100000000E-03 0. -1.
        -11    1    3    3    0    0 -0.10921795711E+02 -0.29665143206E+01  0.16433078747E+01  0.11436183358E+02  0.51100000000E-03 0.  1.
         12    1    3    3    0    0  0.23326816498E+00 -0.21016439553E+01  0.45868906185E+01  0.50508303176E+01  0.00000000000E+00 0. -1.
</event>
<event>
 7    1  0.2756432E-009  0.4778727E+02  0.7816164E-02  0.1312668E+00
        -11   -1    0    0    0    0  0.00000000000E+00  0.00000000000E+00  0.45593999997E+02  0.45594000000E+02  0.51100000000E-03 0. -1.
         11   -1    0    0    0    0 -0.00000000000E+00 -0.00000000000E+00 -0.45593999997E+02  0.45594000000E+02  0.51100000000E-03 0.  1.
    9900012    2    1    2    0    0 -0.20503922649E+02 -0.37691051609E+02 -0.65266708033E+01  0.47787266744E+02  0.19999980390E+02 0.  0.
        -12    1    1    2    0    0  0.20503922649E+02  0.37691051609E+02  0.65266708033E+01  0.43400733256E+02  0.00000000000E+00 0.  1.
         11    1    3    3    0    0 -0.20122027289E+02 -0.26846376314E+02 -0.52433865815E+01  0.33957576570E+02  0.51100000000E-03 0. -1.
        -11    1    3    3    0    0  0.34933645074E+00 -0.50169617543E+01 -0.48263782087E+01  0.69703563807E+01  0.51100000000E-03 0.  1.
         12    1    3    3    0    0 -0.73123181065E+00 -0.58277135410E+01  0.35430939869E+01  0.68593337925E+01  0.00000000000E+00 0. -1.
</event>
<event>
 7    1  0.2756432E-009  0.4778727E+02  0.7816164E-02  0.1312668E+00
        -11   -1    0    0    0    0  0.00000000000E+00  0.00000000000E+00  0.45593999997E+02  0.45594000000E+02  0.51100000000E-03 0.  1.
         11   -1    0    0    0    0 -0.00000000000E+00 -0.00000000000E+00 -0.45593999997E+02  0.45594000000E+02  0.51100000000E-03 0. -1.
    9900012    2    1    2    0    0  0.90865583235E+01 -0.35250802121E+02 -0.23631311072E+02  0.47787268954E+02  0.19999990468E+02 0.  0.
        -12    1    1    2    0    0 -0.90865583235E+01  0.35250802121E+02  0.23631311072E+02  0.43400731046E+02  0.00000000000E+00 0.  1.
         11    1    3    3    0    0  0.77040156013E+01 -0.15577044942E+02 -0.13985240391E+02  0.22306571556E+02  0.51100000000E-03 0. -1.
        -11    1    3    3    0    0 -0.85936769700E+00 -0.67639261123E+01  0.28354151223E+01  0.73843610738E+01  0.51100000000E-03 0.  1.
        -12    1    3    3    0    0  0.22419104192E+01 -0.12909831066E+02 -0.12481485804E+02  0.18096336324E+02  0.00000000000E+00 0.  1.
</event>
<event>
 7    1  0.2756432E-009  0.4778728E+02  0.7816164E-02  0.1312668E+00
        -11   -1    0    0    0    0  0.00000000000E+00  0.00000000000E+00  0.45593999997E+02  0.45594000000E+02  0.51100000000E-03 0.  1.
         11   -1    0    0    0    0 -0.00000000000E+00 -0.00000000000E+00 -0.45593999997E+02  0.45594000000E+02  0.51100000000E-03 0. -1.
    9900012    2    1    2    0    0 -0.25550917060E+02 -0.26946286049E+02 -0.22464878205E+02  0.47787280568E+02  0.20000043423E+02 0.  0.
        -12    1    1    2    0    0  0.25550917060E+02  0.26946286049E+02  0.22464878205E+02  0.43400719432E+02  0.00000000000E+00 0.  1.
         11    1    3    3    0    0 -0.41167680189E+01 -0.41773753195E+01  0.13514394385E+01  0.60186902478E+01  0.51100000000E-03 0.  1.
        -11    1    3    3    0    0 -0.41972052510E+01 -0.61769715935E+01 -0.14080839750E+02  0.15938681197E+02  0.51100000000E-03 0. -1.
        -12    1    3    3    0    0 -0.17236943790E+02 -0.16591939136E+02 -0.97354778935E+01  0.25829909123E+02  0.00000000000E+00 0.  1.
</event>
<event>
 7    1  0.2756432E-009  0.4778728E+02  0.7816164E-02  0.1312668E+00
        -11   -1    0    0    0    0  0.00000000000E+00  0.00000000000E+00  0.45593999997E+02  0.45594000000E+02  0.51100000000E-03 0. -1.
         11   -1    0    0    0    0 -0.00000000000E+00 -0.00000000000E+00 -0.45593999997E+02  0.45594000000E+02  0.51100000000E-03 0.  1.
    9900012    2    1    2    0    0  0.73969054082E+01  0.53340917478E+01  0.42431782481E+02  0.47787275249E+02  0.20000019170E+02 0.  0.
        -12    1    1    2    0    0 -0.73969054082E+01 -0.53340917478E+01 -0.42431782481E+02  0.43400724751E+02  0.00000000000E+00 0.  1.
         11    1    3    3    0    0 -0.44512686694E+01  0.83012574987E+00  0.62860274503E+01  0.77470667285E+01  0.51100000000E-03 0. -1.
        -11    1    3    3    0    0  0.10125086671E+02 -0.19698529512E+01  0.18766248845E+02  0.21414242847E+02  0.51100000000E-03 0.  1.
         12    1    3    3    0    0  0.17230874064E+01  0.64738189491E+01  0.17379506186E+02  0.18625965673E+02  0.00000000000E+00 0. -1.
</event>
<event>
 7    1  0.2756432E-009  0.4778727E+02  0.7816164E-02  0.1312668E+00
        -11   -1    0    0    0    0  0.00000000000E+00  0.00000000000E+00  0.45593999997E+02  0.45594000000E+02  0.51100000000E-03 0.  1.
         11   -1    0    0    0    0 -0.00000000000E+00 -0.00000000000E+00 -0.45593999997E+02  0.45594000000E+02  0.51100000000E-03 0. -1.
    9900012    2    1    2    0    0  0.97086358019E+01  0.33440675168E+01 -0.42168505806E+02  0.47787270990E+02  0.19999999752E+02 0.  0.
        -12    1    1    2    0    0 -0.97086358019E+01 -0.33440675168E+01  0.42168505806E+02  0.43400729010E+02  0.00000000000E+00 0.  1.
         11    1    3    3    0    0  0.11095066790E+02 -0.48495573769E+01 -0.20340680953E+02  0.23671966875E+02  0.51100000000E-03 0. -1.
        -11    1    3    3    0    0 -0.17101350529E+01  0.81564838122E+01 -0.22144608727E+02  0.23660864016E+02  0.51100000000E-03 0.  1.
         12    1    3    3    0    0  0.32370406447E+00  0.37141081515E-01  0.31678387345E+00  0.45444009921E+00  0.00000000000E+00 0. -1.
</event>
<event>
 7    1  0.2756432E-009  0.4778727E+02  0.7816164E-02  0.1312668E+00
        -11   -1    0    0    0    0  0.00000000000E+00  0.00000000000E+00  0.45593999997E+02  0.45594000000E+02  0.51100000000E-03 0. -1.
         11   -1    0    0    0    0 -0.00000000000E+00 -0.00000000000E+00 -0.45593999997E+02  0.45594000000E+02  0.51100000000E-03 0.  1.
    9900012    2    1    2    0    0 -0.87790499945E+01 -0.25938407439E+02  0.33671211947E+02  0.47787271743E+02  0.20000003183E+02 0.  0.
        -12    1    1    2    0    0  0.87790499945E+01  0.25938407439E+02 -0.33671211947E+02  0.43400728257E+02  0.00000000000E+00 0.  1.
         11    1    3    3    0    0 -0.46890412361E+01 -0.22333841027E+02  0.21675660587E+02  0.31474145340E+02  0.51100000000E-03 0. -1.
        -11    1    3    3    0    0 -0.18011505105E+01  0.17765950056E+01 -0.44314024565E+00  0.25684249091E+01  0.51100000000E-03 0.  1.
        -12    1    3    3    0    0 -0.22888582479E+01 -0.53811614174E+01  0.12438691606E+02  0.13744701494E+02  0.00000000000E+00 0.  1.
</event>
<event>
 7    1  0.2756432E-009  0.4778727E+02  0.7816164E-02  0.1312668E+00
        -11   -1    0    0    0    0  0.00000000000E+00  0.00000000000E+00  0.45593999997E+02  0.45594000000E+02  0.51100000000E-03 0.  1.
         11   -1    0    0    0    0 -0.00000000000E+00 -0.00000000000E+00 -0.45593999997E+02  0.45594000000E+02  0.51100000000E-03 0. -1.
    9900012    2    1    2    0    0 -0.37736645843E+02 -0.74645821981E+00  0.21424568895E+02  0.47787265079E+02  0.19999972799E+02 0.  0.
        -12    1    1    2    0    0  0.37736645843E+02  0.74645821981E+00 -0.21424568895E+02  0.43400734921E+02  0.00000000000E+00 0.  1.
         11    1    3    3    0    0 -0.41354672902E+01 -0.66743606011E+01  0.54344419402E+01  0.95489443712E+01  0.51100000000E-03 0. -1.
        -11    1    3    3    0    0 -0.31867420272E+01 -0.98646628401E-01  0.37036708020E+01  0.48869452192E+01  0.51100000000E-03 0.  1.
         12    1    3    3    0    0 -0.30414436526E+02  0.60265490097E+01  0.12286456153E+02  0.33351375488E+02  0.00000000000E+00 0. -1.
</event>
<event>
 7    1  0.2756432E-009  0.4778727E+02  0.7816164E-02  0.1312668E+00
        -11   -1    0    0    0    0  0.00000000000E+00  0.00000000000E+00  0.45593999997E+02  0.45594000000E+02  0.51100000000E-03 0.  1.
         11   -1    0    0    0    0 -0.00000000000E+00 -0.00000000000E+00 -0.45593999997E+02  0.45594000000E+02  0.51100000000E-03 0. -1.
    9900012    2    1    2    0    0 -0.19768086085E+02 -0.28090778240E+02 -0.26528373763E+02  0.47787266549E+02  0.19999979503E+02 0.  0.
        -12    1    1    2    0    0  0.19768086085E+02  0.28090778240E+02  0.26528373763E+02  0.43400733451E+02  0.00000000000E+00 0.  1.
         11    1    3    3    0    0 -0.52130124308E+01 -0.28285269833E+00 -0.11491885454E+00  0.52219451220E+01  0.51100000000E-03 0. -1.
        -11    1    3    3    0    0 -0.12025503798E+02 -0.16017828775E+02 -0.21930201054E+02  0.29700459572E+02  0.51100000000E-03 0.  1.
        -12    1    3    3    0    0 -0.25295698559E+01 -0.11790096767E+02 -0.44832538548E+01  0.12864861855E+02  0.00000000000E+00 0.  1.
</event>
<event>
 7    1  0.2756432E-009  0.4778727E+02  0.7816164E-02  0.1312668E+00
        -11   -1    0    0    0    0  0.00000000000E+00  0.00000000000E+00  0.45593999997E+02  0.45594000000E+02  0.51100000000E-03 0.  1.
         11   -1    0    0    0    0 -0.00000000000E+00 -0.00000000000E+00 -0.45593999997E+02  0.45594000000E+02  0.51100000000E-03 0. -1.
    9900012    2    1    2    0    0 -0.15255949224E+02 -0.96284883001E+01 -0.39473682290E+02  0.47787269969E+02  0.19999995096E+02 0.  0.
        -12    1    1    2    0    0  0.15255949224E+02  0.96284883001E+01  0.39473682290E+02  0.43400730031E+02  0.00000000000E+00 0.  1.
         11    1    3    3    0    0 -0.97466062490E+01 -0.72540148597E+01 -0.26136618445E+02  0.28822558682E+02  0.51100000000E-03 0.  1.
        -11    1    3    3    0    0 -0.10181611601E+01  0.47319298433E+01 -0.66382754219E+01  0.82155044293E+01  0.51100000000E-03 0. -1.
        -12    1    3    3    0    0 -0.44911818153E+01 -0.71064032837E+01 -0.66987884235E+01  0.10749206858E+02  0.00000000000E+00 0.  1.
</event>
<event>
 7    1  0.2756432E-009  0.4778727E+02  0.7816164E-02  0.1312668E+00
        -11   -1    0    0    0    0  0.00000000000E+00  0.00000000000E+00  0.45593999997E+02  0.45594000000E+02  0.51100000000E-03 0.  1.
         11   -1    0    0    0    0 -0.00000000000E+00 -0.00000000000E+00 -0.45593999997E+02  0.45594000000E+02  0.51100000000E-03 0. -1.
    9900012    2    1    2    0    0 -0.34713301260E+02  0.83359183860E+01 -0.24680404969E+02  0.47787271790E+02  0.20000003400E+02 0.  0.
        -12    1    1    2    0    0  0.34713301260E+02 -0.83359183860E+01  0.24680404969E+02  0.43400728210E+02  0.00000000000E+00 0.  1.
         11    1    3    3    0    0 -0.16956146123E+02 -0.24271011063E+01 -0.19025992486E+02  0.25600587912E+02  0.51100000000E-03 0. -1.
        -11    1    3    3    0    0 -0.14614854231E+02  0.61577843831E+01 -0.45990745138E+01  0.16512533402E+02  0.51100000000E-03 0.  1.
         12    1    3    3    0    0 -0.31423009067E+01  0.46052351092E+01 -0.10553379696E+01  0.56741504764E+01  0.00000000000E+00 0. -1.
</event>
<event>
 7    1  0.2756432E-009  0.4778727E+02  0.7816164E-02  0.1312668E+00
        -11   -1    0    0    0    0  0.00000000000E+00  0.00000000000E+00  0.45593999997E+02  0.45594000000E+02  0.51100000000E-03 0. -1.
         11   -1    0    0    0    0 -0.00000000000E+00 -0.00000000000E+00 -0.45593999997E+02  0.45594000000E+02  0.51100000000E-03 0.  1.
    9900012    2    1    2    0    0 -0.11819520957E+02  0.40330942282E+02 -0.10832240412E+02  0.47787269438E+02  0.19999992675E+02 0.  0.
        -12    1    1    2    0    0  0.11819520957E+02 -0.40330942282E+02  0.10832240412E+02  0.43400730562E+02  0.00000000000E+00 0.  1.
         11    1    3    3    0    0 -0.13073017536E+02  0.35923432868E+02 -0.90309727487E+01  0.39280469518E+02  0.51100000000E-03 0. -1.
        -11    1    3    3    0    0  0.29868214704E+01  0.26718214669E+01  0.15984905725E+01  0.43144993706E+01  0.51100000000E-03 0.  1.
         12    1    3    3    0    0 -0.17333248917E+01  0.17356879463E+01 -0.33997582361E+01  0.41923005488E+01  0.00000000000E+00 0. -1.
</event>
<event>
 7    1  0.2756432E-009  0.4778727E+02  0.7816164E-02  0.1312668E+00
        -11   -1    0    0    0    0  0.00000000000E+00  0.00000000000E+00  0.45593999997E+02  0.45594000000E+02  0.51100000000E-03 0. -1.
         11   -1    0    0    0    0 -0.00000000000E+00 -0.00000000000E+00 -0.45593999997E+02  0.45594000000E+02  0.51100000000E-03 0.  1.
    9900012    2    1    2    0    0 -0.60119872471E+01 -0.38306823790E+02  0.19495293303E+02  0.47787271889E+02  0.20000003853E+02 0.  0.
        -12    1    1    2    0    0  0.60119872471E+01  0.38306823790E+02 -0.19495293303E+02  0.43400728111E+02  0.00000000000E+00 0.  1.
         11    1    3    3    0    0 -0.21728001034E+01 -0.55613108292E+01 -0.39445311969E+01  0.71560160042E+01  0.51100000000E-03 0. -1.
        -11    1    3    3    0    0 -0.25400438162E+01 -0.18297581507E+02  0.15372955531E+02  0.24032916461E+02  0.51100000000E-03 0.  1.
         12    1    3    3    0    0 -0.12991433274E+01 -0.14447931454E+02  0.80668689683E+01  0.16598339424E+02  0.00000000000E+00 0. -1.
</event>
<event>
 7    1  0.2756432E-009  0.4778726E+02  0.7816164E-02  0.1312668E+00
        -11   -1    0    0    0    0  0.00000000000E+00  0.00000000000E+00  0.45593999997E+02  0.45594000000E+02  0.51100000000E-03 0.  1.
         11   -1    0    0    0    0 -0.00000000000E+00 -0.00000000000E+00 -0.45593999997E+02  0.45594000000E+02  0.51100000000E-03 0. -1.
    9900012    2    1    2    0    0  0.43716454529E+01 -0.43145447265E+02 -0.17272237248E+01  0.47787260312E+02  0.19999951065E+02 0.  0.
        -12    1    1    2    0    0 -0.43716454529E+01  0.43145447265E+02  0.17272237248E+01  0.43400739688E+02  0.00000000000E+00 0.  1.
         11    1    3    3    0    0  0.24340655005E+01 -0.14748454478E+01  0.36986001657E+01  0.46668498371E+01  0.51100000000E-03 0. -1.
        -11    1    3    3    0    0 -0.64374672084E+00 -0.50142263740E+01  0.23255514026E+01  0.55646262729E+01  0.51100000000E-03 0.  1.
         12    1    3    3    0    0  0.25813266733E+01 -0.36656375444E+02 -0.77513752930E+01  0.37555784202E+02  0.00000000000E+00 0. -1.
</event>
<event>
 7    1  0.2756432E-009  0.4778727E+02  0.7816164E-02  0.1312668E+00
        -11   -1    0    0    0    0  0.00000000000E+00  0.00000000000E+00  0.45593999997E+02  0.45594000000E+02  0.51100000000E-03 0.  1.
         11   -1    0    0    0    0 -0.00000000000E+00 -0.00000000000E+00 -0.45593999997E+02  0.45594000000E+02  0.51100000000E-03 0. -1.
    9900012    2    1    2    0    0  0.34676122496E+02  0.15145934091E+02 -0.21255365391E+02  0.47787270182E+02  0.19999996066E+02 0.  0.
        -12    1    1    2    0    0 -0.34676122496E+02 -0.15145934091E+02  0.21255365391E+02  0.43400729818E+02  0.00000000000E+00 0.  1.
         11    1    3    3    0    0  0.18624756850E+02  0.13882023172E+02 -0.62134388875E+01  0.24045767988E+02  0.51100000000E-03 0.  1.
        -11    1    3    3    0    0  0.15774979132E+02  0.75404808721E+00 -0.16088747555E+02  0.22544763323E+02  0.51100000000E-03 0. -1.
        -12    1    3    3    0    0  0.27638651454E+00  0.50986283126E+00  0.10468210511E+01  0.11967388709E+01  0.00000000000E+00 0.  1.
</event>
<event>
 7    1  0.2756432E-009  0.4778727E+02  0.7816164E-02  0.1312668E+00
        -11   -1    0    0    0    0  0.00000000000E+00  0.00000000000E+00  0.45593999997E+02  0.45594000000E+02  0.51100000000E-03 0. -1.
         11   -1    0    0    0    0 -0.00000000000E+00 -0.00000000000E+00 -0.45593999997E+02  0.45594000000E+02  0.51100000000E-03 0.  1.
    9900012    2    1    2    0    0 -0.17368823707E+02  0.64011638729E+01  0.39255218228E+02  0.47787273117E+02  0.20000009448E+02 0.  0.
        -12    1    1    2    0    0  0.17368823707E+02 -0.64011638729E+01 -0.39255218228E+02  0.43400726883E+02  0.00000000000E+00 0.  1.
         11    1    3    3    0    0 -0.12553047386E+02 -0.20055176502E+01  0.20264458586E+02  0.23921734506E+02  0.51100000000E-03 0. -1.
        -11    1    3    3    0    0  0.77507368011E+00  0.79618755661E+01  0.14941003254E+02  0.16947736729E+02  0.51100000000E-03 0.  1.
        -12    1    3    3    0    0 -0.55908500015E+01  0.44480595701E+00  0.40497563877E+01  0.69178018820E+01  0.00000000000E+00 0.  1.
</event>
<event>
 7    1  0.2756432E-009  0.4778727E+02  0.7816164E-02  0.1312668E+00
        -11   -1    0    0    0    0  0.00000000000E+00  0.00000000000E+00  0.45593999997E+02  0.45594000000E+02  0.51100000000E-03 0.  1.
         11   -1    0    0    0    0 -0.00000000000E+00 -0.00000000000E+00 -0.45593999997E+02  0.45594000000E+02  0.51100000000E-03 0. -1.
    9900012    2    1    2    0    0  0.53974780593E+01  0.28064097537E+02 -0.32663388546E+02  0.47787270844E+02  0.19999999084E+02 0.  0.
        -12    1    1    2    0    0 -0.53974780593E+01 -0.28064097537E+02  0.32663388546E+02  0.43400729156E+02  0.00000000000E+00 0.  1.
         11    1    3    3    0    0  0.67657226568E+01  0.21190168563E+02 -0.22793263388E+02  0.31848565163E+02  0.51100000000E-03 0. -1.
        -11    1    3    3    0    0  0.22670650275E+01 -0.15091719186E+01 -0.47213481918E+01  0.54505332517E+01  0.51100000000E-03 0.  1.
        -12    1    3    3    0    0 -0.36353096249E+01  0.83831008925E+01 -0.51487769665E+01  0.10488172429E+02  0.00000000000E+00 0.  1.
</event>
<event>
 7    1  0.2756432E-009  0.4778729E+02  0.7816164E-02  0.1312668E+00
        -11   -1    0    0    0    0  0.00000000000E+00  0.00000000000E+00  0.45593999997E+02  0.45594000000E+02  0.51100000000E-03 0.  1.
         11   -1    0    0    0    0 -0.00000000000E+00 -0.00000000000E+00 -0.45593999997E+02  0.45594000000E+02  0.51100000000E-03 0. -1.
    9900012    2    1    2    0    0  0.11248616988E+02 -0.41795019388E+02  0.32041578575E+01  0.47787289667E+02  0.20000084908E+02 0.  0.
        -12    1    1    2    0    0 -0.11248616988E+02  0.41795019388E+02 -0.32041578575E+01  0.43400710333E+02  0.00000000000E+00 0.  1.
         11    1    3    3    0    0 -0.64427811070E-01 -0.32437357954E+02  0.38101911366E+01  0.32660433229E+02  0.51100000000E-03 0. -1.
        -11    1    3    3    0    0  0.66789136588E+01 -0.38431503920E+01  0.93050650108E+00  0.77616709030E+01  0.51100000000E-03 0.  1.
         12    1    3    3    0    0  0.46341311402E+01 -0.55145110425E+01 -0.15365397802E+01  0.73651855346E+01  0.00000000000E+00 0. -1.
</event>
<event>
 7    1  0.2756432E-009  0.4778727E+02  0.7816164E-02  0.1312668E+00
        -11   -1    0    0    0    0  0.00000000000E+00  0.00000000000E+00  0.45593999997E+02  0.45594000000E+02  0.51100000000E-03 0.  1.
         11   -1    0    0    0    0 -0.00000000000E+00 -0.00000000000E+00 -0.45593999997E+02  0.45594000000E+02  0.51100000000E-03 0. -1.
    9900012    2    1    2    0    0 -0.30048373349E+02  0.30312163987E+02  0.78671018838E+01  0.47787270530E+02  0.19999997653E+02 0.  0.
        -12    1    1    2    0    0  0.30048373349E+02 -0.30312163987E+02 -0.78671018838E+01  0.43400729470E+02  0.00000000000E+00 0.  1.
         11    1    3    3    0    0 -0.22776768984E+02  0.21998243796E+02  0.63835421212E+01  0.32302531568E+02  0.51100000000E-03 0. -1.
        -11    1    3    3    0    0 -0.11490429496E+01  0.36106255727E+01 -0.43789036409E+01  0.57906574829E+01  0.51100000000E-03 0.  1.
        -12    1    3    3    0    0 -0.61225614153E+01  0.47032946184E+01  0.58624634035E+01  0.96940814784E+01  0.00000000000E+00 0.  1.
</event>
<event>
 7    1  0.2756432E-009  0.4778728E+02  0.7816164E-02  0.1312668E+00
        -11   -1    0    0    0    0  0.00000000000E+00  0.00000000000E+00  0.45593999997E+02  0.45594000000E+02  0.51100000000E-03 0.  1.
         11   -1    0    0    0    0 -0.00000000000E+00 -0.00000000000E+00 -0.45593999997E+02  0.45594000000E+02  0.51100000000E-03 0. -1.
    9900012    2    1    2    0    0 -0.28455230187E+02  0.24798265103E+02  0.21423549935E+02  0.47787279166E+02  0.20000037028E+02 0.  0.
        -12    1    1    2    0    0  0.28455230187E+02 -0.24798265103E+02 -0.21423549935E+02  0.43400720834E+02  0.00000000000E+00 0.  1.
         11    1    3    3    0    0 -0.23431526510E+02  0.19282318261E+02  0.66151480910E+01  0.31058081342E+02  0.51100000000E-03 0. -1.
        -11    1    3    3    0    0 -0.30709805839E+01  0.44734287059E+01  0.89478967306E+01  0.10464575591E+02  0.51100000000E-03 0.  1.
         12    1    3    3    0    0 -0.19527230930E+01  0.10425181366E+01  0.58605051134E+01  0.62646222334E+01  0.00000000000E+00 0. -1.
</event>
<event>
 7    1  0.2756432E-009  0.4778728E+02  0.7816164E-02  0.1312668E+00
        -11   -1    0    0    0    0  0.00000000000E+00  0.00000000000E+00  0.45593999997E+02  0.45594000000E+02  0.51100000000E-03 0.  1.
         11   -1    0    0    0    0 -0.00000000000E+00 -0.00000000000E+00 -0.45593999997E+02  0.45594000000E+02  0.51100000000E-03 0. -1.
    9900012    2    1    2    0    0 -0.33044561213E+02  0.15041284162E+02 -0.23778960527E+02  0.47787283201E+02  0.20000055425E+02 0.  0.
        -12    1    1    2    0    0  0.33044561213E+02 -0.15041284162E+02  0.23778960527E+02  0.43400716799E+02  0.00000000000E+00 0.  1.
         11    1    3    3    0    0 -0.57234702984E+01 -0.32372339728E+01 -0.27587866446E+01  0.71308274459E+01  0.51100000000E-03 0.  1.
        -11    1    3    3    0    0 -0.12406152249E+02  0.12262868172E+02 -0.54593137877E+01  0.18278256392E+02  0.51100000000E-03 0. -1.
         12    1    3    3    0    0 -0.14914938665E+02  0.60156499628E+01 -0.15560860094E+02  0.22378199363E+02  0.00000000000E+00 0. -1.
</event>
<event>
 7    1  0.2756432E-009  0.4778728E+02  0.7816164E-02  0.1312668E+00
        -11   -1    0    0    0    0  0.00000000000E+00  0.00000000000E+00  0.45593999997E+02  0.45594000000E+02  0.51100000000E-03 0.  1.
         11   -1    0    0    0    0 -0.00000000000E+00 -0.00000000000E+00 -0.45593999997E+02  0.45594000000E+02  0.51100000000E-03 0. -1.
    9900012    2    1    2    0    0 -0.25713331066E+02  0.13509679939E+02 -0.32248033895E+02  0.47787279538E+02  0.20000038724E+02 0.  0.
        -12    1    1    2    0    0  0.25713331066E+02 -0.13509679939E+02  0.32248033895E+02  0.43400720462E+02  0.00000000000E+00 0.  1.
         11    1    3    3    0    0 -0.77281037347E+01  0.70450142194E+00 -0.66515678469E+01  0.10220727208E+02  0.51100000000E-03 0. -1.
        -11    1    3    3    0    0 -0.10831409571E+02 -0.13360914241E+01 -0.63181009492E+01  0.12610431137E+02  0.51100000000E-03 0.  1.
        -12    1    3    3    0    0 -0.71538177607E+01  0.14141269941E+02 -0.19278365099E+02  0.24956121193E+02  0.00000000000E+00 0.  1.
</event>
<event>
 7    1  0.2756432E-009  0.4778727E+02  0.7816164E-02  0.1312668E+00
        -11   -1    0    0    0    0  0.00000000000E+00  0.00000000000E+00  0.45593999997E+02  0.45594000000E+02  0.51100000000E-03 0.  1.
         11   -1    0    0    0    0 -0.00000000000E+00 -0.00000000000E+00 -0.45593999997E+02  0.45594000000E+02  0.51100000000E-03 0. -1.
    9900012    2    1    2    0    0  0.87365951156E+01 -0.51518747511E+01 -0.42198974628E+02  0.47787269968E+02  0.19999995090E+02 0.  0.
        -12    1    1    2    0    0 -0.87365951156E+01  0.51518747511E+01  0.42198974628E+02  0.43400730032E+02  0.00000000000E+00 0.  1.
         11    1    3    3    0    0 -0.58793563454E+01  0.13174347131E+01 -0.10941761282E+02  0.12490980965E+02  0.51100000000E-03 0. -1.
        -11    1    3    3    0    0  0.11347644617E+02 -0.42196767940E+01 -0.26251991639E+02  0.28909198811E+02  0.51100000000E-03 0.  1.
         12    1    3    3    0    0  0.32683068439E+01 -0.22496326702E+01 -0.50052217079E+01  0.63870901921E+01  0.00000000000E+00 0. -1.
</event>
<event>
 7    1  0.2756432E-009  0.4778727E+02  0.7816164E-02  0.1312668E+00
        -11   -1    0    0    0    0  0.00000000000E+00  0.00000000000E+00  0.45593999997E+02  0.45594000000E+02  0.51100000000E-03 0.  1.
         11   -1    0    0    0    0 -0.00000000000E+00 -0.00000000000E+00 -0.45593999997E+02  0.45594000000E+02  0.51100000000E-03 0. -1.
    9900012    2    1    2    0    0 -0.25040659140E+02  0.26051750091E+02 -0.24039449214E+02  0.47787269459E+02  0.19999992771E+02 0.  0.
        -12    1    1    2    0    0  0.25040659140E+02 -0.26051750091E+02  0.24039449214E+02  0.43400730541E+02  0.00000000000E+00 0.  1.
         11    1    3    3    0    0 -0.60344394889E+01  0.16816167787E+02 -0.46064231766E+01  0.18450395489E+02  0.51100000000E-03 0. -1.
        -11    1    3    3    0    0 -0.90993395530E+01  0.18142313132E+01 -0.10837875257E+02  0.14267058418E+02  0.51100000000E-03 0.  1.
        -12    1    3    3    0    0 -0.99068800984E+01  0.74213509916E+01 -0.85951507796E+01  0.15069815551E+02  0.00000000000E+00 0.  1.
</event>
<event>
 7    1  0.2756432E-009  0.4778724E+02  0.7816164E-02  0.1312668E+00
        -11   -1    0    0    0    0  0.00000000000E+00  0.00000000000E+00  0.45593999997E+02  0.45594000000E+02  0.51100000000E-03 0.  1.
         11   -1    0    0    0    0 -0.00000000000E+00 -0.00000000000E+00 -0.45593999997E+02  0.45594000000E+02  0.51100000000E-03 0. -1.
    9900012    2    1    2    0    0  0.57613031329E+01  0.35858044211E+02 -0.23762028218E+02  0.47787240404E+02  0.19999860299E+02 0.  0.
        -12    1    1    2    0    0 -0.57613031329E+01 -0.35858044211E+02  0.23762028218E+02  0.43400759596E+02  0.00000000000E+00 0.  1.
         11    1    3    3    0    0  0.44105115468E+01  0.43481312288E+01 -0.56539614400E+01  0.83860680604E+01  0.51100000000E-03 0. -1.
        -11    1    3    3    0    0  0.45874422198E-01  0.57569808523E+00  0.22652473723E+01  0.23377079944E+01  0.51100000000E-03 0.  1.
        -12    1    3    3    0    0  0.13049171639E+01  0.30934214897E+02 -0.20373314150E+02  0.37063464349E+02  0.00000000000E+00 0.  1.
</event>
<event>
 7    1  0.2756432E-009  0.4778727E+02  0.7816164E-02  0.1312668E+00
        -11   -1    0    0    0    0  0.00000000000E+00  0.00000000000E+00  0.45593999997E+02  0.45594000000E+02  0.51100000000E-03 0.  1.
         11   -1    0    0    0    0 -0.00000000000E+00 -0.00000000000E+00 -0.45593999997E+02  0.45594000000E+02  0.51100000000E-03 0. -1.
    9900012    2    1    2    0    0 -0.36188639029E+01  0.74619344279E+01 -0.42601019911E+02  0.47787267992E+02  0.19999986083E+02 0.  0.
        -12    1    1    2    0    0  0.36188639029E+01 -0.74619344279E+01  0.42601019911E+02  0.43400732008E+02  0.00000000000E+00 0.  1.
         11    1    3    3    0    0 -0.76256555083E+01  0.96367125345E+01 -0.29911555240E+02  0.32337563105E+02  0.51100000000E-03 0. -1.
        -11    1    3    3    0    0  0.35617888550E+01  0.46763476689E+00 -0.14146887357E+01  0.38608764034E+01  0.51100000000E-03 0.  1.
        -12    1    3    3    0    0  0.44500275045E+00 -0.26424128734E+01 -0.11274775935E+02  0.11588828484E+02  0.00000000000E+00 0.  1.
</event>
<event>
 7    1  0.2756432E-009  0.4778727E+02  0.7816164E-02  0.1312668E+00
        -11   -1    0    0    0    0  0.00000000000E+00  0.00000000000E+00  0.45593999997E+02  0.45594000000E+02  0.51100000000E-03 0.  1.
         11   -1    0    0    0    0 -0.00000000000E+00 -0.00000000000E+00 -0.45593999997E+02  0.45594000000E+02  0.51100000000E-03 0. -1.
    9900012    2    1    2    0    0 -0.29853460817E+02  0.99575391677E+00 -0.31486548827E+02  0.47787269526E+02  0.19999993077E+02 0.  0.
        -12    1    1    2    0    0  0.29853460817E+02 -0.99575391677E+00  0.31486548827E+02  0.43400730474E+02  0.00000000000E+00 0.  1.
         11    1    3    3    0    0 -0.12048878299E+02  0.37448811974E+01 -0.15207831157E+02  0.19760509412E+02  0.51100000000E-03 0. -1.
        -11    1    3    3    0    0 -0.10768614381E+00 -0.42623094005E+01 -0.64366197211E+01  0.77206833523E+01  0.51100000000E-03 0.  1.
        -12    1    3    3    0    0 -0.17696896375E+02  0.15131821199E+01 -0.98420979487E+01  0.20306076762E+02  0.00000000000E+00 0.  1.
</event>
<event>
 7    1  0.2756432E-009  0.4778727E+02  0.7816164E-02  0.1312668E+00
        -11   -1    0    0    0    0  0.00000000000E+00  0.00000000000E+00  0.45593999997E+02  0.45594000000E+02  0.51100000000E-03 0. -1.
         11   -1    0    0    0    0 -0.00000000000E+00 -0.00000000000E+00 -0.45593999997E+02  0.45594000000E+02  0.51100000000E-03 0.  1.
    9900012    2    1    2    0    0 -0.95352486721E+01 -0.75209433074E+00  0.42333631990E+02  0.47787274077E+02  0.20000013828E+02 0.  0.
        -12    1    1    2    0    0  0.95352486721E+01  0.75209433074E+00 -0.42333631990E+02  0.43400725923E+02  0.00000000000E+00 0.  1.
         11    1    3    3    0    0 -0.69238820453E+01 -0.68747121472E+01  0.26646939459E+02  0.28377124458E+02  0.51100000000E-03 0. -1.
        -11    1    3    3    0    0 -0.35965829195E+01  0.68251274423E+01  0.16314737977E+02  0.18046840411E+02  0.51100000000E-03 0.  1.
         12    1    3    3    0    0  0.98521629266E+00 -0.70250962579E+00 -0.62804544539E+00  0.13633092089E+01  0.00000000000E+00 0. -1.
</event>
<event>
 7    1  0.2756432E-009  0.4778727E+02  0.7816164E-02  0.1312668E+00
        -11   -1    0    0    0    0  0.00000000000E+00  0.00000000000E+00  0.45593999997E+02  0.45594000000E+02  0.51100000000E-03 0. -1.
         11   -1    0    0    0    0 -0.00000000000E+00 -0.00000000000E+00 -0.45593999997E+02  0.45594000000E+02  0.51100000000E-03 0.  1.
    9900012    2    1    2    0    0 -0.43120856657E+02 -0.42775173773E+01 -0.24326936909E+01  0.47787269219E+02  0.19999991677E+02 0.  0.
        -12    1    1    2    0    0  0.43120856657E+02  0.42775173773E+01  0.24326936909E+01  0.43400730781E+02  0.00000000000E+00 0.  1.
         11    1    3    3    0    0 -0.23176438796E+02 -0.24974461725E+01 -0.52930648948E+01  0.23903997341E+02  0.51100000000E-03 0. -1.
        -11    1    3    3    0    0 -0.82636327182E+01 -0.70231175155E+01  0.21789293062E+01  0.11061624588E+02  0.51100000000E-03 0.  1.
        -12    1    3    3    0    0 -0.11680785143E+02  0.52430463107E+01  0.68144189761E+00  0.12821647290E+02  0.00000000000E+00 0.  1.
</event>
<event>
 7    1  0.2756432E-009  0.4778727E+02  0.7816164E-02  0.1312668E+00
        -11   -1    0    0    0    0  0.00000000000E+00  0.00000000000E+00  0.45593999997E+02  0.45594000000E+02  0.51100000000E-03 0.  1.
         11   -1    0    0    0    0 -0.00000000000E+00 -0.00000000000E+00 -0.45593999997E+02  0.45594000000E+02  0.51100000000E-03 0. -1.
    9900012    2    1    2    0    0 -0.52311059962E+01 -0.12792168577E+02 -0.41141453139E+02  0.47787271743E+02  0.20000003184E+02 0.  0.
        -12    1    1    2    0    0  0.52311059962E+01  0.12792168577E+02  0.41141453139E+02  0.43400728257E+02  0.00000000000E+00 0.  1.
         11    1    3    3    0    0  0.96407351212E+00 -0.71194896260E+01 -0.10847764208E+02  0.13011170541E+02  0.51100000000E-03 0. -1.
        -11    1    3    3    0    0 -0.10705997131E+02 -0.64201543383E+01 -0.21362370680E+02  0.24742425863E+02  0.51100000000E-03 0.  1.
        -12    1    3    3    0    0  0.45108176227E+01  0.74747538773E+00 -0.89313182516E+01  0.10033675338E+02  0.00000000000E+00 0.  1.
</event>
<event>
 7    1  0.2756432E-009  0.4778729E+02  0.7816164E-02  0.1312668E+00
        -11   -1    0    0    0    0  0.00000000000E+00  0.00000000000E+00  0.45593999997E+02  0.45594000000E+02  0.51100000000E-03 0. -1.
         11   -1    0    0    0    0 -0.00000000000E+00 -0.00000000000E+00 -0.45593999997E+02  0.45594000000E+02  0.51100000000E-03 0.  1.
    9900012    2    1    2    0    0  0.12572993363E+01 -0.19117691269E+02  0.38942971222E+02  0.47787286542E+02  0.20000070658E+02 0.  0.
        -12    1    1    2    0    0 -0.12572993363E+01  0.19117691269E+02 -0.38942971222E+02  0.43400713458E+02  0.00000000000E+00 0.  1.
         11    1    3    3    0    0  0.18081305392E+01  0.29028766645E+01  0.50339782157E+01  0.60858003510E+01  0.51100000000E-03 0.  1.
        -11    1    3    3    0    0 -0.33632793011E+01 -0.20581683010E+02  0.27101009279E+02  0.34196228263E+02  0.51100000000E-03 0. -1.
         12    1    3    3    0    0  0.28124480982E+01 -0.14388849228E+01  0.68079837276E+01  0.75052579277E+01  0.00000000000E+00 0. -1.
</event>
<event>
 7    1  0.2756432E-009  0.4778728E+02  0.7816164E-02  0.1312668E+00
        -11   -1    0    0    0    0  0.00000000000E+00  0.00000000000E+00  0.45593999997E+02  0.45594000000E+02  0.51100000000E-03 0.  1.
         11   -1    0    0    0    0 -0.00000000000E+00 -0.00000000000E+00 -0.45593999997E+02  0.45594000000E+02  0.51100000000E-03 0. -1.
    9900012    2    1    2    0    0 -0.31746583943E+02 -0.84657406916E+01 -0.28356806623E+02  0.47787276050E+02  0.20000022823E+02 0.  0.
        -12    1    1    2    0    0  0.31746583943E+02  0.84657406916E+01  0.28356806623E+02  0.43400723950E+02  0.00000000000E+00 0.  1.
         11    1    3    3    0    0 -0.20219035626E+02 -0.19853180782E+01 -0.16264682381E+02  0.26024810907E+02  0.51100000000E-03 0. -1.
        -11    1    3    3    0    0 -0.15168628465E+01  0.90360765843E-01  0.24756883972E+01  0.29048358412E+01  0.51100000000E-03 0.  1.
        -12    1    3    3    0    0 -0.10010685470E+02 -0.65707833793E+01 -0.14567812639E+02  0.18857629302E+02  0.00000000000E+00 0.  1.
</event>
<event>
 7    1  0.2756432E-009  0.4778727E+02  0.7816164E-02  0.1312668E+00
        -11   -1    0    0    0    0  0.00000000000E+00  0.00000000000E+00  0.45593999997E+02  0.45594000000E+02  0.51100000000E-03 0. -1.
         11   -1    0    0    0    0 -0.00000000000E+00 -0.00000000000E+00 -0.45593999997E+02  0.45594000000E+02  0.51100000000E-03 0.  1.
    9900012    2    1    2    0    0 -0.26145050879E+01 -0.95409017827E+01  0.42258237156E+02  0.47787273610E+02  0.20000011697E+02 0.  0.
        -12    1    1    2    0    0  0.26145050879E+01  0.95409017827E+01 -0.42258237156E+02  0.43400726390E+02  0.00000000000E+00 0.  1.
         11    1    3    3    0    0  0.12453935299E+01 -0.31721414788E+01  0.37623748644E+02  0.37777770566E+02  0.51100000000E-03 0. -1.
        -11    1    3    3    0    0 -0.21783469194E+01 -0.12199075466E+01 -0.49991884807E+00  0.25462303194E+01  0.51100000000E-03 0.  1.
         12    1    3    3    0    0 -0.16815516984E+01 -0.51488527573E+01  0.51344073596E+01  0.74632727248E+01  0.00000000000E+00 0. -1.
</event>
<event>
 7    1  0.3400598E-009  0.4778727E+02  0.7816164E-02  0.1312668E+00
        -11   -1    0    0    0    0  0.00000000000E+00  0.00000000000E+00  0.45593999997E+02  0.45594000000E+02  0.51100000000E-03 0.  1.
         11   -1    0    0    0    0 -0.00000000000E+00 -0.00000000000E+00 -0.45593999997E+02  0.45594000000E+02  0.51100000000E-03 0. -1.
    9900012    2    1    2    0    0 -0.36297613428E+02  0.23629545699E+02  0.27840943526E+01  0.47787270146E+02  0.19999995904E+02 0.  0.
        -12    1    1    2    0    0  0.36297613428E+02 -0.23629545699E+02 -0.27840943526E+01  0.43400729854E+02  0.00000000000E+00 0.  1.
         11    1    3    3    0    0 -0.26508227561E+02  0.16802627690E+02 -0.25098320785E+01  0.31485134318E+02  0.51100000000E-03 0. -1.
        -11    1    3    3    0    0 -0.95587094360E+00  0.64897581219E+01  0.26550493123E+01  0.70767179436E+01  0.51100000000E-03 0.  1.
        -12    1    3    3    0    0 -0.88335149232E+01  0.33715988680E+00  0.26388771188E+01  0.92254178840E+01  0.00000000000E+00 0.  1.
</event>
<event>
 7    1  0.2756432E-009  0.4778728E+02  0.7816164E-02  0.1312668E+00
        -11   -1    0    0    0    0  0.00000000000E+00  0.00000000000E+00  0.45593999997E+02  0.45594000000E+02  0.51100000000E-03 0.  1.
         11   -1    0    0    0    0 -0.00000000000E+00 -0.00000000000E+00 -0.45593999997E+02  0.45594000000E+02  0.51100000000E-03 0. -1.
    9900012    2    1    2    0    0  0.52239884342E+01  0.42194868540E+02 -0.87135476339E+01  0.47787275368E+02  0.20000019711E+02 0.  0.
        -12    1    1    2    0    0 -0.52239884342E+01 -0.42194868540E+02  0.87135476339E+01  0.43400724632E+02  0.00000000000E+00 0.  1.
         11    1    3    3    0    0 -0.14973037832E+01  0.64808759231E+00  0.34276986302E+01  0.37961894456E+01  0.51100000000E-03 0.  1.
        -11    1    3    3    0    0  0.32281215026E+01  0.21600694681E+02 -0.83914653156E+01  0.23397167981E+02  0.51100000000E-03 0. -1.
        -12    1    3    3    0    0  0.34931707149E+01  0.19946086267E+02 -0.37497809485E+01  0.20593917941E+02  0.00000000000E+00 0.  1.
</event>
<event>
 7    1  0.2756432E-009  0.4778728E+02  0.7816164E-02  0.1312668E+00
        -11   -1    0    0    0    0  0.00000000000E+00  0.00000000000E+00  0.45593999997E+02  0.45594000000E+02  0.51100000000E-03 0.  1.
         11   -1    0    0    0    0 -0.00000000000E+00 -0.00000000000E+00 -0.45593999997E+02  0.45594000000E+02  0.51100000000E-03 0. -1.
    9900012    2    1    2    0    0  0.37672034412E+02 -0.20875831031E+02  0.53516740568E+01  0.47787275200E+02  0.20000018945E+02 0.  0.
        -12    1    1    2    0    0 -0.37672034412E+02  0.20875831031E+02 -0.53516740568E+01  0.43400724800E+02  0.00000000000E+00 0.  1.
         11    1    3    3    0    0  0.14116875818E+02 -0.17772858792E+02 -0.17392779059E+01  0.22763694348E+02  0.51100000000E-03 0. -1.
        -11    1    3    3    0    0  0.13710617889E+02 -0.14282036923E+01  0.24058751180E+01  0.13993178482E+02  0.51100000000E-03 0.  1.
         12    1    3    3    0    0  0.98445407060E+01 -0.16747685471E+01  0.46850768447E+01  0.11030402370E+02  0.00000000000E+00 0. -1.
</event>
<event>
 7    1  0.2756432E-009  0.4778726E+02  0.7816164E-02  0.1312668E+00
        -11   -1    0    0    0    0  0.00000000000E+00  0.00000000000E+00  0.45593999997E+02  0.45594000000E+02  0.51100000000E-03 0.  1.
         11   -1    0    0    0    0 -0.00000000000E+00 -0.00000000000E+00 -0.45593999997E+02  0.45594000000E+02  0.51100000000E-03 0. -1.
    9900012    2    1    2    0    0 -0.11811171742E+02 -0.16056013094E+02 -0.38552880489E+02  0.47787263504E+02  0.19999965620E+02 0.  0.
        -12    1    1    2    0    0  0.11811171742E+02  0.16056013094E+02  0.38552880489E+02  0.43400736496E+02  0.00000000000E+00 0.  1.
         11    1    3    3    0    0 -0.87910175347E+01 -0.60611980433E+01 -0.58292003591E+01  0.12165512242E+02  0.51100000000E-03 0. -1.
        -11    1    3    3    0    0 -0.78694198338E+00 -0.10506009472E+02 -0.19156083561E+02  0.21862091628E+02  0.51100000000E-03 0.  1.
        -12    1    3    3    0    0 -0.22332122236E+01  0.51119442156E+00 -0.13567596569E+02  0.13759659634E+02  0.00000000000E+00 0.  1.
</event>
<event>
 7    1  0.2756432E-009  0.4778726E+02  0.7816164E-02  0.1312668E+00
        -11   -1    0    0    0    0  0.00000000000E+00  0.00000000000E+00  0.45593999997E+02  0.45594000000E+02  0.51100000000E-03 0.  1.
         11   -1    0    0    0    0 -0.00000000000E+00 -0.00000000000E+00 -0.45593999997E+02  0.45594000000E+02  0.51100000000E-03 0. -1.
    9900012    2    1    2    0    0  0.79531581782E+01 -0.10297739605E+02 -0.41404445632E+02  0.47787259406E+02  0.19999946937E+02 0.  0.
        -12    1    1    2    0    0 -0.79531581782E+01  0.10297739605E+02  0.41404445632E+02  0.43400740594E+02  0.00000000000E+00 0.  1.
         11    1    3    3    0    0  0.40389206342E+01 -0.12411292258E+01 -0.18748461132E+02  0.19218690817E+02  0.51100000000E-03 0.  1.
        -11    1    3    3    0    0  0.32427840992E+01 -0.60618163406E+01 -0.24182543841E+02  0.25140737717E+02  0.51100000000E-03 0. -1.
        -12    1    3    3    0    0  0.67145344492E+00 -0.29947940385E+01  0.15265593417E+01  0.34278308718E+01  0.00000000000E+00 0.  1.
</event>
<event>
 7    1  0.2756432E-009  0.4778727E+02  0.7816164E-02  0.1312668E+00
        -11   -1    0    0    0    0  0.00000000000E+00  0.00000000000E+00  0.45593999997E+02  0.45594000000E+02  0.51100000000E-03 0. -1.
         11   -1    0    0    0    0 -0.00000000000E+00 -0.00000000000E+00 -0.45593999997E+02  0.45594000000E+02  0.51100000000E-03 0.  1.
    9900012    2    1    2    0    0  0.38736072794E+02  0.19306365728E+02  0.32255234919E+01  0.47787273106E+02  0.20000009401E+02 0.  0.
        -12    1    1    2    0    0 -0.38736072794E+02 -0.19306365728E+02 -0.32255234919E+01  0.43400726894E+02  0.00000000000E+00 0.  1.
         11    1    3    3    0    0  0.22666724045E+02  0.63341987757E+01  0.95127512200E+01  0.25384934294E+02  0.51100000000E-03 0. -1.
        -11    1    3    3    0    0  0.97511284908E+01  0.11304107179E+02 -0.37514331932E+01  0.15392874885E+02  0.51100000000E-03 0.  1.
         12    1    3    3    0    0  0.63182202578E+01  0.16680597735E+01 -0.25357945349E+01  0.70094639280E+01  0.00000000000E+00 0. -1.
</event>
<event>
 7    1  0.2756432E-009  0.4778727E+02  0.7816164E-02  0.1312668E+00
        -11   -1    0    0    0    0  0.00000000000E+00  0.00000000000E+00  0.45593999997E+02  0.45594000000E+02  0.51100000000E-03 0. -1.
         11   -1    0    0    0    0 -0.00000000000E+00 -0.00000000000E+00 -0.45593999997E+02  0.45594000000E+02  0.51100000000E-03 0.  1.
    9900012    2    1    2    0    0 -0.80421905041E+01  0.41421344454E+02  0.10159659186E+02  0.47787270982E+02  0.19999999716E+02 0.  0.
        -12    1    1    2    0    0  0.80421905041E+01 -0.41421344454E+02 -0.10159659186E+02  0.43400729018E+02  0.00000000000E+00 0.  1.
         11    1    3    3    0    0 -0.48521209524E+01  0.45755451033E+01 -0.38078193833E+01  0.76797252194E+01  0.51100000000E-03 0. -1.
        -11    1    3    3    0    0  0.75736587340E-01  0.29875124293E+02  0.10523681030E+02  0.31674542620E+02  0.51100000000E-03 0.  1.
         12    1    3    3    0    0 -0.32658061391E+01  0.69706750582E+01  0.34437975396E+01  0.84330031424E+01  0.00000000000E+00 0. -1.
</event>
<event>
 7    1  0.2756432E-009  0.4778727E+02  0.7816164E-02  0.1312668E+00
        -11   -1    0    0    0    0  0.00000000000E+00  0.00000000000E+00  0.45593999997E+02  0.45594000000E+02  0.51100000000E-03 0.  1.
         11   -1    0    0    0    0 -0.00000000000E+00 -0.00000000000E+00 -0.45593999997E+02  0.45594000000E+02  0.51100000000E-03 0. -1.
    9900012    2    1    2    0    0 -0.32468013015E+02  0.99085532564E+01 -0.27042040080E+02  0.47787271568E+02  0.20000002386E+02 0.  0.
        -12    1    1    2    0    0  0.32468013015E+02 -0.99085532564E+01  0.27042040080E+02  0.43400728432E+02  0.00000000000E+00 0.  1.
         11    1    3    3    0    0 -0.48608019324E+01 -0.12882703816E+01 -0.43229946844E+01  0.66313889423E+01  0.51100000000E-03 0.  1.
        -11    1    3    3    0    0 -0.24859842353E+02  0.35024092236E+01 -0.21170903573E+02  0.32840307407E+02  0.51100000000E-03 0. -1.
        -12    1    3    3    0    0 -0.27473687292E+01  0.76944144145E+01 -0.15481418225E+01  0.83155752187E+01  0.00000000000E+00 0.  1.
</event>
<event>
 7    1  0.2756432E-009  0.4778727E+02  0.7816164E-02  0.1312668E+00
        -11   -1    0    0    0    0  0.00000000000E+00  0.00000000000E+00  0.45593999997E+02  0.45594000000E+02  0.51100000000E-03 0.  1.
         11   -1    0    0    0    0 -0.00000000000E+00 -0.00000000000E+00 -0.45593999997E+02  0.45594000000E+02  0.51100000000E-03 0. -1.
    9900012    2    1    2    0    0 -0.17248745243E+02 -0.19493371300E+02 -0.34729132200E+02  0.47787270047E+02  0.19999995451E+02 0.  0.
        -12    1    1    2    0    0  0.17248745243E+02  0.19493371300E+02  0.34729132200E+02  0.43400729953E+02  0.00000000000E+00 0.  1.
         11    1    3    3    0    0 -0.45859740157E+01 -0.16792708228E+02 -0.11253956791E+02  0.20728669784E+02  0.51100000000E-03 0. -1.
        -11    1    3    3    0    0 -0.33629758822E+01  0.83372455049E+00 -0.51510260661E+01  0.62078799284E+01  0.51100000000E-03 0.  1.
         12    1    3    3    0    0 -0.92997953451E+01 -0.35343876225E+01 -0.18324149343E+02  0.20850720334E+02  0.00000000000E+00 0. -1.
</event>
<event>
 7    1  0.2756432E-009  0.4778727E+02  0.7816164E-02  0.1312668E+00
        -11   -1    0    0    0    0  0.00000000000E+00  0.00000000000E+00  0.45593999997E+02  0.45594000000E+02  0.51100000000E-03 0.  1.
         11   -1    0    0    0    0 -0.00000000000E+00 -0.00000000000E+00 -0.45593999997E+02  0.45594000000E+02  0.51100000000E-03 0. -1.
    9900012    2    1    2    0    0 -0.11799401932E+02  0.33308585274E+02 -0.25197926955E+02  0.47787271185E+02  0.20000000640E+02 0.  0.
        -12    1    1    2    0    0  0.11799401932E+02 -0.33308585274E+02  0.25197926955E+02  0.43400728815E+02  0.00000000000E+00 0.  1.
         11    1    3    3    0    0 -0.11766104250E+02  0.32199030838E+02 -0.23057561320E+02  0.41314282402E+02  0.51100000000E-03 0. -1.
        -11    1    3    3    0    0  0.23596859904E+01  0.18055863975E+01  0.29829036946E+00  0.29861744118E+01  0.51100000000E-03 0.  1.
         12    1    3    3    0    0 -0.23929836724E+01 -0.69603196205E+00 -0.24386560041E+01  0.34868143706E+01  0.00000000000E+00 0. -1.
</event>
<event>
 7    1  0.2756432E-009  0.4778727E+02  0.7816164E-02  0.1312668E+00
        -11   -1    0    0    0    0  0.00000000000E+00  0.00000000000E+00  0.45593999997E+02  0.45594000000E+02  0.51100000000E-03 0. -1.
         11   -1    0    0    0    0 -0.00000000000E+00 -0.00000000000E+00 -0.45593999997E+02  0.45594000000E+02  0.51100000000E-03 0.  1.
    9900012    2    1    2    0    0  0.14480599993E+02  0.23595014295E+02  0.33424705610E+02  0.47787269351E+02  0.19999992280E+02 0.  0.
        -12    1    1    2    0    0 -0.14480599993E+02 -0.23595014295E+02 -0.33424705610E+02  0.43400730649E+02  0.00000000000E+00 0.  1.
         11    1    3    3    0    0  0.40421972866E+01  0.11574060910E+02  0.74767929530E+01  0.14359689341E+02  0.51100000000E-03 0.  1.
        -11    1    3    3    0    0  0.54107490065E+01  0.36624931434E+01  0.96065924152E+00  0.66040084249E+01  0.51100000000E-03 0. -1.
        -12    1    3    3    0    0  0.50276536994E+01  0.83584602416E+01  0.24987253416E+02  0.26823571585E+02  0.00000000000E+00 0.  1.
</event>
<event>
 7    1  0.2756432E-009  0.4778727E+02  0.7816164E-02  0.1312668E+00
        -11   -1    0    0    0    0  0.00000000000E+00  0.00000000000E+00  0.45593999997E+02  0.45594000000E+02  0.51100000000E-03 0. -1.
         11   -1    0    0    0    0 -0.00000000000E+00 -0.00000000000E+00 -0.45593999997E+02  0.45594000000E+02  0.51100000000E-03 0.  1.
    9900012    2    1    2    0    0 -0.36110051704E+02 -0.49910799184E+01  0.23553700965E+02  0.47787267956E+02  0.19999985920E+02 0.  0.
        -12    1    1    2    0    0  0.36110051704E+02  0.49910799184E+01 -0.23553700965E+02  0.43400732044E+02  0.00000000000E+00 0.  1.
         11    1    3    3    0    0 -0.33929054399E+00 -0.44000757244E+01  0.49220283392E+01  0.66107599931E+01  0.51100000000E-03 0.  1.
        -11    1    3    3    0    0 -0.30209294191E+02 -0.17964628483E+01  0.12309241059E+02  0.32670264002E+02  0.51100000000E-03 0. -1.
         12    1    3    3    0    0 -0.55614669689E+01  0.12054586543E+01  0.63224315661E+01  0.85062439609E+01  0.00000000000E+00 0. -1.
</event>
<event>
 7    1  0.2756432E-009  0.4778727E+02  0.7816164E-02  0.1312668E+00
        -11   -1    0    0    0    0  0.00000000000E+00  0.00000000000E+00  0.45593999997E+02  0.45594000000E+02  0.51100000000E-03 0.  1.
         11   -1    0    0    0    0 -0.00000000000E+00 -0.00000000000E+00 -0.45593999997E+02  0.45594000000E+02  0.51100000000E-03 0. -1.
    9900012    2    1    2    0    0 -0.22491395233E+02 -0.13293849095E+02 -0.34655937170E+02  0.47787271153E+02  0.20000000495E+02 0.  0.
        -12    1    1    2    0    0  0.22491395233E+02  0.13293849095E+02  0.34655937170E+02  0.43400728847E+02  0.00000000000E+00 0.  1.
         11    1    3    3    0    0 -0.72788810494E+01  0.25144308736E+01 -0.18305074889E+02  0.19859009011E+02  0.51100000000E-03 0. -1.
        -11    1    3    3    0    0 -0.14579783708E+02 -0.15092975447E+02 -0.16791939066E+02  0.26876331943E+02  0.51100000000E-03 0.  1.
         12    1    3    3    0    0 -0.63273047582E+00 -0.71530452119E+00  0.44107678531E+00  0.10519301990E+01  0.00000000000E+00 0. -1.
</event>
<event>
 7    1  0.2756432E-009  0.4778727E+02  0.7816164E-02  0.1312668E+00
        -11   -1    0    0    0    0  0.00000000000E+00  0.00000000000E+00  0.45593999997E+02  0.45594000000E+02  0.51100000000E-03 0.  1.
         11   -1    0    0    0    0 -0.00000000000E+00 -0.00000000000E+00 -0.45593999997E+02  0.45594000000E+02  0.51100000000E-03 0. -1.
    9900012    2    1    2    0    0 -0.22676852183E+02  0.14199986197E+01 -0.36977934566E+02  0.47787266529E+02  0.19999979412E+02 0.  0.
        -12    1    1    2    0    0  0.22676852183E+02 -0.14199986197E+01  0.36977934566E+02  0.43400733471E+02  0.00000000000E+00 0.  1.
         11    1    3    3    0    0 -0.60251061153E+01 -0.11674980114E+01 -0.11264188347E+02  0.12827583353E+02  0.51100000000E-03 0. -1.
        -11    1    3    3    0    0 -0.19472452240E+00 -0.53418818703E+01 -0.70046138821E+01  0.88112561792E+01  0.51100000000E-03 0.  1.
        -12    1    3    3    0    0 -0.16457021546E+02  0.79293785014E+01 -0.18709132337E+02  0.26148426996E+02  0.00000000000E+00 0.  1.
</event>
<event>
 7    1  0.2756432E-009  0.4778726E+02  0.7816164E-02  0.1312668E+00
        -11   -1    0    0    0    0  0.00000000000E+00  0.00000000000E+00  0.45593999997E+02  0.45594000000E+02  0.51100000000E-03 0.  1.
         11   -1    0    0    0    0 -0.00000000000E+00 -0.00000000000E+00 -0.45593999997E+02  0.45594000000E+02  0.51100000000E-03 0. -1.
    9900012    2    1    2    0    0 -0.30533811216E+02 -0.17829042811E+02 -0.25168143750E+02  0.47787264353E+02  0.19999969489E+02 0.  0.
        -12    1    1    2    0    0  0.30533811216E+02  0.17829042811E+02  0.25168143750E+02  0.43400735647E+02  0.00000000000E+00 0.  1.
         11    1    3    3    0    0 -0.24685827462E+02 -0.19600789678E+02 -0.19475585087E+02  0.37052387888E+02  0.51100000000E-03 0. -1.
        -11    1    3    3    0    0  0.67645114652E+00  0.15681445067E+01  0.45579942464E+00  0.17676019699E+01  0.51100000000E-03 0.  1.
         12    1    3    3    0    0 -0.65244349003E+01  0.20360235988E+00 -0.61483580874E+01  0.89672744945E+01  0.00000000000E+00 0. -1.
</event>
<event>
 7    1  0.2756432E-009  0.4778728E+02  0.7816164E-02  0.1312668E+00
        -11   -1    0    0    0    0  0.00000000000E+00  0.00000000000E+00  0.45593999997E+02  0.45594000000E+02  0.51100000000E-03 0.  1.
         11   -1    0    0    0    0 -0.00000000000E+00 -0.00000000000E+00 -0.45593999997E+02  0.45594000000E+02  0.51100000000E-03 0. -1.
    9900012    2    1    2    0    0  0.26963716829E+02  0.31602123527E+02 -0.12565295029E+02  0.47787275631E+02  0.20000020910E+02 0.  0.
        -12    1    1    2    0    0 -0.26963716829E+02 -0.31602123527E+02  0.12565295029E+02  0.43400724369E+02  0.00000000000E+00 0.  1.
         11    1    3    3    0    0  0.36679016147E+01  0.10518881629E+02 -0.29788133417E+01  0.11531422383E+02  0.51100000000E-03 0. -1.
        -11    1    3    3    0    0  0.22860680252E+02  0.11945740318E+02 -0.76642846935E+01  0.26908226873E+02  0.51100000000E-03 0.  1.
        -12    1    3    3    0    0  0.43513496189E+00  0.91375015803E+01 -0.19221969935E+01  0.93476263750E+01  0.00000000000E+00 0.  1.
</event>
<event>
 7    1  0.2756432E-009  0.4778727E+02  0.7816164E-02  0.1312668E+00
        -11   -1    0    0    0    0  0.00000000000E+00  0.00000000000E+00  0.45593999997E+02  0.45594000000E+02  0.51100000000E-03 0. -1.
         11   -1    0    0    0    0 -0.00000000000E+00 -0.00000000000E+00 -0.45593999997E+02  0.45594000000E+02  0.51100000000E-03 0.  1.
    9900012    2    1    2    0    0 -0.26648899585E+02 -0.34105278643E+02 -0.32076798078E+01  0.47787273161E+02  0.20000009649E+02 0.  0.
        -12    1    1    2    0    0  0.26648899585E+02  0.34105278643E+02  0.32076798078E+01  0.43400726839E+02  0.00000000000E+00 0.  1.
         11    1    3    3    0    0 -0.21858741398E+02 -0.17099224331E+02 -0.71132317642E+00  0.27761376571E+02  0.51100000000E-03 0. -1.
        -11    1    3    3    0    0  0.21445823512E+01 -0.31896622095E+01 -0.24662357896E+01  0.45667819854E+01  0.51100000000E-03 0.  1.
         12    1    3    3    0    0 -0.69347405386E+01 -0.13816392103E+02 -0.30120841843E-01  0.15459114604E+02  0.00000000000E+00 0. -1.
</event>
<event>
 7    1  0.2756432E-009  0.4778732E+02  0.7816164E-02  0.1312668E+00
        -11   -1    0    0    0    0  0.00000000000E+00  0.00000000000E+00  0.45593999997E+02  0.45594000000E+02  0.51100000000E-03 0.  1.
         11   -1    0    0    0    0 -0.00000000000E+00 -0.00000000000E+00 -0.45593999997E+02  0.45594000000E+02  0.51100000000E-03 0. -1.
    9900012    2    1    2    0    0  0.79636437532E+01 -0.16951267261E+02 -0.39151680342E+02  0.47787318471E+02  0.20000216236E+02 0.  0.
        -12    1    1    2    0    0 -0.79636437532E+01  0.16951267261E+02  0.39151680342E+02  0.43400681529E+02  0.00000000000E+00 0.  1.
         11    1    3    3    0    0 -0.45927736856E+01 -0.36290396459E+01 -0.17464344870E+02  0.18419197617E+02  0.51100000000E-03 0. -1.
        -11    1    3    3    0    0  0.99796863218E+01 -0.13534056332E+02 -0.16431644725E+02  0.23510928703E+02  0.51100000000E-03 0.  1.
         12    1    3    3    0    0  0.25767311170E+01  0.21182871653E+00 -0.52556907475E+01  0.58571921505E+01  0.00000000000E+00 0. -1.
</event>
<event>
 7    1  0.2756432E-009  0.4778728E+02  0.7816164E-02  0.1312668E+00
        -11   -1    0    0    0    0  0.00000000000E+00  0.00000000000E+00  0.45593999997E+02  0.45594000000E+02  0.51100000000E-03 0.  1.
         11   -1    0    0    0    0 -0.00000000000E+00 -0.00000000000E+00 -0.45593999997E+02  0.45594000000E+02  0.51100000000E-03 0. -1.
    9900012    2    1    2    0    0 -0.32466373406E+02  0.16296777372E+02 -0.23748105804E+02  0.47787275535E+02  0.20000020474E+02 0.  0.
        -12    1    1    2    0    0  0.32466373406E+02 -0.16296777372E+02  0.23748105804E+02  0.43400724465E+02  0.00000000000E+00 0.  1.
         11    1    3    3    0    0 -0.36521001464E+01  0.49130040617E+01 -0.30705462516E+01  0.68486275219E+01  0.51100000000E-03 0. -1.
        -11    1    3    3    0    0 -0.30627709607E+02  0.12558858297E+02 -0.19994010498E+02  0.38672237762E+02  0.51100000000E-03 0.  1.
        -12    1    3    3    0    0  0.18134363479E+01 -0.11750849867E+01 -0.68354905418E+00  0.22664102504E+01  0.00000000000E+00 0.  1.
</event>
<event>
 7    1  0.2756432E-009  0.4778727E+02  0.7816164E-02  0.1312668E+00
        -11   -1    0    0    0    0  0.00000000000E+00  0.00000000000E+00  0.45593999997E+02  0.45594000000E+02  0.51100000000E-03 0. -1.
         11   -1    0    0    0    0 -0.00000000000E+00 -0.00000000000E+00 -0.45593999997E+02  0.45594000000E+02  0.51100000000E-03 0.  1.
    9900012    2    1    2    0    0  0.21548521417E+02  0.31589367676E+02 -0.20527947706E+02  0.47787267720E+02  0.19999984842E+02 0.  0.
        -12    1    1    2    0    0 -0.21548521417E+02 -0.31589367676E+02  0.20527947706E+02  0.43400732280E+02  0.00000000000E+00 0.  1.
         11    1    3    3    0    0  0.92734239669E+01  0.93791143797E+01 -0.14309238265E+02  0.19460690600E+02  0.51100000000E-03 0. -1.
        -11    1    3    3    0    0  0.33987046052E+01  0.75005538496E-01 -0.24302455368E+01  0.41788649721E+01  0.51100000000E-03 0.  1.
         12    1    3    3    0    0  0.88763928453E+01  0.22135247758E+02 -0.37884639034E+01  0.24147712148E+02  0.00000000000E+00 0. -1.
</event>
<event>
 7    1  0.2756432E-009  0.4778726E+02  0.7816164E-02  0.1312668E+00
        -11   -1    0    0    0    0  0.00000000000E+00  0.00000000000E+00  0.45593999997E+02  0.45594000000E+02  0.51100000000E-03 0. -1.
         11   -1    0    0    0    0 -0.00000000000E+00 -0.00000000000E+00 -0.45593999997E+02  0.45594000000E+02  0.51100000000E-03 0.  1.
    9900012    2    1    2    0    0 -0.38903157179E+02  0.16511783039E+02 -0.98757086378E+01  0.47787259929E+02  0.19999949319E+02 0.  0.
        -12    1    1    2    0    0  0.38903157179E+02 -0.16511783039E+02  0.98757086378E+01  0.43400740071E+02  0.00000000000E+00 0.  1.
         11    1    3    3    0    0 -0.71979291038E+01  0.40829880543E+01  0.46638232021E+01  0.94990642674E+01  0.51100000000E-03 0. -1.
        -11    1    3    3    0    0 -0.23680862915E+02  0.13345657872E+02 -0.96377849953E+01  0.28840540084E+02  0.51100000000E-03 0.  1.
        -12    1    3    3    0    0 -0.80243651599E+01 -0.91686288749E+00 -0.49017468446E+01  0.94476555770E+01  0.00000000000E+00 0.  1.
</event>
<event>
 7    1  0.2756432E-009  0.4778727E+02  0.7816164E-02  0.1312668E+00
        -11   -1    0    0    0    0  0.00000000000E+00  0.00000000000E+00  0.45593999997E+02  0.45594000000E+02  0.51100000000E-03 0. -1.
         11   -1    0    0    0    0 -0.00000000000E+00 -0.00000000000E+00 -0.45593999997E+02  0.45594000000E+02  0.51100000000E-03 0.  1.
    9900012    2    1    2    0    0 -0.24390347206E+02  0.69180658080E+01  0.35226047660E+02  0.47787272989E+02  0.20000008864E+02 0.  0.
        -12    1    1    2    0    0  0.24390347206E+02 -0.69180658080E+01 -0.35226047660E+02  0.43400727011E+02  0.00000000000E+00 0.  1.
         11    1    3    3    0    0 -0.15590486498E+02 -0.36116741405E+01  0.17498849088E+02  0.23713227933E+02  0.51100000000E-03 0. -1.
        -11    1    3    3    0    0  0.62535298628E+00  0.38955157550E+01  0.82769472694E+01  0.91691856627E+01  0.51100000000E-03 0.  1.
         12    1    3    3    0    0 -0.94252136950E+01  0.66342241935E+01  0.94502513027E+01  0.14904859393E+02  0.00000000000E+00 0. -1.
</event>
<event>
 7    1  0.2756432E-009  0.4778725E+02  0.7816164E-02  0.1312668E+00
        -11   -1    0    0    0    0  0.00000000000E+00  0.00000000000E+00  0.45593999997E+02  0.45594000000E+02  0.51100000000E-03 0. -1.
         11   -1    0    0    0    0 -0.00000000000E+00 -0.00000000000E+00 -0.45593999997E+02  0.45594000000E+02  0.51100000000E-03 0.  1.
    9900012    2    1    2    0    0  0.16684868209E+02  0.37713808995E+02 -0.13524395328E+02  0.47787245571E+02  0.19999883855E+02 0.  0.
        -12    1    1    2    0    0 -0.16684868209E+02 -0.37713808995E+02  0.13524395328E+02  0.43400754429E+02  0.00000000000E+00 0.  1.
         11    1    3    3    0    0  0.43983253879E+01  0.14308952559E+02  0.42772876656E+01  0.15568769366E+02  0.51100000000E-03 0. -1.
        -11    1    3    3    0    0  0.95958977208E+01  0.13545086040E+02 -0.10227258089E+02  0.19497369494E+02  0.51100000000E-03 0.  1.
         12    1    3    3    0    0  0.26906451008E+01  0.98597703956E+01 -0.75744249045E+01  0.12721106711E+02  0.00000000000E+00 0. -1.
</event>
<event>
 7    1  0.2756432E-009  0.4778727E+02  0.7816164E-02  0.1312668E+00
        -11   -1    0    0    0    0  0.00000000000E+00  0.00000000000E+00  0.45593999997E+02  0.45594000000E+02  0.51100000000E-03 0.  1.
         11   -1    0    0    0    0 -0.00000000000E+00 -0.00000000000E+00 -0.45593999997E+02  0.45594000000E+02  0.51100000000E-03 0. -1.
    9900012    2    1    2    0    0 -0.10448321594E+02  0.23185302509E+02 -0.35169555631E+02  0.47787270515E+02  0.19999997588E+02 0.  0.
        -12    1    1    2    0    0  0.10448321594E+02 -0.23185302509E+02  0.35169555631E+02  0.43400729485E+02  0.00000000000E+00 0.  1.
         11    1    3    3    0    0 -0.81283621749E+01  0.17273749355E+02 -0.33111145495E+02  0.38220421828E+02  0.51100000000E-03 0. -1.
        -11    1    3    3    0    0 -0.29863653215E+01 -0.36405966512E+00 -0.98288164084E+00  0.31649603243E+01  0.51100000000E-03 0.  1.
         12    1    3    3    0    0  0.66640590252E+00  0.62756128183E+01 -0.10755284946E+01  0.64018883632E+01  0.00000000000E+00 0. -1.
</event>
<event>
 7    1  0.2756432E-009  0.4778727E+02  0.7816164E-02  0.1312668E+00
        -11   -1    0    0    0    0  0.00000000000E+00  0.00000000000E+00  0.45593999997E+02  0.45594000000E+02  0.51100000000E-03 0.  1.
         11   -1    0    0    0    0 -0.00000000000E+00 -0.00000000000E+00 -0.45593999997E+02  0.45594000000E+02  0.51100000000E-03 0. -1.
    9900012    2    1    2    0    0 -0.27652695953E+01  0.31886471696E+02 -0.29312616459E+02  0.47787271011E+02  0.19999999846E+02 0.  0.
        -12    1    1    2    0    0  0.27652695953E+01 -0.31886471696E+02  0.29312616459E+02  0.43400728989E+02  0.00000000000E+00 0.  1.
         11    1    3    3    0    0  0.63735442028E+01  0.70912981677E+01 -0.23785667000E+01  0.98268079871E+01  0.51100000000E-03 0. -1.
        -11    1    3    3    0    0 -0.55554069913E+01  0.13661033609E+02 -0.17828644746E+02  0.23137565988E+02  0.51100000000E-03 0.  1.
         12    1    3    3    0    0 -0.35834068068E+01  0.11134139919E+02 -0.91054050125E+01  0.14822897035E+02  0.00000000000E+00 0. -1.
</event>
<event>
 7    1  0.2756432E-009  0.4778727E+02  0.7816164E-02  0.1312668E+00
        -11   -1    0    0    0    0  0.00000000000E+00  0.00000000000E+00  0.45593999997E+02  0.45594000000E+02  0.51100000000E-03 0.  1.
         11   -1    0    0    0    0 -0.00000000000E+00 -0.00000000000E+00 -0.45593999997E+02  0.45594000000E+02  0.51100000000E-03 0. -1.
    9900012    2    1    2    0    0  0.51988596017E+00 -0.43362873553E+02  0.17361369084E+01  0.47787271255E+02  0.20000000960E+02 0.  0.
        -12    1    1    2    0    0 -0.51988596017E+00  0.43362873553E+02 -0.17361369084E+01  0.43400728745E+02  0.00000000000E+00 0.  1.
         11    1    3    3    0    0  0.41468301105E+00 -0.35425401293E+02  0.19174693664E+01  0.35479680210E+02  0.51100000000E-03 0. -1.
        -11    1    3    3    0    0  0.73537231305E+00  0.16910798236E+01  0.16636954782E+01  0.24836276520E+01  0.51100000000E-03 0.  1.
        -12    1    3    3    0    0 -0.63016936393E+00 -0.96285520839E+01 -0.18450279362E+01  0.98239633929E+01  0.00000000000E+00 0.  1.
</event>
<event>
 7    1  0.2756432E-009  0.4778727E+02  0.7816164E-02  0.1312668E+00
        -11   -1    0    0    0    0  0.00000000000E+00  0.00000000000E+00  0.45593999997E+02  0.45594000000E+02  0.51100000000E-03 0.  1.
         11   -1    0    0    0    0 -0.00000000000E+00 -0.00000000000E+00 -0.45593999997E+02  0.45594000000E+02  0.51100000000E-03 0. -1.
    9900012    2    1    2    0    0  0.60054979891E+01  0.33568562759E-01 -0.42983204840E+02  0.47787273839E+02  0.20000012743E+02 0.  0.
        -12    1    1    2    0    0 -0.60054979891E+01 -0.33568562759E-01  0.42983204840E+02  0.43400726161E+02  0.00000000000E+00 0.  1.
         11    1    3    3    0    0 -0.35554635029E+01  0.56060829542E+01 -0.95840140339E+01  0.11658593915E+02  0.51100000000E-03 0. -1.
        -11    1    3    3    0    0  0.76154109485E+01 -0.42310195773E+01 -0.13352584845E+02  0.15943259795E+02  0.51100000000E-03 0.  1.
         12    1    3    3    0    0  0.19455505436E+01 -0.13414948141E+01 -0.20046605961E+02  0.20185420129E+02  0.00000000000E+00 0. -1.
</event>
<event>
 7    1  0.2756432E-009  0.4778727E+02  0.7816164E-02  0.1312668E+00
        -11   -1    0    0    0    0  0.00000000000E+00  0.00000000000E+00  0.45593999997E+02  0.45594000000E+02  0.51100000000E-03 0.  1.
         11   -1    0    0    0    0 -0.00000000000E+00 -0.00000000000E+00 -0.45593999997E+02  0.45594000000E+02  0.51100000000E-03 0. -1.
    9900012    2    1    2    0    0 -0.11180668975E+02 -0.15436007071E+02 -0.38991611697E+02  0.47787268949E+02  0.19999990447E+02 0.  0.
        -12    1    1    2    0    0  0.11180668975E+02  0.15436007071E+02  0.38991611697E+02  0.43400731051E+02  0.00000000000E+00 0.  1.
         11    1    3    3    0    0  0.61958642823E+00 -0.39299049723E+01 -0.48093449497E+01  0.62416215473E+01  0.51100000000E-03 0. -1.
        -11    1    3    3    0    0 -0.50845184583E+01 -0.15130316111E+02 -0.23930795279E+02  0.28765634993E+02  0.51100000000E-03 0.  1.
        -12    1    3    3    0    0 -0.67157369453E+01  0.36242140126E+01 -0.10251471468E+02  0.12780012409E+02  0.00000000000E+00 0.  1.
</event>
<event>
 7    1  0.2756432E-009  0.4778727E+02  0.7816164E-02  0.1312668E+00
        -11   -1    0    0    0    0  0.00000000000E+00  0.00000000000E+00  0.45593999997E+02  0.45594000000E+02  0.51100000000E-03 0. -1.
         11   -1    0    0    0    0 -0.00000000000E+00 -0.00000000000E+00 -0.45593999997E+02  0.45594000000E+02  0.51100000000E-03 0.  1.
    9900012    2    1    2    0    0 -0.34557852640E+02 -0.24295205164E+02  0.99559593595E+01  0.47787270746E+02  0.19999998639E+02 0.  0.
        -12    1    1    2    0    0  0.34557852640E+02  0.24295205164E+02 -0.99559593595E+01  0.43400729254E+02  0.00000000000E+00 0.  1.
         11    1    3    3    0    0 -0.16653323464E+02 -0.20640775031E+02  0.40861357199E+00  0.26524361285E+02  0.51100000000E-03 0. -1.
        -11    1    3    3    0    0 -0.12042403282E+02 -0.79530239337E+00  0.82335516108E+01  0.14609700719E+02  0.51100000000E-03 0.  1.
         12    1    3    3    0    0 -0.58621258938E+01 -0.28591277394E+01  0.13137941767E+01  0.66532087419E+01  0.00000000000E+00 0. -1.
</event>
<event>
 7    1  0.2756432E-009  0.4778727E+02  0.7816164E-02  0.1312668E+00
        -11   -1    0    0    0    0  0.00000000000E+00  0.00000000000E+00  0.45593999997E+02  0.45594000000E+02  0.51100000000E-03 0.  1.
         11   -1    0    0    0    0 -0.00000000000E+00 -0.00000000000E+00 -0.45593999997E+02  0.45594000000E+02  0.51100000000E-03 0. -1.
    9900012    2    1    2    0    0 -0.42544855766E+02 -0.41860936759E+00 -0.85664056090E+01  0.47787270847E+02  0.19999999099E+02 0.  0.
        -12    1    1    2    0    0  0.42544855766E+02  0.41860936759E+00  0.85664056090E+01  0.43400729153E+02  0.00000000000E+00 0.  1.
         11    1    3    3    0    0 -0.11799369164E+02 -0.80690073602E+01 -0.62051920100E+01  0.15583273102E+02  0.51100000000E-03 0. -1.
        -11    1    3    3    0    0 -0.28017598325E+02  0.57842639316E+01 -0.98958256823E+00  0.28625561987E+02  0.51100000000E-03 0.  1.
         12    1    3    3    0    0 -0.27278882774E+01  0.18661340610E+01 -0.13716310307E+01  0.35784357577E+01  0.00000000000E+00 0. -1.
</event>
<event>
 7    1  0.2756432E-009  0.4778727E+02  0.7816164E-02  0.1312668E+00
        -11   -1    0    0    0    0  0.00000000000E+00  0.00000000000E+00  0.45593999997E+02  0.45594000000E+02  0.51100000000E-03 0. -1.
         11   -1    0    0    0    0 -0.00000000000E+00 -0.00000000000E+00 -0.45593999997E+02  0.45594000000E+02  0.51100000000E-03 0.  1.
    9900012    2    1    2    0    0  0.91944552913E+01  0.42099714112E+02  0.51671808533E+01  0.47787266200E+02  0.19999977912E+02 0.  0.
        -12    1    1    2    0    0 -0.91944552913E+01 -0.42099714112E+02 -0.51671808533E+01  0.43400733800E+02  0.00000000000E+00 0.  1.
         11    1    3    3    0    0  0.64253509759E+01  0.11876460582E+02  0.93436923241E+01  0.16420719766E+02  0.51100000000E-03 0. -1.
        -11    1    3    3    0    0  0.48773431919E+01  0.24236733764E+02 -0.28946726273E+01  0.24891501965E+02  0.51100000000E-03 0.  1.
         12    1    3    3    0    0 -0.21082388765E+01  0.59865197655E+01 -0.12818388434E+01  0.64750444696E+01  0.00000000000E+00 0. -1.
</event>
<event>
 7    1  0.2756432E-009  0.4778730E+02  0.7816164E-02  0.1312668E+00
        -11   -1    0    0    0    0  0.00000000000E+00  0.00000000000E+00  0.45593999997E+02  0.45594000000E+02  0.51100000000E-03 0. -1.
         11   -1    0    0    0    0 -0.00000000000E+00 -0.00000000000E+00 -0.45593999997E+02  0.45594000000E+02  0.51100000000E-03 0.  1.
    9900012    2    1    2    0    0  0.16093003324E+01  0.43338466268E+02  0.16759004358E+01  0.47787295532E+02  0.20000111649E+02 0.  0.
        -12    1    1    2    0    0 -0.16093003324E+01 -0.43338466268E+02 -0.16759004358E+01  0.43400704468E+02  0.00000000000E+00 0.  1.
         11    1    3    3    0    0 -0.66740197553E+01  0.11324105984E+02  0.38141197260E+01  0.13686687897E+02  0.51100000000E-03 0. -1.
        -11    1    3    3    0    0 -0.10644784492E+01  0.50355190793E+01 -0.20717741774E+01  0.55481361979E+01  0.51100000000E-03 0.  1.
         12    1    3    3    0    0  0.93477985369E+01  0.26978841205E+02 -0.66445112818E-01  0.28552471438E+02  0.00000000000E+00 0. -1.
</event>
<event>
 7    1  0.2756432E-009  0.4778727E+02  0.7816164E-02  0.1312668E+00
        -11   -1    0    0    0    0  0.00000000000E+00  0.00000000000E+00  0.45593999997E+02  0.45594000000E+02  0.51100000000E-03 0. -1.
         11   -1    0    0    0    0 -0.00000000000E+00 -0.00000000000E+00 -0.45593999997E+02  0.45594000000E+02  0.51100000000E-03 0.  1.
    9900012    2    1    2    0    0  0.24248016389E+02  0.35995157216E+02 -0.74697820265E-01  0.47787271647E+02  0.20000002748E+02 0.  0.
        -12    1    1    2    0    0 -0.24248016389E+02 -0.35995157216E+02  0.74697820265E-01  0.43400728353E+02  0.00000000000E+00 0.  1.
         11    1    3    3    0    0  0.40308222977E+01  0.11455534336E+02  0.58625840247E-02  0.12144003868E+02  0.51100000000E-03 0. -1.
        -11    1    3    3    0    0  0.12131298769E+02  0.36865195354E+01  0.30994928566E+01  0.13052420938E+02  0.51100000000E-03 0.  1.
        -12    1    3    3    0    0  0.80858953223E+01  0.20853103344E+02 -0.31800532609E+01  0.22590846841E+02  0.00000000000E+00 0.  1.
</event>
<event>
 7    1  0.2756432E-009  0.4778728E+02  0.7816164E-02  0.1312668E+00
        -11   -1    0    0    0    0  0.00000000000E+00  0.00000000000E+00  0.45593999997E+02  0.45594000000E+02  0.51100000000E-03 0.  1.
         11   -1    0    0    0    0 -0.00000000000E+00 -0.00000000000E+00 -0.45593999997E+02  0.45594000000E+02  0.51100000000E-03 0. -1.
    9900012    2    1    2    0    0 -0.27324089288E+02  0.91271115415E+01 -0.32460939123E+02  0.47787278932E+02  0.20000035962E+02 0.  0.
        -12    1    1    2    0    0  0.27324089288E+02 -0.91271115415E+01  0.32460939123E+02  0.43400721068E+02  0.00000000000E+00 0.  1.
         11    1    3    3    0    0 -0.42317541550E+01  0.41711871004E+01 -0.12063267969E+02  0.13447266615E+02  0.51100000000E-03 0. -1.
        -11    1    3    3    0    0 -0.46673270117E+01  0.45639404301E+01  0.41453086324E+00  0.65410495932E+01  0.51100000000E-03 0.  1.
        -12    1    3    3    0    0 -0.18425008121E+02  0.39198401106E+00 -0.20812202017E+02  0.27798962724E+02  0.00000000000E+00 0.  1.
</event>
<event>
 7    1  0.2756432E-009  0.4778728E+02  0.7816164E-02  0.1312668E+00
        -11   -1    0    0    0    0  0.00000000000E+00  0.00000000000E+00  0.45593999997E+02  0.45594000000E+02  0.51100000000E-03 0.  1.
         11   -1    0    0    0    0 -0.00000000000E+00 -0.00000000000E+00 -0.45593999997E+02  0.45594000000E+02  0.51100000000E-03 0. -1.
    9900012    2    1    2    0    0 -0.32244108096E+02  0.57964394188E+01 -0.28466501198E+02  0.47787275267E+02  0.20000019254E+02 0.  0.
        -12    1    1    2    0    0  0.32244108096E+02 -0.57964394188E+01  0.28466501198E+02  0.43400724733E+02  0.00000000000E+00 0.  1.
         11    1    3    3    0    0 -0.30064476254E+01  0.56540198621E+01 -0.66728901975E+01  0.92484664552E+01  0.51100000000E-03 0. -1.
        -11    1    3    3    0    0 -0.22214063094E+02 -0.15549685052E+00 -0.22317963609E+02  0.31489367703E+02  0.51100000000E-03 0.  1.
        -12    1    3    3    0    0 -0.70235973766E+01  0.29791640725E+00  0.52435260820E+00  0.70494411092E+01  0.00000000000E+00 0.  1.
</event>
<event>
 7    1  0.2756432E-009  0.4778727E+02  0.7816164E-02  0.1312668E+00
        -11   -1    0    0    0    0  0.00000000000E+00  0.00000000000E+00  0.45593999997E+02  0.45594000000E+02  0.51100000000E-03 0.  1.
         11   -1    0    0    0    0 -0.00000000000E+00 -0.00000000000E+00 -0.45593999997E+02  0.45594000000E+02  0.51100000000E-03 0. -1.
    9900012    2    1    2    0    0 -0.40134400976E+02  0.90511635842E+01 -0.13817723888E+02  0.47787271925E+02  0.20000004017E+02 0.  0.
        -12    1    1    2    0    0  0.40134400976E+02 -0.90511635842E+01  0.13817723888E+02  0.43400728075E+02  0.00000000000E+00 0.  1.
         11    1    3    3    0    0 -0.26656249509E+02 -0.11319797284E+00 -0.11035704652E+02  0.28850567223E+02  0.51100000000E-03 0. -1.
        -11    1    3    3    0    0 -0.98648469829E+00  0.40667535284E+01  0.19796624741E+01  0.46293304152E+01  0.51100000000E-03 0.  1.
        -12    1    3    3    0    0 -0.12491666769E+02  0.50976080286E+01 -0.47616817108E+01  0.14307374287E+02  0.00000000000E+00 0.  1.
</event>
<event>
 7    1  0.2756432E-009  0.4778729E+02  0.7816164E-02  0.1312668E+00
        -11   -1    0    0    0    0  0.00000000000E+00  0.00000000000E+00  0.45593999997E+02  0.45594000000E+02  0.51100000000E-03 0.  1.
         11   -1    0    0    0    0 -0.00000000000E+00 -0.00000000000E+00 -0.45593999997E+02  0.45594000000E+02  0.51100000000E-03 0. -1.
    9900012    2    1    2    0    0 -0.83198638315E+01 -0.40878980791E+02  0.11971227787E+02  0.47787291487E+02  0.20000093207E+02 0.  0.
        -12    1    1    2    0    0  0.83198638315E+01  0.40878980791E+02 -0.11971227787E+02  0.43400708513E+02  0.00000000000E+00 0.  1.
         11    1    3    3    0    0 -0.28613440212E+00 -0.67861128704E+01 -0.11217057031E+01  0.68841429918E+01  0.51100000000E-03 0. -1.
        -11    1    3    3    0    0 -0.66615706607E+00 -0.25831454843E+02  0.31637170991E+01  0.26032996959E+02  0.51100000000E-03 0.  1.
        -12    1    3    3    0    0 -0.73675723633E+01 -0.82614130776E+01  0.99292163913E+01  0.14870151536E+02  0.00000000000E+00 0.  1.
</event>
<event>
 7    1  0.2756432E-009  0.4778728E+02  0.7816164E-02  0.1312668E+00
        -11   -1    0    0    0    0  0.00000000000E+00  0.00000000000E+00  0.45593999997E+02  0.45594000000E+02  0.51100000000E-03 0. -1.
         11   -1    0    0    0    0 -0.00000000000E+00 -0.00000000000E+00 -0.45593999997E+02  0.45594000000E+02  0.51100000000E-03 0.  1.
    9900012    2    1    2    0    0  0.12628155343E+02  0.10594274028E+02  0.40148646949E+02  0.47787276487E+02  0.20000024816E+02 0.  0.
        -12    1    1    2    0    0 -0.12628155343E+02 -0.10594274028E+02 -0.40148646949E+02  0.43400723513E+02  0.00000000000E+00 0.  1.
         11    1    3    3    0    0  0.10421716424E+02 -0.61910815309E+00  0.92217304335E+01  0.13929672666E+02  0.51100000000E-03 0.  1.
        -11    1    3    3    0    0  0.54263549684E+00  0.85450946756E+01  0.28838498765E+02  0.30082754322E+02  0.51100000000E-03 0. -1.
         12    1    3    3    0    0  0.16638034227E+01  0.26682875058E+01  0.20884177507E+01  0.37748494996E+01  0.00000000000E+00 0. -1.
</event>
<event>
 7    1  0.2756432E-009  0.4778727E+02  0.7816164E-02  0.1312668E+00
        -11   -1    0    0    0    0  0.00000000000E+00  0.00000000000E+00  0.45593999997E+02  0.45594000000E+02  0.51100000000E-03 0.  1.
         11   -1    0    0    0    0 -0.00000000000E+00 -0.00000000000E+00 -0.45593999997E+02  0.45594000000E+02  0.51100000000E-03 0. -1.
    9900012    2    1    2    0    0  0.95914835703E+00 -0.42212695247E+02  0.10039531141E+02  0.47787265085E+02  0.19999972830E+02 0.  0.
        -12    1    1    2    0    0 -0.95914835703E+00  0.42212695247E+02 -0.10039531141E+02  0.43400734915E+02  0.00000000000E+00 0.  1.
         11    1    3    3    0    0 -0.62848515875E+01 -0.93411143958E+01 -0.11126932330E+01  0.11313437326E+02  0.51100000000E-03 0. -1.
        -11    1    3    3    0    0  0.78559883600E+01 -0.25957392384E+02  0.58619980975E+01  0.27746455530E+02  0.51100000000E-03 0.  1.
        -12    1    3    3    0    0 -0.61198841551E+00 -0.69141884671E+01  0.52902262765E+01  0.87273722297E+01  0.00000000000E+00 0.  1.
</event>
<event>
 7    1  0.2756432E-009  0.4778727E+02  0.7816164E-02  0.1312668E+00
        -11   -1    0    0    0    0  0.00000000000E+00  0.00000000000E+00  0.45593999997E+02  0.45594000000E+02  0.51100000000E-03 0.  1.
         11   -1    0    0    0    0 -0.00000000000E+00 -0.00000000000E+00 -0.45593999997E+02  0.45594000000E+02  0.51100000000E-03 0. -1.
    9900012    2    1    2    0    0 -0.42024516875E+02  0.22461770673E+01 -0.10607434930E+02  0.47787274133E+02  0.20000014080E+02 0.  0.
        -12    1    1    2    0    0  0.42024516875E+02 -0.22461770673E+01  0.10607434930E+02  0.43400725867E+02  0.00000000000E+00 0.  1.
         11    1    3    3    0    0  0.15207846660E-01  0.20158246791E+01 -0.19065446230E+01  0.27746518837E+01  0.51100000000E-03 0.  1.
        -11    1    3    3    0    0 -0.35655966706E+02  0.41650108116E+01 -0.10296416981E+02  0.37345836176E+02  0.51100000000E-03 0. -1.
        -12    1    3    3    0    0 -0.63837580165E+01 -0.39346584233E+01  0.15955266741E+01  0.76667860730E+01  0.00000000000E+00 0.  1.
</event>
<event>
 7    1  0.2756432E-009  0.4778727E+02  0.7816164E-02  0.1312668E+00
        -11   -1    0    0    0    0  0.00000000000E+00  0.00000000000E+00  0.45593999997E+02  0.45594000000E+02  0.51100000000E-03 0.  1.
         11   -1    0    0    0    0 -0.00000000000E+00 -0.00000000000E+00 -0.45593999997E+02  0.45594000000E+02  0.51100000000E-03 0. -1.
    9900012    2    1    2    0    0  0.24016479489E+02  0.35150055296E+02 -0.84442684525E+01  0.47787270236E+02  0.19999996314E+02 0.  0.
        -12    1    1    2    0    0 -0.24016479489E+02 -0.35150055296E+02  0.84442684525E+01  0.43400729764E+02  0.00000000000E+00 0.  1.
         11    1    3    3    0    0  0.20707649146E+02  0.26176985571E+02  0.18975561678E+01  0.33431153531E+02  0.51100000000E-03 0. -1.
        -11    1    3    3    0    0 -0.24362555521E+00  0.28407402058E+01 -0.33763796896E+01  0.44191739497E+01  0.51100000000E-03 0.  1.
         12    1    3    3    0    0  0.35524558988E+01  0.61323295187E+01 -0.69654449307E+01  0.99369427552E+01  0.00000000000E+00 0. -1.
</event>
<event>
 7    1  0.2756432E-009  0.4778727E+02  0.7816164E-02  0.1312668E+00
        -11   -1    0    0    0    0  0.00000000000E+00  0.00000000000E+00  0.45593999997E+02  0.45594000000E+02  0.51100000000E-03 0.  1.
         11   -1    0    0    0    0 -0.00000000000E+00 -0.00000000000E+00 -0.45593999997E+02  0.45594000000E+02  0.51100000000E-03 0. -1.
    9900012    2    1    2    0    0  0.55448508441E+01 -0.15545366137E+02 -0.40139996161E+02  0.47787273381E+02  0.20000010654E+02 0.  0.
        -12    1    1    2    0    0 -0.55448508441E+01  0.15545366137E+02  0.40139996161E+02  0.43400726619E+02  0.00000000000E+00 0.  1.
         11    1    3    3    0    0  0.10585216703E+02 -0.23599380375E+01 -0.14370999796E+02  0.18003937225E+02  0.51100000000E-03 0. -1.
        -11    1    3    3    0    0 -0.36475422560E+01 -0.11661795843E+02 -0.18077760787E+02  0.21819887308E+02  0.51100000000E-03 0.  1.
         12    1    3    3    0    0 -0.13928236031E+01 -0.15236322566E+01 -0.76912355786E+01  0.79634488488E+01  0.00000000000E+00 0. -1.
</event>
<event>
 7    1  0.2756432E-009  0.4778727E+02  0.7816164E-02  0.1312668E+00
        -11   -1    0    0    0    0  0.00000000000E+00  0.00000000000E+00  0.45593999997E+02  0.45594000000E+02  0.51100000000E-03 0.  1.
         11   -1    0    0    0    0 -0.00000000000E+00 -0.00000000000E+00 -0.45593999997E+02  0.45594000000E+02  0.51100000000E-03 0. -1.
    9900012    2    1    2    0    0  0.12502067601E+02 -0.32877279131E+02 -0.25424520969E+02  0.47787269086E+02  0.19999991072E+02 0.  0.
        -12    1    1    2    0    0 -0.12502067601E+02  0.32877279131E+02  0.25424520969E+02  0.43400730914E+02  0.00000000000E+00 0.  1.
         11    1    3    3    0    0  0.11886534419E+02 -0.25675113489E+02 -0.10569162960E+02  0.30202787274E+02  0.51100000000E-03 0. -1.
        -11    1    3    3    0    0  0.18416197649E+01 -0.13843285052E+01 -0.88061332700E+01  0.91025222987E+01  0.51100000000E-03 0.  1.
         12    1    3    3    0    0 -0.12260865825E+01 -0.58178371365E+01 -0.60492247389E+01  0.84819595140E+01  0.00000000000E+00 0. -1.
</event>
<event>
 7    1  0.2810526E-009  0.4778727E+02  0.7816164E-02  0.1312668E+00
        -11   -1    0    0    0    0  0.00000000000E+00  0.00000000000E+00  0.45593999997E+02  0.45594000000E+02  0.51100000000E-03 0.  1.
         11   -1    0    0    0    0 -0.00000000000E+00 -0.00000000000E+00 -0.45593999997E+02  0.45594000000E+02  0.51100000000E-03 0. -1.
    9900012    2    1    2    0    0 -0.40614975048E+02  0.10198360986E+02  0.11403520729E+02  0.47787273624E+02  0.20000011761E+02 0.  0.
        -12    1    1    2    0    0  0.40614975048E+02 -0.10198360986E+02 -0.11403520729E+02  0.43400726376E+02  0.00000000000E+00 0.  1.
         11    1    3    3    0    0 -0.28992506931E+02  0.75559679051E+01  0.13645213274E+02  0.32921876536E+02  0.51100000000E-03 0. -1.
        -11    1    3    3    0    0 -0.35562679479E+01 -0.30000797923E+01 -0.18703760516E+01  0.50145615275E+01  0.51100000000E-03 0.  1.
        -12    1    3    3    0    0 -0.80662001696E+01  0.56424728732E+01 -0.37131649328E+00  0.98508355604E+01  0.00000000000E+00 0.  1.
</event>
<event>
 7    1  0.2756432E-009  0.4778727E+02  0.7816164E-02  0.1312668E+00
        -11   -1    0    0    0    0  0.00000000000E+00  0.00000000000E+00  0.45593999997E+02  0.45594000000E+02  0.51100000000E-03 0.  1.
         11   -1    0    0    0    0 -0.00000000000E+00 -0.00000000000E+00 -0.45593999997E+02  0.45594000000E+02  0.51100000000E-03 0. -1.
    9900012    2    1    2    0    0 -0.17050138000E+02 -0.16594015619E+02 -0.36298134831E+02  0.47787272444E+02  0.20000006383E+02 0.  0.
        -12    1    1    2    0    0  0.17050138000E+02  0.16594015619E+02  0.36298134831E+02  0.43400727556E+02  0.00000000000E+00 0.  1.
         11    1    3    3    0    0 -0.10460953878E+02 -0.55789512595E+01 -0.18242173930E+02  0.21756221252E+02  0.51100000000E-03 0. -1.
        -11    1    3    3    0    0  0.11828470254E+01 -0.10849826488E+02 -0.94835247813E+01  0.14458737996E+02  0.51100000000E-03 0.  1.
        -12    1    3    3    0    0 -0.77720311473E+01 -0.16523787228E+00 -0.85724361190E+01  0.11572313197E+02  0.00000000000E+00 0.  1.
</event>
<event>
 7    1  0.2756432E-009  0.4778727E+02  0.7816164E-02  0.1312668E+00
        -11   -1    0    0    0    0  0.00000000000E+00  0.00000000000E+00  0.45593999997E+02  0.45594000000E+02  0.51100000000E-03 0. -1.
         11   -1    0    0    0    0 -0.00000000000E+00 -0.00000000000E+00 -0.45593999997E+02  0.45594000000E+02  0.51100000000E-03 0.  1.
    9900012    2    1    2    0    0 -0.27399714945E+02  0.15704726428E+02  0.29769790200E+02  0.47787271667E+02  0.20000002841E+02 0.  0.
        -12    1    1    2    0    0  0.27399714945E+02 -0.15704726428E+02 -0.29769790200E+02  0.43400728333E+02  0.00000000000E+00 0.  1.
         11    1    3    3    0    0 -0.10697014427E+02  0.12163910796E+02  0.42645020255E+01  0.16750308095E+02  0.51100000000E-03 0. -1.
        -11    1    3    3    0    0  0.26289429611E+00  0.30667822583E+00  0.75680192048E+00  0.85785450578E+00  0.51100000000E-03 0.  1.
         12    1    3    3    0    0 -0.16965594814E+02  0.32341374058E+01  0.24748486254E+02  0.30179109066E+02  0.00000000000E+00 0. -1.
</event>
<event>
 7    1  0.2756432E-009  0.4778727E+02  0.7816164E-02  0.1312668E+00
        -11   -1    0    0    0    0  0.00000000000E+00  0.00000000000E+00  0.45593999997E+02  0.45594000000E+02  0.51100000000E-03 0.  1.
         11   -1    0    0    0    0 -0.00000000000E+00 -0.00000000000E+00 -0.45593999997E+02  0.45594000000E+02  0.51100000000E-03 0. -1.
    9900012    2    1    2    0    0  0.26698347840E+02  0.36770766471E+01 -0.34019127030E+02  0.47787266436E+02  0.19999978987E+02 0.  0.
        -12    1    1    2    0    0 -0.26698347840E+02 -0.36770766471E+01  0.34019127030E+02  0.43400733564E+02  0.00000000000E+00 0.  1.
         11    1    3    3    0    0  0.46221945803E+01  0.34856828026E+01 -0.57715306767E+01  0.81746702656E+01  0.51100000000E-03 0. -1.
        -11    1    3    3    0    0  0.28102904325E+01 -0.67185663321E+01 -0.80985302075E+01  0.10891421287E+02  0.51100000000E-03 0.  1.
        -12    1    3    3    0    0  0.19265862827E+02  0.69099601766E+01 -0.20149066145E+02  0.28721174883E+02  0.00000000000E+00 0.  1.
</event>
<event>
 7    1  0.2756432E-009  0.4778728E+02  0.7816164E-02  0.1312668E+00
        -11   -1    0    0    0    0  0.00000000000E+00  0.00000000000E+00  0.45593999997E+02  0.45594000000E+02  0.51100000000E-03 0. -1.
         11   -1    0    0    0    0 -0.00000000000E+00 -0.00000000000E+00 -0.45593999997E+02  0.45594000000E+02  0.51100000000E-03 0.  1.
    9900012    2    1    2    0    0  0.13820765804E+02 -0.39924273972E+02  0.99328376671E+01  0.47787280148E+02  0.20000041505E+02 0.  0.
        -12    1    1    2    0    0 -0.13820765804E+02  0.39924273972E+02 -0.99328376671E+01  0.43400719852E+02  0.00000000000E+00 0.  1.
         11    1    3    3    0    0  0.10360504062E+02 -0.15229151448E+02  0.84052782946E+01  0.20246377496E+02  0.51100000000E-03 0.  1.
        -11    1    3    3    0    0 -0.20706723652E+00 -0.20670147132E+02 -0.24242633908E+01  0.20812854503E+02  0.51100000000E-03 0. -1.
         12    1    3    3    0    0  0.36673289776E+01 -0.40249753922E+01  0.39518227633E+01  0.67280481486E+01  0.00000000000E+00 0. -1.
</event>
<event>
 7    1  0.2756432E-009  0.4778728E+02  0.7816164E-02  0.1312668E+00
        -11   -1    0    0    0    0  0.00000000000E+00  0.00000000000E+00  0.45593999997E+02  0.45594000000E+02  0.51100000000E-03 0.  1.
         11   -1    0    0    0    0 -0.00000000000E+00 -0.00000000000E+00 -0.45593999997E+02  0.45594000000E+02  0.51100000000E-03 0. -1.
    9900012    2    1    2    0    0  0.40300270252E+01 -0.28270858919E+02 -0.32682409329E+02  0.47787280405E+02  0.20000042677E+02 0.  0.
        -12    1    1    2    0    0 -0.40300270252E+01  0.28270858919E+02  0.32682409329E+02  0.43400719595E+02  0.00000000000E+00 0.  1.
         11    1    3    3    0    0  0.17010730645E+01 -0.13345959494E+02 -0.26757686951E+02  0.29949659357E+02  0.51100000000E-03 0. -1.
        -11    1    3    3    0    0  0.13110400308E+01 -0.26957394691E+01  0.16449217115E+01  0.34192988968E+01  0.51100000000E-03 0.  1.
         12    1    3    3    0    0  0.10179139299E+01 -0.12229159956E+02 -0.75696440899E+01  0.14418322151E+02  0.00000000000E+00 0. -1.
</event>
<event>
 7    1  0.2756432E-009  0.4778727E+02  0.7816164E-02  0.1312668E+00
        -11   -1    0    0    0    0  0.00000000000E+00  0.00000000000E+00  0.45593999997E+02  0.45594000000E+02  0.51100000000E-03 0. -1.
         11   -1    0    0    0    0 -0.00000000000E+00 -0.00000000000E+00 -0.45593999997E+02  0.45594000000E+02  0.51100000000E-03 0.  1.
    9900012    2    1    2    0    0  0.21070437632E+02 -0.34877174841E+02  0.14941305120E+02  0.47787271140E+02  0.20000000435E+02 0.  0.
        -12    1    1    2    0    0 -0.21070437632E+02  0.34877174841E+02 -0.14941305120E+02  0.43400728860E+02  0.00000000000E+00 0.  1.
         11    1    3    3    0    0  0.85936004277E+01 -0.11781421795E+02  0.10552642774E+02  0.18000281598E+02  0.51100000000E-03 0. -1.
        -11    1    3    3    0    0  0.49036296959E+01 -0.19824442142E+02 -0.44059521690E-01  0.20421949758E+02  0.51100000000E-03 0.  1.
        -12    1    3    3    0    0  0.75732075084E+01 -0.32713109045E+01  0.44327218673E+01  0.93650397838E+01  0.00000000000E+00 0.  1.
</event>
<event>
 7    1  0.2756432E-009  0.4778727E+02  0.7816164E-02  0.1312668E+00
        -11   -1    0    0    0    0  0.00000000000E+00  0.00000000000E+00  0.45593999997E+02  0.45594000000E+02  0.51100000000E-03 0. -1.
         11   -1    0    0    0    0 -0.00000000000E+00 -0.00000000000E+00 -0.45593999997E+02  0.45594000000E+02  0.51100000000E-03 0.  1.
    9900012    2    1    2    0    0 -0.29894197313E+02  0.28636501370E+02  0.13034997093E+02  0.47787269673E+02  0.19999993747E+02 0.  0.
        -12    1    1    2    0    0  0.29894197313E+02 -0.28636501370E+02 -0.13034997093E+02  0.43400730327E+02  0.00000000000E+00 0.  1.
         11    1    3    3    0    0 -0.10808004445E+02  0.12345000425E+02 -0.45974843575E+00  0.16414120886E+02  0.51100000000E-03 0. -1.
        -11    1    3    3    0    0 -0.19426745429E+01  0.80526482731E+01  0.81389645305E+01  0.11613004455E+02  0.51100000000E-03 0.  1.
        -12    1    3    3    0    0 -0.17143518325E+02  0.82388526724E+01  0.53557809983E+01  0.19760144332E+02  0.00000000000E+00 0.  1.
</event>
<event>
 7    1  0.2756432E-009  0.4778727E+02  0.7816164E-02  0.1312668E+00
        -11   -1    0    0    0    0  0.00000000000E+00  0.00000000000E+00  0.45593999997E+02  0.45594000000E+02  0.51100000000E-03 0. -1.
         11   -1    0    0    0    0 -0.00000000000E+00 -0.00000000000E+00 -0.45593999997E+02  0.45594000000E+02  0.51100000000E-03 0.  1.
    9900012    2    1    2    0    0  0.38862031751E+02 -0.47684769352E+01  0.18725056852E+02  0.47787266847E+02  0.19999980861E+02 0.  0.
        -12    1    1    2    0    0 -0.38862031751E+02  0.47684769352E+01 -0.18725056852E+02  0.43400733153E+02  0.00000000000E+00 0.  1.
         11    1    3    3    0    0  0.11521261846E+02  0.42130481150E+01  0.61782520296E+01  0.13735357561E+02  0.51100000000E-03 0. -1.
        -11    1    3    3    0    0  0.24231827500E+02 -0.10790698713E+02  0.69881059129E+01  0.27430899862E+02  0.51100000000E-03 0.  1.
        -12    1    3    3    0    0  0.31089424053E+01  0.18091736625E+01  0.55586989097E+01  0.66210094238E+01  0.00000000000E+00 0.  1.
</event>
<event>
 7    1  0.2756432E-009  0.4778727E+02  0.7816164E-02  0.1312668E+00
        -11   -1    0    0    0    0  0.00000000000E+00  0.00000000000E+00  0.45593999997E+02  0.45594000000E+02  0.51100000000E-03 0.  1.
         11   -1    0    0    0    0 -0.00000000000E+00 -0.00000000000E+00 -0.45593999997E+02  0.45594000000E+02  0.51100000000E-03 0. -1.
    9900012    2    1    2    0    0 -0.37272330126E+02  0.10393939863E+02 -0.19656105545E+02  0.47787273461E+02  0.20000011019E+02 0.  0.
        -12    1    1    2    0    0  0.37272330126E+02 -0.10393939863E+02  0.19656105545E+02  0.43400726539E+02  0.00000000000E+00 0.  1.
         11    1    3    3    0    0 -0.93896736229E+01  0.59741138512E+01 -0.14354635742E+02  0.18163468133E+02  0.51100000000E-03 0. -1.
        -11    1    3    3    0    0 -0.23111483037E+02  0.99161757944E+00 -0.30538329336E+01  0.23333449154E+02  0.51100000000E-03 0.  1.
        -12    1    3    3    0    0 -0.47711734658E+01  0.34282084325E+01 -0.22476368695E+01  0.62903561739E+01  0.00000000000E+00 0.  1.
</event>
<event>
 7    1  0.2756432E-009  0.4778726E+02  0.7816164E-02  0.1312668E+00
        -11   -1    0    0    0    0  0.00000000000E+00  0.00000000000E+00  0.45593999997E+02  0.45594000000E+02  0.51100000000E-03 0. -1.
         11   -1    0    0    0    0 -0.00000000000E+00 -0.00000000000E+00 -0.45593999997E+02  0.45594000000E+02  0.51100000000E-03 0.  1.
    9900012    2    1    2    0    0 -0.36022732086E+02  0.14369966041E+02  0.19480526929E+02  0.47787261753E+02  0.19999957636E+02 0.  0.
        -12    1    1    2    0    0  0.36022732086E+02 -0.14369966041E+02 -0.19480526929E+02  0.43400738247E+02  0.00000000000E+00 0.  1.
         11    1    3    3    0    0 -0.34236986256E+02  0.12530007548E+02  0.20695697132E+02  0.41922359154E+02  0.51100000000E-03 0. -1.
        -11    1    3    3    0    0 -0.97989664928E+00  0.29298294961E+01 -0.25174933301E+01  0.39852065502E+01  0.51100000000E-03 0.  1.
        -12    1    3    3    0    0 -0.80584918103E+00 -0.10898710031E+01  0.13023231276E+01  0.18796960484E+01  0.00000000000E+00 0.  1.
</event>
<event>
 7    1  0.2756432E-009  0.4778727E+02  0.7816164E-02  0.1312668E+00
        -11   -1    0    0    0    0  0.00000000000E+00  0.00000000000E+00  0.45593999997E+02  0.45594000000E+02  0.51100000000E-03 0.  1.
         11   -1    0    0    0    0 -0.00000000000E+00 -0.00000000000E+00 -0.45593999997E+02  0.45594000000E+02  0.51100000000E-03 0. -1.
    9900012    2    1    2    0    0  0.17161378121E+02 -0.27978244663E+02 -0.28395918248E+02  0.47787271359E+02  0.20000001435E+02 0.  0.
        -12    1    1    2    0    0 -0.17161378121E+02  0.27978244663E+02  0.28395918248E+02  0.43400728641E+02  0.00000000000E+00 0.  1.
         11    1    3    3    0    0 -0.29032717925E+00 -0.14552480668E+02 -0.14544425956E+02  0.20576669072E+02  0.51100000000E-03 0. -1.
        -11    1    3    3    0    0  0.50438606109E+01 -0.82313270205E+01 -0.36195023220E+01  0.10309998628E+02  0.51100000000E-03 0.  1.
         12    1    3    3    0    0  0.12407844689E+02 -0.51944369743E+01 -0.10231989970E+02  0.16900603660E+02  0.00000000000E+00 0. -1.
</event>
<event>
 7    1  0.2756432E-009  0.4778726E+02  0.7816164E-02  0.1312668E+00
        -11   -1    0    0    0    0  0.00000000000E+00  0.00000000000E+00  0.45593999997E+02  0.45594000000E+02  0.51100000000E-03 0. -1.
         11   -1    0    0    0    0 -0.00000000000E+00 -0.00000000000E+00 -0.45593999997E+02  0.45594000000E+02  0.51100000000E-03 0.  1.
    9900012    2    1    2    0    0 -0.40332333662E+02  0.15443762254E+02 -0.42914892490E+01  0.47787264855E+02  0.19999971779E+02 0.  0.
        -12    1    1    2    0    0  0.40332333662E+02 -0.15443762254E+02  0.42914892490E+01  0.43400735145E+02  0.00000000000E+00 0.  1.
         11    1    3    3    0    0 -0.72446806318E+01  0.27649151381E+01 -0.11194695036E+01  0.78347536916E+01  0.51100000000E-03 0. -1.
        -11    1    3    3    0    0 -0.31217550973E+02  0.61639345912E+01  0.12751421756E+01  0.31845809241E+02  0.51100000000E-03 0.  1.
        -12    1    3    3    0    0 -0.18701020577E+01  0.65149125243E+01 -0.44471619211E+01  0.81067019223E+01  0.00000000000E+00 0.  1.
</event>
<event>
 7    1  0.2756432E-009  0.4778727E+02  0.7816164E-02  0.1312668E+00
        -11   -1    0    0    0    0  0.00000000000E+00  0.00000000000E+00  0.45593999997E+02  0.45594000000E+02  0.51100000000E-03 0.  1.
         11   -1    0    0    0    0 -0.00000000000E+00 -0.00000000000E+00 -0.45593999997E+02  0.45594000000E+02  0.51100000000E-03 0. -1.
    9900012    2    1    2    0    0 -0.31837664003E+02  0.14236279527E+02 -0.25832440718E+02  0.47787268469E+02  0.19999988260E+02 0.  0.
        -12    1    1    2    0    0  0.31837664003E+02 -0.14236279527E+02  0.25832440718E+02  0.43400731531E+02  0.00000000000E+00 0.  1.
         11    1    3    3    0    0 -0.21213024905E+02  0.74992384411E+01 -0.86446498867E+01  0.24103132052E+02  0.51100000000E-03 0. -1.
        -11    1    3    3    0    0 -0.64673279520E+01  0.16041269749E+01 -0.15492616134E+02  0.16864777174E+02  0.51100000000E-03 0.  1.
        -12    1    3    3    0    0 -0.41573111467E+01  0.51329141106E+01 -0.16951746971E+01  0.68193592434E+01  0.00000000000E+00 0.  1.
</event>
<event>
 7    1  0.2756432E-009  0.4778727E+02  0.7816164E-02  0.1312668E+00
        -11   -1    0    0    0    0  0.00000000000E+00  0.00000000000E+00  0.45593999997E+02  0.45594000000E+02  0.51100000000E-03 0.  1.
         11   -1    0    0    0    0 -0.00000000000E+00 -0.00000000000E+00 -0.45593999997E+02  0.45594000000E+02  0.51100000000E-03 0. -1.
    9900012    2    1    2    0    0  0.40279699510E+01  0.42869569343E+02 -0.54404706861E+01  0.47787271447E+02  0.20000001837E+02 0.  0.
        -12    1    1    2    0    0 -0.40279699510E+01 -0.42869569343E+02  0.54404706861E+01  0.43400728553E+02  0.00000000000E+00 0.  1.
         11    1    3    3    0    0  0.29381382020E+01  0.29446471037E+02  0.36134731351E+01  0.29812489011E+02  0.51100000000E-03 0. -1.
        -11    1    3    3    0    0  0.25354126636E+01  0.86628859612E+01 -0.18402372013E+01  0.92119695924E+01  0.51100000000E-03 0.  1.
         12    1    3    3    0    0 -0.14455809146E+01  0.47602123447E+01 -0.72137066199E+01  0.87628128443E+01  0.00000000000E+00 0. -1.
</event>
<event>
 7    1  0.2756432E-009  0.4778725E+02  0.7816164E-02  0.1312668E+00
        -11   -1    0    0    0    0  0.00000000000E+00  0.00000000000E+00  0.45593999997E+02  0.45594000000E+02  0.51100000000E-03 0.  1.
         11   -1    0    0    0    0 -0.00000000000E+00 -0.00000000000E+00 -0.45593999997E+02  0.45594000000E+02  0.51100000000E-03 0. -1.
    9900012    2    1    2    0    0 -0.37526782512E+02  0.20833366918E+02  0.64293486397E+01  0.47787249929E+02  0.19999903725E+02 0.  0.
        -12    1    1    2    0    0  0.37526782512E+02 -0.20833366918E+02 -0.64293486397E+01  0.43400750071E+02  0.00000000000E+00 0.  1.
         11    1    3    3    0    0 -0.32618273932E+01  0.98288063683E+00 -0.47180676671E+00  0.34392112723E+01  0.51100000000E-03 0. -1.
        -11    1    3    3    0    0 -0.27243597346E+01  0.58913199411E+01  0.74125391878E+01  0.98526912102E+01  0.51100000000E-03 0.  1.
        -12    1    3    3    0    0 -0.31540595384E+02  0.13959166340E+02 -0.51138378140E+00  0.34495347446E+02  0.00000000000E+00 0.  1.
</event>
<event>
 7    1  0.2756432E-009  0.4778727E+02  0.7816164E-02  0.1312668E+00
        -11   -1    0    0    0    0  0.00000000000E+00  0.00000000000E+00  0.45593999997E+02  0.45594000000E+02  0.51100000000E-03 0.  1.
         11   -1    0    0    0    0 -0.00000000000E+00 -0.00000000000E+00 -0.45593999997E+02  0.45594000000E+02  0.51100000000E-03 0. -1.
    9900012    2    1    2    0    0  0.18738366090E+02 -0.46345507707E+01 -0.38871812459E+02  0.47787271568E+02  0.20000002388E+02 0.  0.
        -12    1    1    2    0    0 -0.18738366090E+02  0.46345507707E+01  0.38871812459E+02  0.43400728432E+02  0.00000000000E+00 0.  1.
         11    1    3    3    0    0  0.17956116534E+02 -0.15447738928E+01 -0.28109696405E+02  0.33391068859E+02  0.51100000000E-03 0. -1.
        -11    1    3    3    0    0 -0.40663764704E+01 -0.22282507266E+01 -0.52795533536E+01  0.70266779330E+01  0.51100000000E-03 0.  1.
         12    1    3    3    0    0  0.48486260265E+01 -0.86152615132E+00 -0.54825627010E+01  0.73695247760E+01  0.00000000000E+00 0. -1.
</event>
<event>
 7    1  0.2756432E-009  0.4778723E+02  0.7816164E-02  0.1312668E+00
        -11   -1    0    0    0    0  0.00000000000E+00  0.00000000000E+00  0.45593999997E+02  0.45594000000E+02  0.51100000000E-03 0.  1.
         11   -1    0    0    0    0 -0.00000000000E+00 -0.00000000000E+00 -0.45593999997E+02  0.45594000000E+02  0.51100000000E-03 0. -1.
    9900012    2    1    2    0    0 -0.34820831694E+02 -0.63525860854E+01  0.25115350156E+02  0.47787234070E+02  0.19999831420E+02 0.  0.
        -12    1    1    2    0    0  0.34820831694E+02  0.63525860854E+01 -0.25115350156E+02  0.43400765930E+02  0.00000000000E+00 0.  1.
         11    1    3    3    0    0 -0.28061710993E+02 -0.82442474931E+00  0.93095136505E+01  0.29577125363E+02  0.51100000000E-03 0. -1.
        -11    1    3    3    0    0 -0.52194521530E+01 -0.29272208263E+01  0.97066183791E+01  0.11403058500E+02  0.51100000000E-03 0.  1.
         12    1    3    3    0    0 -0.15396685472E+01 -0.26009405098E+01  0.60992181266E+01  0.68070502074E+01  0.00000000000E+00 0. -1.
</event>
<event>
 7    1  0.2756432E-009  0.4778727E+02  0.7816164E-02  0.1312668E+00
        -11   -1    0    0    0    0  0.00000000000E+00  0.00000000000E+00  0.45593999997E+02  0.45594000000E+02  0.51100000000E-03 0.  1.
         11   -1    0    0    0    0 -0.00000000000E+00 -0.00000000000E+00 -0.45593999997E+02  0.45594000000E+02  0.51100000000E-03 0. -1.
    9900012    2    1    2    0    0 -0.12077173861E+02 -0.62280642670E+01 -0.41218640540E+02  0.47787271423E+02  0.20000001728E+02 0.  0.
        -12    1    1    2    0    0  0.12077173861E+02  0.62280642670E+01  0.41218640540E+02  0.43400728577E+02  0.00000000000E+00 0.  1.
         11    1    3    3    0    0 -0.47948799376E+01  0.13668874377E+01 -0.23910628299E+02  0.24424933998E+02  0.51100000000E-03 0. -1.
        -11    1    3    3    0    0 -0.52402685254E+01 -0.95546399005E+01 -0.76923590718E+01  0.13338813523E+02  0.51100000000E-03 0.  1.
        -12    1    3    3    0    0 -0.20420253985E+01  0.19596881958E+01 -0.96156531692E+01  0.10023523902E+02  0.00000000000E+00 0.  1.
</event>
<event>
 7    1  0.2756432E-009  0.4778727E+02  0.7816164E-02  0.1312668E+00
        -11   -1    0    0    0    0  0.00000000000E+00  0.00000000000E+00  0.45593999997E+02  0.45594000000E+02  0.51100000000E-03 0.  1.
         11   -1    0    0    0    0 -0.00000000000E+00 -0.00000000000E+00 -0.45593999997E+02  0.45594000000E+02  0.51100000000E-03 0. -1.
    9900012    2    1    2    0    0  0.29809443940E+02 -0.27752675298E+02 -0.14993636765E+02  0.47787273306E+02  0.20000010310E+02 0.  0.
        -12    1    1    2    0    0 -0.29809443940E+02  0.27752675298E+02  0.14993636765E+02  0.43400726694E+02  0.00000000000E+00 0.  1.
         11    1    3    3    0    0  0.10178899635E+01 -0.12568533007E+02 -0.58821473423E+01  0.13914157522E+02  0.51100000000E-03 0. -1.
        -11    1    3    3    0    0  0.17009970858E+02 -0.78568858311E+01 -0.57175410270E+01  0.19589794262E+02  0.51100000000E-03 0.  1.
         12    1    3    3    0    0  0.11781583118E+02 -0.73272564595E+01 -0.33939483953E+01  0.14283321522E+02  0.00000000000E+00 0. -1.
</event>
<event>
 7    1  0.2756432E-009  0.4778727E+02  0.7816164E-02  0.1312668E+00
        -11   -1    0    0    0    0  0.00000000000E+00  0.00000000000E+00  0.45593999997E+02  0.45594000000E+02  0.51100000000E-03 0.  1.
         11   -1    0    0    0    0 -0.00000000000E+00 -0.00000000000E+00 -0.45593999997E+02  0.45594000000E+02  0.51100000000E-03 0. -1.
    9900012    2    1    2    0    0 -0.65440744686E+01  0.20123364158E+02 -0.37892593805E+02  0.47787270041E+02  0.19999995424E+02 0.  0.
        -12    1    1    2    0    0  0.65440744686E+01 -0.20123364158E+02  0.37892593805E+02  0.43400729959E+02  0.00000000000E+00 0.  1.
         11    1    3    3    0    0 -0.18356495150E+01  0.62399450482E+01 -0.11283164055E+02  0.13023682839E+02  0.51100000000E-03 0. -1.
        -11    1    3    3    0    0 -0.21559740529E+01  0.16434870249E+02 -0.26369665076E+02  0.31146627758E+02  0.51100000000E-03 0.  1.
        -12    1    3    3    0    0 -0.25524509008E+01 -0.25514511391E+01 -0.23976467424E+00  0.36169594434E+01  0.00000000000E+00 0.  1.
</event>
<event>
 7    1  0.2756432E-009  0.4778725E+02  0.7816164E-02  0.1312668E+00
        -11   -1    0    0    0    0  0.00000000000E+00  0.00000000000E+00  0.45593999997E+02  0.45594000000E+02  0.51100000000E-03 0. -1.
         11   -1    0    0    0    0 -0.00000000000E+00 -0.00000000000E+00 -0.45593999997E+02  0.45594000000E+02  0.51100000000E-03 0.  1.
    9900012    2    1    2    0    0 -0.16279066383E+02  0.37767908563E+02  0.13863712631E+02  0.47787246004E+02  0.19999885831E+02 0.  0.
        -12    1    1    2    0    0  0.16279066383E+02 -0.37767908563E+02 -0.13863712631E+02  0.43400753996E+02  0.00000000000E+00 0.  1.
         11    1    3    3    0    0 -0.90546843463E+01  0.12395573754E+02  0.54653949793E+01  0.16294419285E+02  0.51100000000E-03 0.  1.
        -11    1    3    3    0    0 -0.79512944855E+01  0.11170897361E+02 -0.20267378648E+01  0.13860725035E+02  0.51100000000E-03 0. -1.
        -12    1    3    3    0    0  0.72691244916E+00  0.14201437447E+02  0.10425055517E+02  0.17632101684E+02  0.00000000000E+00 0.  1.
</event>
<event>
 7    1  0.2756432E-009  0.4778727E+02  0.7816164E-02  0.1312668E+00
        -11   -1    0    0    0    0  0.00000000000E+00  0.00000000000E+00  0.45593999997E+02  0.45594000000E+02  0.51100000000E-03 0. -1.
         11   -1    0    0    0    0 -0.00000000000E+00 -0.00000000000E+00 -0.45593999997E+02  0.45594000000E+02  0.51100000000E-03 0.  1.
    9900012    2    1    2    0    0 -0.43372846857E+02  0.38027090022E+00 -0.15081931839E+01  0.47787273081E+02  0.20000009285E+02 0.  0.
        -12    1    1    2    0    0  0.43372846857E+02 -0.38027090022E+00  0.15081931839E+01  0.43400726919E+02  0.00000000000E+00 0.  1.
         11    1    3    3    0    0 -0.19597726873E+01 -0.12752233659E+01  0.43372729792E+01  0.49273563678E+01  0.51100000000E-03 0.  1.
        -11    1    3    3    0    0 -0.34150955675E+02 -0.30150130283E+00 -0.15254195774E+01  0.34186336184E+02  0.51100000000E-03 0. -1.
         12    1    3    3    0    0 -0.72621184945E+01  0.19569955689E+01 -0.43200465857E+01  0.86735805287E+01  0.00000000000E+00 0. -1.
</event>
<event>
 7    1  0.2756432E-009  0.4778727E+02  0.7816164E-02  0.1312668E+00
        -11   -1    0    0    0    0  0.00000000000E+00  0.00000000000E+00  0.45593999997E+02  0.45594000000E+02  0.51100000000E-03 0.  1.
         11   -1    0    0    0    0 -0.00000000000E+00 -0.00000000000E+00 -0.45593999997E+02  0.45594000000E+02  0.51100000000E-03 0. -1.
    9900012    2    1    2    0    0  0.38351853556E+02 -0.44702267661E+00 -0.20311543209E+02  0.47787270882E+02  0.19999999260E+02 0.  0.
        -12    1    1    2    0    0 -0.38351853556E+02  0.44702267661E+00  0.20311543209E+02  0.43400729118E+02  0.00000000000E+00 0.  1.
         11    1    3    3    0    0  0.20097763666E+02 -0.85451843960E+01 -0.10899242309E+02  0.24407657895E+02  0.51100000000E-03 0. -1.
        -11    1    3    3    0    0  0.16726138803E+02  0.63116091520E+01 -0.53062604212E+01  0.18648231263E+02  0.51100000000E-03 0.  1.
         12    1    3    3    0    0  0.15279510866E+01  0.17865525674E+01 -0.41060404793E+01  0.47313817239E+01  0.00000000000E+00 0. -1.
</event>
<event>
 7    1  0.2756432E-009  0.4778726E+02  0.7816164E-02  0.1312668E+00
        -11   -1    0    0    0    0  0.00000000000E+00  0.00000000000E+00  0.45593999997E+02  0.45594000000E+02  0.51100000000E-03 0.  1.
         11   -1    0    0    0    0 -0.00000000000E+00 -0.00000000000E+00 -0.45593999997E+02  0.45594000000E+02  0.51100000000E-03 0. -1.
    9900012    2    1    2    0    0 -0.33733575912E+02  0.27213583658E+02 -0.22562332952E+01  0.47787264200E+02  0.19999968795E+02 0.  0.
        -12    1    1    2    0    0  0.33733575912E+02 -0.27213583658E+02  0.22562332952E+01  0.43400735800E+02  0.00000000000E+00 0.  1.
         11    1    3    3    0    0 -0.16869141816E+02  0.24237261371E+02 -0.60149302048E+01  0.30136226871E+02  0.51100000000E-03 0. -1.
        -11    1    3    3    0    0 -0.10486773133E+02  0.13059853935E+01  0.31651795057E+01  0.11031607778E+02  0.51100000000E-03 0.  1.
         12    1    3    3    0    0 -0.63776609621E+01  0.16703368932E+01  0.59351740391E+00  0.66194295520E+01  0.00000000000E+00 0. -1.
</event>
<event>
 7    1  0.2756432E-009  0.4778727E+02  0.7816164E-02  0.1312668E+00
        -11   -1    0    0    0    0  0.00000000000E+00  0.00000000000E+00  0.45593999997E+02  0.45594000000E+02  0.51100000000E-03 0. -1.
         11   -1    0    0    0    0 -0.00000000000E+00 -0.00000000000E+00 -0.45593999997E+02  0.45594000000E+02  0.51100000000E-03 0.  1.
    9900012    2    1    2    0    0  0.36538128000E+02 -0.14440870578E+01  0.23377412959E+02  0.47787267036E+02  0.19999981725E+02 0.  0.
        -12    1    1    2    0    0 -0.36538128000E+02  0.14440870578E+01 -0.23377412959E+02  0.43400732964E+02  0.00000000000E+00 0.  1.
         11    1    3    3    0    0  0.18406118633E+02  0.89931286135E+00  0.12749494473E+02  0.22408560336E+02  0.51100000000E-03 0. -1.
        -11    1    3    3    0    0  0.50717566335E+01 -0.10577184316E+01 -0.33783105228E+01  0.61850194728E+01  0.51100000000E-03 0.  1.
        -12    1    3    3    0    0  0.13060252733E+02 -0.12856814875E+01  0.14006229008E+02  0.19193687227E+02  0.00000000000E+00 0.  1.
</event>
<event>
 7    1  0.2756432E-009  0.4778726E+02  0.7816164E-02  0.1312668E+00
        -11   -1    0    0    0    0  0.00000000000E+00  0.00000000000E+00  0.45593999997E+02  0.45594000000E+02  0.51100000000E-03 0.  1.
         11   -1    0    0    0    0 -0.00000000000E+00 -0.00000000000E+00 -0.45593999997E+02  0.45594000000E+02  0.51100000000E-03 0. -1.
    9900012    2    1    2    0    0 -0.12725171587E+02  0.13554267266E+02 -0.39217037202E+02  0.47787260836E+02  0.19999953456E+02 0.  0.
        -12    1    1    2    0    0  0.12725171587E+02 -0.13554267266E+02  0.39217037202E+02  0.43400739164E+02  0.00000000000E+00 0.  1.
         11    1    3    3    0    0 -0.37618834140E+01 -0.34606613405E+00 -0.52962087411E+01  0.65054865983E+01  0.51100000000E-03 0.  1.
        -11    1    3    3    0    0 -0.12217120302E+02  0.98474162350E+01 -0.32177497069E+02  0.35799733978E+02  0.51100000000E-03 0. -1.
        -12    1    3    3    0    0  0.32538321287E+01  0.40529171654E+01 -0.17433313921E+01  0.54820402601E+01  0.00000000000E+00 0.  1.
</event>
<event>
 7    1  0.2756432E-009  0.4778727E+02  0.7816164E-02  0.1312668E+00
        -11   -1    0    0    0    0  0.00000000000E+00  0.00000000000E+00  0.45593999997E+02  0.45594000000E+02  0.51100000000E-03 0. -1.
         11   -1    0    0    0    0 -0.00000000000E+00 -0.00000000000E+00 -0.45593999997E+02  0.45594000000E+02  0.51100000000E-03 0.  1.
    9900012    2    1    2    0    0 -0.21601562017E+02  0.80726757067E+01  0.36767205878E+02  0.47787274169E+02  0.20000014244E+02 0.  0.
        -12    1    1    2    0    0  0.21601562017E+02 -0.80726757067E+01 -0.36767205878E+02  0.43400725831E+02  0.00000000000E+00 0.  1.
         11    1    3    3    0    0 -0.69926272711E+01  0.15032473737E+01  0.29686445105E+01  0.77439937570E+01  0.51100000000E-03 0. -1.
        -11    1    3    3    0    0 -0.12724349910E+02  0.26368806956E+01  0.33186229476E+02  0.35639697635E+02  0.51100000000E-03 0.  1.
        -12    1    3    3    0    0 -0.18845848360E+01  0.39325476374E+01  0.61233189153E+00  0.44035827765E+01  0.00000000000E+00 0.  1.
</event>
<event>
 7    1  0.2756432E-009  0.4778728E+02  0.7816164E-02  0.1312668E+00
        -11   -1    0    0    0    0  0.00000000000E+00  0.00000000000E+00  0.45593999997E+02  0.45594000000E+02  0.51100000000E-03 0.  1.
         11   -1    0    0    0    0 -0.00000000000E+00 -0.00000000000E+00 -0.45593999997E+02  0.45594000000E+02  0.51100000000E-03 0. -1.
    9900012    2    1    2    0    0  0.14339860337E+02  0.12820922701E+02 -0.38905206440E+02  0.47787277177E+02  0.20000027962E+02 0.  0.
        -12    1    1    2    0    0 -0.14339860337E+02 -0.12820922701E+02  0.38905206440E+02  0.43400722823E+02  0.00000000000E+00 0.  1.
         11    1    3    3    0    0  0.27501004410E+00  0.77841774984E+01 -0.84144219300E+01  0.11466104244E+02  0.51100000000E-03 0.  1.
        -11    1    3    3    0    0  0.13111890592E+01  0.67209814270E+01 -0.97389349496E+01  0.11905362754E+02  0.51100000000E-03 0. -1.
         12    1    3    3    0    0  0.12753661234E+02 -0.16842362247E+01 -0.20751849561E+02  0.24415810179E+02  0.00000000000E+00 0. -1.
</event>
<event>
 7    1  0.2756432E-009  0.4778727E+02  0.7816164E-02  0.1312668E+00
        -11   -1    0    0    0    0  0.00000000000E+00  0.00000000000E+00  0.45593999997E+02  0.45594000000E+02  0.51100000000E-03 0. -1.
         11   -1    0    0    0    0 -0.00000000000E+00 -0.00000000000E+00 -0.45593999997E+02  0.45594000000E+02  0.51100000000E-03 0.  1.
    9900012    2    1    2    0    0 -0.34397244612E+02  0.26225858379E+01  0.26335806297E+02  0.47787273201E+02  0.20000009831E+02 0.  0.
        -12    1    1    2    0    0  0.34397244612E+02 -0.26225858379E+01 -0.26335806297E+02  0.43400726799E+02  0.00000000000E+00 0.  1.
         11    1    3    3    0    0  0.18905573881E+01  0.17110878037E+01  0.46177995895E+00  0.25913837426E+01  0.51100000000E-03 0.  1.
        -11    1    3    3    0    0 -0.19435469613E+02  0.22200880496E+01  0.17862672245E+02  0.26490400715E+02  0.51100000000E-03 0. -1.
         12    1    3    3    0    0 -0.16852332387E+02 -0.13085900154E+01  0.80113540926E+01  0.18705488743E+02  0.00000000000E+00 0. -1.
</event>
<event>
 7    1  0.2756432E-009  0.4778727E+02  0.7816164E-02  0.1312668E+00
        -11   -1    0    0    0    0  0.00000000000E+00  0.00000000000E+00  0.45593999997E+02  0.45594000000E+02  0.51100000000E-03 0. -1.
         11   -1    0    0    0    0 -0.00000000000E+00 -0.00000000000E+00 -0.45593999997E+02  0.45594000000E+02  0.51100000000E-03 0.  1.
    9900012    2    1    2    0    0 -0.31295042684E+02 -0.29840870867E+02 -0.37102862655E+01  0.47787268498E+02  0.19999988391E+02 0.  0.
        -12    1    1    2    0    0  0.31295042684E+02  0.29840870867E+02  0.37102862655E+01  0.43400731502E+02  0.00000000000E+00 0.  1.
         11    1    3    3    0    0 -0.81954894611E+01 -0.18064185438E+02  0.40718668114E+01  0.20249961547E+02  0.51100000000E-03 0. -1.
        -11    1    3    3    0    0 -0.13778368736E+02 -0.82818073761E+01 -0.70555817368E+01  0.17555996478E+02  0.51100000000E-03 0.  1.
        -12    1    3    3    0    0 -0.93211844873E+01 -0.34948780530E+01 -0.72657134006E+00  0.99813104733E+01  0.00000000000E+00 0.  1.
</event>
<event>
 7    1  0.2756432E-009  0.4778726E+02  0.7816164E-02  0.1312668E+00
        -11   -1    0    0    0    0  0.00000000000E+00  0.00000000000E+00  0.45593999997E+02  0.45594000000E+02  0.51100000000E-03 0. -1.
         11   -1    0    0    0    0 -0.00000000000E+00 -0.00000000000E+00 -0.45593999997E+02  0.45594000000E+02  0.51100000000E-03 0.  1.
    9900012    2    1    2    0    0 -0.42934632994E+02  0.46070588866E+01 -0.43607542878E+01  0.47787264063E+02  0.19999968169E+02 0.  0.
        -12    1    1    2    0    0  0.42934632994E+02 -0.46070588866E+01  0.43607542878E+01  0.43400735937E+02  0.00000000000E+00 0.  1.
         11    1    3    3    0    0 -0.27829835449E+02  0.47615696385E+01 -0.56816092175E+01  0.28800225175E+02  0.51100000000E-03 0. -1.
        -11    1    3    3    0    0 -0.30838096900E+01  0.38931419146E+01  0.35548638480E+01  0.61076585866E+01  0.51100000000E-03 0.  1.
        -12    1    3    3    0    0 -0.12020987855E+02 -0.40476526665E+01 -0.22340089183E+01  0.12879380302E+02  0.00000000000E+00 0.  1.
</event>
<event>
 7    1  0.2756432E-009  0.4778727E+02  0.7816164E-02  0.1312668E+00
        -11   -1    0    0    0    0  0.00000000000E+00  0.00000000000E+00  0.45593999997E+02  0.45594000000E+02  0.51100000000E-03 0. -1.
         11   -1    0    0    0    0 -0.00000000000E+00 -0.00000000000E+00 -0.45593999997E+02  0.45594000000E+02  0.51100000000E-03 0.  1.
    9900012    2    1    2    0    0  0.10249990490E+02  0.29224210115E+02  0.30405696729E+02  0.47787272409E+02  0.20000006220E+02 0.  0.
        -12    1    1    2    0    0 -0.10249990490E+02 -0.29224210115E+02 -0.30405696729E+02  0.43400727591E+02  0.00000000000E+00 0.  1.
         11    1    3    3    0    0 -0.99024328377E+00 -0.19807870544E+01  0.38300362720E+01  0.44241696647E+01  0.51100000000E-03 0. -1.
        -11    1    3    3    0    0  0.69644585230E+01  0.27299724561E+02  0.19723800687E+02  0.34391960651E+02  0.51100000000E-03 0.  1.
         12    1    3    3    0    0  0.42757752513E+01  0.39052726082E+01  0.68518597704E+01  0.89711420932E+01  0.00000000000E+00 0. -1.
</event>
<event>
 7    1  0.2756432E-009  0.4778727E+02  0.7816164E-02  0.1312668E+00
        -11   -1    0    0    0    0  0.00000000000E+00  0.00000000000E+00  0.45593999997E+02  0.45594000000E+02  0.51100000000E-03 0.  1.
         11   -1    0    0    0    0 -0.00000000000E+00 -0.00000000000E+00 -0.45593999997E+02  0.45594000000E+02  0.51100000000E-03 0. -1.
    9900012    2    1    2    0    0  0.38111183157E+02 -0.19735024407E+02  0.64567421251E+01  0.47787274328E+02  0.20000014971E+02 0.  0.
        -12    1    1    2    0    0 -0.38111183157E+02  0.19735024407E+02 -0.64567421251E+01  0.43400725672E+02  0.00000000000E+00 0.  1.
         11    1    3    3    0    0  0.32515618892E+01  0.25442022057E+01  0.33940316859E+01  0.53446301022E+01  0.51100000000E-03 0. -1.
        -11    1    3    3    0    0  0.85256628370E+01 -0.33188760416E+01  0.39871581239E+01  0.99799446469E+01  0.51100000000E-03 0.  1.
         12    1    3    3    0    0  0.26333958431E+02 -0.18960350571E+02 -0.92444768468E+00  0.32462699579E+02  0.00000000000E+00 0. -1.
</event>
<event>
 7    1  0.2756432E-009  0.4778727E+02  0.7816164E-02  0.1312668E+00
        -11   -1    0    0    0    0  0.00000000000E+00  0.00000000000E+00  0.45593999997E+02  0.45594000000E+02  0.51100000000E-03 0.  1.
         11   -1    0    0    0    0 -0.00000000000E+00 -0.00000000000E+00 -0.45593999997E+02  0.45594000000E+02  0.51100000000E-03 0. -1.
    9900012    2    1    2    0    0  0.33320785020E+02 -0.22429290036E+02 -0.16440072439E+02  0.47787265586E+02  0.19999975112E+02 0.  0.
        -12    1    1    2    0    0 -0.33320785020E+02  0.22429290036E+02  0.16440072439E+02  0.43400734414E+02  0.00000000000E+00 0.  1.
         11    1    3    3    0    0  0.20106590404E+02 -0.10709334139E+02 -0.92067267363E+01  0.24570889948E+02  0.51100000000E-03 0. -1.
        -11    1    3    3    0    0  0.31396984002E+01 -0.10962639479E+02 -0.64062673840E+01  0.13079657199E+02  0.51100000000E-03 0.  1.
         12    1    3    3    0    0  0.10074496216E+02 -0.75731641806E+00 -0.82707831911E+00  0.10136718439E+02  0.00000000000E+00 0. -1.
</event>
<event>
 7    1  0.2756432E-009  0.4778727E+02  0.7816164E-02  0.1312668E+00
        -11   -1    0    0    0    0  0.00000000000E+00  0.00000000000E+00  0.45593999997E+02  0.45594000000E+02  0.51100000000E-03 0.  1.
         11   -1    0    0    0    0 -0.00000000000E+00 -0.00000000000E+00 -0.45593999997E+02  0.45594000000E+02  0.51100000000E-03 0. -1.
    9900012    2    1    2    0    0  0.42817521596E+02 -0.16898050192E+01  0.68867710106E+01  0.47787271762E+02  0.20000003271E+02 0.  0.
        -12    1    1    2    0    0 -0.42817521596E+02  0.16898050192E+01 -0.68867710106E+01  0.43400728238E+02  0.00000000000E+00 0.  1.
         11    1    3    3    0    0  0.12925757167E+02  0.22608142112E+01 -0.52035416944E+01  0.14116066225E+02  0.51100000000E-03 0.  1.
        -11    1    3    3    0    0  0.95876995862E+01 -0.41639274124E+01  0.74680562529E+01  0.12846561381E+02  0.51100000000E-03 0. -1.
         12    1    3    3    0    0  0.20304064843E+02  0.21330818192E+00  0.46222564522E+01  0.20824644156E+02  0.00000000000E+00 0. -1.
</event>
<event>
 7    1  0.2756432E-009  0.4778727E+02  0.7816164E-02  0.1312668E+00
        -11   -1    0    0    0    0  0.00000000000E+00  0.00000000000E+00  0.45593999997E+02  0.45594000000E+02  0.51100000000E-03 0.  1.
         11   -1    0    0    0    0 -0.00000000000E+00 -0.00000000000E+00 -0.45593999997E+02  0.45594000000E+02  0.51100000000E-03 0. -1.
    9900012    2    1    2    0    0 -0.81287506306E+01  0.34278666095E+01 -0.42494664160E+02  0.47787270302E+02  0.19999996614E+02 0.  0.
        -12    1    1    2    0    0  0.81287506306E+01 -0.34278666095E+01  0.42494664160E+02  0.43400729698E+02  0.00000000000E+00 0.  1.
         11    1    3    3    0    0 -0.25790639647E+00  0.62914468302E+01 -0.10702844787E+02  0.12417717412E+02  0.51100000000E-03 0. -1.
        -11    1    3    3    0    0 -0.61602163742E+01 -0.79811370524E+01 -0.19771228410E+02  0.22193428927E+02  0.51100000000E-03 0.  1.
         12    1    3    3    0    0 -0.17106278599E+01  0.51175568317E+01 -0.12020590962E+02  0.13176123963E+02  0.00000000000E+00 0. -1.
</event>
<event>
 7    1  0.2756432E-009  0.4778727E+02  0.7816164E-02  0.1312668E+00
        -11   -1    0    0    0    0  0.00000000000E+00  0.00000000000E+00  0.45593999997E+02  0.45594000000E+02  0.51100000000E-03 0.  1.
         11   -1    0    0    0    0 -0.00000000000E+00 -0.00000000000E+00 -0.45593999997E+02  0.45594000000E+02  0.51100000000E-03 0. -1.
    9900012    2    1    2    0    0 -0.23553562468E+02 -0.33006037093E+02 -0.15474314218E+02  0.47787272011E+02  0.20000004405E+02 0.  0.
        -12    1    1    2    0    0  0.23553562468E+02  0.33006037093E+02  0.15474314218E+02  0.43400727989E+02  0.00000000000E+00 0.  1.
         11    1    3    3    0    0 -0.20351762471E+02 -0.26383345054E+02 -0.89377151531E+01  0.34498664965E+02  0.51100000000E-03 0. -1.
        -11    1    3    3    0    0  0.22556369687E+01 -0.47092155014E+01 -0.51660660944E+01  0.73452602354E+01  0.51100000000E-03 0.  1.
        -12    1    3    3    0    0 -0.54574369649E+01 -0.19134765374E+01 -0.13705329709E+01  0.59433468104E+01  0.00000000000E+00 0.  1.
</event>
<event>
 7    1  0.2756432E-009  0.4778726E+02  0.7816164E-02  0.1312668E+00
        -11   -1    0    0    0    0  0.00000000000E+00  0.00000000000E+00  0.45593999997E+02  0.45594000000E+02  0.51100000000E-03 0.  1.
         11   -1    0    0    0    0 -0.00000000000E+00 -0.00000000000E+00 -0.45593999997E+02  0.45594000000E+02  0.51100000000E-03 0. -1.
    9900012    2    1    2    0    0  0.34091247622E+02  0.22385340474E+01 -0.26765650517E+02  0.47787259837E+02  0.19999948900E+02 0.  0.
        -12    1    1    2    0    0 -0.34091247622E+02 -0.22385340474E+01  0.26765650517E+02  0.43400740163E+02  0.00000000000E+00 0.  1.
         11    1    3    3    0    0  0.23017729920E+02  0.38950113170E+01 -0.25965402269E+02  0.34916888737E+02  0.51100000000E-03 0. -1.
        -11    1    3    3    0    0  0.37803182697E+01  0.21351634120E+01  0.10007008066E+01  0.44554608495E+01  0.51100000000E-03 0.  1.
         12    1    3    3    0    0  0.72931994328E+01 -0.37916406816E+01 -0.18009490540E+01  0.84149102502E+01  0.00000000000E+00 0. -1.
</event>
<event>
 7    1  0.2756432E-009  0.4778727E+02  0.7816164E-02  0.1312668E+00
        -11   -1    0    0    0    0  0.00000000000E+00  0.00000000000E+00  0.45593999997E+02  0.45594000000E+02  0.51100000000E-03 0.  1.
         11   -1    0    0    0    0 -0.00000000000E+00 -0.00000000000E+00 -0.45593999997E+02  0.45594000000E+02  0.51100000000E-03 0. -1.
    9900012    2    1    2    0    0  0.36936267745E+02 -0.79268174593E+01 -0.21365885961E+02  0.47787269673E+02  0.19999993749E+02 0.  0.
        -12    1    1    2    0    0 -0.36936267745E+02  0.79268174593E+01  0.21365885961E+02  0.43400730327E+02  0.00000000000E+00 0.  1.
         11    1    3    3    0    0  0.21877481757E+02 -0.96136683699E+01 -0.13565731350E+02  0.27478644342E+02  0.51100000000E-03 0. -1.
        -11    1    3    3    0    0  0.82898302418E+01  0.14722015820E+01  0.17514097487E+01  0.85997732124E+01  0.51100000000E-03 0.  1.
        -12    1    3    3    0    0  0.67689557470E+01  0.21464932857E+00 -0.95515643592E+01  0.11708852119E+02  0.00000000000E+00 0.  1.
</event>
<event>
 7    1  0.2756432E-009  0.4778727E+02  0.7816164E-02  0.1312668E+00
        -11   -1    0    0    0    0  0.00000000000E+00  0.00000000000E+00  0.45593999997E+02  0.45594000000E+02  0.51100000000E-03 0.  1.
         11   -1    0    0    0    0 -0.00000000000E+00 -0.00000000000E+00 -0.45593999997E+02  0.45594000000E+02  0.51100000000E-03 0. -1.
    9900012    2    1    2    0    0 -0.32535756306E+02  0.33481633254E+01 -0.28527835273E+02  0.47787273953E+02  0.20000013261E+02 0.  0.
        -12    1    1    2    0    0  0.32535756306E+02 -0.33481633254E+01  0.28527835273E+02  0.43400726047E+02  0.00000000000E+00 0.  1.
         11    1    3    3    0    0 -0.28633458620E+02 -0.18606388774E+01 -0.26668313414E+02  0.39173152416E+02  0.51100000000E-03 0. -1.
        -11    1    3    3    0    0 -0.26769335145E+01  0.61814392179E+01 -0.94547902823E+00  0.68022124856E+01  0.51100000000E-03 0.  1.
         12    1    3    3    0    0 -0.12253641710E+01 -0.97263701507E+00 -0.91404283119E+00  0.18119090518E+01  0.00000000000E+00 0. -1.
</event>
<event>
 7    1  0.2756432E-009  0.4778727E+02  0.7816164E-02  0.1312668E+00
        -11   -1    0    0    0    0  0.00000000000E+00  0.00000000000E+00  0.45593999997E+02  0.45594000000E+02  0.51100000000E-03 0. -1.
         11   -1    0    0    0    0 -0.00000000000E+00 -0.00000000000E+00 -0.45593999997E+02  0.45594000000E+02  0.51100000000E-03 0.  1.
    9900012    2    1    2    0    0  0.23216062442E+02 -0.35070228352E+02 -0.10710577504E+02  0.47787274863E+02  0.20000017408E+02 0.  0.
        -12    1    1    2    0    0 -0.23216062442E+02  0.35070228352E+02  0.10710577504E+02  0.43400725137E+02  0.00000000000E+00 0.  1.
         11    1    3    3    0    0  0.11840777948E+02 -0.58303295995E+01 -0.46552671956E+01  0.13995294873E+02  0.51100000000E-03 0. -1.
        -11    1    3    3    0    0 -0.10242893049E+01 -0.10091729547E+02  0.17175450988E+00  0.10145031971E+02  0.51100000000E-03 0.  1.
         12    1    3    3    0    0  0.12399573798E+02 -0.19148169206E+02 -0.62270648185E+01  0.23646948018E+02  0.00000000000E+00 0. -1.
</event>
<event>
 7    1  0.2756432E-009  0.4778725E+02  0.7816164E-02  0.1312668E+00
        -11   -1    0    0    0    0  0.00000000000E+00  0.00000000000E+00  0.45593999997E+02  0.45594000000E+02  0.51100000000E-03 0.  1.
         11   -1    0    0    0    0 -0.00000000000E+00 -0.00000000000E+00 -0.45593999997E+02  0.45594000000E+02  0.51100000000E-03 0. -1.
    9900012    2    1    2    0    0 -0.14965665085E+02 -0.93802543416E+01 -0.39644225941E+02  0.47787251695E+02  0.19999911780E+02 0.  0.
        -12    1    1    2    0    0  0.14965665085E+02  0.93802543416E+01  0.39644225941E+02  0.43400748305E+02  0.00000000000E+00 0.  1.
         11    1    3    3    0    0 -0.72564745470E+01 -0.37338181897E+01 -0.81048492876E+01  0.11501582646E+02  0.51100000000E-03 0. -1.
        -11    1    3    3    0    0 -0.57378637762E+01  0.46946555498E+01 -0.12839716825E+02  0.14826368397E+02  0.51100000000E-03 0.  1.
        -12    1    3    3    0    0 -0.19713267620E+01 -0.10341091702E+02 -0.18699659829E+02  0.21459300652E+02  0.00000000000E+00 0.  1.
</event>
<event>
 7    1  0.2756432E-009  0.4778727E+02  0.7816164E-02  0.1312668E+00
        -11   -1    0    0    0    0  0.00000000000E+00  0.00000000000E+00  0.45593999997E+02  0.45594000000E+02  0.51100000000E-03 0. -1.
         11   -1    0    0    0    0 -0.00000000000E+00 -0.00000000000E+00 -0.45593999997E+02  0.45594000000E+02  0.51100000000E-03 0.  1.
    9900012    2    1    2    0    0 -0.23679035271E+02 -0.20148932248E+02  0.30281134971E+02  0.47787270545E+02  0.19999997722E+02 0.  0.
        -12    1    1    2    0    0  0.23679035271E+02  0.20148932248E+02 -0.30281134971E+02  0.43400729455E+02  0.00000000000E+00 0.  1.
         11    1    3    3    0    0 -0.12829049575E+02 -0.17632166884E+02  0.19939139384E+02  0.29547370469E+02  0.51100000000E-03 0. -1.
        -11    1    3    3    0    0 -0.72911842913E+01  0.60718250699E-01  0.32176515269E+00  0.72985332876E+01  0.51100000000E-03 0.  1.
         12    1    3    3    0    0 -0.35588014043E+01 -0.25774836148E+01  0.10020230435E+02  0.10941366788E+02  0.00000000000E+00 0. -1.
</event>
<event>
 7    1  0.2756432E-009  0.4778727E+02  0.7816164E-02  0.1312668E+00
        -11   -1    0    0    0    0  0.00000000000E+00  0.00000000000E+00  0.45593999997E+02  0.45594000000E+02  0.51100000000E-03 0.  1.
         11   -1    0    0    0    0 -0.00000000000E+00 -0.00000000000E+00 -0.45593999997E+02  0.45594000000E+02  0.51100000000E-03 0. -1.
    9900012    2    1    2    0    0  0.37820150048E+02  0.14015046738E+02 -0.16026167843E+02  0.47787270277E+02  0.19999996502E+02 0.  0.
        -12    1    1    2    0    0 -0.37820150048E+02 -0.14015046738E+02  0.16026167843E+02  0.43400729723E+02  0.00000000000E+00 0.  1.
         11    1    3    3    0    0  0.13862551003E+02 -0.15545404733E+01 -0.17999702480E-01  0.13949453059E+02  0.51100000000E-03 0. -1.
        -11    1    3    3    0    0  0.18587589024E+01  0.45673602202E+01 -0.12900134858E+01  0.50970480764E+01  0.51100000000E-03 0.  1.
         12    1    3    3    0    0  0.22098840143E+02  0.11002226991E+02 -0.14718154654E+02  0.28740769142E+02  0.00000000000E+00 0. -1.
</event>
<event>
 7    1  0.2756432E-009  0.4778727E+02  0.7816164E-02  0.1312668E+00
        -11   -1    0    0    0    0  0.00000000000E+00  0.00000000000E+00  0.45593999997E+02  0.45594000000E+02  0.51100000000E-03 0.  1.
         11   -1    0    0    0    0 -0.00000000000E+00 -0.00000000000E+00 -0.45593999997E+02  0.45594000000E+02  0.51100000000E-03 0. -1.
    9900012    2    1    2    0    0  0.61205521224E+01  0.41695376613E+02 -0.10375823698E+02  0.47787270668E+02  0.19999998283E+02 0.  0.
        -12    1    1    2    0    0 -0.61205521224E+01 -0.41695376613E+02  0.10375823698E+02  0.43400729332E+02  0.00000000000E+00 0.  1.
         11    1    3    3    0    0  0.24130499383E+01  0.14416916994E+02 -0.13289523209E+02  0.19755549423E+02  0.51100000000E-03 0. -1.
        -11    1    3    3    0    0  0.13722053179E+01  0.14667334949E+02  0.36775219960E+01  0.15183472271E+02  0.51100000000E-03 0.  1.
         12    1    3    3    0    0  0.23352968662E+01  0.12611124670E+02 -0.76382248508E+00  0.12848248974E+02  0.00000000000E+00 0. -1.
</event>
<event>
 7    1  0.2756432E-009  0.4778727E+02  0.7816164E-02  0.1312668E+00
        -11   -1    0    0    0    0  0.00000000000E+00  0.00000000000E+00  0.45593999997E+02  0.45594000000E+02  0.51100000000E-03 0.  1.
         11   -1    0    0    0    0 -0.00000000000E+00 -0.00000000000E+00 -0.45593999997E+02  0.45594000000E+02  0.51100000000E-03 0. -1.
    9900012    2    1    2    0    0 -0.29060652876E+02 -0.21124951251E+02 -0.24348261587E+02  0.47787274739E+02  0.20000016843E+02 0.  0.
        -12    1    1    2    0    0  0.29060652876E+02  0.21124951251E+02  0.24348261587E+02  0.43400725261E+02  0.00000000000E+00 0.  1.
         11    1    3    3    0    0 -0.30331891790E+01 -0.89071715246E+01 -0.12543088277E+02  0.15680146841E+02  0.51100000000E-03 0. -1.
        -11    1    3    3    0    0 -0.33238720846E+01 -0.50005841889E+01 -0.29655113993E+01  0.66968818107E+01  0.51100000000E-03 0.  1.
         12    1    3    3    0    0 -0.22703591612E+02 -0.72171955379E+01 -0.88396619101E+01  0.25410246087E+02  0.00000000000E+00 0. -1.
</event>
<event>
 7    1  0.2756432E-009  0.4778727E+02  0.7816164E-02  0.1312668E+00
        -11   -1    0    0    0    0  0.00000000000E+00  0.00000000000E+00  0.45593999997E+02  0.45594000000E+02  0.51100000000E-03 0.  1.
         11   -1    0    0    0    0 -0.00000000000E+00 -0.00000000000E+00 -0.45593999997E+02  0.45594000000E+02  0.51100000000E-03 0. -1.
    9900012    2    1    2    0    0 -0.37568770716E+02 -0.16252494270E+02  0.14424537220E+02  0.47787269855E+02  0.19999994576E+02 0.  0.
        -12    1    1    2    0    0  0.37568770716E+02  0.16252494270E+02 -0.14424537220E+02  0.43400730145E+02  0.00000000000E+00 0.  1.
         11    1    3    3    0    0 -0.27909548460E+02 -0.76837832976E+01  0.11648498732E+02  0.31203700806E+02  0.51100000000E-03 0. -1.
        -11    1    3    3    0    0 -0.53881875175E+01 -0.10373609954E+02  0.23853732105E+01  0.11930396214E+02  0.51100000000E-03 0.  1.
         12    1    3    3    0    0 -0.42710347382E+01  0.18048989822E+01  0.39066527753E+00  0.46531728347E+01  0.00000000000E+00 0. -1.
</event>
<event>
 7    1  0.2756432E-009  0.4778727E+02  0.7816164E-02  0.1312668E+00
        -11   -1    0    0    0    0  0.00000000000E+00  0.00000000000E+00  0.45593999997E+02  0.45594000000E+02  0.51100000000E-03 0. -1.
         11   -1    0    0    0    0 -0.00000000000E+00 -0.00000000000E+00 -0.45593999997E+02  0.45594000000E+02  0.51100000000E-03 0.  1.
    9900012    2    1    2    0    0 -0.40790919024E+02 -0.94867641748E+01  0.11389726083E+02  0.47787266947E+02  0.19999981318E+02 0.  0.
        -12    1    1    2    0    0  0.40790919024E+02  0.94867641748E+01 -0.11389726083E+02  0.43400733053E+02  0.00000000000E+00 0.  1.
         11    1    3    3    0    0 -0.86182042289E+01  0.28364913204E+01  0.80628699648E+01  0.12137915780E+02  0.51100000000E-03 0. -1.
        -11    1    3    3    0    0 -0.78877518101E+01 -0.71756708736E+01  0.12981174072E+01  0.10742066383E+02  0.51100000000E-03 0.  1.
         12    1    3    3    0    0 -0.24284962985E+02 -0.51475846215E+01  0.20287387105E+01  0.24907284785E+02  0.00000000000E+00 0. -1.
</event>
<event>
 7    1  0.2756432E-009  0.4778726E+02  0.7816164E-02  0.1312668E+00
        -11   -1    0    0    0    0  0.00000000000E+00  0.00000000000E+00  0.45593999997E+02  0.45594000000E+02  0.51100000000E-03 0. -1.
         11   -1    0    0    0    0 -0.00000000000E+00 -0.00000000000E+00 -0.45593999997E+02  0.45594000000E+02  0.51100000000E-03 0.  1.
    9900012    2    1    2    0    0 -0.21654816982E+02 -0.36577044313E+02  0.87643194868E+01  0.47787256167E+02  0.19999932169E+02 0.  0.
        -12    1    1    2    0    0  0.21654816982E+02  0.36577044313E+02 -0.87643194868E+01  0.43400743833E+02  0.00000000000E+00 0.  1.
         11    1    3    3    0    0 -0.14816259813E+02 -0.12172877601E+02  0.35086614642E+01  0.19493876204E+02  0.51100000000E-03 0. -1.
        -11    1    3    3    0    0  0.24691097828E+01 -0.12694003213E+01 -0.13833562226E+00  0.27797513019E+01  0.51100000000E-03 0.  1.
         12    1    3    3    0    0 -0.93076669518E+01 -0.23134766391E+02  0.53939936448E+01  0.25513628662E+02  0.00000000000E+00 0. -1.
</event>
<event>
 7    1  0.2756432E-009  0.4778727E+02  0.7816164E-02  0.1312668E+00
        -11   -1    0    0    0    0  0.00000000000E+00  0.00000000000E+00  0.45593999997E+02  0.45594000000E+02  0.51100000000E-03 0.  1.
         11   -1    0    0    0    0 -0.00000000000E+00 -0.00000000000E+00 -0.45593999997E+02  0.45594000000E+02  0.51100000000E-03 0. -1.
    9900012    2    1    2    0    0 -0.37464068404E+02 -0.22931333492E+01 -0.21790103801E+02  0.47787268374E+02  0.19999987826E+02 0.  0.
        -12    1    1    2    0    0  0.37464068404E+02  0.22931333492E+01  0.21790103801E+02  0.43400731626E+02  0.00000000000E+00 0.  1.
         11    1    3    3    0    0 -0.13924926098E+01  0.34040823286E+01 -0.30959311883E+01  0.48074527925E+01  0.51100000000E-03 0. -1.
        -11    1    3    3    0    0 -0.32542595980E+02 -0.60580665405E+01 -0.20564607446E+02  0.38969524029E+02  0.51100000000E-03 0.  1.
        -12    1    3    3    0    0 -0.35289798144E+01  0.36085086275E+00  0.18704348334E+01  0.40102915532E+01  0.00000000000E+00 0.  1.
</event>
<event>
 7    1  0.2756432E-009  0.4778725E+02  0.7816164E-02  0.1312668E+00
        -11   -1    0    0    0    0  0.00000000000E+00  0.00000000000E+00  0.45593999997E+02  0.45594000000E+02  0.51100000000E-03 0.  1.
         11   -1    0    0    0    0 -0.00000000000E+00 -0.00000000000E+00 -0.45593999997E+02  0.45594000000E+02  0.51100000000E-03 0. -1.
    9900012    2    1    2    0    0  0.36494437740E+01  0.42467085500E+02 -0.81763973248E+01  0.47787248118E+02  0.19999895467E+02 0.  0.
        -12    1    1    2    0    0 -0.36494437740E+01 -0.42467085500E+02  0.81763973248E+01  0.43400751882E+02  0.00000000000E+00 0.  1.
         11    1    3    3    0    0  0.81663427479E+01  0.16009562519E+02 -0.17137204619E+01  0.18053589228E+02  0.51100000000E-03 0. -1.
        -11    1    3    3    0    0 -0.19213941453E+01  0.12048148549E+02 -0.86144189125E+01  0.14935121438E+02  0.51100000000E-03 0.  1.
        -12    1    3    3    0    0 -0.25955048285E+01  0.14409374433E+02  0.21517420496E+01  0.14798537452E+02  0.00000000000E+00 0.  1.
</event>
<event>
 7    1  0.2756432E-009  0.4778727E+02  0.7816164E-02  0.1312668E+00
        -11   -1    0    0    0    0  0.00000000000E+00  0.00000000000E+00  0.45593999997E+02  0.45594000000E+02  0.51100000000E-03 0.  1.
         11   -1    0    0    0    0 -0.00000000000E+00 -0.00000000000E+00 -0.45593999997E+02  0.45594000000E+02  0.51100000000E-03 0. -1.
    9900012    2    1    2    0    0 -0.17199307931E+02  0.39403196183E+02 -0.59325933281E+01  0.47787265832E+02  0.19999976233E+02 0.  0.
        -12    1    1    2    0    0  0.17199307931E+02 -0.39403196183E+02  0.59325933281E+01  0.43400734168E+02  0.00000000000E+00 0.  1.
         11    1    3    3    0    0 -0.18653561781E+02  0.35967918874E+02 -0.48972783822E+01  0.40812129215E+02  0.51100000000E-03 0. -1.
        -11    1    3    3    0    0  0.17990439803E+01 -0.11509285082E+01 -0.10412046713E+01  0.23759846596E+01  0.51100000000E-03 0.  1.
        -12    1    3    3    0    0 -0.34479013007E+00  0.45862058177E+01  0.58897254797E-02  0.45991519571E+01  0.00000000000E+00 0.  1.
</event>
<event>
 7    1  0.2756432E-009  0.4778726E+02  0.7816164E-02  0.1312668E+00
        -11   -1    0    0    0    0  0.00000000000E+00  0.00000000000E+00  0.45593999997E+02  0.45594000000E+02  0.51100000000E-03 0.  1.
         11   -1    0    0    0    0 -0.00000000000E+00 -0.00000000000E+00 -0.45593999997E+02  0.45594000000E+02  0.51100000000E-03 0. -1.
    9900012    2    1    2    0    0 -0.20583117978E+02  0.50814396834E+00 -0.38206037762E+02  0.47787259482E+02  0.19999947284E+02 0.  0.
        -12    1    1    2    0    0  0.20583117978E+02 -0.50814396834E+00  0.38206037762E+02  0.43400740518E+02  0.00000000000E+00 0.  1.
         11    1    3    3    0    0 -0.42414661679E+01  0.14197538483E+01  0.69824552648E+00  0.45269507751E+01  0.51100000000E-03 0.  1.
        -11    1    3    3    0    0 -0.12328208620E+02 -0.48375872740E+01 -0.25685471749E+02  0.28898623455E+02  0.51100000000E-03 0. -1.
        -12    1    3    3    0    0 -0.40134431902E+01  0.39259773941E+01 -0.13218811540E+02  0.14361685252E+02  0.00000000000E+00 0.  1.
</event>
<event>
 7    1  0.2756432E-009  0.4778727E+02  0.7816164E-02  0.1312668E+00
        -11   -1    0    0    0    0  0.00000000000E+00  0.00000000000E+00  0.45593999997E+02  0.45594000000E+02  0.51100000000E-03 0.  1.
         11   -1    0    0    0    0 -0.00000000000E+00 -0.00000000000E+00 -0.45593999997E+02  0.45594000000E+02  0.51100000000E-03 0. -1.
    9900012    2    1    2    0    0 -0.14812905218E+02 -0.74857839740E+01 -0.40101924632E+02  0.47787268648E+02  0.19999989074E+02 0.  0.
        -12    1    1    2    0    0  0.14812905218E+02  0.74857839740E+01  0.40101924632E+02  0.43400731352E+02  0.00000000000E+00 0.  1.
         11    1    3    3    0    0 -0.10722788795E+02  0.77638220337E+00 -0.14342958161E+02  0.17924882648E+02  0.51100000000E-03 0. -1.
        -11    1    3    3    0    0  0.38270961739E+01 -0.54737977720E+01 -0.10416706075E+02  0.12374041090E+02  0.51100000000E-03 0.  1.
        -12    1    3    3    0    0 -0.79172125973E+01 -0.27883684054E+01 -0.15342260395E+02  0.17488344911E+02  0.00000000000E+00 0.  1.
</event>
<event>
 7    1  0.2756432E-009  0.4778732E+02  0.7816164E-02  0.1312668E+00
        -11   -1    0    0    0    0  0.00000000000E+00  0.00000000000E+00  0.45593999997E+02  0.45594000000E+02  0.51100000000E-03 0.  1.
         11   -1    0    0    0    0 -0.00000000000E+00 -0.00000000000E+00 -0.45593999997E+02  0.45594000000E+02  0.51100000000E-03 0. -1.
    9900012    2    1    2    0    0  0.41053491001E+01  0.21196073802E+02 -0.37649587941E+02  0.47787321342E+02  0.20000229326E+02 0.  0.
        -12    1    1    2    0    0 -0.41053491001E+01 -0.21196073802E+02  0.37649587941E+02  0.43400678658E+02  0.00000000000E+00 0.  1.
         11    1    3    3    0    0 -0.43580094997E+01  0.16251674725E+02 -0.16812774664E+02  0.23786100360E+02  0.51100000000E-03 0. -1.
        -11    1    3    3    0    0  0.21771629417E+01 -0.34933744394E+00 -0.10830206075E+02  0.11052395171E+02  0.51100000000E-03 0.  1.
         12    1    3    3    0    0  0.62861956582E+01  0.52937365211E+01 -0.10006607202E+02  0.12948825811E+02  0.00000000000E+00 0. -1.
</event>
<event>
 7    1  0.2756432E-009  0.4778727E+02  0.7816164E-02  0.1312668E+00
        -11   -1    0    0    0    0  0.00000000000E+00  0.00000000000E+00  0.45593999997E+02  0.45594000000E+02  0.51100000000E-03 0.  1.
         11   -1    0    0    0    0 -0.00000000000E+00 -0.00000000000E+00 -0.45593999997E+02  0.45594000000E+02  0.51100000000E-03 0. -1.
    9900012    2    1    2    0    0 -0.23747831952E+02  0.32923276803E+02  0.15353243913E+02  0.47787265253E+02  0.19999973597E+02 0.  0.
        -12    1    1    2    0    0  0.23747831952E+02 -0.32923276803E+02 -0.15353243913E+02  0.43400734747E+02  0.00000000000E+00 0.  1.
         11    1    3    3    0    0 -0.15214653309E+02  0.13489530733E+02  0.44726744901E+01  0.20819652544E+02  0.51100000000E-03 0. -1.
        -11    1    3    3    0    0 -0.53499271504E+01  0.19266255875E+02  0.12302882975E+02  0.23477036987E+02  0.51100000000E-03 0.  1.
        -12    1    3    3    0    0 -0.31832514927E+01  0.16749019523E+00 -0.14223135516E+01  0.34905757219E+01  0.00000000000E+00 0.  1.
</event>
<event>
 7    1  0.2756432E-009  0.4778727E+02  0.7816164E-02  0.1312668E+00
        -11   -1    0    0    0    0  0.00000000000E+00  0.00000000000E+00  0.45593999997E+02  0.45594000000E+02  0.51100000000E-03 0.  1.
         11   -1    0    0    0    0 -0.00000000000E+00 -0.00000000000E+00 -0.45593999997E+02  0.45594000000E+02  0.51100000000E-03 0. -1.
    9900012    2    1    2    0    0 -0.25567313427E+02 -0.11127009546E+02 -0.33258459759E+02  0.47787274167E+02  0.20000014236E+02 0.  0.
        -12    1    1    2    0    0  0.25567313427E+02  0.11127009546E+02  0.33258459759E+02  0.43400725833E+02  0.00000000000E+00 0.  1.
         11    1    3    3    0    0 -0.88537890155E+01 -0.58043412875E+01 -0.14894010048E+01  0.10691037056E+02  0.51100000000E-03 0.  1.
        -11    1    3    3    0    0 -0.62252565513E+01 -0.22577111043E+01 -0.19854873907E+02  0.20930052476E+02  0.51100000000E-03 0. -1.
         12    1    3    3    0    0 -0.10488267860E+02 -0.30649571546E+01 -0.11914184847E+02  0.16166184635E+02  0.00000000000E+00 0. -1.
</event>
<event>
 7    1  0.2756432E-009  0.4778727E+02  0.7816164E-02  0.1312668E+00
        -11   -1    0    0    0    0  0.00000000000E+00  0.00000000000E+00  0.45593999997E+02  0.45594000000E+02  0.51100000000E-03 0.  1.
         11   -1    0    0    0    0 -0.00000000000E+00 -0.00000000000E+00 -0.45593999997E+02  0.45594000000E+02  0.51100000000E-03 0. -1.
    9900012    2    1    2    0    0  0.15842133160E+02  0.74552021140E+01 -0.39712340867E+02  0.47787271450E+02  0.20000001847E+02 0.  0.
        -12    1    1    2    0    0 -0.15842133160E+02 -0.74552021140E+01  0.39712340867E+02  0.43400728550E+02  0.00000000000E+00 0.  1.
         11    1    3    3    0    0  0.59653824176E+01  0.24982757067E+01 -0.71307260558E+00  0.65065844878E+01  0.51100000000E-03 0.  1.
        -11    1    3    3    0    0  0.17830068044E+01  0.58783170449E+00 -0.89089997541E+00  0.20780669875E+01  0.51100000000E-03 0. -1.
         12    1    3    3    0    0  0.80937439378E+01  0.43690947028E+01 -0.38108368286E+02  0.39202619974E+02  0.00000000000E+00 0. -1.
</event>
<event>
 7    1  0.2756432E-009  0.4778727E+02  0.7816164E-02  0.1312668E+00
        -11   -1    0    0    0    0  0.00000000000E+00  0.00000000000E+00  0.45593999997E+02  0.45594000000E+02  0.51100000000E-03 0.  1.
         11   -1    0    0    0    0 -0.00000000000E+00 -0.00000000000E+00 -0.45593999997E+02  0.45594000000E+02  0.51100000000E-03 0. -1.
    9900012    2    1    2    0    0 -0.92167110823E+01  0.41046832503E+02 -0.10669258384E+02  0.47787270787E+02  0.19999998827E+02 0.  0.
        -12    1    1    2    0    0  0.92167110823E+01 -0.41046832503E+02  0.10669258384E+02  0.43400729213E+02  0.00000000000E+00 0.  1.
         11    1    3    3    0    0 -0.10299530011E+02  0.19977163688E+02  0.86796079246E+00  0.22492682003E+02  0.51100000000E-03 0.  1.
        -11    1    3    3    0    0 -0.22278266143E+01  0.14298425227E+02 -0.10032793078E+02  0.17608665838E+02  0.51100000000E-03 0. -1.
        -12    1    3    3    0    0  0.33106455434E+01  0.67712435887E+01 -0.15044260987E+01  0.76859229464E+01  0.00000000000E+00 0.  1.
</event>
<event>
 7    1  0.2756432E-009  0.4778726E+02  0.7816164E-02  0.1312668E+00
        -11   -1    0    0    0    0  0.00000000000E+00  0.00000000000E+00  0.45593999997E+02  0.45594000000E+02  0.51100000000E-03 0.  1.
         11   -1    0    0    0    0 -0.00000000000E+00 -0.00000000000E+00 -0.45593999997E+02  0.45594000000E+02  0.51100000000E-03 0. -1.
    9900012    2    1    2    0    0 -0.32772346881E+02 -0.11126020620E+02 -0.26187958399E+02  0.47787260145E+02  0.19999950303E+02 0.  0.
        -12    1    1    2    0    0  0.32772346881E+02  0.11126020620E+02  0.26187958399E+02  0.43400739855E+02  0.00000000000E+00 0.  1.
         11    1    3    3    0    0 -0.13501226033E+02  0.46076809587E+01 -0.80566606152E+01  0.16383638447E+02  0.51100000000E-03 0.  1.
        -11    1    3    3    0    0 -0.15880285490E+02 -0.94666673167E+01 -0.13727381519E+02  0.23026989837E+02  0.51100000000E-03 0. -1.
         12    1    3    3    0    0 -0.33908353571E+01 -0.62670342623E+01 -0.44039162649E+01  0.83766318609E+01  0.00000000000E+00 0. -1.
</event>
<event>
 7    1  0.2756432E-009  0.4778727E+02  0.7816164E-02  0.1312668E+00
        -11   -1    0    0    0    0  0.00000000000E+00  0.00000000000E+00  0.45593999997E+02  0.45594000000E+02  0.51100000000E-03 0.  1.
         11   -1    0    0    0    0 -0.00000000000E+00 -0.00000000000E+00 -0.45593999997E+02  0.45594000000E+02  0.51100000000E-03 0. -1.
    9900012    2    1    2    0    0  0.26320653797E+02 -0.13945231370E+02 -0.31565441771E+02  0.47787269494E+02  0.19999992931E+02 0.  0.
        -12    1    1    2    0    0 -0.26320653797E+02  0.13945231370E+02  0.31565441771E+02  0.43400730506E+02  0.00000000000E+00 0.  1.
         11    1    3    3    0    0  0.12282298952E+02 -0.96570343041E+00 -0.21218966995E+02  0.24536340625E+02  0.51100000000E-03 0. -1.
        -11    1    3    3    0    0  0.79208708506E+01 -0.44103226557E+01 -0.90864195753E+00  0.91113539843E+01  0.51100000000E-03 0.  1.
         12    1    3    3    0    0  0.61174839936E+01 -0.85692052836E+01 -0.94378328184E+01  0.14139574884E+02  0.00000000000E+00 0. -1.
</event>
<event>
 7    1  0.2756432E-009  0.4778730E+02  0.7816164E-02  0.1312668E+00
        -11   -1    0    0    0    0  0.00000000000E+00  0.00000000000E+00  0.45593999997E+02  0.45594000000E+02  0.51100000000E-03 0.  1.
         11   -1    0    0    0    0 -0.00000000000E+00 -0.00000000000E+00 -0.45593999997E+02  0.45594000000E+02  0.51100000000E-03 0. -1.
    9900012    2    1    2    0    0 -0.38370412642E+01 -0.19039806802E+01 -0.43188806203E+02  0.47787297133E+02  0.20000118947E+02 0.  0.
        -12    1    1    2    0    0  0.38370412642E+01  0.19039806802E+01  0.43188806203E+02  0.43400702867E+02  0.00000000000E+00 0.  1.
         11    1    3    3    0    0 -0.49611030966E+01 -0.80556944232E+01 -0.37085898039E+02  0.38273627869E+02  0.51100000000E-03 0. -1.
        -11    1    3    3    0    0  0.24656422887E+01  0.46065210547E+01 -0.47437272865E+01  0.70570799168E+01  0.51100000000E-03 0.  1.
         12    1    3    3    0    0 -0.13415804563E+01  0.15451926882E+01 -0.13591808775E+01  0.24565893475E+01  0.00000000000E+00 0. -1.
</event>
<event>
 7    1  0.2756432E-009  0.4778728E+02  0.7816164E-02  0.1312668E+00
        -11   -1    0    0    0    0  0.00000000000E+00  0.00000000000E+00  0.45593999997E+02  0.45594000000E+02  0.51100000000E-03 0.  1.
         11   -1    0    0    0    0 -0.00000000000E+00 -0.00000000000E+00 -0.45593999997E+02  0.45594000000E+02  0.51100000000E-03 0. -1.
    9900012    2    1    2    0    0 -0.34452515505E+02  0.26387344775E+02 -0.59564840737E+00  0.47787278970E+02  0.20000036136E+02 0.  0.
        -12    1    1    2    0    0  0.34452515505E+02 -0.26387344775E+02  0.59564840737E+00  0.43400721030E+02  0.00000000000E+00 0.  1.
         11    1    3    3    0    0 -0.29709385306E+02  0.14402425751E+02  0.21392933032E-01  0.33016327789E+02  0.51100000000E-03 0. -1.
        -11    1    3    3    0    0 -0.96857814356E-01  0.85521925895E+01 -0.21001221420E+01  0.88068094561E+01  0.51100000000E-03 0.  1.
        -12    1    3    3    0    0 -0.46462723849E+01  0.34327264347E+01  0.14830808016E+01  0.59641417249E+01  0.00000000000E+00 0.  1.
</event>
<event>
 7    1  0.2756432E-009  0.4778726E+02  0.7816164E-02  0.1312668E+00
        -11   -1    0    0    0    0  0.00000000000E+00  0.00000000000E+00  0.45593999997E+02  0.45594000000E+02  0.51100000000E-03 0.  1.
         11   -1    0    0    0    0 -0.00000000000E+00 -0.00000000000E+00 -0.45593999997E+02  0.45594000000E+02  0.51100000000E-03 0. -1.
    9900012    2    1    2    0    0 -0.35329243681E+02 -0.20572957757E+02 -0.14567849277E+02  0.47787259424E+02  0.19999947017E+02 0.  0.
        -12    1    1    2    0    0  0.35329243681E+02  0.20572957757E+02  0.14567849277E+02  0.43400740576E+02  0.00000000000E+00 0.  1.
         11    1    3    3    0    0 -0.24801919874E+02 -0.22824822943E+02 -0.10053602414E+02  0.35173607912E+02  0.51100000000E-03 0. -1.
        -11    1    3    3    0    0 -0.92114408567E+01  0.61887033089E-01 -0.33003303572E+01  0.97850218901E+01  0.51100000000E-03 0.  1.
         12    1    3    3    0    0 -0.13158829511E+01  0.21899781529E+01 -0.12139165067E+01  0.28286296217E+01  0.00000000000E+00 0. -1.
</event>
<event>
 7    1  0.2756432E-009  0.4778726E+02  0.7816164E-02  0.1312668E+00
        -11   -1    0    0    0    0  0.00000000000E+00  0.00000000000E+00  0.45593999997E+02  0.45594000000E+02  0.51100000000E-03 0. -1.
         11   -1    0    0    0    0 -0.00000000000E+00 -0.00000000000E+00 -0.45593999997E+02  0.45594000000E+02  0.51100000000E-03 0.  1.
    9900012    2    1    2    0    0  0.17680919202E+02  0.39154213205E+02  0.61609231592E+01  0.47787259342E+02  0.19999946643E+02 0.  0.
        -12    1    1    2    0    0 -0.17680919202E+02 -0.39154213205E+02 -0.61609231592E+01  0.43400740658E+02  0.00000000000E+00 0.  1.
         11    1    3    3    0    0  0.40873810337E+01  0.61013065896E+01  0.75337950626E+01  0.10520964505E+02  0.51100000000E-03 0. -1.
        -11    1    3    3    0    0 -0.92860100234E+00  0.86235255143E+01 -0.17299222804E+01  0.88442141242E+01  0.51100000000E-03 0.  1.
         12    1    3    3    0    0  0.14522139170E+02  0.24429381101E+02  0.35705037704E+00  0.28422080712E+02  0.00000000000E+00 0. -1.
</event>
<event>
 7    1  0.2756432E-009  0.4778727E+02  0.7816164E-02  0.1312668E+00
        -11   -1    0    0    0    0  0.00000000000E+00  0.00000000000E+00  0.45593999997E+02  0.45594000000E+02  0.51100000000E-03 0.  1.
         11   -1    0    0    0    0 -0.00000000000E+00 -0.00000000000E+00 -0.45593999997E+02  0.45594000000E+02  0.51100000000E-03 0. -1.
    9900012    2    1    2    0    0 -0.16341293482E+02  0.20270606085E+01 -0.40155651543E+02  0.47787271916E+02  0.20000003974E+02 0.  0.
        -12    1    1    2    0    0  0.16341293482E+02 -0.20270606085E+01  0.40155651543E+02  0.43400728084E+02  0.00000000000E+00 0.  1.
         11    1    3    3    0    0 -0.17223050237E+02 -0.22372995386E+01 -0.34681539026E+02  0.38787215911E+02  0.51100000000E-03 0. -1.
        -11    1    3    3    0    0  0.78087384993E+00  0.56652652919E+01 -0.46569442288E+01  0.73751016677E+01  0.51100000000E-03 0.  1.
         12    1    3    3    0    0  0.10088290518E+00 -0.14009051448E+01 -0.81716828851E+00  0.16249543369E+01  0.00000000000E+00 0. -1.
</event>
<event>
 7    1  0.2756432E-009  0.4778722E+02  0.7816164E-02  0.1312668E+00
        -11   -1    0    0    0    0  0.00000000000E+00  0.00000000000E+00  0.45593999997E+02  0.45594000000E+02  0.51100000000E-03 0.  1.
         11   -1    0    0    0    0 -0.00000000000E+00 -0.00000000000E+00 -0.45593999997E+02  0.45594000000E+02  0.51100000000E-03 0. -1.
    9900012    2    1    2    0    0 -0.21194181971E+02  0.32184204804E+02 -0.19965258863E+02  0.47787217175E+02  0.19999754388E+02 0.  0.
        -12    1    1    2    0    0  0.21194181971E+02 -0.32184204804E+02  0.19965258863E+02  0.43400782825E+02  0.00000000000E+00 0.  1.
         11    1    3    3    0    0 -0.15380614657E+02  0.25239902603E+02 -0.98890065426E+01  0.31167425966E+02  0.51100000000E-03 0. -1.
        -11    1    3    3    0    0 -0.41376192926E+01  0.46398200161E+00  0.40537193213E+00  0.41832402959E+01  0.51100000000E-03 0.  1.
         12    1    3    3    0    0 -0.16759480218E+01  0.64803201992E+01 -0.10481624253E+02  0.12436550914E+02  0.00000000000E+00 0. -1.
</event>
<event>
 7    1  0.2756432E-009  0.4778731E+02  0.7816164E-02  0.1312668E+00
        -11   -1    0    0    0    0  0.00000000000E+00  0.00000000000E+00  0.45593999997E+02  0.45594000000E+02  0.51100000000E-03 0.  1.
         11   -1    0    0    0    0 -0.00000000000E+00 -0.00000000000E+00 -0.45593999997E+02  0.45594000000E+02  0.51100000000E-03 0. -1.
    9900012    2    1    2    0    0 -0.53213139226E+01 -0.13209391755E+02 -0.40997749653E+02  0.47787310040E+02  0.20000177794E+02 0.  0.
        -12    1    1    2    0    0  0.53213139226E+01  0.13209391755E+02  0.40997749653E+02  0.43400689960E+02  0.00000000000E+00 0.  1.
         11    1    3    3    0    0  0.42791561038E+00 -0.37895864784E+01 -0.84725502502E+01  0.92912962201E+01  0.51100000000E-03 0. -1.
        -11    1    3    3    0    0  0.53406594253E+01 -0.29766639673E+01 -0.18530278021E+02  0.19512928414E+02  0.51100000000E-03 0.  1.
        -12    1    3    3    0    0 -0.11089888958E+02 -0.64431413091E+01 -0.13994921382E+02  0.18983085406E+02  0.00000000000E+00 0.  1.
</event>
<event>
 7    1  0.2756432E-009  0.4778727E+02  0.7816164E-02  0.1312668E+00
        -11   -1    0    0    0    0  0.00000000000E+00  0.00000000000E+00  0.45593999997E+02  0.45594000000E+02  0.51100000000E-03 0.  1.
         11   -1    0    0    0    0 -0.00000000000E+00 -0.00000000000E+00 -0.45593999997E+02  0.45594000000E+02  0.51100000000E-03 0. -1.
    9900012    2    1    2    0    0 -0.26972753582E+02  0.11221916547E+02 -0.32096142629E+02  0.47787271683E+02  0.20000002913E+02 0.  0.
        -12    1    1    2    0    0  0.26972753582E+02 -0.11221916547E+02  0.32096142629E+02  0.43400728317E+02  0.00000000000E+00 0.  1.
         11    1    3    3    0    0 -0.29276644752E+02  0.12137382871E+02 -0.26072674710E+02  0.41039278231E+02  0.51100000000E-03 0. -1.
        -11    1    3    3    0    0  0.12329942277E+01 -0.12146087804E+01 -0.24083977164E+01  0.29657931614E+01  0.51100000000E-03 0.  1.
         12    1    3    3    0    0  0.10708969430E+01  0.29914245593E+00 -0.36150702026E+01  0.37822002909E+01  0.00000000000E+00 0. -1.
</event>
<event>
 7    1  0.2756432E-009  0.4778727E+02  0.7816164E-02  0.1312668E+00
        -11   -1    0    0    0    0  0.00000000000E+00  0.00000000000E+00  0.45593999997E+02  0.45594000000E+02  0.51100000000E-03 0. -1.
         11   -1    0    0    0    0 -0.00000000000E+00 -0.00000000000E+00 -0.45593999997E+02  0.45594000000E+02  0.51100000000E-03 0.  1.
    9900012    2    1    2    0    0  0.12498937310E+02 -0.18613072026E+02  0.37161179761E+02  0.47787272295E+02  0.20000005701E+02 0.  0.
        -12    1    1    2    0    0 -0.12498937310E+02  0.18613072026E+02 -0.37161179761E+02  0.43400727705E+02  0.00000000000E+00 0.  1.
         11    1    3    3    0    0  0.22805632250E+01 -0.13393810626E+01  0.15035271945E+02  0.15266116500E+02  0.51100000000E-03 0. -1.
        -11    1    3    3    0    0  0.10339917775E+02 -0.77169518868E+01  0.71374693638E+01  0.14744786035E+02  0.51100000000E-03 0.  1.
        -12    1    3    3    0    0 -0.12154369026E+00 -0.95567390764E+01  0.14988438452E+02  0.17776369761E+02  0.00000000000E+00 0.  1.
</event>
<event>
 7    1  0.2756432E-009  0.4778727E+02  0.7816164E-02  0.1312668E+00
        -11   -1    0    0    0    0  0.00000000000E+00  0.00000000000E+00  0.45593999997E+02  0.45594000000E+02  0.51100000000E-03 0.  1.
         11   -1    0    0    0    0 -0.00000000000E+00 -0.00000000000E+00 -0.45593999997E+02  0.45594000000E+02  0.51100000000E-03 0. -1.
    9900012    2    1    2    0    0 -0.19179958553E+02  0.52827865743E+01 -0.38572589305E+02  0.47787270862E+02  0.19999999167E+02 0.  0.
        -12    1    1    2    0    0  0.19179958553E+02 -0.52827865743E+01  0.38572589305E+02  0.43400729138E+02  0.00000000000E+00 0.  1.
         11    1    3    3    0    0 -0.62809170582E+01  0.37136992834E+01 -0.14263634661E+02  0.16021633983E+02  0.51100000000E-03 0. -1.
        -11    1    3    3    0    0  0.35287990883E+01  0.10501742461E+01 -0.24729598530E+01  0.44351797763E+01  0.51100000000E-03 0.  1.
        -12    1    3    3    0    0 -0.16427840583E+02  0.51891304479E+00 -0.21835994790E+02  0.27330457103E+02  0.00000000000E+00 0.  1.
</event>
<event>
 7    1  0.2756432E-009  0.4778727E+02  0.7816164E-02  0.1312668E+00
        -11   -1    0    0    0    0  0.00000000000E+00  0.00000000000E+00  0.45593999997E+02  0.45594000000E+02  0.51100000000E-03 0. -1.
         11   -1    0    0    0    0 -0.00000000000E+00 -0.00000000000E+00 -0.45593999997E+02  0.45594000000E+02  0.51100000000E-03 0.  1.
    9900012    2    1    2    0    0 -0.39918501688E+02 -0.16119484153E+02  0.55044401172E+01  0.47787269506E+02  0.19999992987E+02 0.  0.
        -12    1    1    2    0    0  0.39918501688E+02  0.16119484153E+02 -0.55044401172E+01  0.43400730494E+02  0.00000000000E+00 0.  1.
         11    1    3    3    0    0 -0.26761041357E+02 -0.27243912292E+01  0.28291958234E+00  0.26900849165E+02  0.51100000000E-03 0. -1.
        -11    1    3    3    0    0 -0.90808426474E+01 -0.11851087739E+02  0.65865586997E+01  0.16318478469E+02  0.51100000000E-03 0.  1.
         12    1    3    3    0    0 -0.40766176840E+01 -0.15440051854E+01 -0.13650381649E+01  0.45679418720E+01  0.00000000000E+00 0. -1.
</event>
<event>
 7    1  0.2756432E-009  0.4778727E+02  0.7816164E-02  0.1312668E+00
        -11   -1    0    0    0    0  0.00000000000E+00  0.00000000000E+00  0.45593999997E+02  0.45594000000E+02  0.51100000000E-03 0.  1.
         11   -1    0    0    0    0 -0.00000000000E+00 -0.00000000000E+00 -0.45593999997E+02  0.45594000000E+02  0.51100000000E-03 0. -1.
    9900012    2    1    2    0    0  0.27882980918E+02 -0.36619175744E+00 -0.33257007029E+02  0.47787271460E+02  0.20000001895E+02 0.  0.
        -12    1    1    2    0    0 -0.27882980918E+02  0.36619175744E+00  0.33257007029E+02  0.43400728540E+02  0.00000000000E+00 0.  1.
         11    1    3    3    0    0  0.20339145735E+02 -0.23832999101E+01 -0.23857277652E+02  0.31440907507E+02  0.51100000000E-03 0. -1.
        -11    1    3    3    0    0 -0.24833152697E+01  0.19497269974E+01 -0.34936788839E+01  0.47089364509E+01  0.51100000000E-03 0.  1.
        -12    1    3    3    0    0  0.10027150453E+02  0.67381155238E-01 -0.59060504932E+01  0.11637427502E+02  0.00000000000E+00 0.  1.
</event>
<event>
 7    1  0.2756432E-009  0.4778728E+02  0.7816164E-02  0.1312668E+00
        -11   -1    0    0    0    0  0.00000000000E+00  0.00000000000E+00  0.45593999997E+02  0.45594000000E+02  0.51100000000E-03 0.  1.
         11   -1    0    0    0    0 -0.00000000000E+00 -0.00000000000E+00 -0.45593999997E+02  0.45594000000E+02  0.51100000000E-03 0. -1.
    9900012    2    1    2    0    0 -0.41711318829E+02 -0.11280901359E+02 -0.40656678293E+01  0.47787279858E+02  0.20000040184E+02 0.  0.
        -12    1    1    2    0    0  0.41711318829E+02  0.11280901359E+02  0.40656678293E+01  0.43400720142E+02  0.00000000000E+00 0.  1.
         11    1    3    3    0    0 -0.19311751027E+02  0.19331768267E+01  0.17311170518E+01  0.19485319265E+02  0.51100000000E-03 0. -1.
        -11    1    3    3    0    0 -0.17836868768E+01  0.12890321104E+01 -0.16643796362E+01  0.27592213559E+01  0.51100000000E-03 0.  1.
         12    1    3    3    0    0 -0.20615880926E+02 -0.14503110297E+02 -0.41324052448E+01  0.25542739237E+02  0.00000000000E+00 0. -1.
</event>
<event>
 7    1  0.2756432E-009  0.4778727E+02  0.7816164E-02  0.1312668E+00
        -11   -1    0    0    0    0  0.00000000000E+00  0.00000000000E+00  0.45593999997E+02  0.45594000000E+02  0.51100000000E-03 0. -1.
         11   -1    0    0    0    0 -0.00000000000E+00 -0.00000000000E+00 -0.45593999997E+02  0.45594000000E+02  0.51100000000E-03 0.  1.
    9900012    2    1    2    0    0  0.90745500301E+01  0.35147088433E+02  0.23789872395E+02  0.47787270604E+02  0.19999997992E+02 0.  0.
        -12    1    1    2    0    0 -0.90745500301E+01 -0.35147088433E+02 -0.23789872395E+02  0.43400729396E+02  0.00000000000E+00 0.  1.
         11    1    3    3    0    0  0.33114303897E+01  0.26249559531E+02  0.22416974949E+02  0.34677452515E+02  0.51100000000E-03 0. -1.
        -11    1    3    3    0    0  0.48199059763E+01  0.62169377725E+01 -0.25467229625E+01  0.82684706564E+01  0.51100000000E-03 0.  1.
        -12    1    3    3    0    0  0.94321366415E+00  0.26805911290E+01  0.39196204083E+01  0.48413474325E+01  0.00000000000E+00 0.  1.
</event>
<event>
 7    1  0.2756432E-009  0.4778728E+02  0.7816164E-02  0.1312668E+00
        -11   -1    0    0    0    0  0.00000000000E+00  0.00000000000E+00  0.45593999997E+02  0.45594000000E+02  0.51100000000E-03 0. -1.
         11   -1    0    0    0    0 -0.00000000000E+00 -0.00000000000E+00 -0.45593999997E+02  0.45594000000E+02  0.51100000000E-03 0.  1.
    9900012    2    1    2    0    0 -0.37364178237E+02 -0.12245841638E+02  0.18373361055E+02  0.47787275937E+02  0.20000022306E+02 0.  0.
        -12    1    1    2    0    0  0.37364178237E+02  0.12245841638E+02 -0.18373361055E+02  0.43400724063E+02  0.00000000000E+00 0.  1.
         11    1    3    3    0    0 -0.63751928019E+01 -0.28439068337E+01  0.27802906161E+01  0.75140472125E+01  0.51100000000E-03 0. -1.
        -11    1    3    3    0    0 -0.16452272547E+01 -0.75198315374E+01  0.25828384477E+01  0.81194638849E+01  0.51100000000E-03 0.  1.
        -12    1    3    3    0    0 -0.29343758181E+02 -0.18821032666E+01  0.13010231992E+02  0.32153764839E+02  0.00000000000E+00 0.  1.
</event>
<event>
 7    1  0.2756432E-009  0.4778727E+02  0.7816164E-02  0.1312668E+00
        -11   -1    0    0    0    0  0.00000000000E+00  0.00000000000E+00  0.45593999997E+02  0.45594000000E+02  0.51100000000E-03 0.  1.
         11   -1    0    0    0    0 -0.00000000000E+00 -0.00000000000E+00 -0.45593999997E+02  0.45594000000E+02  0.51100000000E-03 0. -1.
    9900012    2    1    2    0    0 -0.11615902437E+02  0.30542615365E+02 -0.28562960029E+02  0.47787271568E+02  0.20000002388E+02 0.  0.
        -12    1    1    2    0    0  0.11615902437E+02 -0.30542615365E+02  0.28562960029E+02  0.43400728432E+02  0.00000000000E+00 0.  1.
         11    1    3    3    0    0 -0.23219672441E+01  0.17694787956E+02 -0.50284487063E+01  0.18541368594E+02  0.51100000000E-03 0. -1.
        -11    1    3    3    0    0 -0.27817036871E+01  0.28345083096E+01 -0.12003755728E+02  0.12643672908E+02  0.51100000000E-03 0.  1.
         12    1    3    3    0    0 -0.65122315063E+01  0.10013319100E+02 -0.11530755595E+02  0.16602230067E+02  0.00000000000E+00 0. -1.
</event>
<event>
 7    1  0.2756432E-009  0.4778727E+02  0.7816164E-02  0.1312668E+00
        -11   -1    0    0    0    0  0.00000000000E+00  0.00000000000E+00  0.45593999997E+02  0.45594000000E+02  0.51100000000E-03 0. -1.
         11   -1    0    0    0    0 -0.00000000000E+00 -0.00000000000E+00 -0.45593999997E+02  0.45594000000E+02  0.51100000000E-03 0.  1.
    9900012    2    1    2    0    0 -0.32678307920E+02 -0.14184630465E+02  0.24790071893E+02  0.47787271730E+02  0.20000003125E+02 0.  0.
        -12    1    1    2    0    0  0.32678307920E+02  0.14184630465E+02 -0.24790071893E+02  0.43400728270E+02  0.00000000000E+00 0.  1.
         11    1    3    3    0    0 -0.96231808573E+01 -0.13783298328E+01  0.15452598683E-01  0.97214012357E+01  0.51100000000E-03 0. -1.
        -11    1    3    3    0    0 -0.31297873279E+01 -0.27491347345E+01 -0.66997069527E+00  0.42192619615E+01  0.51100000000E-03 0.  1.
         12    1    3    3    0    0 -0.19925339734E+02 -0.10057165897E+02  0.25444589990E+02  0.33846608533E+02  0.00000000000E+00 0. -1.
</event>
<event>
 7    1  0.2756432E-009  0.4778727E+02  0.7816164E-02  0.1312668E+00
        -11   -1    0    0    0    0  0.00000000000E+00  0.00000000000E+00  0.45593999997E+02  0.45594000000E+02  0.51100000000E-03 0.  1.
         11   -1    0    0    0    0 -0.00000000000E+00 -0.00000000000E+00 -0.45593999997E+02  0.45594000000E+02  0.51100000000E-03 0. -1.
    9900012    2    1    2    0    0  0.34361125101E+02 -0.24946058381E+01 -0.26395329571E+02  0.47787269595E+02  0.19999993393E+02 0.  0.
        -12    1    1    2    0    0 -0.34361125101E+02  0.24946058381E+01  0.26395329571E+02  0.43400730405E+02  0.00000000000E+00 0.  1.
         11    1    3    3    0    0  0.13143941214E+02  0.55223116717E+01 -0.33126315028E+01  0.14636688306E+02  0.51100000000E-03 0. -1.
        -11    1    3    3    0    0  0.20820429686E+02 -0.87847904789E+01 -0.23059036317E+02  0.32285941092E+02  0.51100000000E-03 0.  1.
        -12    1    3    3    0    0  0.39675420114E+00  0.76787296905E+00 -0.23661751668E-01  0.86464019754E+00  0.00000000000E+00 0.  1.
</event>
<event>
 7    1  0.2756432E-009  0.4778727E+02  0.7816164E-02  0.1312668E+00
        -11   -1    0    0    0    0  0.00000000000E+00  0.00000000000E+00  0.45593999997E+02  0.45594000000E+02  0.51100000000E-03 0.  1.
         11   -1    0    0    0    0 -0.00000000000E+00 -0.00000000000E+00 -0.45593999997E+02  0.45594000000E+02  0.51100000000E-03 0. -1.
    9900012    2    1    2    0    0 -0.26986391862E+02  0.16491241452E+02 -0.29721998370E+02  0.47787267547E+02  0.19999984053E+02 0.  0.
        -12    1    1    2    0    0  0.26986391862E+02 -0.16491241452E+02  0.29721998370E+02  0.43400732453E+02  0.00000000000E+00 0.  1.
         11    1    3    3    0    0 -0.20594966752E+00  0.12330957671E+01 -0.37894865385E+01  0.39903820523E+01  0.51100000000E-03 0. -1.
        -11    1    3    3    0    0 -0.72159060268E+01  0.13811431235E+02 -0.13068430814E+02  0.20337374873E+02  0.51100000000E-03 0.  1.
        -12    1    3    3    0    0 -0.19564536168E+02  0.14467144501E+01 -0.12864081018E+02  0.23459510621E+02  0.00000000000E+00 0.  1.
</event>
<event>
 7    1  0.2756432E-009  0.4778728E+02  0.7816164E-02  0.1312668E+00
        -11   -1    0    0    0    0  0.00000000000E+00  0.00000000000E+00  0.45593999997E+02  0.45594000000E+02  0.51100000000E-03 0.  1.
         11   -1    0    0    0    0 -0.00000000000E+00 -0.00000000000E+00 -0.45593999997E+02  0.45594000000E+02  0.51100000000E-03 0. -1.
    9900012    2    1    2    0    0  0.25441722602E+01  0.29047787914E+02 -0.32146165351E+02  0.47787277172E+02  0.20000027939E+02 0.  0.
        -12    1    1    2    0    0 -0.25441722602E+01 -0.29047787914E+02  0.32146165351E+02  0.43400722828E+02  0.00000000000E+00 0.  1.
         11    1    3    3    0    0  0.94138359930E+01  0.16928735861E+02 -0.26236756823E+02  0.32612418107E+02  0.51100000000E-03 0. -1.
        -11    1    3    3    0    0 -0.49232372702E+01  0.85569561380E+01 -0.47363629487E+01  0.10949561535E+02  0.51100000000E-03 0.  1.
         12    1    3    3    0    0 -0.19464264626E+01  0.35620959156E+01 -0.11730455792E+01  0.42252975300E+01  0.00000000000E+00 0. -1.
</event>
<event>
 7    1  0.2756432E-009  0.4778727E+02  0.7816164E-02  0.1312668E+00
        -11   -1    0    0    0    0  0.00000000000E+00  0.00000000000E+00  0.45593999997E+02  0.45594000000E+02  0.51100000000E-03 0.  1.
         11   -1    0    0    0    0 -0.00000000000E+00 -0.00000000000E+00 -0.45593999997E+02  0.45594000000E+02  0.51100000000E-03 0. -1.
    9900012    2    1    2    0    0  0.41883312975E+02  0.14264220642E+01 -0.11286126594E+02  0.47787271444E+02  0.20000001822E+02 0.  0.
        -12    1    1    2    0    0 -0.41883312975E+02 -0.14264220642E+01  0.11286126594E+02  0.43400728556E+02  0.00000000000E+00 0.  1.
         11    1    3    3    0    0  0.10224779829E+02 -0.13877160247E+01 -0.81395682430E+01  0.13142467415E+02  0.51100000000E-03 0. -1.
        -11    1    3    3    0    0  0.68405567881E+01 -0.50482855337E+00  0.48037413301E+01  0.83740074079E+01  0.51100000000E-03 0.  1.
        -12    1    3    3    0    0  0.24817976358E+02  0.33189666423E+01 -0.79502996815E+01  0.26270796621E+02  0.00000000000E+00 0.  1.
</event>
<event>
 7    1  0.2756432E-009  0.4778727E+02  0.7816164E-02  0.1312668E+00
        -11   -1    0    0    0    0  0.00000000000E+00  0.00000000000E+00  0.45593999997E+02  0.45594000000E+02  0.51100000000E-03 0.  1.
         11   -1    0    0    0    0 -0.00000000000E+00 -0.00000000000E+00 -0.45593999997E+02  0.45594000000E+02  0.51100000000E-03 0. -1.
    9900012    2    1    2    0    0 -0.20192183343E+02  0.36534814206E+02 -0.11878832119E+02  0.47787267636E+02  0.19999984461E+02 0.  0.
        -12    1    1    2    0    0  0.20192183343E+02 -0.36534814206E+02  0.11878832119E+02  0.43400732364E+02  0.00000000000E+00 0.  1.
         11    1    3    3    0    0 -0.20493850155E+02  0.23715050276E+02 -0.13522501000E+02  0.34135898074E+02  0.51100000000E-03 0. -1.
        -11    1    3    3    0    0 -0.52144947973E+00  0.94593125488E+01  0.29968312130E+01  0.99363726297E+01  0.51100000000E-03 0.  1.
        -12    1    3    3    0    0  0.82311629179E+00  0.33604513808E+01 -0.13531623319E+01  0.37149969326E+01  0.00000000000E+00 0.  1.
</event>
<event>
 7    1  0.2756432E-009  0.4778727E+02  0.7816164E-02  0.1312668E+00
        -11   -1    0    0    0    0  0.00000000000E+00  0.00000000000E+00  0.45593999997E+02  0.45594000000E+02  0.51100000000E-03 0. -1.
         11   -1    0    0    0    0 -0.00000000000E+00 -0.00000000000E+00 -0.45593999997E+02  0.45594000000E+02  0.51100000000E-03 0.  1.
    9900012    2    1    2    0    0  0.30303032174E+02  0.26232990838E+02  0.16648728183E+02  0.47787265935E+02  0.19999976703E+02 0.  0.
        -12    1    1    2    0    0 -0.30303032174E+02 -0.26232990838E+02 -0.16648728183E+02  0.43400734065E+02  0.00000000000E+00 0.  1.
         11    1    3    3    0    0  0.28625229397E+02  0.25159221102E+02  0.16675574558E+02  0.41598857576E+02  0.51100000000E-03 0. -1.
        -11    1    3    3    0    0 -0.19467325761E+01 -0.10214778102E+00 -0.10885553264E+01  0.22327460338E+01  0.51100000000E-03 0.  1.
        -12    1    3    3    0    0  0.36245353533E+01  0.11759175174E+01  0.10617089509E+01  0.39556623252E+01  0.00000000000E+00 0.  1.
</event>
<event>
 7    1  0.2756432E-009  0.4778727E+02  0.7816164E-02  0.1312668E+00
        -11   -1    0    0    0    0  0.00000000000E+00  0.00000000000E+00  0.45593999997E+02  0.45594000000E+02  0.51100000000E-03 0. -1.
         11   -1    0    0    0    0 -0.00000000000E+00 -0.00000000000E+00 -0.45593999997E+02  0.45594000000E+02  0.51100000000E-03 0.  1.
    9900012    2    1    2    0    0  0.32266084247E+02 -0.17991541717E+02  0.22777781668E+02  0.47787273005E+02  0.20000008939E+02 0.  0.
        -12    1    1    2    0    0 -0.32266084247E+02  0.17991541717E+02 -0.22777781668E+02  0.43400726995E+02  0.00000000000E+00 0.  1.
         11    1    3    3    0    0  0.62423327688E+01  0.28809190987E+01  0.32768373575E+01  0.76160407416E+01  0.51100000000E-03 0. -1.
        -11    1    3    3    0    0  0.16123440862E+02 -0.19019943934E+02  0.15327483700E+02  0.29268675565E+02  0.51100000000E-03 0.  1.
        -12    1    3    3    0    0  0.99003106163E+01 -0.18525168814E+01  0.41734606103E+01  0.10902556698E+02  0.00000000000E+00 0.  1.
</event>
<event>
 7    1  0.2756432E-009  0.4778727E+02  0.7816164E-02  0.1312668E+00
        -11   -1    0    0    0    0  0.00000000000E+00  0.00000000000E+00  0.45593999997E+02  0.45594000000E+02  0.51100000000E-03 0.  1.
         11   -1    0    0    0    0 -0.00000000000E+00 -0.00000000000E+00 -0.45593999997E+02  0.45594000000E+02  0.51100000000E-03 0. -1.
    9900012    2    1    2    0    0 -0.24819503771E+02  0.21100085294E+00 -0.35602963993E+02  0.47787270354E+02  0.19999996851E+02 0.  0.
        -12    1    1    2    0    0  0.24819503771E+02 -0.21100085294E+00  0.35602963993E+02  0.43400729646E+02  0.00000000000E+00 0.  1.
         11    1    3    3    0    0 -0.12524777604E+02  0.96225717434E+01 -0.15072404025E+02  0.21832116350E+02  0.51100000000E-03 0. -1.
        -11    1    3    3    0    0 -0.10827225884E+02 -0.82010412198E+01 -0.15679713295E+02  0.20744621151E+02  0.51100000000E-03 0.  1.
        -12    1    3    3    0    0 -0.14675002832E+01 -0.12105296706E+01 -0.48508466725E+01  0.52105328523E+01  0.00000000000E+00 0.  1.
</event>
<event>
 7    1  0.2756432E-009  0.4778727E+02  0.7816164E-02  0.1312668E+00
        -11   -1    0    0    0    0  0.00000000000E+00  0.00000000000E+00  0.45593999997E+02  0.45594000000E+02  0.51100000000E-03 0. -1.
         11   -1    0    0    0    0 -0.00000000000E+00 -0.00000000000E+00 -0.45593999997E+02  0.45594000000E+02  0.51100000000E-03 0.  1.
    9900012    2    1    2    0    0 -0.27275395643E+02 -0.77219956794E+01  0.32864066476E+02  0.47787270858E+02  0.19999999148E+02 0.  0.
        -12    1    1    2    0    0  0.27275395643E+02  0.77219956794E+01 -0.32864066476E+02  0.43400729142E+02  0.00000000000E+00 0.  1.
         11    1    3    3    0    0 -0.22941767688E+02 -0.15368948849E+01  0.22930717761E+02  0.32473136095E+02  0.51100000000E-03 0. -1.
        -11    1    3    3    0    0  0.56980833094E-01  0.14191226941E+01 -0.65042717285E+00  0.15621177307E+01  0.51100000000E-03 0.  1.
         12    1    3    3    0    0 -0.43906087873E+01 -0.76042234886E+01  0.10583775889E+02  0.13752017032E+02  0.00000000000E+00 0. -1.
</event>
<event>
 7    1  0.2756432E-009  0.4778726E+02  0.7816164E-02  0.1312668E+00
        -11   -1    0    0    0    0  0.00000000000E+00  0.00000000000E+00  0.45593999997E+02  0.45594000000E+02  0.51100000000E-03 0.  1.
         11   -1    0    0    0    0 -0.00000000000E+00 -0.00000000000E+00 -0.45593999997E+02  0.45594000000E+02  0.51100000000E-03 0. -1.
    9900012    2    1    2    0    0  0.57084491930E+01  0.17051118094E+02 -0.39500593404E+02  0.47787263835E+02  0.19999967129E+02 0.  0.
        -12    1    1    2    0    0 -0.57084491930E+01 -0.17051118094E+02  0.39500593404E+02  0.43400736165E+02  0.00000000000E+00 0.  1.
         11    1    3    3    0    0  0.94032223555E+00  0.29908112377E+01 -0.17449684079E+02  0.17729090007E+02  0.51100000000E-03 0. -1.
        -11    1    3    3    0    0  0.97890608499E+01  0.92830153070E+01 -0.14894298553E+02  0.20095776052E+02  0.51100000000E-03 0.  1.
        -12    1    3    3    0    0 -0.50209338925E+01  0.47772915489E+01 -0.71566107718E+01  0.99623977754E+01  0.00000000000E+00 0.  1.
</event>
<event>
 7    1  0.2756432E-009  0.4778727E+02  0.7816164E-02  0.1312668E+00
        -11   -1    0    0    0    0  0.00000000000E+00  0.00000000000E+00  0.45593999997E+02  0.45594000000E+02  0.51100000000E-03 0.  1.
         11   -1    0    0    0    0 -0.00000000000E+00 -0.00000000000E+00 -0.45593999997E+02  0.45594000000E+02  0.51100000000E-03 0. -1.
    9900012    2    1    2    0    0 -0.11635585904E+02 -0.34864791240E+02 -0.23079916900E+02  0.47787273144E+02  0.20000009571E+02 0.  0.
        -12    1    1    2    0    0  0.11635585904E+02  0.34864791240E+02  0.23079916900E+02  0.43400726856E+02  0.00000000000E+00 0.  1.
         11    1    3    3    0    0  0.75746280526E+00 -0.80860148996E+01 -0.14041516782E+02  0.16221022799E+02  0.51100000000E-03 0. -1.
        -11    1    3    3    0    0 -0.11783746575E+02 -0.18616788702E+02 -0.59920404776E+01  0.22833003619E+02  0.51100000000E-03 0.  1.
         12    1    3    3    0    0 -0.60930213441E+00 -0.81619876388E+01 -0.30463596407E+01  0.87332467254E+01  0.00000000000E+00 0. -1.
</event>
<event>
 7    1  0.2756432E-009  0.4778727E+02  0.7816164E-02  0.1312668E+00
        -11   -1    0    0    0    0  0.00000000000E+00  0.00000000000E+00  0.45593999997E+02  0.45594000000E+02  0.51100000000E-03 0.  1.
         11   -1    0    0    0    0 -0.00000000000E+00 -0.00000000000E+00 -0.45593999997E+02  0.45594000000E+02  0.51100000000E-03 0. -1.
    9900012    2    1    2    0    0  0.36661322694E+02  0.12363876025E+01 -0.23195732851E+02  0.47787271222E+02  0.20000000811E+02 0.  0.
        -12    1    1    2    0    0 -0.36661322694E+02 -0.12363876025E+01  0.23195732851E+02  0.43400728778E+02  0.00000000000E+00 0.  1.
         11    1    3    3    0    0  0.20963447820E+01 -0.35707289337E+01 -0.54955838043E+01  0.68808580986E+01  0.51100000000E-03 0. -1.
        -11    1    3    3    0    0  0.18568300007E+02  0.84451204359E+01 -0.85104291957E+01  0.22102697340E+02  0.51100000000E-03 0.  1.
        -12    1    3    3    0    0  0.15996677904E+02 -0.36380038997E+01 -0.91897198506E+01  0.18803715784E+02  0.00000000000E+00 0.  1.
</event>
<event>
 7    1  0.2756432E-009  0.4778728E+02  0.7816164E-02  0.1312668E+00
        -11   -1    0    0    0    0  0.00000000000E+00  0.00000000000E+00  0.45593999997E+02  0.45594000000E+02  0.51100000000E-03 0.  1.
         11   -1    0    0    0    0 -0.00000000000E+00 -0.00000000000E+00 -0.45593999997E+02  0.45594000000E+02  0.51100000000E-03 0. -1.
    9900012    2    1    2    0    0  0.15921805209E+02  0.29177721763E+01 -0.40269163309E+02  0.47787276628E+02  0.20000025457E+02 0.  0.
        -12    1    1    2    0    0 -0.15921805209E+02 -0.29177721763E+01  0.40269163309E+02  0.43400723372E+02  0.00000000000E+00 0.  1.
         11    1    3    3    0    0  0.56406178024E+00  0.26985590509E+01 -0.37691188026E+01  0.46697583934E+01  0.51100000000E-03 0. -1.
        -11    1    3    3    0    0  0.40501654681E+01 -0.37965086575E+01 -0.99527964454E+00  0.56398493010E+01  0.51100000000E-03 0.  1.
        -12    1    3    3    0    0  0.11307577961E+02  0.40157217829E+01 -0.35504764862E+02  0.37477668934E+02  0.00000000000E+00 0.  1.
</event>
<event>
 7    1  0.2756432E-009  0.4778727E+02  0.7816164E-02  0.1312668E+00
        -11   -1    0    0    0    0  0.00000000000E+00  0.00000000000E+00  0.45593999997E+02  0.45594000000E+02  0.51100000000E-03 0. -1.
         11   -1    0    0    0    0 -0.00000000000E+00 -0.00000000000E+00 -0.45593999997E+02  0.45594000000E+02  0.51100000000E-03 0.  1.
    9900012    2    1    2    0    0 -0.12812778182E+02 -0.13655424988E+02  0.39153362765E+02  0.47787265765E+02  0.19999975929E+02 0.  0.
        -12    1    1    2    0    0  0.12812778182E+02  0.13655424988E+02 -0.39153362765E+02  0.43400734235E+02  0.00000000000E+00 0.  1.
         11    1    3    3    0    0 -0.51491082910E+01 -0.16977403089E+01  0.27645708750E+02  0.28172341949E+02  0.51100000000E-03 0. -1.
        -11    1    3    3    0    0 -0.52986831921E+01 -0.12189670335E+02  0.10826620859E+02  0.17142923494E+02  0.51100000000E-03 0.  1.
         12    1    3    3    0    0 -0.23649866994E+01  0.23198565604E+00  0.68103315655E+00  0.24720003222E+01  0.00000000000E+00 0. -1.
</event>
<event>
 7    1  0.2756432E-009  0.4778727E+02  0.7816164E-02  0.1312668E+00
        -11   -1    0    0    0    0  0.00000000000E+00  0.00000000000E+00  0.45593999997E+02  0.45594000000E+02  0.51100000000E-03 0.  1.
         11   -1    0    0    0    0 -0.00000000000E+00 -0.00000000000E+00 -0.45593999997E+02  0.45594000000E+02  0.51100000000E-03 0. -1.
    9900012    2    1    2    0    0  0.29318241737E+02  0.31614852070E+02  0.49563200338E+01  0.47787270994E+02  0.19999999771E+02 0.  0.
        -12    1    1    2    0    0 -0.29318241737E+02 -0.31614852070E+02 -0.49563200338E+01  0.43400729006E+02  0.00000000000E+00 0.  1.
         11    1    3    3    0    0  0.12851353886E+02  0.82500071549E+01 -0.55311277712E+01  0.16242330173E+02  0.51100000000E-03 0. -1.
        -11    1    3    3    0    0  0.11362084326E+02  0.14620778388E+02  0.10760467766E+02  0.21416157165E+02  0.51100000000E-03 0.  1.
        -12    1    3    3    0    0  0.51048035250E+01  0.87440665271E+01 -0.27301996142E+00  0.10128783656E+02  0.00000000000E+00 0.  1.
</event>
<event>
 7    1  0.2756432E-009  0.4778727E+02  0.7816164E-02  0.1312668E+00
        -11   -1    0    0    0    0  0.00000000000E+00  0.00000000000E+00  0.45593999997E+02  0.45594000000E+02  0.51100000000E-03 0. -1.
         11   -1    0    0    0    0 -0.00000000000E+00 -0.00000000000E+00 -0.45593999997E+02  0.45594000000E+02  0.51100000000E-03 0.  1.
    9900012    2    1    2    0    0  0.26083518269E+02  0.13253044327E+02  0.32056668211E+02  0.47787273209E+02  0.20000009868E+02 0.  0.
        -12    1    1    2    0    0 -0.26083518269E+02 -0.13253044327E+02 -0.32056668211E+02  0.43400726791E+02  0.00000000000E+00 0.  1.
         11    1    3    3    0    0  0.66772919173E+01  0.63935074641E+00 -0.23620178312E+00  0.67119883990E+01  0.51100000000E-03 0.  1.
        -11    1    3    3    0    0  0.27316353295E+01  0.68490199758E+01  0.12892953216E+02  0.14852580554E+02  0.51100000000E-03 0. -1.
         12    1    3    3    0    0  0.16674591022E+02  0.57646736049E+01  0.19399916777E+02  0.26222704256E+02  0.00000000000E+00 0. -1.
</event>
<event>
 7    1  0.2756432E-009  0.4778727E+02  0.7816164E-02  0.1312668E+00
        -11   -1    0    0    0    0  0.00000000000E+00  0.00000000000E+00  0.45593999997E+02  0.45594000000E+02  0.51100000000E-03 0.  1.
         11   -1    0    0    0    0 -0.00000000000E+00 -0.00000000000E+00 -0.45593999997E+02  0.45594000000E+02  0.51100000000E-03 0. -1.
    9900012    2    1    2    0    0 -0.30849705127E+01 -0.34512643323E+02 -0.26133964832E+02  0.47787266019E+02  0.19999977088E+02 0.  0.
        -12    1    1    2    0    0  0.30849705127E+01  0.34512643323E+02  0.26133964832E+02  0.43400733981E+02  0.00000000000E+00 0.  1.
         11    1    3    3    0    0  0.55135541195E+01 -0.24059062041E+01 -0.46520064123E+01  0.76045267843E+01  0.51100000000E-03 0. -1.
        -11    1    3    3    0    0 -0.64916530650E+01 -0.16761826328E+02 -0.81084497451E+01  0.19719212431E+02  0.51100000000E-03 0.  1.
         12    1    3    3    0    0 -0.21068715672E+01 -0.15344910791E+02 -0.13373508675E+02  0.20463526804E+02  0.00000000000E+00 0. -1.
</event>
<event>
 7    1  0.2756432E-009  0.4778727E+02  0.7816164E-02  0.1312668E+00
        -11   -1    0    0    0    0  0.00000000000E+00  0.00000000000E+00  0.45593999997E+02  0.45594000000E+02  0.51100000000E-03 0. -1.
         11   -1    0    0    0    0 -0.00000000000E+00 -0.00000000000E+00 -0.45593999997E+02  0.45594000000E+02  0.51100000000E-03 0.  1.
    9900012    2    1    2    0    0 -0.40056693766E+02  0.14388121637E+02  0.84891963952E+01  0.47787271721E+02  0.20000003084E+02 0.  0.
        -12    1    1    2    0    0  0.40056693766E+02 -0.14388121637E+02 -0.84891963952E+01  0.43400728279E+02  0.00000000000E+00 0.  1.
         11    1    3    3    0    0 -0.18001212721E+02  0.10177356996E+02 -0.36255356752E+01  0.20994446029E+02  0.51100000000E-03 0. -1.
        -11    1    3    3    0    0  0.54406373326E+00 -0.56849455204E+00  0.55133140815E+00  0.96081110749E+00  0.51100000000E-03 0.  1.
         12    1    3    3    0    0 -0.22599544778E+02  0.47792591923E+01  0.11563400662E+02  0.25832014584E+02  0.00000000000E+00 0. -1.
</event>
<event>
 7    1  0.2756432E-009  0.4778727E+02  0.7816164E-02  0.1312668E+00
        -11   -1    0    0    0    0  0.00000000000E+00  0.00000000000E+00  0.45593999997E+02  0.45594000000E+02  0.51100000000E-03 0.  1.
         11   -1    0    0    0    0 -0.00000000000E+00 -0.00000000000E+00 -0.45593999997E+02  0.45594000000E+02  0.51100000000E-03 0. -1.
    9900012    2    1    2    0    0 -0.25405022134E+02  0.34748132220E+02 -0.55475306577E+01  0.47787274905E+02  0.20000017600E+02 0.  0.
        -12    1    1    2    0    0  0.25405022134E+02 -0.34748132220E+02  0.55475306577E+01  0.43400725095E+02  0.00000000000E+00 0.  1.
         11    1    3    3    0    0 -0.55331993466E+00 -0.81721204470E+00 -0.29762455841E+01  0.31356078381E+01  0.51100000000E-03 0. -1.
        -11    1    3    3    0    0 -0.25457175730E+00  0.21275327545E+01  0.19482889002E+01  0.28960373445E+01  0.51100000000E-03 0.  1.
         12    1    3    3    0    0 -0.24597130443E+02  0.33437811510E+02 -0.45195739738E+01  0.41755629722E+02  0.00000000000E+00 0. -1.
</event>
<event>
 7    1  0.2756432E-009  0.4778727E+02  0.7816164E-02  0.1312668E+00
        -11   -1    0    0    0    0  0.00000000000E+00  0.00000000000E+00  0.45593999997E+02  0.45594000000E+02  0.51100000000E-03 0.  1.
         11   -1    0    0    0    0 -0.00000000000E+00 -0.00000000000E+00 -0.45593999997E+02  0.45594000000E+02  0.51100000000E-03 0. -1.
    9900012    2    1    2    0    0  0.10307554949E+02  0.41403343684E+02 -0.79461036769E+01  0.47787272807E+02  0.20000008035E+02 0.  0.
        -12    1    1    2    0    0 -0.10307554949E+02 -0.41403343684E+02  0.79461036769E+01  0.43400727193E+02  0.00000000000E+00 0.  1.
         11    1    3    3    0    0  0.71514796172E+00  0.15556448005E+02 -0.89142237210E+01  0.17943742529E+02  0.51100000000E-03 0. -1.
        -11    1    3    3    0    0  0.79331427728E+00  0.62578197437E+01 -0.44212295822E+01  0.77030465899E+01  0.51100000000E-03 0.  1.
         12    1    3    3    0    0  0.87990927104E+01  0.19589075935E+02  0.53893496263E+01  0.22140483688E+02  0.00000000000E+00 0. -1.
</event>
<event>
 7    1  0.2756432E-009  0.4778726E+02  0.7816164E-02  0.1312668E+00
        -11   -1    0    0    0    0  0.00000000000E+00  0.00000000000E+00  0.45593999997E+02  0.45594000000E+02  0.51100000000E-03 0.  1.
         11   -1    0    0    0    0 -0.00000000000E+00 -0.00000000000E+00 -0.45593999997E+02  0.45594000000E+02  0.51100000000E-03 0. -1.
    9900012    2    1    2    0    0 -0.17625764209E+02  0.17047823976E+02 -0.35809609192E+02  0.47787262947E+02  0.19999963079E+02 0.  0.
        -12    1    1    2    0    0  0.17625764209E+02 -0.17047823976E+02  0.35809609192E+02  0.43400737053E+02  0.00000000000E+00 0.  1.
         11    1    3    3    0    0 -0.97495594907E+01  0.14580253840E+01 -0.12459436547E+02  0.15887646384E+02  0.51100000000E-03 0. -1.
        -11    1    3    3    0    0 -0.74050239683E+01  0.16201997646E+02 -0.14373223281E+02  0.22889487880E+02  0.51100000000E-03 0.  1.
        -12    1    3    3    0    0 -0.47118074989E+00 -0.61219905396E+00 -0.89769493650E+01  0.90101286829E+01  0.00000000000E+00 0.  1.
</event>
<event>
 7    1  0.2756432E-009  0.4778727E+02  0.7816164E-02  0.1312668E+00
        -11   -1    0    0    0    0  0.00000000000E+00  0.00000000000E+00  0.45593999997E+02  0.45594000000E+02  0.51100000000E-03 0.  1.
         11   -1    0    0    0    0 -0.00000000000E+00 -0.00000000000E+00 -0.45593999997E+02  0.45594000000E+02  0.51100000000E-03 0. -1.
    9900012    2    1    2    0    0 -0.15894051186E+02  0.35777110630E+02 -0.18735017009E+02  0.47787269932E+02  0.19999994926E+02 0.  0.
        -12    1    1    2    0    0  0.15894051186E+02 -0.35777110630E+02  0.18735017009E+02  0.43400730068E+02  0.00000000000E+00 0.  1.
         11    1    3    3    0    0 -0.73039896800E+01  0.74414009189E+01 -0.92405691202E+01  0.13932366303E+02  0.51100000000E-03 0. -1.
        -11    1    3    3    0    0 -0.32109197492E+01  0.26555178634E+02 -0.69073484935E+01  0.27626056204E+02  0.51100000000E-03 0.  1.
         12    1    3    3    0    0 -0.53791417564E+01  0.17805310776E+01 -0.25870993955E+01  0.62288474243E+01  0.00000000000E+00 0. -1.
</event>
<event>
 7    1  0.2756432E-009  0.4778727E+02  0.7816164E-02  0.1312668E+00
        -11   -1    0    0    0    0  0.00000000000E+00  0.00000000000E+00  0.45593999997E+02  0.45594000000E+02  0.51100000000E-03 0.  1.
         11   -1    0    0    0    0 -0.00000000000E+00 -0.00000000000E+00 -0.45593999997E+02  0.45594000000E+02  0.51100000000E-03 0. -1.
    9900012    2    1    2    0    0 -0.23912972881E+02 -0.12631138496E+02 -0.33944768632E+02  0.47787271329E+02  0.20000001296E+02 0.  0.
        -12    1    1    2    0    0  0.23912972881E+02  0.12631138496E+02  0.33944768632E+02  0.43400728671E+02  0.00000000000E+00 0.  1.
         11    1    3    3    0    0 -0.14157987908E+02 -0.16204176461E+01 -0.13064427829E+02  0.19332709322E+02  0.51100000000E-03 0. -1.
        -11    1    3    3    0    0 -0.50180746288E+01 -0.12270448732E+02 -0.10279439078E+02  0.16775334664E+02  0.51100000000E-03 0.  1.
        -12    1    3    3    0    0 -0.47369103438E+01  0.12597278822E+01 -0.10600901726E+02  0.11679227343E+02  0.00000000000E+00 0.  1.
</event>
<event>
 7    1  0.2756432E-009  0.4778727E+02  0.7816164E-02  0.1312668E+00
        -11   -1    0    0    0    0  0.00000000000E+00  0.00000000000E+00  0.45593999997E+02  0.45594000000E+02  0.51100000000E-03 0.  1.
         11   -1    0    0    0    0 -0.00000000000E+00 -0.00000000000E+00 -0.45593999997E+02  0.45594000000E+02  0.51100000000E-03 0. -1.
    9900012    2    1    2    0    0  0.21260960194E+02  0.96974585855E+01 -0.36572591662E+02  0.47787267377E+02  0.19999983277E+02 0.  0.
        -12    1    1    2    0    0 -0.21260960194E+02 -0.96974585855E+01  0.36572591662E+02  0.43400732623E+02  0.00000000000E+00 0.  1.
         11    1    3    3    0    0  0.10872384070E+02  0.67883961989E+01 -0.34305239653E+02  0.36621585523E+02  0.51100000000E-03 0. -1.
        -11    1    3    3    0    0  0.33657812030E+01  0.96378897480E+00  0.10319460919E+00  0.35025735799E+01  0.51100000000E-03 0.  1.
         12    1    3    3    0    0  0.70227949209E+01  0.19452734119E+01 -0.23705466179E+01  0.76631082738E+01  0.00000000000E+00 0. -1.
</event>
<event>
 7    1  0.2756432E-009  0.4778727E+02  0.7816164E-02  0.1312668E+00
        -11   -1    0    0    0    0  0.00000000000E+00  0.00000000000E+00  0.45593999997E+02  0.45594000000E+02  0.51100000000E-03 0.  1.
         11   -1    0    0    0    0 -0.00000000000E+00 -0.00000000000E+00 -0.45593999997E+02  0.45594000000E+02  0.51100000000E-03 0. -1.
    9900012    2    1    2    0    0  0.28473511082E+02  0.49066037397E+01 -0.32385300493E+02  0.47787270955E+02  0.19999999593E+02 0.  0.
        -12    1    1    2    0    0 -0.28473511082E+02 -0.49066037397E+01  0.32385300493E+02  0.43400729045E+02  0.00000000000E+00 0.  1.
         11    1    3    3    0    0  0.86475239937E+01  0.90129837613E+00 -0.49256826453E+01  0.99927153351E+01  0.51100000000E-03 0. -1.
        -11    1    3    3    0    0  0.31277952884E+00 -0.28271554502E+01  0.63315424376E+00  0.29140218824E+01  0.51100000000E-03 0.  1.
        -12    1    3    3    0    0  0.19513207559E+02  0.68324608138E+01 -0.28092772092E+02  0.34880533738E+02  0.00000000000E+00 0.  1.
</event>
<event>
 7    1  0.2756432E-009  0.4778727E+02  0.7816164E-02  0.1312668E+00
        -11   -1    0    0    0    0  0.00000000000E+00  0.00000000000E+00  0.45593999997E+02  0.45594000000E+02  0.51100000000E-03 0. -1.
         11   -1    0    0    0    0 -0.00000000000E+00 -0.00000000000E+00 -0.45593999997E+02  0.45594000000E+02  0.51100000000E-03 0.  1.
    9900012    2    1    2    0    0  0.40499953638E+02  0.14306311764E+02  0.62214427176E+01  0.47787272466E+02  0.20000006481E+02 0.  0.
        -12    1    1    2    0    0 -0.40499953638E+02 -0.14306311764E+02 -0.62214427176E+01  0.43400727534E+02  0.00000000000E+00 0.  1.
         11    1    3    3    0    0  0.16294629777E+02  0.79060027109E+01  0.20989484473E+01  0.18232537488E+02  0.51100000000E-03 0. -1.
        -11    1    3    3    0    0  0.99519173297E+01 -0.28651991141E+01  0.67369290557E+01  0.12354603914E+02  0.51100000000E-03 0.  1.
        -12    1    3    3    0    0  0.14253406532E+02  0.92655081671E+01 -0.26144347855E+01  0.17200131064E+02  0.00000000000E+00 0.  1.
</event>
<event>
 7    1  0.2756432E-009  0.4778727E+02  0.7816164E-02  0.1312668E+00
        -11   -1    0    0    0    0  0.00000000000E+00  0.00000000000E+00  0.45593999997E+02  0.45594000000E+02  0.51100000000E-03 0.  1.
         11   -1    0    0    0    0 -0.00000000000E+00 -0.00000000000E+00 -0.45593999997E+02  0.45594000000E+02  0.51100000000E-03 0. -1.
    9900012    2    1    2    0    0 -0.30340890837E+02 -0.45220349406E+01 -0.30701876903E+02  0.47787266111E+02  0.19999977506E+02 0.  0.
        -12    1    1    2    0    0  0.30340890837E+02  0.45220349406E+01  0.30701876903E+02  0.43400733889E+02  0.00000000000E+00 0.  1.
         11    1    3    3    0    0 -0.48759705712E+01 -0.49090653364E+01 -0.13930362135E+02  0.15554067023E+02  0.51100000000E-03 0. -1.
        -11    1    3    3    0    0 -0.15163335196E+02  0.50044770990E+01 -0.75807834612E+01  0.17675966832E+02  0.51100000000E-03 0.  1.
         12    1    3    3    0    0 -0.10301585069E+02 -0.46174467032E+01 -0.91907313066E+01  0.14557232256E+02  0.00000000000E+00 0. -1.
</event>
<event>
 7    1  0.2756432E-009  0.4778729E+02  0.7816164E-02  0.1312668E+00
        -11   -1    0    0    0    0  0.00000000000E+00  0.00000000000E+00  0.45593999997E+02  0.45594000000E+02  0.51100000000E-03 0. -1.
         11   -1    0    0    0    0 -0.00000000000E+00 -0.00000000000E+00 -0.45593999997E+02  0.45594000000E+02  0.51100000000E-03 0.  1.
    9900012    2    1    2    0    0  0.35816029201E+02 -0.21069814270E+02  0.12525834340E+02  0.47787290939E+02  0.20000090707E+02 0.  0.
        -12    1    1    2    0    0 -0.35816029201E+02  0.21069814270E+02 -0.12525834340E+02  0.43400709061E+02  0.00000000000E+00 0.  1.
         11    1    3    3    0    0  0.11622108815E+02 -0.64304106568E+01 -0.98543887693E+00  0.13318959590E+02  0.51100000000E-03 0. -1.
        -11    1    3    3    0    0  0.56446626691E+01 -0.74200926409E+01  0.10978802207E+02  0.14403266630E+02  0.51100000000E-03 0.  1.
        -12    1    3    3    0    0  0.18549257717E+02 -0.72193109720E+01  0.25324710095E+01  0.20065064719E+02  0.00000000000E+00 0.  1.
</event>
<event>
 7    1  0.2756432E-009  0.4778727E+02  0.7816164E-02  0.1312668E+00
        -11   -1    0    0    0    0  0.00000000000E+00  0.00000000000E+00  0.45593999997E+02  0.45594000000E+02  0.51100000000E-03 0.  1.
         11   -1    0    0    0    0 -0.00000000000E+00 -0.00000000000E+00 -0.45593999997E+02  0.45594000000E+02  0.51100000000E-03 0. -1.
    9900012    2    1    2    0    0  0.16469149617E+02 -0.32108034599E+02 -0.24113577747E+02  0.47787269514E+02  0.19999993022E+02 0.  0.
        -12    1    1    2    0    0 -0.16469149617E+02  0.32108034599E+02  0.24113577747E+02  0.43400730486E+02  0.00000000000E+00 0.  1.
         11    1    3    3    0    0  0.15231381777E+02 -0.18024156858E+02 -0.90493000053E+01  0.25273603861E+02  0.51100000000E-03 0.  1.
        -11    1    3    3    0    0  0.20774404876E+01 -0.80240131609E+01 -0.14049611490E+02  0.16312330596E+02  0.51100000000E-03 0. -1.
        -12    1    3    3    0    0 -0.83967264729E+00 -0.60598645800E+01 -0.10146662519E+01  0.62013350567E+01  0.00000000000E+00 0.  1.
</event>
<event>
 7    1  0.2756432E-009  0.4778727E+02  0.7816164E-02  0.1312668E+00
        -11   -1    0    0    0    0  0.00000000000E+00  0.00000000000E+00  0.45593999997E+02  0.45594000000E+02  0.51100000000E-03 0. -1.
         11   -1    0    0    0    0 -0.00000000000E+00 -0.00000000000E+00 -0.45593999997E+02  0.45594000000E+02  0.51100000000E-03 0.  1.
    9900012    2    1    2    0    0  0.37413871384E+02 -0.68262888379E+01  0.20909972944E+02  0.47787274664E+02  0.20000016501E+02 0.  0.
        -12    1    1    2    0    0 -0.37413871384E+02  0.68262888379E+01 -0.20909972944E+02  0.43400725336E+02  0.00000000000E+00 0.  1.
         11    1    3    3    0    0  0.28825804456E+02 -0.98849061546E+01  0.85035910096E+01  0.31637784886E+02  0.51100000000E-03 0. -1.
        -11    1    3    3    0    0  0.18551134249E+01  0.28281751477E+01  0.57984752467E+01  0.67128485707E+01  0.51100000000E-03 0.  1.
         12    1    3    3    0    0  0.67329535029E+01  0.23044216904E+00  0.66079066877E+01  0.94366412065E+01  0.00000000000E+00 0. -1.
</event>
<event>
 7    1  0.2756432E-009  0.4778727E+02  0.7816164E-02  0.1312668E+00
        -11   -1    0    0    0    0  0.00000000000E+00  0.00000000000E+00  0.45593999997E+02  0.45594000000E+02  0.51100000000E-03 0.  1.
         11   -1    0    0    0    0 -0.00000000000E+00 -0.00000000000E+00 -0.45593999997E+02  0.45594000000E+02  0.51100000000E-03 0. -1.
    9900012    2    1    2    0    0  0.28849310617E+02 -0.11205609602E+02 -0.30426543748E+02  0.47787274498E+02  0.20000015747E+02 0.  0.
        -12    1    1    2    0    0 -0.28849310617E+02  0.11205609602E+02  0.30426543748E+02  0.43400725502E+02  0.00000000000E+00 0.  1.
         11    1    3    3    0    0  0.67579620927E+01 -0.10521655407E+01 -0.18896385122E+02  0.20096031322E+02  0.51100000000E-03 0. -1.
        -11    1    3    3    0    0  0.58778496300E+01 -0.11412361487E+01 -0.27512215548E+00  0.59939326557E+01  0.51100000000E-03 0.  1.
         12    1    3    3    0    0  0.16213498894E+02 -0.90122079129E+01 -0.11255036471E+02  0.21697310520E+02  0.00000000000E+00 0. -1.
</event>
<event>
 7    1  0.2756432E-009  0.4778727E+02  0.7816164E-02  0.1312668E+00
        -11   -1    0    0    0    0  0.00000000000E+00  0.00000000000E+00  0.45593999997E+02  0.45594000000E+02  0.51100000000E-03 0.  1.
         11   -1    0    0    0    0 -0.00000000000E+00 -0.00000000000E+00 -0.45593999997E+02  0.45594000000E+02  0.51100000000E-03 0. -1.
    9900012    2    1    2    0    0  0.36457520708E+02  0.11774432095E+02 -0.20392039701E+02  0.47787270162E+02  0.19999995975E+02 0.  0.
        -12    1    1    2    0    0 -0.36457520708E+02 -0.11774432095E+02  0.20392039701E+02  0.43400729838E+02  0.00000000000E+00 0.  1.
         11    1    3    3    0    0  0.17042162467E+02  0.57794884266E+01 -0.14917594803E+02  0.23374610648E+02  0.51100000000E-03 0. -1.
        -11    1    3    3    0    0  0.13255436027E+02  0.13792469101E+01  0.22410598382E+01  0.13514113206E+02  0.51100000000E-03 0.  1.
        -12    1    3    3    0    0  0.61599222146E+01  0.46156967586E+01 -0.77155047366E+01  0.10898546307E+02  0.00000000000E+00 0.  1.
</event>
<event>
 7    1  0.2756432E-009  0.4778727E+02  0.7816164E-02  0.1312668E+00
        -11   -1    0    0    0    0  0.00000000000E+00  0.00000000000E+00  0.45593999997E+02  0.45594000000E+02  0.51100000000E-03 0.  1.
         11   -1    0    0    0    0 -0.00000000000E+00 -0.00000000000E+00 -0.45593999997E+02  0.45594000000E+02  0.51100000000E-03 0. -1.
    9900012    2    1    2    0    0 -0.22523366082E+02  0.24969291399E+02 -0.27438217453E+02  0.47787270633E+02  0.19999998122E+02 0.  0.
        -12    1    1    2    0    0  0.22523366082E+02 -0.24969291399E+02  0.27438217453E+02  0.43400729367E+02  0.00000000000E+00 0.  1.
         11    1    3    3    0    0 -0.18727833140E+02  0.10301763962E+02 -0.11405259613E+02  0.24226803791E+02  0.51100000000E-03 0. -1.
        -11    1    3    3    0    0 -0.19670476732E+01  0.71357573403E+01 -0.22303194263E+01  0.77306296233E+01  0.51100000000E-03 0.  1.
         12    1    3    3    0    0 -0.18284852687E+01  0.75317700966E+01 -0.13802638414E+02  0.15829837218E+02  0.00000000000E+00 0. -1.
</event>
<event>
 7    1  0.2756432E-009  0.4778727E+02  0.7816164E-02  0.1312668E+00
        -11   -1    0    0    0    0  0.00000000000E+00  0.00000000000E+00  0.45593999997E+02  0.45594000000E+02  0.51100000000E-03 0.  1.
         11   -1    0    0    0    0 -0.00000000000E+00 -0.00000000000E+00 -0.45593999997E+02  0.45594000000E+02  0.51100000000E-03 0. -1.
    9900012    2    1    2    0    0  0.32949966573E+02  0.24936538910E+02 -0.13269960365E+02  0.47787272840E+02  0.20000008186E+02 0.  0.
        -12    1    1    2    0    0 -0.32949966573E+02 -0.24936538910E+02  0.13269960365E+02  0.43400727160E+02  0.00000000000E+00 0.  1.
         11    1    3    3    0    0  0.99587661848E+01  0.93414875697E+01  0.30487264135E+01  0.13990537765E+02  0.51100000000E-03 0. -1.
        -11    1    3    3    0    0  0.95581954984E+01  0.11696948309E+02 -0.11563129532E+02  0.19023240149E+02  0.51100000000E-03 0.  1.
         12    1    3    3    0    0  0.13433004890E+02  0.38981030309E+01 -0.47555572467E+01  0.14773494926E+02  0.00000000000E+00 0. -1.
</event>
<event>
 7    1  0.2756432E-009  0.4778728E+02  0.7816164E-02  0.1312668E+00
        -11   -1    0    0    0    0  0.00000000000E+00  0.00000000000E+00  0.45593999997E+02  0.45594000000E+02  0.51100000000E-03 0. -1.
         11   -1    0    0    0    0 -0.00000000000E+00 -0.00000000000E+00 -0.45593999997E+02  0.45594000000E+02  0.51100000000E-03 0.  1.
    9900012    2    1    2    0    0  0.24990620919E+02 -0.24936124654E+01  0.35395954483E+02  0.47787276149E+02  0.20000023272E+02 0.  0.
        -12    1    1    2    0    0 -0.24990620919E+02  0.24936124654E+01 -0.35395954483E+02  0.43400723851E+02  0.00000000000E+00 0.  1.
         11    1    3    3    0    0  0.35287634778E+01  0.58392302630E+01  0.55853439448E+01  0.88173039524E+01  0.51100000000E-03 0. -1.
        -11    1    3    3    0    0  0.41399723735E+01 -0.63763606693E+01  0.10373048741E+02  0.12860695435E+02  0.51100000000E-03 0.  1.
         12    1    3    3    0    0  0.17321885068E+02 -0.19564820592E+01  0.19437561797E+02  0.26109276761E+02  0.00000000000E+00 0. -1.
</event>
<event>
 7    1  0.2756432E-009  0.4778727E+02  0.7816164E-02  0.1312668E+00
        -11   -1    0    0    0    0  0.00000000000E+00  0.00000000000E+00  0.45593999997E+02  0.45594000000E+02  0.51100000000E-03 0. -1.
         11   -1    0    0    0    0 -0.00000000000E+00 -0.00000000000E+00 -0.45593999997E+02  0.45594000000E+02  0.51100000000E-03 0.  1.
    9900012    2    1    2    0    0  0.41356640335E+02  0.33373940922E-01  0.13162463809E+02  0.47787271122E+02  0.20000000352E+02 0.  0.
        -12    1    1    2    0    0 -0.41356640335E+02 -0.33373940922E-01 -0.13162463809E+02  0.43400728878E+02  0.00000000000E+00 0.  1.
         11    1    3    3    0    0  0.17346967913E+02  0.44698466465E+01  0.26849204537E+01  0.18113686067E+02  0.51100000000E-03 0. -1.
        -11    1    3    3    0    0  0.16844975537E+02 -0.80307533664E+01  0.33754463148E+01  0.18964172499E+02  0.51100000000E-03 0.  1.
        -12    1    3    3    0    0  0.71646968852E+01  0.35942806608E+01  0.71020970406E+01  0.10709412556E+02  0.00000000000E+00 0.  1.
</event>
<event>
 7    1  0.2756432E-009  0.4778727E+02  0.7816164E-02  0.1312668E+00
        -11   -1    0    0    0    0  0.00000000000E+00  0.00000000000E+00  0.45593999997E+02  0.45594000000E+02  0.51100000000E-03 0.  1.
         11   -1    0    0    0    0 -0.00000000000E+00 -0.00000000000E+00 -0.45593999997E+02  0.45594000000E+02  0.51100000000E-03 0. -1.
    9900012    2    1    2    0    0 -0.53908563128E+00  0.30282434963E+02 -0.31085473529E+02  0.47787272528E+02  0.20000006765E+02 0.  0.
        -12    1    1    2    0    0  0.53908563128E+00 -0.30282434963E+02  0.31085473529E+02  0.43400727472E+02  0.00000000000E+00 0.  1.
         11    1    3    3    0    0  0.13397170519E+01  0.19608807524E+02 -0.11188050512E+02  0.22615761071E+02  0.51100000000E-03 0. -1.
        -11    1    3    3    0    0  0.10122547017E+01  0.42042277172E+01 -0.16956891116E+02  0.17499609906E+02  0.51100000000E-03 0.  1.
        -12    1    3    3    0    0 -0.28910573848E+01  0.64693997215E+01 -0.29405319008E+01  0.76719015517E+01  0.00000000000E+00 0.  1.
</event>
<event>
 7    1  0.2756432E-009  0.4778727E+02  0.7816164E-02  0.1312668E+00
        -11   -1    0    0    0    0  0.00000000000E+00  0.00000000000E+00  0.45593999997E+02  0.45594000000E+02  0.51100000000E-03 0.  1.
         11   -1    0    0    0    0 -0.00000000000E+00 -0.00000000000E+00 -0.45593999997E+02  0.45594000000E+02  0.51100000000E-03 0. -1.
    9900012    2    1    2    0    0 -0.13160097629E+02  0.35385309723E+02 -0.21408290722E+02  0.47787271603E+02  0.20000002547E+02 0.  0.
        -12    1    1    2    0    0  0.13160097629E+02 -0.35385309723E+02  0.21408290722E+02  0.43400728397E+02  0.00000000000E+00 0.  1.
         11    1    3    3    0    0  0.36554289159E+00  0.18501149311E+02 -0.13702203959E+02  0.23025562773E+02  0.51100000000E-03 0. -1.
        -11    1    3    3    0    0 -0.10634020884E+02  0.17589838365E+02 -0.68126091886E+01  0.21654017135E+02  0.51100000000E-03 0.  1.
         12    1    3    3    0    0 -0.28916196362E+01 -0.70567795300E+00 -0.89347757389E+00  0.31076916946E+01  0.00000000000E+00 0. -1.
</event>
<event>
 7    1  0.2756432E-009  0.4778727E+02  0.7816164E-02  0.1312668E+00
        -11   -1    0    0    0    0  0.00000000000E+00  0.00000000000E+00  0.45593999997E+02  0.45594000000E+02  0.51100000000E-03 0.  1.
         11   -1    0    0    0    0 -0.00000000000E+00 -0.00000000000E+00 -0.45593999997E+02  0.45594000000E+02  0.51100000000E-03 0. -1.
    9900012    2    1    2    0    0  0.81156084046E+01  0.30070125613E+02 -0.30224956002E+02  0.47787268214E+02  0.19999987096E+02 0.  0.
        -12    1    1    2    0    0 -0.81156084046E+01 -0.30070125613E+02  0.30224956002E+02  0.43400731786E+02  0.00000000000E+00 0.  1.
         11    1    3    3    0    0 -0.45996781741E+01  0.94954468615E+01 -0.10101307838E+02  0.14606744014E+02  0.51100000000E-03 0. -1.
        -11    1    3    3    0    0  0.10808501464E+02  0.13037680872E+02 -0.78841131748E+01  0.18680579949E+02  0.51100000000E-03 0.  1.
         12    1    3    3    0    0  0.19067851148E+01  0.75369978796E+01 -0.12239534990E+02  0.14499944251E+02  0.00000000000E+00 0. -1.
</event>
<event>
 7    1  0.2756432E-009  0.4778726E+02  0.7816164E-02  0.1312668E+00
        -11   -1    0    0    0    0  0.00000000000E+00  0.00000000000E+00  0.45593999997E+02  0.45594000000E+02  0.51100000000E-03 0. -1.
         11   -1    0    0    0    0 -0.00000000000E+00 -0.00000000000E+00 -0.45593999997E+02  0.45594000000E+02  0.51100000000E-03 0.  1.
    9900012    2    1    2    0    0 -0.32902605711E+02 -0.20552248588E+02  0.19458868226E+02  0.47787263402E+02  0.19999965155E+02 0.  0.
        -12    1    1    2    0    0  0.32902605711E+02  0.20552248588E+02 -0.19458868226E+02  0.43400736598E+02  0.00000000000E+00 0.  1.
         11    1    3    3    0    0 -0.98213511222E+01 -0.10268878011E+02  0.10573013849E+02  0.17711505176E+02  0.51100000000E-03 0. -1.
        -11    1    3    3    0    0 -0.10456531054E+02  0.18685118827E+01  0.45946287890E+00  0.10632096911E+02  0.51100000000E-03 0.  1.
        -12    1    3    3    0    0 -0.12624723535E+02 -0.12151882460E+02  0.84263914976E+01  0.19443661315E+02  0.00000000000E+00 0.  1.
</event>
<event>
 7    1  0.2756432E-009  0.4778727E+02  0.7816164E-02  0.1312668E+00
        -11   -1    0    0    0    0  0.00000000000E+00  0.00000000000E+00  0.45593999997E+02  0.45594000000E+02  0.51100000000E-03 0.  1.
         11   -1    0    0    0    0 -0.00000000000E+00 -0.00000000000E+00 -0.45593999997E+02  0.45594000000E+02  0.51100000000E-03 0. -1.
    9900012    2    1    2    0    0  0.22559439617E+02 -0.39165153678E+01 -0.36869446977E+02  0.47787268107E+02  0.19999986606E+02 0.  0.
        -12    1    1    2    0    0 -0.22559439617E+02  0.39165153678E+01  0.36869446977E+02  0.43400731893E+02  0.00000000000E+00 0.  1.
         11    1    3    3    0    0  0.19862756731E+02  0.33676060864E+01 -0.27869654923E+02  0.34388770573E+02  0.51100000000E-03 0. -1.
        -11    1    3    3    0    0  0.34057036708E+01 -0.38682956448E+01 -0.19091820959E+01  0.54961354810E+01  0.51100000000E-03 0.  1.
         12    1    3    3    0    0 -0.70902078495E+00 -0.34158258093E+01 -0.70906099587E+01  0.79023620532E+01  0.00000000000E+00 0. -1.
</event>
<event>
 7    1  0.2756432E-009  0.4778727E+02  0.7816164E-02  0.1312668E+00
        -11   -1    0    0    0    0  0.00000000000E+00  0.00000000000E+00  0.45593999997E+02  0.45594000000E+02  0.51100000000E-03 0. -1.
         11   -1    0    0    0    0 -0.00000000000E+00 -0.00000000000E+00 -0.45593999997E+02  0.45594000000E+02  0.51100000000E-03 0.  1.
    9900012    2    1    2    0    0 -0.19996270006E+02  0.36330404630E+02  0.12801323170E+02  0.47787274319E+02  0.20000014932E+02 0.  0.
        -12    1    1    2    0    0  0.19996270006E+02 -0.36330404630E+02 -0.12801323170E+02  0.43400725681E+02  0.00000000000E+00 0.  1.
         11    1    3    3    0    0 -0.13735269909E+01 -0.16803770615E+01 -0.15169485112E+01  0.26479003966E+01  0.51100000000E-03 0.  1.
        -11    1    3    3    0    0 -0.18368008541E+02  0.35607767570E+02  0.12085281761E+02  0.41849144371E+02  0.51100000000E-03 0. -1.
        -12    1    3    3    0    0 -0.25473447344E+00  0.24030141216E+01  0.22329899201E+01  0.32902295519E+01  0.00000000000E+00 0.  1.
</event>
<event>
 7    1  0.3007775E-009  0.4778727E+02  0.7816164E-02  0.1312668E+00
        -11   -1    0    0    0    0  0.00000000000E+00  0.00000000000E+00  0.45593999997E+02  0.45594000000E+02  0.51100000000E-03 0. -1.
         11   -1    0    0    0    0 -0.00000000000E+00 -0.00000000000E+00 -0.45593999997E+02  0.45594000000E+02  0.51100000000E-03 0.  1.
    9900012    2    1    2    0    0 -0.33657714631E+02  0.23277731548E+02  0.14454383412E+02  0.47787265674E+02  0.19999975514E+02 0.  0.
        -12    1    1    2    0    0  0.33657714631E+02 -0.23277731548E+02 -0.14454383412E+02  0.43400734326E+02  0.00000000000E+00 0.  1.
         11    1    3    3    0    0 -0.28351616917E+02  0.17343110152E+02  0.13932375272E+02  0.36037601648E+02  0.51100000000E-03 0. -1.
        -11    1    3    3    0    0 -0.27769629301E+01  0.68456104346E+01 -0.24111959724E+01  0.77709569305E+01  0.51100000000E-03 0.  1.
        -12    1    3    3    0    0 -0.25291347841E+01 -0.91098903898E+00  0.29332041132E+01  0.39787070959E+01  0.00000000000E+00 0.  1.
</event>
<event>
 7    1  0.2756432E-009  0.4778727E+02  0.7816164E-02  0.1312668E+00
        -11   -1    0    0    0    0  0.00000000000E+00  0.00000000000E+00  0.45593999997E+02  0.45594000000E+02  0.51100000000E-03 0.  1.
         11   -1    0    0    0    0 -0.00000000000E+00 -0.00000000000E+00 -0.45593999997E+02  0.45594000000E+02  0.51100000000E-03 0. -1.
    9900012    2    1    2    0    0  0.58809612399E+00  0.21906773092E+02 -0.37461590170E+02  0.47787270715E+02  0.19999998499E+02 0.  0.
        -12    1    1    2    0    0 -0.58809612399E+00 -0.21906773092E+02  0.37461590170E+02  0.43400729285E+02  0.00000000000E+00 0.  1.
         11    1    3    3    0    0 -0.78727472643E+01  0.12013641093E+02 -0.15486136008E+02  0.21121745442E+02  0.51100000000E-03 0. -1.
        -11    1    3    3    0    0  0.74754874304E+01  0.28657205803E+01 -0.11441038415E+02  0.13963976047E+02  0.51100000000E-03 0.  1.
         12    1    3    3    0    0  0.98535595798E+00  0.70274114189E+01 -0.10534415747E+02  0.12701549226E+02  0.00000000000E+00 0. -1.
</event>
<event>
 7    1  0.2756432E-009  0.4778727E+02  0.7816164E-02  0.1312668E+00
        -11   -1    0    0    0    0  0.00000000000E+00  0.00000000000E+00  0.45593999997E+02  0.45594000000E+02  0.51100000000E-03 0. -1.
         11   -1    0    0    0    0 -0.00000000000E+00 -0.00000000000E+00 -0.45593999997E+02  0.45594000000E+02  0.51100000000E-03 0.  1.
    9900012    2    1    2    0    0  0.37414027667E+02  0.61321323976E+01  0.21123698908E+02  0.47787272246E+02  0.20000005478E+02 0.  0.
        -12    1    1    2    0    0 -0.37414027667E+02 -0.61321323976E+01 -0.21123698908E+02  0.43400727754E+02  0.00000000000E+00 0.  1.
         11    1    3    3    0    0  0.26932792386E+02  0.11209435442E+02  0.15309214813E+02  0.32945391288E+02  0.51100000000E-03 0. -1.
        -11    1    3    3    0    0 -0.89199816177E+00  0.46155019845E+00  0.47283019197E+00  0.11100711499E+01  0.51100000000E-03 0.  1.
         12    1    3    3    0    0  0.11373233442E+02 -0.55388532431E+01  0.53416539038E+01  0.13731809808E+02  0.00000000000E+00 0. -1.
</event>
<event>
 7    1  0.2756432E-009  0.4778727E+02  0.7816164E-02  0.1312668E+00
        -11   -1    0    0    0    0  0.00000000000E+00  0.00000000000E+00  0.45593999997E+02  0.45594000000E+02  0.51100000000E-03 0. -1.
         11   -1    0    0    0    0 -0.00000000000E+00 -0.00000000000E+00 -0.45593999997E+02  0.45594000000E+02  0.51100000000E-03 0.  1.
    9900012    2    1    2    0    0 -0.33165467036E+02 -0.27881986437E+02 -0.25039392816E+01  0.47787273240E+02  0.20000010012E+02 0.  0.
        -12    1    1    2    0    0  0.33165467036E+02  0.27881986437E+02  0.25039392816E+01  0.43400726760E+02  0.00000000000E+00 0.  1.
         11    1    3    3    0    0 -0.32788825075E+02 -0.26720133118E+02 -0.18317395998E+01  0.42337073988E+02  0.51100000000E-03 0. -1.
        -11    1    3    3    0    0  0.20098270808E+00 -0.13241916798E+01 -0.28725811412E+01  0.31694795042E+01  0.51100000000E-03 0.  1.
         12    1    3    3    0    0 -0.57762466828E+00  0.16233836113E+00  0.22003814594E+01  0.22807197477E+01  0.00000000000E+00 0. -1.
</event>
<event>
 7    1  0.2756432E-009  0.4778727E+02  0.7816164E-02  0.1312668E+00
        -11   -1    0    0    0    0  0.00000000000E+00  0.00000000000E+00  0.45593999997E+02  0.45594000000E+02  0.51100000000E-03 0.  1.
         11   -1    0    0    0    0 -0.00000000000E+00 -0.00000000000E+00 -0.45593999997E+02  0.45594000000E+02  0.51100000000E-03 0. -1.
    9900012    2    1    2    0    0 -0.15526032330E+02  0.58216571704E+01 -0.40108275974E+02  0.47787272198E+02  0.20000005259E+02 0.  0.
        -12    1    1    2    0    0  0.15526032330E+02 -0.58216571704E+01  0.40108275974E+02  0.43400727802E+02  0.00000000000E+00 0.  1.
         11    1    3    3    0    0 -0.12473081039E+02  0.57974763150E+01 -0.39409885772E+02  0.41741197623E+02  0.51100000000E-03 0. -1.
        -11    1    3    3    0    0 -0.37935118035E+01 -0.11754630042E+01  0.73126614945E+00  0.40382168738E+01  0.51100000000E-03 0.  1.
        -12    1    3    3    0    0  0.74056051176E+00  0.11996438596E+01 -0.14296563517E+01  0.20078577005E+01  0.00000000000E+00 0.  1.
</event>
<event>
 7    1  0.2756432E-009  0.4778727E+02  0.7816164E-02  0.1312668E+00
        -11   -1    0    0    0    0  0.00000000000E+00  0.00000000000E+00  0.45593999997E+02  0.45594000000E+02  0.51100000000E-03 0.  1.
         11   -1    0    0    0    0 -0.00000000000E+00 -0.00000000000E+00 -0.45593999997E+02  0.45594000000E+02  0.51100000000E-03 0. -1.
    9900012    2    1    2    0    0 -0.64618021478E+01 -0.52642589647E+01 -0.42592909349E+02  0.47787271478E+02  0.20000001975E+02 0.  0.
        -12    1    1    2    0    0  0.64618021478E+01  0.52642589647E+01  0.42592909349E+02  0.43400728522E+02  0.00000000000E+00 0.  1.
         11    1    3    3    0    0  0.58458569063E+01  0.16363233241E+01 -0.15098253235E+02  0.16272948350E+02  0.51100000000E-03 0. -1.
        -11    1    3    3    0    0 -0.80548685727E+01 -0.76194138778E+01 -0.19896525789E+02  0.22777359687E+02  0.51100000000E-03 0.  1.
        -12    1    3    3    0    0 -0.42527904813E+01  0.71883158897E+00 -0.75981303252E+01  0.87369634410E+01  0.00000000000E+00 0.  1.
</event>
<event>
 7    1  0.2756432E-009  0.4778729E+02  0.7816164E-02  0.1312668E+00
        -11   -1    0    0    0    0  0.00000000000E+00  0.00000000000E+00  0.45593999997E+02  0.45594000000E+02  0.51100000000E-03 0.  1.
         11   -1    0    0    0    0 -0.00000000000E+00 -0.00000000000E+00 -0.45593999997E+02  0.45594000000E+02  0.51100000000E-03 0. -1.
    9900012    2    1    2    0    0  0.19918441432E+02 -0.38380565779E+02  0.37161086837E+01  0.47787290302E+02  0.20000087801E+02 0.  0.
        -12    1    1    2    0    0 -0.19918441432E+02  0.38380565779E+02 -0.37161086837E+01  0.43400709698E+02  0.00000000000E+00 0.  1.
         11    1    3    3    0    0 -0.11561748333E+00 -0.13298992506E+02  0.59485656623E+01  0.14569214213E+02  0.51100000000E-03 0. -1.
        -11    1    3    3    0    0  0.20775232682E+01 -0.11176178455E+00 -0.12893721390E+01  0.24476671343E+01  0.51100000000E-03 0.  1.
         12    1    3    3    0    0  0.17956535647E+02 -0.24969811488E+02 -0.94308483962E+00  0.30770408954E+02  0.00000000000E+00 0. -1.
</event>
<event>
 7    1  0.2756432E-009  0.4778727E+02  0.7816164E-02  0.1312668E+00
        -11   -1    0    0    0    0  0.00000000000E+00  0.00000000000E+00  0.45593999997E+02  0.45594000000E+02  0.51100000000E-03 0.  1.
         11   -1    0    0    0    0 -0.00000000000E+00 -0.00000000000E+00 -0.45593999997E+02  0.45594000000E+02  0.51100000000E-03 0. -1.
    9900012    2    1    2    0    0 -0.35811360500E+02 -0.20071667857E+02  0.14081833736E+02  0.47787269214E+02  0.19999991652E+02 0.  0.
        -12    1    1    2    0    0  0.35811360500E+02  0.20071667857E+02 -0.14081833736E+02  0.43400730786E+02  0.00000000000E+00 0.  1.
         11    1    3    3    0    0 -0.12982539331E+02 -0.15767942881E+02  0.90024959261E+01  0.22320826225E+02  0.51100000000E-03 0. -1.
        -11    1    3    3    0    0 -0.20173471811E+02 -0.18519817735E+01  0.13963430477E+01  0.20306367858E+02  0.51100000000E-03 0.  1.
        -12    1    3    3    0    0 -0.26553493575E+01 -0.24517432023E+01  0.36829947621E+01  0.51600751311E+01  0.00000000000E+00 0.  1.
</event>
<event>
 7    1  0.2756432E-009  0.4778727E+02  0.7816164E-02  0.1312668E+00
        -11   -1    0    0    0    0  0.00000000000E+00  0.00000000000E+00  0.45593999997E+02  0.45594000000E+02  0.51100000000E-03 0.  1.
         11   -1    0    0    0    0 -0.00000000000E+00 -0.00000000000E+00 -0.45593999997E+02  0.45594000000E+02  0.51100000000E-03 0. -1.
    9900012    2    1    2    0    0  0.24615359242E+02 -0.30250570102E+02 -0.19042331915E+02  0.47787270664E+02  0.19999998268E+02 0.  0.
        -12    1    1    2    0    0 -0.24615359242E+02  0.30250570102E+02  0.19042331915E+02  0.43400729336E+02  0.00000000000E+00 0.  1.
         11    1    3    3    0    0  0.84857348910E+01 -0.13416513096E+02 -0.13579230507E+02  0.20890333212E+02  0.51100000000E-03 0. -1.
        -11    1    3    3    0    0  0.35185077864E+01 -0.45438929949E+01  0.39075990916E+01  0.69495461373E+01  0.51100000000E-03 0.  1.
         12    1    3    3    0    0  0.12611116564E+02 -0.12290164011E+02 -0.93707004996E+01  0.19947391315E+02  0.00000000000E+00 0. -1.
</event>
<event>
 7    1  0.2756432E-009  0.4778726E+02  0.7816164E-02  0.1312668E+00
        -11   -1    0    0    0    0  0.00000000000E+00  0.00000000000E+00  0.45593999997E+02  0.45594000000E+02  0.51100000000E-03 0.  1.
         11   -1    0    0    0    0 -0.00000000000E+00 -0.00000000000E+00 -0.45593999997E+02  0.45594000000E+02  0.51100000000E-03 0. -1.
    9900012    2    1    2    0    0  0.36541761508E+02  0.87064875500E+01 -0.21737545676E+02  0.47787260933E+02  0.19999953899E+02 0.  0.
        -12    1    1    2    0    0 -0.36541761508E+02 -0.87064875500E+01  0.21737545676E+02  0.43400739067E+02  0.00000000000E+00 0.  1.
         11    1    3    3    0    0  0.32001954400E+02  0.83613744668E+01 -0.19589098182E+02  0.38441779827E+02  0.51100000000E-03 0. -1.
        -11    1    3    3    0    0  0.72548731304E+00  0.14905263659E+01  0.26399960338E+01  0.31173033231E+01  0.51100000000E-03 0.  1.
        -12    1    3    3    0    0  0.38143197944E+01 -0.11454132826E+01 -0.47884435280E+01  0.62281777835E+01  0.00000000000E+00 0.  1.
</event>
<event>
 7    1  0.2756432E-009  0.4778727E+02  0.7816164E-02  0.1312668E+00
        -11   -1    0    0    0    0  0.00000000000E+00  0.00000000000E+00  0.45593999997E+02  0.45594000000E+02  0.51100000000E-03 0.  1.
         11   -1    0    0    0    0 -0.00000000000E+00 -0.00000000000E+00 -0.45593999997E+02  0.45594000000E+02  0.51100000000E-03 0. -1.
    9900012    2    1    2    0    0  0.37085471349E+02  0.41607339121E+01 -0.22158053305E+02  0.47787271687E+02  0.20000002928E+02 0.  0.
        -12    1    1    2    0    0 -0.37085471349E+02 -0.41607339121E+01  0.22158053305E+02  0.43400728313E+02  0.00000000000E+00 0.  1.
         11    1    3    3    0    0  0.28322305763E+02 -0.29192075376E+01 -0.16114928481E+02  0.32716443826E+02  0.51100000000E-03 0. -1.
        -11    1    3    3    0    0  0.72857950857E+01  0.60520864175E+01 -0.77437569289E+00  0.95031688405E+01  0.51100000000E-03 0.  1.
         12    1    3    3    0    0  0.14773705000E+01  0.10278550322E+01 -0.52687491306E+01  0.55676590200E+01  0.00000000000E+00 0. -1.
</event>
<event>
 7    1  0.2756432E-009  0.4778727E+02  0.7816164E-02  0.1312668E+00
        -11   -1    0    0    0    0  0.00000000000E+00  0.00000000000E+00  0.45593999997E+02  0.45594000000E+02  0.51100000000E-03 0. -1.
         11   -1    0    0    0    0 -0.00000000000E+00 -0.00000000000E+00 -0.45593999997E+02  0.45594000000E+02  0.51100000000E-03 0.  1.
    9900012    2    1    2    0    0  0.40092056147E+02  0.10330696939E+02  0.13020261270E+02  0.47787268797E+02  0.19999989755E+02 0.  0.
        -12    1    1    2    0    0 -0.40092056147E+02 -0.10330696939E+02 -0.13020261270E+02  0.43400731203E+02  0.00000000000E+00 0.  1.
         11    1    3    3    0    0  0.17653736509E+01 -0.31442817908E+01  0.29724656210E+01  0.46731792429E+01  0.51100000000E-03 0.  1.
        -11    1    3    3    0    0  0.31811614753E+02  0.77443374294E+01  0.51287981235E+01  0.33139978362E+02  0.51100000000E-03 0. -1.
        -12    1    3    3    0    0  0.65150677438E+01  0.57306413008E+01  0.49189975251E+01  0.99741111923E+01  0.00000000000E+00 0.  1.
</event>
<event>
 7    1  0.2756432E-009  0.4778727E+02  0.7816164E-02  0.1312668E+00
        -11   -1    0    0    0    0  0.00000000000E+00  0.00000000000E+00  0.45593999997E+02  0.45594000000E+02  0.51100000000E-03 0. -1.
         11   -1    0    0    0    0 -0.00000000000E+00 -0.00000000000E+00 -0.45593999997E+02  0.45594000000E+02  0.51100000000E-03 0.  1.
    9900012    2    1    2    0    0  0.30138254009E+02 -0.17389475036E+02 -0.25940604537E+02  0.47787272351E+02  0.20000005957E+02 0.  0.
        -12    1    1    2    0    0 -0.30138254009E+02  0.17389475036E+02  0.25940604537E+02  0.43400727649E+02  0.00000000000E+00 0.  1.
         11    1    3    3    0    0  0.11561091696E+01 -0.26176796951E+01 -0.90850943402E+01  0.95251128513E+01  0.51100000000E-03 0.  1.
        -11    1    3    3    0    0  0.17895049378E+02 -0.64808333302E+01 -0.41678883667E+01  0.19483461874E+02  0.51100000000E-03 0. -1.
         12    1    3    3    0    0  0.11087095462E+02 -0.82909620108E+01 -0.12687621830E+02  0.18778697626E+02  0.00000000000E+00 0. -1.
</event>
<event>
 7    1  0.2756432E-009  0.4778727E+02  0.7816164E-02  0.1312668E+00
        -11   -1    0    0    0    0  0.00000000000E+00  0.00000000000E+00  0.45593999997E+02  0.45594000000E+02  0.51100000000E-03 0.  1.
         11   -1    0    0    0    0 -0.00000000000E+00 -0.00000000000E+00 -0.45593999997E+02  0.45594000000E+02  0.51100000000E-03 0. -1.
    9900012    2    1    2    0    0  0.22479557888E+01  0.42257060449E+02 -0.96390301319E+01  0.47787269996E+02  0.19999995219E+02 0.  0.
        -12    1    1    2    0    0 -0.22479557888E+01 -0.42257060449E+02  0.96390301319E+01  0.43400730004E+02  0.00000000000E+00 0.  1.
         11    1    3    3    0    0 -0.54260844383E+01  0.54310658108E+01 -0.40506305863E+01  0.86802348229E+01  0.51100000000E-03 0. -1.
        -11    1    3    3    0    0  0.96960708930E+01  0.32096354263E+02 -0.53904264872E+01  0.33959482412E+02  0.51100000000E-03 0.  1.
        -12    1    3    3    0    0 -0.20220306659E+01  0.47296403752E+01 -0.19797305837E+00  0.51475527607E+01  0.00000000000E+00 0.  1.
</event>
<event>
 7    1  0.2756432E-009  0.4778727E+02  0.7816164E-02  0.1312668E+00
        -11   -1    0    0    0    0  0.00000000000E+00  0.00000000000E+00  0.45593999997E+02  0.45594000000E+02  0.51100000000E-03 0.  1.
         11   -1    0    0    0    0 -0.00000000000E+00 -0.00000000000E+00 -0.45593999997E+02  0.45594000000E+02  0.51100000000E-03 0. -1.
    9900012    2    1    2    0    0 -0.80410110692E+01 -0.65586921826E+00 -0.42644289185E+02  0.47787269320E+02  0.19999992136E+02 0.  0.
        -12    1    1    2    0    0  0.80410110692E+01  0.65586921826E+00  0.42644289185E+02  0.43400730680E+02  0.00000000000E+00 0.  1.
         11    1    3    3    0    0 -0.83238860221E+01 -0.38265023603E+01 -0.41718896644E+02  0.42712943428E+02  0.51100000000E-03 0. -1.
        -11    1    3    3    0    0  0.17268060301E+01  0.25990499167E+01  0.24458869637E+00  0.31299749881E+01  0.51100000000E-03 0.  1.
        -12    1    3    3    0    0 -0.14439310772E+01  0.57158322538E+00 -0.11699812376E+01  0.19443509034E+01  0.00000000000E+00 0.  1.
</event>
<event>
 7    1  0.2756432E-009  0.4778727E+02  0.7816164E-02  0.1312668E+00
        -11   -1    0    0    0    0  0.00000000000E+00  0.00000000000E+00  0.45593999997E+02  0.45594000000E+02  0.51100000000E-03 0.  1.
         11   -1    0    0    0    0 -0.00000000000E+00 -0.00000000000E+00 -0.45593999997E+02  0.45594000000E+02  0.51100000000E-03 0. -1.
    9900012    2    1    2    0    0 -0.96478274034E+01 -0.41922555955E+02 -0.57482511193E+01  0.47787266569E+02  0.19999979596E+02 0.  0.
        -12    1    1    2    0    0  0.96478274034E+01  0.41922555955E+02  0.57482511193E+01  0.43400733431E+02  0.00000000000E+00 0.  1.
         11    1    3    3    0    0 -0.81038485328E+01 -0.50055152836E+01 -0.29011895939E+01  0.99571303907E+01  0.51100000000E-03 0. -1.
        -11    1    3    3    0    0  0.86292286252E+00 -0.28725437508E+01  0.16211155922E+01  0.34094221639E+01  0.51100000000E-03 0.  1.
         12    1    3    3    0    0 -0.24069017331E+01 -0.34044496921E+02 -0.44681771177E+01  0.34420714015E+02  0.00000000000E+00 0. -1.
</event>
<event>
 7    1  0.2756432E-009  0.4778727E+02  0.7816164E-02  0.1312668E+00
        -11   -1    0    0    0    0  0.00000000000E+00  0.00000000000E+00  0.45593999997E+02  0.45594000000E+02  0.51100000000E-03 0.  1.
         11   -1    0    0    0    0 -0.00000000000E+00 -0.00000000000E+00 -0.45593999997E+02  0.45594000000E+02  0.51100000000E-03 0. -1.
    9900012    2    1    2    0    0  0.60590698628E+01  0.38925730628E+02  0.18212595563E+02  0.47787268789E+02  0.19999989716E+02 0.  0.
        -12    1    1    2    0    0 -0.60590698628E+01 -0.38925730628E+02 -0.18212595563E+02  0.43400731211E+02  0.00000000000E+00 0.  1.
         11    1    3    3    0    0  0.39846608860E+01  0.55776263962E+00 -0.11826250333E+01  0.41937124090E+01  0.51100000000E-03 0. -1.
        -11    1    3    3    0    0  0.39079319761E+01  0.32267911178E+02  0.14660788139E+02  0.35657099339E+02  0.51100000000E-03 0.  1.
        -12    1    3    3    0    0 -0.18335229992E+01  0.61000568099E+01  0.47344324573E+01  0.79364570411E+01  0.00000000000E+00 0.  1.
</event>
<event>
 7    1  0.2756432E-009  0.4778727E+02  0.7816164E-02  0.1312668E+00
        -11   -1    0    0    0    0  0.00000000000E+00  0.00000000000E+00  0.45593999997E+02  0.45594000000E+02  0.51100000000E-03 0.  1.
         11   -1    0    0    0    0 -0.00000000000E+00 -0.00000000000E+00 -0.45593999997E+02  0.45594000000E+02  0.51100000000E-03 0. -1.
    9900012    2    1    2    0    0  0.21417025494E+02  0.20908910665E+02 -0.31428516415E+02  0.47787272238E+02  0.20000005443E+02 0.  0.
        -12    1    1    2    0    0 -0.21417025494E+02 -0.20908910665E+02  0.31428516415E+02  0.43400727762E+02  0.00000000000E+00 0.  1.
         11    1    3    3    0    0 -0.15095313047E+01  0.31944173723E+00 -0.26192928900E+01  0.30399709354E+01  0.51100000000E-03 0. -1.
        -11    1    3    3    0    0  0.22539392340E+02  0.21242206446E+02 -0.30139185952E+02  0.43216039521E+02  0.51100000000E-03 0.  1.
        -12    1    3    3    0    0  0.38716445885E+00 -0.65273751857E+00  0.13299624273E+01  0.15312617818E+01  0.00000000000E+00 0.  1.
</event>
<event>
 7    1  0.2756432E-009  0.4778728E+02  0.7816164E-02  0.1312668E+00
        -11   -1    0    0    0    0  0.00000000000E+00  0.00000000000E+00  0.45593999997E+02  0.45594000000E+02  0.51100000000E-03 0.  1.
         11   -1    0    0    0    0 -0.00000000000E+00 -0.00000000000E+00 -0.45593999997E+02  0.45594000000E+02  0.51100000000E-03 0. -1.
    9900012    2    1    2    0    0  0.12017122313E+02  0.59563968441E+00 -0.41699602577E+02  0.47787275693E+02  0.20000021193E+02 0.  0.
        -12    1    1    2    0    0 -0.12017122313E+02 -0.59563968441E+00  0.41699602577E+02  0.43400724307E+02  0.00000000000E+00 0.  1.
         11    1    3    3    0    0 -0.32190571458E+00  0.33620255817E+00 -0.67127565696E+01  0.67288748297E+01  0.51100000000E-03 0. -1.
        -11    1    3    3    0    0  0.10189219057E+02  0.69891029828E+01 -0.29901415572E+02  0.32353707654E+02  0.51100000000E-03 0.  1.
        -12    1    3    3    0    0  0.21498089713E+01 -0.67296658565E+01 -0.50854304357E+01  0.87046932094E+01  0.00000000000E+00 0.  1.
</event>
<event>
 7    1  0.2756432E-009  0.4778727E+02  0.7816164E-02  0.1312668E+00
        -11   -1    0    0    0    0  0.00000000000E+00  0.00000000000E+00  0.45593999997E+02  0.45594000000E+02  0.51100000000E-03 0.  1.
         11   -1    0    0    0    0 -0.00000000000E+00 -0.00000000000E+00 -0.45593999997E+02  0.45594000000E+02  0.51100000000E-03 0. -1.
    9900012    2    1    2    0    0  0.24949046625E+02  0.35098310481E+02  0.54108178365E+01  0.47787271022E+02  0.19999999899E+02 0.  0.
        -12    1    1    2    0    0 -0.24949046625E+02 -0.35098310481E+02 -0.54108178365E+01  0.43400728978E+02  0.00000000000E+00 0.  1.
         11    1    3    3    0    0  0.20371007859E+02  0.22765865639E+02  0.67339800377E+01  0.31282728252E+02  0.51100000000E-03 0. -1.
        -11    1    3    3    0    0  0.42449304009E+01  0.14037780799E+02 -0.78919167065E+00  0.14686781391E+02  0.51100000000E-03 0.  1.
         12    1    3    3    0    0  0.33310836550E+00 -0.17053359564E+01 -0.53397053053E+00  0.18177613800E+01  0.00000000000E+00 0. -1.
</event>
<event>
 7    1  0.2756432E-009  0.4778727E+02  0.7816164E-02  0.1312668E+00
        -11   -1    0    0    0    0  0.00000000000E+00  0.00000000000E+00  0.45593999997E+02  0.45594000000E+02  0.51100000000E-03 0.  1.
         11   -1    0    0    0    0 -0.00000000000E+00 -0.00000000000E+00 -0.45593999997E+02  0.45594000000E+02  0.51100000000E-03 0. -1.
    9900012    2    1    2    0    0  0.27071504997E+02 -0.24071903823E+02 -0.23901887723E+02  0.47787272204E+02  0.20000005288E+02 0.  0.
        -12    1    1    2    0    0 -0.27071504997E+02  0.24071903823E+02  0.23901887723E+02  0.43400727796E+02  0.00000000000E+00 0.  1.
         11    1    3    3    0    0  0.22927547307E+01 -0.12605376740E+02 -0.46655976925E+01  0.13635250239E+02  0.51100000000E-03 0.  1.
        -11    1    3    3    0    0  0.21418178483E+02 -0.10868422978E+02 -0.19182732305E+02  0.30738220614E+02  0.51100000000E-03 0. -1.
         12    1    3    3    0    0  0.33605717833E+01 -0.59810410593E+00 -0.53557724787E-01  0.34138013507E+01  0.00000000000E+00 0. -1.
</event>
<event>
 7    1  0.2756432E-009  0.4778726E+02  0.7816164E-02  0.1312668E+00
        -11   -1    0    0    0    0  0.00000000000E+00  0.00000000000E+00  0.45593999997E+02  0.45594000000E+02  0.51100000000E-03 0. -1.
         11   -1    0    0    0    0 -0.00000000000E+00 -0.00000000000E+00 -0.45593999997E+02  0.45594000000E+02  0.51100000000E-03 0.  1.
    9900012    2    1    2    0    0  0.24389975349E+01 -0.42770868383E+02 -0.69518658579E+01  0.47787258876E+02  0.19999944519E+02 0.  0.
        -12    1    1    2    0    0 -0.24389975349E+01  0.42770868383E+02  0.69518658579E+01  0.43400741124E+02  0.00000000000E+00 0.  1.
         11    1    3    3    0    0 -0.95449624236E+00 -0.18370745272E+02  0.53620429150E+01  0.19161076416E+02  0.51100000000E-03 0. -1.
        -11    1    3    3    0    0  0.28059155266E+01 -0.52382988970E+01 -0.59941450471E+01  0.84405398159E+01  0.51100000000E-03 0.  1.
         12    1    3    3    0    0  0.58757825061E+00 -0.19161824214E+02 -0.63197637258E+01  0.20185642644E+02  0.00000000000E+00 0. -1.
</event>
<event>
 7    1  0.2756432E-009  0.4778727E+02  0.7816164E-02  0.1312668E+00
        -11   -1    0    0    0    0  0.00000000000E+00  0.00000000000E+00  0.45593999997E+02  0.45594000000E+02  0.51100000000E-03 0.  1.
         11   -1    0    0    0    0 -0.00000000000E+00 -0.00000000000E+00 -0.45593999997E+02  0.45594000000E+02  0.51100000000E-03 0. -1.
    9900012    2    1    2    0    0 -0.25385377182E+02  0.21022302724E+02 -0.28235950941E+02  0.47787268301E+02  0.19999987490E+02 0.  0.
        -12    1    1    2    0    0  0.25385377182E+02 -0.21022302724E+02  0.28235950941E+02  0.43400731699E+02  0.00000000000E+00 0.  1.
         11    1    3    3    0    0 -0.11391013044E+02  0.11706483080E+02 -0.22373132680E+01  0.16486433671E+02  0.51100000000E-03 0. -1.
        -11    1    3    3    0    0 -0.14491021781E+01  0.42154487991E+00 -0.53251452478E+01  0.55348685061E+01  0.51100000000E-03 0.  1.
         12    1    3    3    0    0 -0.12545261961E+02  0.88942747635E+01 -0.20673492425E+02  0.25765966124E+02  0.00000000000E+00 0. -1.
</event>
<event>
 7    1  0.3894488E-009  0.4778727E+02  0.7816164E-02  0.1312668E+00
        -11   -1    0    0    0    0  0.00000000000E+00  0.00000000000E+00  0.45593999997E+02  0.45594000000E+02  0.51100000000E-03 0.  1.
         11   -1    0    0    0    0 -0.00000000000E+00 -0.00000000000E+00 -0.45593999997E+02  0.45594000000E+02  0.51100000000E-03 0. -1.
    9900012    2    1    2    0    0  0.42545641675E+02 -0.83049631430E+01  0.21258498032E+01  0.47787271023E+02  0.19999999902E+02 0.  0.
        -12    1    1    2    0    0 -0.42545641675E+02  0.83049631430E+01 -0.21258498032E+01  0.43400728977E+02  0.00000000000E+00 0.  1.
         11    1    3    3    0    0  0.22214062678E+02 -0.32285634248E+01  0.92032516141E+00  0.22466312584E+02  0.51100000000E-03 0. -1.
        -11    1    3    3    0    0  0.41656969597E+00 -0.48788530660E+00  0.45650326957E+01  0.46098900375E+01  0.51100000000E-03 0.  1.
        -12    1    3    3    0    0  0.19915009301E+02 -0.45885144116E+01 -0.33595080539E+01  0.20711068402E+02  0.00000000000E+00 0.  1.
</event>
<event>
 7    1  0.2756432E-009  0.4778727E+02  0.7816164E-02  0.1312668E+00
        -11   -1    0    0    0    0  0.00000000000E+00  0.00000000000E+00  0.45593999997E+02  0.45594000000E+02  0.51100000000E-03 0.  1.
         11   -1    0    0    0    0 -0.00000000000E+00 -0.00000000000E+00 -0.45593999997E+02  0.45594000000E+02  0.51100000000E-03 0. -1.
    9900012    2    1    2    0    0 -0.20980177340E+02 -0.37931672547E+02  0.21549208756E+01  0.47787270658E+02  0.19999998237E+02 0.  0.
        -12    1    1    2    0    0  0.20980177340E+02  0.37931672547E+02 -0.21549208756E+01  0.43400729342E+02  0.00000000000E+00 0.  1.
         11    1    3    3    0    0 -0.14233789770E+02 -0.22751322514E+02 -0.36940724278E+00  0.26839521406E+02  0.51100000000E-03 0. -1.
        -11    1    3    3    0    0 -0.93423431971E+01 -0.57433740863E+01  0.67722508817E+00  0.10987463601E+02  0.51100000000E-03 0.  1.
        -12    1    3    3    0    0  0.25959556263E+01 -0.94369759468E+01  0.18471030302E+01  0.99602856504E+01  0.00000000000E+00 0.  1.
</event>
<event>
 7    1  0.2756432E-009  0.4778728E+02  0.7816164E-02  0.1312668E+00
        -11   -1    0    0    0    0  0.00000000000E+00  0.00000000000E+00  0.45593999997E+02  0.45594000000E+02  0.51100000000E-03 0.  1.
         11   -1    0    0    0    0 -0.00000000000E+00 -0.00000000000E+00 -0.45593999997E+02  0.45594000000E+02  0.51100000000E-03 0. -1.
    9900012    2    1    2    0    0 -0.87904386349E+01  0.14011956140E+02 -0.40125004630E+02  0.47787277392E+02  0.20000028943E+02 0.  0.
        -12    1    1    2    0    0  0.87904386349E+01 -0.14011956140E+02  0.40125004630E+02  0.43400722608E+02  0.00000000000E+00 0.  1.
         11    1    3    3    0    0 -0.12579480999E+01  0.76804052529E+00 -0.13404715679E+02  0.13485500449E+02  0.51100000000E-03 0. -1.
        -11    1    3    3    0    0 -0.86982666713E+00  0.13053921899E+02 -0.10533310146E+02  0.16796192970E+02  0.51100000000E-03 0.  1.
        -12    1    3    3    0    0 -0.66626638678E+01  0.18999371624E+00 -0.16186978805E+02  0.17505583974E+02  0.00000000000E+00 0.  1.
</event>
<event>
 7    1  0.2756432E-009  0.4778727E+02  0.7816164E-02  0.1312668E+00
        -11   -1    0    0    0    0  0.00000000000E+00  0.00000000000E+00  0.45593999997E+02  0.45594000000E+02  0.51100000000E-03 0.  1.
         11   -1    0    0    0    0 -0.00000000000E+00 -0.00000000000E+00 -0.45593999997E+02  0.45594000000E+02  0.51100000000E-03 0. -1.
    9900012    2    1    2    0    0  0.34476601276E+02 -0.17734117600E+02 -0.19506115171E+02  0.47787268535E+02  0.19999988560E+02 0.  0.
        -12    1    1    2    0    0 -0.34476601276E+02  0.17734117600E+02  0.19506115171E+02  0.43400731465E+02  0.00000000000E+00 0.  1.
         11    1    3    3    0    0  0.69527396101E+01 -0.41836298071E+00 -0.11421151097E+02  0.13377529978E+02  0.51100000000E-03 0. -1.
        -11    1    3    3    0    0  0.67425225173E+01 -0.65255778787E+01  0.67901140933E+00  0.94077538925E+01  0.51100000000E-03 0.  1.
         12    1    3    3    0    0  0.20781339148E+02 -0.10790176741E+02 -0.87639754830E+01  0.25001984665E+02  0.00000000000E+00 0. -1.
</event>
<event>
 7    1  0.2756432E-009  0.4778728E+02  0.7816164E-02  0.1312668E+00
        -11   -1    0    0    0    0  0.00000000000E+00  0.00000000000E+00  0.45593999997E+02  0.45594000000E+02  0.51100000000E-03 0. -1.
         11   -1    0    0    0    0 -0.00000000000E+00 -0.00000000000E+00 -0.45593999997E+02  0.45594000000E+02  0.51100000000E-03 0.  1.
    9900012    2    1    2    0    0 -0.15741916690E+01 -0.15985185310E+02  0.40318959130E+02  0.47787277723E+02  0.20000030452E+02 0.  0.
        -12    1    1    2    0    0  0.15741916690E+01  0.15985185310E+02 -0.40318959130E+02  0.43400722277E+02  0.00000000000E+00 0.  1.
         11    1    3    3    0    0  0.30826335843E+01 -0.11349162031E+02  0.16623268143E+02  0.20362690211E+02  0.51100000000E-03 0.  1.
        -11    1    3    3    0    0 -0.80811399520E+01 -0.15810505500E+01  0.98514987530E+01  0.12839648426E+02  0.51100000000E-03 0. -1.
         12    1    3    3    0    0  0.34243146987E+01 -0.30549727284E+01  0.13844192234E+02  0.14584939086E+02  0.00000000000E+00 0. -1.
</event>
<event>
 7    1  0.2756432E-009  0.4778727E+02  0.7816164E-02  0.1312668E+00
        -11   -1    0    0    0    0  0.00000000000E+00  0.00000000000E+00  0.45593999997E+02  0.45594000000E+02  0.51100000000E-03 0.  1.
         11   -1    0    0    0    0 -0.00000000000E+00 -0.00000000000E+00 -0.45593999997E+02  0.45594000000E+02  0.51100000000E-03 0. -1.
    9900012    2    1    2    0    0 -0.14662475535E+02  0.35982668275E+02 -0.19336048798E+02  0.47787269729E+02  0.19999994001E+02 0.  0.
        -12    1    1    2    0    0  0.14662475535E+02 -0.35982668275E+02  0.19336048798E+02  0.43400730271E+02  0.00000000000E+00 0.  1.
         11    1    3    3    0    0 -0.31947432087E+01 -0.15187607198E+01 -0.36691709870E+01  0.50966493195E+01  0.51100000000E-03 0.  1.
        -11    1    3    3    0    0 -0.90111407454E+01  0.24029512513E+02 -0.12886129784E+02  0.28717076283E+02  0.51100000000E-03 0. -1.
         12    1    3    3    0    0 -0.24565915811E+01  0.13471916481E+02 -0.27807480269E+01  0.13973544127E+02  0.00000000000E+00 0. -1.
</event>
<event>
 7    1  0.2756432E-009  0.4778725E+02  0.7816164E-02  0.1312668E+00
        -11   -1    0    0    0    0  0.00000000000E+00  0.00000000000E+00  0.45593999997E+02  0.45594000000E+02  0.51100000000E-03 0. -1.
         11   -1    0    0    0    0 -0.00000000000E+00 -0.00000000000E+00 -0.45593999997E+02  0.45594000000E+02  0.51100000000E-03 0.  1.
    9900012    2    1    2    0    0 -0.38991974925E+02  0.18650926857E+02  0.39234796232E+01  0.47787252616E+02  0.19999915977E+02 0.  0.
        -12    1    1    2    0    0  0.38991974925E+02 -0.18650926857E+02 -0.39234796232E+01  0.43400747384E+02  0.00000000000E+00 0.  1.
         11    1    3    3    0    0 -0.26641931721E+02  0.11405623033E+02 -0.27359324075E+00  0.28981987788E+02  0.51100000000E-03 0. -1.
        -11    1    3    3    0    0  0.62409344410E+00  0.26811952720E+01  0.42357145524E+01  0.50516906817E+01  0.51100000000E-03 0.  1.
        -12    1    3    3    0    0 -0.12974136648E+02  0.45641085523E+01 -0.38641688464E-01  0.13753574147E+02  0.00000000000E+00 0.  1.
</event>
<event>
 7    1  0.2756432E-009  0.4778727E+02  0.7816164E-02  0.1312668E+00
        -11   -1    0    0    0    0  0.00000000000E+00  0.00000000000E+00  0.45593999997E+02  0.45594000000E+02  0.51100000000E-03 0.  1.
         11   -1    0    0    0    0 -0.00000000000E+00 -0.00000000000E+00 -0.45593999997E+02  0.45594000000E+02  0.51100000000E-03 0. -1.
    9900012    2    1    2    0    0  0.31272331508E+00 -0.32828787343E+02 -0.28386547968E+02  0.47787272128E+02  0.20000004941E+02 0.  0.
        -12    1    1    2    0    0 -0.31272331508E+00  0.32828787343E+02  0.28386547968E+02  0.43400727872E+02  0.00000000000E+00 0.  1.
         11    1    3    3    0    0  0.21472836746E+01 -0.25018387110E+02 -0.29169659377E+02  0.38488953600E+02  0.51100000000E-03 0. -1.
        -11    1    3    3    0    0 -0.28696060646E+01 -0.29507412798E+01  0.12658475396E+01  0.43062609443E+01  0.51100000000E-03 0.  1.
         12    1    3    3    0    0  0.10350457051E+01 -0.48596589528E+01 -0.48273613054E+00  0.49920575839E+01  0.00000000000E+00 0. -1.
</event>
<event>
 7    1  0.2756432E-009  0.4778727E+02  0.7816164E-02  0.1312668E+00
        -11   -1    0    0    0    0  0.00000000000E+00  0.00000000000E+00  0.45593999997E+02  0.45594000000E+02  0.51100000000E-03 0. -1.
         11   -1    0    0    0    0 -0.00000000000E+00 -0.00000000000E+00 -0.45593999997E+02  0.45594000000E+02  0.51100000000E-03 0.  1.
    9900012    2    1    2    0    0  0.42222857311E+02  0.76143841658E+01  0.65478892762E+01  0.47787269826E+02  0.19999994443E+02 0.  0.
        -12    1    1    2    0    0 -0.42222857311E+02 -0.76143841658E+01 -0.65478892762E+01  0.43400730174E+02  0.00000000000E+00 0.  1.
         11    1    3    3    0    0  0.14413643505E+02 -0.46766490125E+01  0.45975844980E+01  0.15835464898E+02  0.51100000000E-03 0. -1.
        -11    1    3    3    0    0  0.74882781013E+01  0.60405622517E+01 -0.30844455020E+01  0.10103291818E+02  0.51100000000E-03 0.  1.
         12    1    3    3    0    0  0.20320935705E+02  0.62504709266E+01  0.50347502802E+01  0.21848513110E+02  0.00000000000E+00 0. -1.
</event>
<event>
 7    1  0.2756432E-009  0.4778727E+02  0.7816164E-02  0.1312668E+00
        -11   -1    0    0    0    0  0.00000000000E+00  0.00000000000E+00  0.45593999997E+02  0.45594000000E+02  0.51100000000E-03 0.  1.
         11   -1    0    0    0    0 -0.00000000000E+00 -0.00000000000E+00 -0.45593999997E+02  0.45594000000E+02  0.51100000000E-03 0. -1.
    9900012    2    1    2    0    0 -0.35916562001E+02 -0.62444993080E+01 -0.23550587974E+02  0.47787269689E+02  0.19999993821E+02 0.  0.
        -12    1    1    2    0    0  0.35916562001E+02  0.62444993080E+01  0.23550587974E+02  0.43400730311E+02  0.00000000000E+00 0.  1.
         11    1    3    3    0    0 -0.14661946003E+02 -0.11394068730E+01 -0.10541666262E+02  0.18094132653E+02  0.51100000000E-03 0. -1.
        -11    1    3    3    0    0 -0.17331683813E+02 -0.19487965626E+00 -0.25897282958E+01  0.17525180022E+02  0.51100000000E-03 0.  1.
        -12    1    3    3    0    0 -0.39229321844E+01 -0.49102127787E+01 -0.10419193416E+02  0.12167957014E+02  0.00000000000E+00 0.  1.
</event>
<event>
 7    1  0.2756432E-009  0.4778726E+02  0.7816164E-02  0.1312668E+00
        -11   -1    0    0    0    0  0.00000000000E+00  0.00000000000E+00  0.45593999997E+02  0.45594000000E+02  0.51100000000E-03 0.  1.
         11   -1    0    0    0    0 -0.00000000000E+00 -0.00000000000E+00 -0.45593999997E+02  0.45594000000E+02  0.51100000000E-03 0. -1.
    9900012    2    1    2    0    0  0.13373328037E+02  0.41239191984E+02 -0.20267495651E+01  0.47787256088E+02  0.19999931808E+02 0.  0.
        -12    1    1    2    0    0 -0.13373328037E+02 -0.41239191984E+02  0.20267495651E+01  0.43400743912E+02  0.00000000000E+00 0.  1.
         11    1    3    3    0    0  0.47901558575E+01  0.67241413307E+01  0.45155569328E+00  0.82682266889E+01  0.51100000000E-03 0. -1.
        -11    1    3    3    0    0  0.51505128721E+01  0.18019036592E+01  0.29159852455E+01  0.61868901603E+01  0.51100000000E-03 0.  1.
        -12    1    3    3    0    0  0.34326593079E+01  0.32713146994E+02 -0.53942905039E+01  0.33332139239E+02  0.00000000000E+00 0.  1.
</event>
<event>
 7    1  0.2756432E-009  0.4778727E+02  0.7816164E-02  0.1312668E+00
        -11   -1    0    0    0    0  0.00000000000E+00  0.00000000000E+00  0.45593999997E+02  0.45594000000E+02  0.51100000000E-03 0.  1.
         11   -1    0    0    0    0 -0.00000000000E+00 -0.00000000000E+00 -0.45593999997E+02  0.45594000000E+02  0.51100000000E-03 0. -1.
    9900012    2    1    2    0    0  0.74627299534E+01  0.27741416345E+02 -0.32532214590E+02  0.47787268378E+02  0.19999987841E+02 0.  0.
        -12    1    1    2    0    0 -0.74627299534E+01 -0.27741416345E+02  0.32532214590E+02  0.43400731622E+02  0.00000000000E+00 0.  1.
         11    1    3    3    0    0  0.38072662741E+00  0.43967429945E+01 -0.18026151965E+02  0.18558514398E+02  0.51100000000E-03 0. -1.
        -11    1    3    3    0    0  0.12188189742E+01  0.15441545402E+02 -0.80171640734E+01  0.17441380798E+02  0.51100000000E-03 0.  1.
         12    1    3    3    0    0  0.58631843518E+01  0.79031279489E+01 -0.64888985518E+01  0.11787373182E+02  0.00000000000E+00 0. -1.
</event>
<event>
 7    1  0.2756432E-009  0.4778727E+02  0.7816164E-02  0.1312668E+00
        -11   -1    0    0    0    0  0.00000000000E+00  0.00000000000E+00  0.45593999997E+02  0.45594000000E+02  0.51100000000E-03 0.  1.
         11   -1    0    0    0    0 -0.00000000000E+00 -0.00000000000E+00 -0.45593999997E+02  0.45594000000E+02  0.51100000000E-03 0. -1.
    9900012    2    1    2    0    0 -0.14625868420E+02  0.21067891945E+02 -0.35012159672E+02  0.47787269327E+02  0.19999992169E+02 0.  0.
        -12    1    1    2    0    0  0.14625868420E+02 -0.21067891945E+02  0.35012159672E+02  0.43400730673E+02  0.00000000000E+00 0.  1.
         11    1    3    3    0    0 -0.70968321512E+01  0.30351611189E+01 -0.20343325848E+02  0.21758403812E+02  0.51100000000E-03 0. -1.
        -11    1    3    3    0    0 -0.25451547698E+01  0.55778651946E+01  0.26607740242E-01  0.61311582238E+01  0.51100000000E-03 0.  1.
         12    1    3    3    0    0 -0.49838814991E+01  0.12454865631E+02 -0.14695441564E+02  0.19897707291E+02  0.00000000000E+00 0. -1.
</event>
<event>
 7    1  0.2756432E-009  0.4778727E+02  0.7816164E-02  0.1312668E+00
        -11   -1    0    0    0    0  0.00000000000E+00  0.00000000000E+00  0.45593999997E+02  0.45594000000E+02  0.51100000000E-03 0.  1.
         11   -1    0    0    0    0 -0.00000000000E+00 -0.00000000000E+00 -0.45593999997E+02  0.45594000000E+02  0.51100000000E-03 0. -1.
    9900012    2    1    2    0    0 -0.45783997397E+01  0.32453976794E+02 -0.28449981302E+02  0.47787265098E+02  0.19999972887E+02 0.  0.
        -12    1    1    2    0    0  0.45783997397E+01 -0.32453976794E+02  0.28449981302E+02  0.43400734902E+02  0.00000000000E+00 0.  1.
         11    1    3    3    0    0  0.26162895695E+01  0.26866190620E+01 -0.16588432900E+01  0.41005675726E+01  0.51100000000E-03 0. -1.
        -11    1    3    3    0    0  0.18421459373E+01  0.16295174405E+02 -0.20583016029E+02  0.26317043140E+02  0.51100000000E-03 0.  1.
        -12    1    3    3    0    0 -0.90368352466E+01  0.13472183328E+02 -0.62081219835E+01  0.17369654385E+02  0.00000000000E+00 0.  1.
</event>
<event>
 7    1  0.2756432E-009  0.4778728E+02  0.7816164E-02  0.1312668E+00
        -11   -1    0    0    0    0  0.00000000000E+00  0.00000000000E+00  0.45593999997E+02  0.45594000000E+02  0.51100000000E-03 0.  1.
         11   -1    0    0    0    0 -0.00000000000E+00 -0.00000000000E+00 -0.45593999997E+02  0.45594000000E+02  0.51100000000E-03 0. -1.
    9900012    2    1    2    0    0  0.14901923414E+01 -0.40554857421E+01 -0.43185123864E+02  0.47787279257E+02  0.20000037445E+02 0.  0.
        -12    1    1    2    0    0 -0.14901923414E+01  0.40554857421E+01  0.43185123864E+02  0.43400720743E+02  0.00000000000E+00 0.  1.
         11    1    3    3    0    0 -0.52378826113E+01  0.17976611160E+01 -0.24668694580E+02  0.25282632226E+02  0.51100000000E-03 0. -1.
        -11    1    3    3    0    0  0.47478769308E+01 -0.14445141884E+01 -0.16565310677E+02  0.17292728954E+02  0.51100000000E-03 0.  1.
         12    1    3    3    0    0  0.19801980219E+01 -0.44086326697E+01 -0.19511186078E+01  0.52119180773E+01  0.00000000000E+00 0. -1.
</event>
<event>
 7    1  0.2756432E-009  0.4778727E+02  0.7816164E-02  0.1312668E+00
        -11   -1    0    0    0    0  0.00000000000E+00  0.00000000000E+00  0.45593999997E+02  0.45594000000E+02  0.51100000000E-03 0.  1.
         11   -1    0    0    0    0 -0.00000000000E+00 -0.00000000000E+00 -0.45593999997E+02  0.45594000000E+02  0.51100000000E-03 0. -1.
    9900012    2    1    2    0    0  0.27211138885E+02 -0.11422293420E+02 -0.31823076741E+02  0.47787273282E+02  0.20000010200E+02 0.  0.
        -12    1    1    2    0    0 -0.27211138885E+02  0.11422293420E+02  0.31823076741E+02  0.43400726718E+02  0.00000000000E+00 0.  1.
         11    1    3    3    0    0  0.85316989477E+01 -0.60093997315E+01 -0.19042840508E+02  0.21714800182E+02  0.51100000000E-03 0. -1.
        -11    1    3    3    0    0  0.15989668249E+02 -0.23587004184E+01 -0.43915603790E+01  0.16748694314E+02  0.51100000000E-03 0.  1.
        -12    1    3    3    0    0  0.26897716884E+01 -0.30541932702E+01 -0.83886758538E+01  0.93237787858E+01  0.00000000000E+00 0.  1.
</event>
<event>
 7    1  0.2756432E-009  0.4778727E+02  0.7816164E-02  0.1312668E+00
        -11   -1    0    0    0    0  0.00000000000E+00  0.00000000000E+00  0.45593999997E+02  0.45594000000E+02  0.51100000000E-03 0. -1.
         11   -1    0    0    0    0 -0.00000000000E+00 -0.00000000000E+00 -0.45593999997E+02  0.45594000000E+02  0.51100000000E-03 0.  1.
    9900012    2    1    2    0    0 -0.22575399136E+02  0.34707706741E+02  0.13013442234E+02  0.47787271525E+02  0.20000002191E+02 0.  0.
        -12    1    1    2    0    0  0.22575399136E+02 -0.34707706741E+02 -0.13013442234E+02  0.43400728475E+02  0.00000000000E+00 0.  1.
         11    1    3    3    0    0 -0.62891307046E+01  0.29102365840E+01 -0.58620556692E-02  0.69298395810E+01  0.51100000000E-03 0. -1.
        -11    1    3    3    0    0 -0.88316790825E+00  0.60240001102E+01  0.85574012978E+01  0.10502270236E+02  0.51100000000E-03 0.  1.
        -12    1    3    3    0    0 -0.15403100523E+02  0.25773470047E+02  0.44619029921E+01  0.30355161708E+02  0.00000000000E+00 0.  1.
</event>
<event>
 7    1  0.2756432E-009  0.4778727E+02  0.7816164E-02  0.1312668E+00
        -11   -1    0    0    0    0  0.00000000000E+00  0.00000000000E+00  0.45593999997E+02  0.45594000000E+02  0.51100000000E-03 0. -1.
         11   -1    0    0    0    0 -0.00000000000E+00 -0.00000000000E+00 -0.45593999997E+02  0.45594000000E+02  0.51100000000E-03 0.  1.
    9900012    2    1    2    0    0  0.27742238407E+02  0.27808292756E+02  0.18457802008E+02  0.47787269674E+02  0.19999993754E+02 0.  0.
        -12    1    1    2    0    0 -0.27742238407E+02 -0.27808292756E+02 -0.18457802008E+02  0.43400730326E+02  0.00000000000E+00 0.  1.
         11    1    3    3    0    0  0.99229029616E+01  0.16676326877E+02  0.64772102230E+01  0.20457715753E+02  0.51100000000E-03 0. -1.
        -11    1    3    3    0    0  0.11737732481E+02  0.69836589917E+00  0.26121753657E+01  0.12045145874E+02  0.51100000000E-03 0.  1.
        -12    1    3    3    0    0  0.60816029642E+01  0.10433599980E+02  0.93684164193E+01  0.15284408047E+02  0.00000000000E+00 0.  1.
</event>
<event>
 7    1  0.2756432E-009  0.4778727E+02  0.7816164E-02  0.1312668E+00
        -11   -1    0    0    0    0  0.00000000000E+00  0.00000000000E+00  0.45593999997E+02  0.45594000000E+02  0.51100000000E-03 0. -1.
         11   -1    0    0    0    0 -0.00000000000E+00 -0.00000000000E+00 -0.45593999997E+02  0.45594000000E+02  0.51100000000E-03 0.  1.
    9900012    2    1    2    0    0 -0.64811629509E+01 -0.42913543327E+02  0.21425744036E+00  0.47787267514E+02  0.19999983903E+02 0.  0.
        -12    1    1    2    0    0  0.64811629509E+01  0.42913543327E+02 -0.21425744036E+00  0.43400732486E+02  0.00000000000E+00 0.  1.
         11    1    3    3    0    0 -0.61848618630E+01 -0.14586698443E+02  0.54287659530E+01  0.16748008472E+02  0.51100000000E-03 0. -1.
        -11    1    3    3    0    0  0.29389189630E+01 -0.25202896023E+02 -0.18849754082E+01  0.25443591436E+02  0.51100000000E-03 0.  1.
        -12    1    3    3    0    0 -0.32352200510E+01 -0.31239488606E+01 -0.33295331044E+01  0.55956676059E+01  0.00000000000E+00 0.  1.
</event>
<event>
 7    1  0.2756432E-009  0.4778726E+02  0.7816164E-02  0.1312668E+00
        -11   -1    0    0    0    0  0.00000000000E+00  0.00000000000E+00  0.45593999997E+02  0.45594000000E+02  0.51100000000E-03 0.  1.
         11   -1    0    0    0    0 -0.00000000000E+00 -0.00000000000E+00 -0.45593999997E+02  0.45594000000E+02  0.51100000000E-03 0. -1.
    9900012    2    1    2    0    0  0.40807411028E+02  0.13992247350E+02 -0.47535355579E+01  0.47787264050E+02  0.19999968109E+02 0.  0.
        -12    1    1    2    0    0 -0.40807411028E+02 -0.13992247350E+02  0.47535355579E+01  0.43400735950E+02  0.00000000000E+00 0.  1.
         11    1    3    3    0    0  0.14897303564E+02  0.63905108131E+01 -0.93408254117E+01  0.18708802782E+02  0.51100000000E-03 0. -1.
        -11    1    3    3    0    0  0.15843776926E+02 -0.13602445413E+00  0.41292458796E+01  0.16373589763E+02  0.51100000000E-03 0.  1.
        -12    1    3    3    0    0  0.10066330539E+02  0.77377609914E+01  0.45804397426E+00  0.12704871505E+02  0.00000000000E+00 0.  1.
</event>
<event>
 7    1  0.2756432E-009  0.4778727E+02  0.7816164E-02  0.1312668E+00
        -11   -1    0    0    0    0  0.00000000000E+00  0.00000000000E+00  0.45593999997E+02  0.45594000000E+02  0.51100000000E-03 0.  1.
         11   -1    0    0    0    0 -0.00000000000E+00 -0.00000000000E+00 -0.45593999997E+02  0.45594000000E+02  0.51100000000E-03 0. -1.
    9900012    2    1    2    0    0 -0.35633937118E+02 -0.24771022608E+02 -0.49226311237E+00  0.47787270068E+02  0.19999995550E+02 0.  0.
        -12    1    1    2    0    0  0.35633937118E+02  0.24771022608E+02  0.49226311237E+00  0.43400729932E+02  0.00000000000E+00 0.  1.
         11    1    3    3    0    0 -0.19738352853E+02 -0.10318491616E+02  0.74188743227E+01  0.23475807527E+02  0.51100000000E-03 0.  1.
        -11    1    3    3    0    0 -0.10241718544E+02 -0.13569797453E+02 -0.42703051716E+01  0.17529053259E+02  0.51100000000E-03 0. -1.
        -12    1    3    3    0    0 -0.56538657210E+01 -0.88273353932E+00 -0.36408322635E+01  0.67824092816E+01  0.00000000000E+00 0.  1.
</event>
<event>
 7    1  0.2756432E-009  0.4778727E+02  0.7816164E-02  0.1312668E+00
        -11   -1    0    0    0    0  0.00000000000E+00  0.00000000000E+00  0.45593999997E+02  0.45594000000E+02  0.51100000000E-03 0.  1.
         11   -1    0    0    0    0 -0.00000000000E+00 -0.00000000000E+00 -0.45593999997E+02  0.45594000000E+02  0.51100000000E-03 0. -1.
    9900012    2    1    2    0    0  0.29406840624E+01 -0.35933780629E+02  0.24160694012E+02  0.47787270188E+02  0.19999996096E+02 0.  0.
        -12    1    1    2    0    0 -0.29406840624E+01  0.35933780629E+02 -0.24160694012E+02  0.43400729812E+02  0.00000000000E+00 0.  1.
         11    1    3    3    0    0 -0.67883848087E+01 -0.48089452911E+01  0.32693780977E+01  0.89385097489E+01  0.51100000000E-03 0.  1.
        -11    1    3    3    0    0  0.74596077081E+01 -0.26117829148E+02  0.18436693466E+02  0.32828317240E+02  0.51100000000E-03 0. -1.
        -12    1    3    3    0    0  0.22694611630E+01 -0.50070061903E+01  0.24546224480E+01  0.60204431998E+01  0.00000000000E+00 0.  1.
</event>
<event>
 7    1  0.2756432E-009  0.4778729E+02  0.7816164E-02  0.1312668E+00
        -11   -1    0    0    0    0  0.00000000000E+00  0.00000000000E+00  0.45593999997E+02  0.45594000000E+02  0.51100000000E-03 0.  1.
         11   -1    0    0    0    0 -0.00000000000E+00 -0.00000000000E+00 -0.45593999997E+02  0.45594000000E+02  0.51100000000E-03 0. -1.
    9900012    2    1    2    0    0 -0.28812269497E+02  0.17930382319E+02 -0.27055055557E+02  0.47787291309E+02  0.20000092394E+02 0.  0.
        -12    1    1    2    0    0  0.28812269497E+02 -0.17930382319E+02  0.27055055557E+02  0.43400708691E+02  0.00000000000E+00 0.  1.
         11    1    3    3    0    0 -0.58167166326E+01  0.61707181886E+01  0.14146295862E+01  0.85972747121E+01  0.51100000000E-03 0. -1.
        -11    1    3    3    0    0 -0.16197959173E+02  0.58630775121E+01 -0.22716187655E+02  0.28509204498E+02  0.51100000000E-03 0.  1.
         12    1    3    3    0    0 -0.67975936912E+01  0.58965866180E+01 -0.57534974886E+01  0.10680812099E+02  0.00000000000E+00 0. -1.
</event>
<event>
 7    1  0.2756432E-009  0.4778727E+02  0.7816164E-02  0.1312668E+00
        -11   -1    0    0    0    0  0.00000000000E+00  0.00000000000E+00  0.45593999997E+02  0.45594000000E+02  0.51100000000E-03 0.  1.
         11   -1    0    0    0    0 -0.00000000000E+00 -0.00000000000E+00 -0.45593999997E+02  0.45594000000E+02  0.51100000000E-03 0. -1.
    9900012    2    1    2    0    0  0.10398008516E+02  0.35746689130E+02 -0.22308713381E+02  0.47787273536E+02  0.20000011362E+02 0.  0.
        -12    1    1    2    0    0 -0.10398008516E+02 -0.35746689130E+02  0.22308713381E+02  0.43400726464E+02  0.00000000000E+00 0.  1.
         11    1    3    3    0    0 -0.30412502018E+01  0.15545285172E+02 -0.76393575671E+01  0.17585928413E+02  0.51100000000E-03 0. -1.
        -11    1    3    3    0    0  0.13284549008E+02  0.20448786034E+02 -0.11398695390E+02  0.26917695843E+02  0.51100000000E-03 0.  1.
         12    1    3    3    0    0  0.15470970926E+00 -0.24738207649E+00 -0.32706604239E+01  0.32836492800E+01  0.00000000000E+00 0. -1.
</event>
<event>
 7    1  0.2756432E-009  0.4778727E+02  0.7816164E-02  0.1312668E+00
        -11   -1    0    0    0    0  0.00000000000E+00  0.00000000000E+00  0.45593999997E+02  0.45594000000E+02  0.51100000000E-03 0. -1.
         11   -1    0    0    0    0 -0.00000000000E+00 -0.00000000000E+00 -0.45593999997E+02  0.45594000000E+02  0.51100000000E-03 0.  1.
    9900012    2    1    2    0    0  0.22522892135E+02  0.67313118599E+01  0.36483317015E+02  0.47787266713E+02  0.19999980250E+02 0.  0.
        -12    1    1    2    0    0 -0.22522892135E+02 -0.67313118599E+01 -0.36483317015E+02  0.43400733287E+02  0.00000000000E+00 0.  1.
         11    1    3    3    0    0 -0.30065913457E+01  0.52148380518E+00  0.45129519493E+01  0.54477768343E+01  0.51100000000E-03 0.  1.
        -11    1    3    3    0    0  0.19827740503E+02  0.27101785307E+01  0.28439404833E+02  0.34774762524E+02  0.51100000000E-03 0. -1.
        -12    1    3    3    0    0  0.57017429780E+01  0.34996495240E+01  0.35309602326E+01  0.75647273541E+01  0.00000000000E+00 0.  1.
</event>
<event>
 7    1  0.2756432E-009  0.4778727E+02  0.7816164E-02  0.1312668E+00
        -11   -1    0    0    0    0  0.00000000000E+00  0.00000000000E+00  0.45593999997E+02  0.45594000000E+02  0.51100000000E-03 0. -1.
         11   -1    0    0    0    0 -0.00000000000E+00 -0.00000000000E+00 -0.45593999997E+02  0.45594000000E+02  0.51100000000E-03 0.  1.
    9900012    2    1    2    0    0 -0.91877650191E+01  0.42133925371E+02 -0.48928966204E+01  0.47787272696E+02  0.20000007530E+02 0.  0.
        -12    1    1    2    0    0  0.91877650191E+01 -0.42133925371E+02  0.48928966204E+01  0.43400727304E+02  0.00000000000E+00 0.  1.
         11    1    3    3    0    0 -0.15476113676E+01  0.33460404335E+02 -0.15145337032E+01  0.33530397728E+02  0.51100000000E-03 0. -1.
        -11    1    3    3    0    0 -0.30075439515E+01  0.10810603682E+00 -0.33710194760E+01  0.45189357269E+01  0.51100000000E-03 0.  1.
         12    1    3    3    0    0 -0.46326096999E+01  0.85654149987E+01 -0.73434412442E-02  0.97379392409E+01  0.00000000000E+00 0. -1.
</event>
<event>
 7    1  0.2756432E-009  0.4778727E+02  0.7816164E-02  0.1312668E+00
        -11   -1    0    0    0    0  0.00000000000E+00  0.00000000000E+00  0.45593999997E+02  0.45594000000E+02  0.51100000000E-03 0.  1.
         11   -1    0    0    0    0 -0.00000000000E+00 -0.00000000000E+00 -0.45593999997E+02  0.45594000000E+02  0.51100000000E-03 0. -1.
    9900012    2    1    2    0    0 -0.34967300672E+02 -0.17490227387E+02 -0.18841524354E+02  0.47787271776E+02  0.20000003337E+02 0.  0.
        -12    1    1    2    0    0  0.34967300672E+02  0.17490227387E+02  0.18841524354E+02  0.43400728224E+02  0.00000000000E+00 0.  1.
         11    1    3    3    0    0 -0.63980202668E+01 -0.11374518641E+02 -0.12482540205E+01  0.13110014341E+02  0.51100000000E-03 0.  1.
        -11    1    3    3    0    0  0.27966714066E+00 -0.21076480606E+00 -0.55484334285E+00  0.65611501222E+00  0.51100000000E-03 0. -1.
         12    1    3    3    0    0 -0.28848947546E+02 -0.59049439398E+01 -0.17038426991E+02  0.34021142423E+02  0.00000000000E+00 0. -1.
</event>
<event>
 7    1  0.2756432E-009  0.4778727E+02  0.7816164E-02  0.1312668E+00
        -11   -1    0    0    0    0  0.00000000000E+00  0.00000000000E+00  0.45593999997E+02  0.45594000000E+02  0.51100000000E-03 0. -1.
         11   -1    0    0    0    0 -0.00000000000E+00 -0.00000000000E+00 -0.45593999997E+02  0.45594000000E+02  0.51100000000E-03 0.  1.
    9900012    2    1    2    0    0  0.27770588099E+02 -0.46001633092E+01  0.33034167930E+02  0.47787270551E+02  0.19999997752E+02 0.  0.
        -12    1    1    2    0    0 -0.27770588099E+02  0.46001633092E+01 -0.33034167930E+02  0.43400729449E+02  0.00000000000E+00 0.  1.
         11    1    3    3    0    0  0.38342447608E+01  0.32470211807E+01  0.56066721907E+01  0.75285691036E+01  0.51100000000E-03 0. -1.
        -11    1    3    3    0    0  0.34020911043E+01 -0.72439496543E+01  0.12587157833E+02  0.14915950290E+02  0.51100000000E-03 0.  1.
        -12    1    3    3    0    0  0.20534252234E+02 -0.60323483558E+00  0.14840337906E+02  0.25342751158E+02  0.00000000000E+00 0.  1.
</event>
<event>
 7    1  0.2756432E-009  0.4778729E+02  0.7816164E-02  0.1312668E+00
        -11   -1    0    0    0    0  0.00000000000E+00  0.00000000000E+00  0.45593999997E+02  0.45594000000E+02  0.51100000000E-03 0.  1.
         11   -1    0    0    0    0 -0.00000000000E+00 -0.00000000000E+00 -0.45593999997E+02  0.45594000000E+02  0.51100000000E-03 0. -1.
    9900012    2    1    2    0    0  0.14023733183E+02 -0.29276584453E+02 -0.28806913481E+02  0.47787288555E+02  0.20000079837E+02 0.  0.
        -12    1    1    2    0    0 -0.14023733183E+02  0.29276584453E+02  0.28806913481E+02  0.43400711445E+02  0.00000000000E+00 0.  1.
         11    1    3    3    0    0  0.12858350200E+02 -0.20230583458E+02 -0.12158551743E+02  0.26878319473E+02  0.51100000000E-03 0. -1.
        -11    1    3    3    0    0 -0.19067321408E+01  0.65351720659E+00 -0.52847955675E+01  0.56561273542E+01  0.51100000000E-03 0.  1.
         12    1    3    3    0    0  0.30721151242E+01 -0.96995182016E+01 -0.11363566170E+02  0.15252841728E+02  0.00000000000E+00 0. -1.
</event>
<event>
 7    1  0.2756432E-009  0.4778727E+02  0.7816164E-02  0.1312668E+00
        -11   -1    0    0    0    0  0.00000000000E+00  0.00000000000E+00  0.45593999997E+02  0.45594000000E+02  0.51100000000E-03 0.  1.
         11   -1    0    0    0    0 -0.00000000000E+00 -0.00000000000E+00 -0.45593999997E+02  0.45594000000E+02  0.51100000000E-03 0. -1.
    9900012    2    1    2    0    0 -0.16895363766E+02 -0.14186180232E+02 -0.37375420323E+02  0.47787273386E+02  0.20000010674E+02 0.  0.
        -12    1    1    2    0    0  0.16895363766E+02  0.14186180232E+02  0.37375420323E+02  0.43400726614E+02  0.00000000000E+00 0.  1.
         11    1    3    3    0    0 -0.84378313975E+01 -0.10022238910E+02 -0.79508507751E+01  0.15325087268E+02  0.51100000000E-03 0. -1.
        -11    1    3    3    0    0 -0.33743699667E+01  0.98099621725E+00 -0.18829371002E+01  0.39867503853E+01  0.51100000000E-03 0.  1.
         12    1    3    3    0    0 -0.50831624017E+01 -0.51449375393E+01 -0.27541632448E+02  0.28475435733E+02  0.00000000000E+00 0. -1.
</event>
<event>
 7    1  0.3613050E-009  0.4778727E+02  0.7816164E-02  0.1312668E+00
        -11   -1    0    0    0    0  0.00000000000E+00  0.00000000000E+00  0.45593999997E+02  0.45594000000E+02  0.51100000000E-03 0. -1.
         11   -1    0    0    0    0 -0.00000000000E+00 -0.00000000000E+00 -0.45593999997E+02  0.45594000000E+02  0.51100000000E-03 0.  1.
    9900012    2    1    2    0    0 -0.11087489073E+01 -0.29766500366E-03  0.43386564394E+02  0.47787270811E+02  0.19999998937E+02 0.  0.
        -12    1    1    2    0    0  0.11087489073E+01  0.29766500366E-03 -0.43386564394E+02  0.43400729189E+02  0.00000000000E+00 0.  1.
         11    1    3    3    0    0  0.13603870840E+01  0.43240954278E+01  0.20490610964E+02  0.20986033265E+02  0.51100000000E-03 0. -1.
        -11    1    3    3    0    0 -0.53207997424E+01 -0.76561080946E+01  0.17670995663E+02  0.19979764489E+02  0.51100000000E-03 0.  1.
        -12    1    3    3    0    0  0.28516637510E+01  0.33317150018E+01  0.52249577669E+01  0.68214730570E+01  0.00000000000E+00 0.  1.
</event>
<event>
 7    1  0.2756432E-009  0.4778727E+02  0.7816164E-02  0.1312668E+00
        -11   -1    0    0    0    0  0.00000000000E+00  0.00000000000E+00  0.45593999997E+02  0.45594000000E+02  0.51100000000E-03 0.  1.
         11   -1    0    0    0    0 -0.00000000000E+00 -0.00000000000E+00 -0.45593999997E+02  0.45594000000E+02  0.51100000000E-03 0. -1.
    9900012    2    1    2    0    0 -0.17790392908E+02  0.15199068423E+02 -0.36552882850E+02  0.47787274137E+02  0.20000014099E+02 0.  0.
        -12    1    1    2    0    0  0.17790392908E+02 -0.15199068423E+02  0.36552882850E+02  0.43400725863E+02  0.00000000000E+00 0.  1.
         11    1    3    3    0    0 -0.57870913483E+01  0.16575612533E+02 -0.18317699054E+02  0.25372809383E+02  0.51100000000E-03 0. -1.
        -11    1    3    3    0    0 -0.42402870107E+01  0.11148726163E+01 -0.36485096059E+01  0.57039107189E+01  0.51100000000E-03 0.  1.
         12    1    3    3    0    0 -0.77630145495E+01 -0.24914167259E+01 -0.14586674191E+02  0.16710554035E+02  0.00000000000E+00 0. -1.
</event>
<event>
 7    1  0.2756432E-009  0.4778727E+02  0.7816164E-02  0.1312668E+00
        -11   -1    0    0    0    0  0.00000000000E+00  0.00000000000E+00  0.45593999997E+02  0.45594000000E+02  0.51100000000E-03 0.  1.
         11   -1    0    0    0    0 -0.00000000000E+00 -0.00000000000E+00 -0.45593999997E+02  0.45594000000E+02  0.51100000000E-03 0. -1.
    9900012    2    1    2    0    0  0.85815085149E+01 -0.51234047656E-01 -0.42543840242E+02  0.47787271252E+02  0.20000000945E+02 0.  0.
        -12    1    1    2    0    0 -0.85815085149E+01  0.51234047656E-01  0.42543840242E+02  0.43400728748E+02  0.00000000000E+00 0.  1.
         11    1    3    3    0    0  0.12961777168E+02 -0.37319713376E+01 -0.35640345121E+02  0.38107341524E+02  0.51100000000E-03 0. -1.
        -11    1    3    3    0    0 -0.46883307561E+01  0.28446256977E+01 -0.68672381838E+01  0.87881341122E+01  0.51100000000E-03 0.  1.
         12    1    3    3    0    0  0.30806210275E+00  0.83611159220E+00 -0.36256937150E-01  0.89179561518E+00  0.00000000000E+00 0. -1.
</event>
<event>
 7    1  0.2756432E-009  0.4778728E+02  0.7816164E-02  0.1312668E+00
        -11   -1    0    0    0    0  0.00000000000E+00  0.00000000000E+00  0.45593999997E+02  0.45594000000E+02  0.51100000000E-03 0.  1.
         11   -1    0    0    0    0 -0.00000000000E+00 -0.00000000000E+00 -0.45593999997E+02  0.45594000000E+02  0.51100000000E-03 0. -1.
    9900012    2    1    2    0    0 -0.38946772718E+00  0.42992939033E+02 -0.59226965001E+01  0.47787276208E+02  0.20000023542E+02 0.  0.
        -12    1    1    2    0    0  0.38946772718E+00 -0.42992939033E+02  0.59226965001E+01  0.43400723792E+02  0.00000000000E+00 0.  1.
         11    1    3    3    0    0 -0.86602777586E+01  0.27282396278E+02 -0.78967237218E+01  0.29693228241E+02  0.51100000000E-03 0. -1.
        -11    1    3    3    0    0  0.54976975814E+01  0.83326511071E+01  0.59652586641E-01  0.99830512300E+01  0.51100000000E-03 0.  1.
         12    1    3    3    0    0  0.27731124500E+01  0.73778916479E+01  0.19143746351E+01  0.81109967372E+01  0.00000000000E+00 0. -1.
</event>
<event>
 7    1  0.2756432E-009  0.4778728E+02  0.7816164E-02  0.1312668E+00
        -11   -1    0    0    0    0  0.00000000000E+00  0.00000000000E+00  0.45593999997E+02  0.45594000000E+02  0.51100000000E-03 0.  1.
         11   -1    0    0    0    0 -0.00000000000E+00 -0.00000000000E+00 -0.45593999997E+02  0.45594000000E+02  0.51100000000E-03 0. -1.
    9900012    2    1    2    0    0  0.40139411350E+01 -0.11477660401E+02 -0.41662626540E+02  0.47787275791E+02  0.20000021640E+02 0.  0.
        -12    1    1    2    0    0 -0.40139411350E+01  0.11477660401E+02  0.41662626540E+02  0.43400724209E+02  0.00000000000E+00 0.  1.
         11    1    3    3    0    0  0.55125600170E+01 -0.17435026272E+01 -0.20716459717E+02  0.21508133876E+02  0.51100000000E-03 0. -1.
        -11    1    3    3    0    0 -0.58889525664E+01 -0.85929150602E+00 -0.84593975672E+01  0.10343091979E+02  0.51100000000E-03 0.  1.
        -12    1    3    3    0    0  0.43903336844E+01 -0.88748662677E+01 -0.12486769255E+02  0.15936049936E+02  0.00000000000E+00 0.  1.
</event>
<event>
 7    1  0.2756432E-009  0.4778727E+02  0.7816164E-02  0.1312668E+00
        -11   -1    0    0    0    0  0.00000000000E+00  0.00000000000E+00  0.45593999997E+02  0.45594000000E+02  0.51100000000E-03 0.  1.
         11   -1    0    0    0    0 -0.00000000000E+00 -0.00000000000E+00 -0.45593999997E+02  0.45594000000E+02  0.51100000000E-03 0. -1.
    9900012    2    1    2    0    0 -0.31968816040E+02  0.39453869580E+01 -0.29086976090E+02  0.47787268954E+02  0.19999990469E+02 0.  0.
        -12    1    1    2    0    0  0.31968816040E+02 -0.39453869580E+01  0.29086976090E+02  0.43400731046E+02  0.00000000000E+00 0.  1.
         11    1    3    3    0    0 -0.12425958214E+02  0.50817095269E+00 -0.20431047516E+02  0.23918410861E+02  0.51100000000E-03 0. -1.
        -11    1    3    3    0    0 -0.20001000866E+02  0.41020389396E+01 -0.62827716434E+01  0.21362115506E+02  0.51100000000E-03 0.  1.
        -12    1    3    3    0    0  0.45814303998E+00 -0.66482293432E+00 -0.23731569308E+01  0.25067425870E+01  0.00000000000E+00 0.  1.
</event>
<event>
 7    1  0.2756432E-009  0.4778727E+02  0.7816164E-02  0.1312668E+00
        -11   -1    0    0    0    0  0.00000000000E+00  0.00000000000E+00  0.45593999997E+02  0.45594000000E+02  0.51100000000E-03 0.  1.
         11   -1    0    0    0    0 -0.00000000000E+00 -0.00000000000E+00 -0.45593999997E+02  0.45594000000E+02  0.51100000000E-03 0. -1.
    9900012    2    1    2    0    0  0.35630706522E+01 -0.42701662278E+02  0.68917265705E+01  0.47787270411E+02  0.19999997112E+02 0.  0.
        -12    1    1    2    0    0 -0.35630706522E+01  0.42701662278E+02 -0.68917265705E+01  0.43400729589E+02  0.00000000000E+00 0.  1.
         11    1    3    3    0    0  0.11187114649E+01 -0.22808581519E+02  0.34792128701E+01  0.23099520097E+02  0.51100000000E-03 0. -1.
        -11    1    3    3    0    0  0.32662891165E+01  0.10738145974E+01  0.90553203781E+00  0.35555183750E+01  0.51100000000E-03 0.  1.
        -12    1    3    3    0    0 -0.82192992922E+00 -0.20966895356E+02  0.25069816625E+01  0.21132231939E+02  0.00000000000E+00 0.  1.
</event>
<event>
 7    1  0.2756432E-009  0.4778727E+02  0.7816164E-02  0.1312668E+00
        -11   -1    0    0    0    0  0.00000000000E+00  0.00000000000E+00  0.45593999997E+02  0.45594000000E+02  0.51100000000E-03 0. -1.
         11   -1    0    0    0    0 -0.00000000000E+00 -0.00000000000E+00 -0.45593999997E+02  0.45594000000E+02  0.51100000000E-03 0.  1.
    9900012    2    1    2    0    0 -0.11870673777E+02 -0.37226858612E+02  0.18891032050E+02  0.47787274316E+02  0.20000014915E+02 0.  0.
        -12    1    1    2    0    0  0.11870673777E+02  0.37226858612E+02 -0.18891032050E+02  0.43400725684E+02  0.00000000000E+00 0.  1.
         11    1    3    3    0    0 -0.54839629992E+01 -0.16002368774E+02  0.28707955686E+01  0.17157829817E+02  0.51100000000E-03 0. -1.
        -11    1    3    3    0    0  0.30022271740E+01 -0.10091087988E+02  0.10995581082E+02  0.15223213471E+02  0.51100000000E-03 0.  1.
        -12    1    3    3    0    0 -0.93889379521E+01 -0.11133401850E+02  0.50246553993E+01  0.15406231028E+02  0.00000000000E+00 0.  1.
</event>
<event>
 7    1  0.2756432E-009  0.4778728E+02  0.7816164E-02  0.1312668E+00
        -11   -1    0    0    0    0  0.00000000000E+00  0.00000000000E+00  0.45593999997E+02  0.45594000000E+02  0.51100000000E-03 0. -1.
         11   -1    0    0    0    0 -0.00000000000E+00 -0.00000000000E+00 -0.45593999997E+02  0.45594000000E+02  0.51100000000E-03 0.  1.
    9900012    2    1    2    0    0  0.43183751142E+02 -0.48627737409E+00 -0.43069709065E+01  0.47787276195E+02  0.20000023486E+02 0.  0.
        -12    1    1    2    0    0 -0.43183751142E+02  0.48627737409E+00  0.43069709065E+01  0.43400723805E+02  0.00000000000E+00 0.  1.
         11    1    3    3    0    0  0.86175668774E+01 -0.14376595428E+01 -0.84892392008E+01  0.12181810470E+02  0.51100000000E-03 0. -1.
        -11    1    3    3    0    0  0.87387501987E+01  0.26991884142E+01 -0.10153989475E+01  0.92023045165E+01  0.51100000000E-03 0.  1.
         12    1    3    3    0    0  0.25827434066E+02 -0.17478062455E+01  0.51976672418E+01  0.26403161209E+02  0.00000000000E+00 0. -1.
</event>
<event>
 7    1  0.2756432E-009  0.4778727E+02  0.7816164E-02  0.1312668E+00
        -11   -1    0    0    0    0  0.00000000000E+00  0.00000000000E+00  0.45593999997E+02  0.45594000000E+02  0.51100000000E-03 0.  1.
         11   -1    0    0    0    0 -0.00000000000E+00 -0.00000000000E+00 -0.45593999997E+02  0.45594000000E+02  0.51100000000E-03 0. -1.
    9900012    2    1    2    0    0 -0.36542605836E+02 -0.23304694178E+02  0.22699072670E+01  0.47787270847E+02  0.19999999099E+02 0.  0.
        -12    1    1    2    0    0  0.36542605836E+02  0.23304694178E+02 -0.22699072670E+01  0.43400729153E+02  0.00000000000E+00 0.  1.
         11    1    3    3    0    0 -0.31856014429E+02 -0.12090415337E+02 -0.18555035748E+01  0.34123696929E+02  0.51100000000E-03 0. -1.
        -11    1    3    3    0    0 -0.15258589410E+01 -0.77491507536E+01  0.85132492887E+00  0.79436979616E+01  0.51100000000E-03 0.  1.
         12    1    3    3    0    0 -0.31607324656E+01 -0.34651280883E+01  0.32740859129E+01  0.57198759561E+01  0.00000000000E+00 0. -1.
</event>
<event>
 7    1  0.2756432E-009  0.4778726E+02  0.7816164E-02  0.1312668E+00
        -11   -1    0    0    0    0  0.00000000000E+00  0.00000000000E+00  0.45593999997E+02  0.45594000000E+02  0.51100000000E-03 0.  1.
         11   -1    0    0    0    0 -0.00000000000E+00 -0.00000000000E+00 -0.45593999997E+02  0.45594000000E+02  0.51100000000E-03 0. -1.
    9900012    2    1    2    0    0 -0.65801162295E+01 -0.16263804964E+02 -0.39696532986E+02  0.47787262534E+02  0.19999961198E+02 0.  0.
        -12    1    1    2    0    0  0.65801162295E+01  0.16263804964E+02  0.39696532986E+02  0.43400737466E+02  0.00000000000E+00 0.  1.
         11    1    3    3    0    0 -0.20857899549E+00 -0.18898214771E+01 -0.20678134925E+02  0.20765360450E+02  0.51100000000E-03 0. -1.
        -11    1    3    3    0    0 -0.37438820480E+01 -0.89901020206E+01 -0.34349278316E+01  0.10326534588E+02  0.51100000000E-03 0.  1.
        -12    1    3    3    0    0 -0.26276551860E+01 -0.53838814667E+01 -0.15583470229E+02  0.16695367495E+02  0.00000000000E+00 0.  1.
</event>
<event>
 7    1  0.2756432E-009  0.4778727E+02  0.7816164E-02  0.1312668E+00
        -11   -1    0    0    0    0  0.00000000000E+00  0.00000000000E+00  0.45593999997E+02  0.45594000000E+02  0.51100000000E-03 0.  1.
         11   -1    0    0    0    0 -0.00000000000E+00 -0.00000000000E+00 -0.45593999997E+02  0.45594000000E+02  0.51100000000E-03 0. -1.
    9900012    2    1    2    0    0 -0.23677168764E+02  0.16590802293E+02 -0.32369126299E+02  0.47787269836E+02  0.19999994492E+02 0.  0.
        -12    1    1    2    0    0  0.23677168764E+02 -0.16590802293E+02  0.32369126299E+02  0.43400730164E+02  0.00000000000E+00 0.  1.
         11    1    3    3    0    0 -0.19530259423E+02  0.20057858434E+02 -0.28098936445E+02  0.39664832631E+02  0.51100000000E-03 0. -1.
        -11    1    3    3    0    0 -0.27462710229E+01 -0.35342835764E+01 -0.48548017336E+01  0.66032011224E+01  0.51100000000E-03 0.  1.
         12    1    3    3    0    0 -0.14006383177E+01  0.67227436198E-01  0.58461187966E+00  0.15192360827E+01  0.00000000000E+00 0. -1.
</event>
<event>
 7    1  0.2756432E-009  0.4778727E+02  0.7816164E-02  0.1312668E+00
        -11   -1    0    0    0    0  0.00000000000E+00  0.00000000000E+00  0.45593999997E+02  0.45594000000E+02  0.51100000000E-03 0.  1.
         11   -1    0    0    0    0 -0.00000000000E+00 -0.00000000000E+00 -0.45593999997E+02  0.45594000000E+02  0.51100000000E-03 0. -1.
    9900012    2    1    2    0    0  0.50167647051E+01 -0.15412184708E+02 -0.40260649066E+02  0.47787271563E+02  0.20000002365E+02 0.  0.
        -12    1    1    2    0    0 -0.50167647051E+01  0.15412184708E+02  0.40260649066E+02  0.43400728437E+02  0.00000000000E+00 0.  1.
         11    1    3    3    0    0  0.20752117891E+00 -0.48260963836E+01 -0.92775193348E+01  0.10459762742E+02  0.51100000000E-03 0. -1.
        -11    1    3    3    0    0  0.65472228513E+01 -0.89413721805E+01 -0.67489024874E+01  0.12975436354E+02  0.51100000000E-03 0.  1.
        -12    1    3    3    0    0 -0.17379793251E+01 -0.16447161444E+01 -0.24234227244E+02  0.24352072467E+02  0.00000000000E+00 0.  1.
</event>
<event>
 7    1  0.2756432E-009  0.4778727E+02  0.7816164E-02  0.1312668E+00
        -11   -1    0    0    0    0  0.00000000000E+00  0.00000000000E+00  0.45593999997E+02  0.45594000000E+02  0.51100000000E-03 0.  1.
         11   -1    0    0    0    0 -0.00000000000E+00 -0.00000000000E+00 -0.45593999997E+02  0.45594000000E+02  0.51100000000E-03 0. -1.
    9900012    2    1    2    0    0  0.17037970647E+02 -0.36988002529E+02 -0.15007283132E+02  0.47787270491E+02  0.19999997479E+02 0.  0.
        -12    1    1    2    0    0 -0.17037970647E+02  0.36988002529E+02  0.15007283132E+02  0.43400729509E+02  0.00000000000E+00 0.  1.
         11    1    3    3    0    0  0.16678922397E+00 -0.93935014720E+01 -0.81254440477E+01  0.12421293402E+02  0.51100000000E-03 0. -1.
        -11    1    3    3    0    0  0.16942968411E+02 -0.16683308383E+02 -0.48002267902E+01  0.24257764420E+02  0.51100000000E-03 0.  1.
        -12    1    3    3    0    0 -0.71786988353E-01 -0.10911192675E+02 -0.20816122941E+01  0.11108212669E+02  0.00000000000E+00 0.  1.
</event>
<event>
 7    1  0.2756432E-009  0.4778727E+02  0.7816164E-02  0.1312668E+00
        -11   -1    0    0    0    0  0.00000000000E+00  0.00000000000E+00  0.45593999997E+02  0.45594000000E+02  0.51100000000E-03 0.  1.
         11   -1    0    0    0    0 -0.00000000000E+00 -0.00000000000E+00 -0.45593999997E+02  0.45594000000E+02  0.51100000000E-03 0. -1.
    9900012    2    1    2    0    0  0.20526976874E+02  0.37901185916E+02 -0.50760914225E+01  0.47787269850E+02  0.19999994556E+02 0.  0.
        -12    1    1    2    0    0 -0.20526976874E+02 -0.37901185916E+02  0.50760914225E+01  0.43400730150E+02  0.00000000000E+00 0.  1.
         11    1    3    3    0    0  0.80423765655E+00  0.16035593430E+02  0.75413622827E+00  0.16073449430E+02  0.51100000000E-03 0. -1.
        -11    1    3    3    0    0  0.42179519452E+01  0.65386408162E+01  0.27951863094E+01  0.82678902448E+01  0.51100000000E-03 0.  1.
         12    1    3    3    0    0  0.15504787272E+02  0.15326951670E+02 -0.86254139601E+01  0.23445930176E+02  0.00000000000E+00 0. -1.
</event>
<event>
 7    1  0.2756432E-009  0.4778727E+02  0.7816164E-02  0.1312668E+00
        -11   -1    0    0    0    0  0.00000000000E+00  0.00000000000E+00  0.45593999997E+02  0.45594000000E+02  0.51100000000E-03 0.  1.
         11   -1    0    0    0    0 -0.00000000000E+00 -0.00000000000E+00 -0.45593999997E+02  0.45594000000E+02  0.51100000000E-03 0. -1.
    9900012    2    1    2    0    0 -0.25039945076E+02  0.72635524828E+00 -0.35441455300E+02  0.47787271951E+02  0.20000004136E+02 0.  0.
        -12    1    1    2    0    0  0.25039945076E+02 -0.72635524828E+00  0.35441455300E+02  0.43400728049E+02  0.00000000000E+00 0.  1.
         11    1    3    3    0    0 -0.18932337302E+02  0.13105123959E+01 -0.29230507412E+02  0.34850730298E+02  0.51100000000E-03 0. -1.
        -11    1    3    3    0    0 -0.34269962627E+01 -0.48296763895E+01 -0.50506281017E+01  0.77832462311E+01  0.51100000000E-03 0.  1.
         12    1    3    3    0    0 -0.26806115114E+01  0.42455192419E+01 -0.11603197864E+01  0.51532954228E+01  0.00000000000E+00 0. -1.
</event>
<event>
 7    1  0.2900182E-009  0.4778727E+02  0.7816164E-02  0.1312668E+00
        -11   -1    0    0    0    0  0.00000000000E+00  0.00000000000E+00  0.45593999997E+02  0.45594000000E+02  0.51100000000E-03 0. -1.
         11   -1    0    0    0    0 -0.00000000000E+00 -0.00000000000E+00 -0.45593999997E+02  0.45594000000E+02  0.51100000000E-03 0.  1.
    9900012    2    1    2    0    0  0.27628650488E+02  0.16367115320E+02  0.29195869864E+02  0.47787267186E+02  0.19999982407E+02 0.  0.
        -12    1    1    2    0    0 -0.27628650488E+02 -0.16367115320E+02 -0.29195869864E+02  0.43400732814E+02  0.00000000000E+00 0.  1.
         11    1    3    3    0    0  0.12045024346E+02  0.13248723283E+02  0.17674161290E+02  0.25159238019E+02  0.51100000000E-03 0. -1.
        -11    1    3    3    0    0  0.39481709670E+01 -0.40536573486E+01  0.21400133716E+01  0.60497809362E+01  0.51100000000E-03 0.  1.
        -12    1    3    3    0    0  0.11635455175E+02  0.71720493858E+01  0.93816952017E+01  0.16578248230E+02  0.00000000000E+00 0.  1.
</event>
<event>
 7    1  0.2756432E-009  0.4778726E+02  0.7816164E-02  0.1312668E+00
        -11   -1    0    0    0    0  0.00000000000E+00  0.00000000000E+00  0.45593999997E+02  0.45594000000E+02  0.51100000000E-03 0.  1.
         11   -1    0    0    0    0 -0.00000000000E+00 -0.00000000000E+00 -0.45593999997E+02  0.45594000000E+02  0.51100000000E-03 0. -1.
    9900012    2    1    2    0    0  0.19394143493E+02  0.39996717111E+01 -0.38619867962E+02  0.47787258336E+02  0.19999942057E+02 0.  0.
        -12    1    1    2    0    0 -0.19394143493E+02 -0.39996717111E+01  0.38619867962E+02  0.43400741664E+02  0.00000000000E+00 0.  1.
         11    1    3    3    0    0  0.79340444110E+00 -0.60106251516E+01 -0.10810023048E+02  0.12394099559E+02  0.51100000000E-03 0. -1.
        -11    1    3    3    0    0  0.10427593163E+02  0.74469739354E+01 -0.20276705855E+02  0.23986181867E+02  0.51100000000E-03 0.  1.
         12    1    3    3    0    0  0.81731458885E+01  0.25633229273E+01 -0.75331390590E+01  0.11406976910E+02  0.00000000000E+00 0. -1.
</event>
<event>
 7    1  0.2756432E-009  0.4778727E+02  0.7816164E-02  0.1312668E+00
        -11   -1    0    0    0    0  0.00000000000E+00  0.00000000000E+00  0.45593999997E+02  0.45594000000E+02  0.51100000000E-03 0. -1.
         11   -1    0    0    0    0 -0.00000000000E+00 -0.00000000000E+00 -0.45593999997E+02  0.45594000000E+02  0.51100000000E-03 0.  1.
    9900012    2    1    2    0    0  0.33196766545E+02 -0.26874037007E+02 -0.77060983562E+01  0.47787272748E+02  0.20000007768E+02 0.  0.
        -12    1    1    2    0    0 -0.33196766545E+02  0.26874037007E+02  0.77060983562E+01  0.43400727252E+02  0.00000000000E+00 0.  1.
         11    1    3    3    0    0  0.13371801382E+02 -0.20022457003E+02  0.22296399958E+01  0.24180056894E+02  0.51100000000E-03 0. -1.
        -11    1    3    3    0    0  0.10541181825E+02 -0.16314647676E+01 -0.60943080762E+01  0.12284900600E+02  0.51100000000E-03 0.  1.
        -12    1    3    3    0    0  0.92837833379E+01 -0.52201152369E+01 -0.38414302758E+01  0.11322315254E+02  0.00000000000E+00 0.  1.
</event>
<event>
 7    1  0.2756432E-009  0.4778727E+02  0.7816164E-02  0.1312668E+00
        -11   -1    0    0    0    0  0.00000000000E+00  0.00000000000E+00  0.45593999997E+02  0.45594000000E+02  0.51100000000E-03 0.  1.
         11   -1    0    0    0    0 -0.00000000000E+00 -0.00000000000E+00 -0.45593999997E+02  0.45594000000E+02  0.51100000000E-03 0. -1.
    9900012    2    1    2    0    0 -0.26237844538E+02 -0.34037748799E+02 -0.60523250245E+01  0.47787268813E+02  0.19999989827E+02 0.  0.
        -12    1    1    2    0    0  0.26237844538E+02  0.34037748799E+02  0.60523250245E+01  0.43400731187E+02  0.00000000000E+00 0.  1.
         11    1    3    3    0    0 -0.61145095934E+01 -0.15220819632E+01 -0.47925946529E+01  0.79166233230E+01  0.51100000000E-03 0. -1.
        -11    1    3    3    0    0 -0.17409767827E+02 -0.28996557357E+02 -0.48371887385E+01  0.34165754046E+02  0.51100000000E-03 0.  1.
        -12    1    3    3    0    0 -0.27135671182E+01 -0.35191094790E+01  0.35774583668E+01  0.57048914448E+01  0.00000000000E+00 0.  1.
</event>
<event>
 7    1  0.2756432E-009  0.4778728E+02  0.7816164E-02  0.1312668E+00
        -11   -1    0    0    0    0  0.00000000000E+00  0.00000000000E+00  0.45593999997E+02  0.45594000000E+02  0.51100000000E-03 0.  1.
         11   -1    0    0    0    0 -0.00000000000E+00 -0.00000000000E+00 -0.45593999997E+02  0.45594000000E+02  0.51100000000E-03 0. -1.
    9900012    2    1    2    0    0 -0.14048353966E+00 -0.37723177218E+02 -0.21460774887E+02  0.47787277727E+02  0.20000030469E+02 0.  0.
        -12    1    1    2    0    0  0.14048353966E+00  0.37723177218E+02  0.21460774887E+02  0.43400722273E+02  0.00000000000E+00 0.  1.
         11    1    3    3    0    0  0.28487183674E+01 -0.59863504122E+01 -0.57705063880E+01  0.87892167927E+01  0.51100000000E-03 0. -1.
        -11    1    3    3    0    0  0.23686732280E+01 -0.81207846294E+01  0.23745169714E+01  0.87861303750E+01  0.51100000000E-03 0.  1.
        -12    1    3    3    0    0 -0.53578751350E+01 -0.23616042177E+02 -0.18064785470E+02  0.30211930559E+02  0.00000000000E+00 0.  1.
</event>
<event>
 7    1  0.2756432E-009  0.4778727E+02  0.7816164E-02  0.1312668E+00
        -11   -1    0    0    0    0  0.00000000000E+00  0.00000000000E+00  0.45593999997E+02  0.45594000000E+02  0.51100000000E-03 0. -1.
         11   -1    0    0    0    0 -0.00000000000E+00 -0.00000000000E+00 -0.45593999997E+02  0.45594000000E+02  0.51100000000E-03 0.  1.
    9900012    2    1    2    0    0  0.35129345021E+02  0.18602800945E+02  0.17420903324E+02  0.47787274692E+02  0.20000016633E+02 0.  0.
        -12    1    1    2    0    0 -0.35129345021E+02 -0.18602800945E+02 -0.17420903324E+02  0.43400725308E+02  0.00000000000E+00 0.  1.
         11    1    3    3    0    0  0.15470109019E+02  0.10561567888E+02  0.93664551520E+01  0.20942814321E+02  0.51100000000E-03 0. -1.
        -11    1    3    3    0    0  0.11491726189E+02 -0.27367055484E+01  0.18161445841E+01  0.11951891460E+02  0.51100000000E-03 0.  1.
        -12    1    3    3    0    0  0.81675098132E+01  0.10777938605E+02  0.62383035879E+01  0.14892568911E+02  0.00000000000E+00 0.  1.
</event>
<event>
 7    1  0.2756432E-009  0.4778728E+02  0.7816164E-02  0.1312668E+00
        -11   -1    0    0    0    0  0.00000000000E+00  0.00000000000E+00  0.45593999997E+02  0.45594000000E+02  0.51100000000E-03 0.  1.
         11   -1    0    0    0    0 -0.00000000000E+00 -0.00000000000E+00 -0.45593999997E+02  0.45594000000E+02  0.51100000000E-03 0. -1.
    9900012    2    1    2    0    0 -0.78491072570E+01  0.37230910121E+02 -0.20877581030E+02  0.47787279466E+02  0.20000038399E+02 0.  0.
        -12    1    1    2    0    0  0.78491072570E+01 -0.37230910121E+02  0.20877581030E+02  0.43400720534E+02  0.00000000000E+00 0.  1.
         11    1    3    3    0    0 -0.85021155964E+01  0.33216008450E+02 -0.11294551851E+02  0.36099253299E+02  0.51100000000E-03 0. -1.
        -11    1    3    3    0    0  0.18737961263E+01  0.37741420323E+01 -0.95556163157E+01  0.10443422018E+02  0.51100000000E-03 0.  1.
         12    1    3    3    0    0 -0.12207877870E+01  0.24075963797E+00 -0.27412863705E-01  0.12446041496E+01  0.00000000000E+00 0. -1.
</event>
<event>
 7    1  0.2756432E-009  0.4778727E+02  0.7816164E-02  0.1312668E+00
        -11   -1    0    0    0    0  0.00000000000E+00  0.00000000000E+00  0.45593999997E+02  0.45594000000E+02  0.51100000000E-03 0. -1.
         11   -1    0    0    0    0 -0.00000000000E+00 -0.00000000000E+00 -0.45593999997E+02  0.45594000000E+02  0.51100000000E-03 0.  1.
    9900012    2    1    2    0    0 -0.42425680140E+02 -0.52029951059E+01  0.75242048048E+01  0.47787272456E+02  0.20000006437E+02 0.  0.
        -12    1    1    2    0    0  0.42425680140E+02  0.52029951059E+01 -0.75242048048E+01  0.43400727544E+02  0.00000000000E+00 0.  1.
         11    1    3    3    0    0 -0.11752776463E+02  0.60650531145E+01  0.19704629715E+01  0.13371437785E+02  0.51100000000E-03 0. -1.
        -11    1    3    3    0    0 -0.27045407942E+02 -0.94591851129E+01  0.79146375449E+01  0.29724935012E+02  0.51100000000E-03 0.  1.
        -12    1    3    3    0    0 -0.36274957352E+01 -0.18088631075E+01 -0.23608957116E+01  0.46908996591E+01  0.00000000000E+00 0.  1.
</event>
<event>
 7    1  0.2756432E-009  0.4778726E+02  0.7816164E-02  0.1312668E+00
        -11   -1    0    0    0    0  0.00000000000E+00  0.00000000000E+00  0.45593999997E+02  0.45594000000E+02  0.51100000000E-03 0.  1.
         11   -1    0    0    0    0 -0.00000000000E+00 -0.00000000000E+00 -0.45593999997E+02  0.45594000000E+02  0.51100000000E-03 0. -1.
    9900012    2    1    2    0    0  0.23853075637E+02 -0.80808512257E+01 -0.35346219922E+02  0.47787255345E+02  0.19999928419E+02 0.  0.
        -12    1    1    2    0    0 -0.23853075637E+02  0.80808512257E+01  0.35346219922E+02  0.43400744655E+02  0.00000000000E+00 0.  1.
         11    1    3    3    0    0  0.12400902738E+02 -0.31496586382E+01 -0.31594901187E+02  0.34087248636E+02  0.51100000000E-03 0. -1.
        -11    1    3    3    0    0  0.10132537395E+02 -0.25539612360E+01 -0.31688579153E+01  0.10919372363E+02  0.51100000000E-03 0.  1.
         12    1    3    3    0    0  0.13196355035E+01 -0.23772313515E+01 -0.58246081929E+00  0.27806343461E+01  0.00000000000E+00 0. -1.
</event>
<event>
 7    1  0.2756432E-009  0.4778727E+02  0.7816164E-02  0.1312668E+00
        -11   -1    0    0    0    0  0.00000000000E+00  0.00000000000E+00  0.45593999997E+02  0.45594000000E+02  0.51100000000E-03 0.  1.
         11   -1    0    0    0    0 -0.00000000000E+00 -0.00000000000E+00 -0.45593999997E+02  0.45594000000E+02  0.51100000000E-03 0. -1.
    9900012    2    1    2    0    0 -0.41479991594E+02  0.21419174386E+01 -0.12587513258E+02  0.47787274165E+02  0.20000014229E+02 0.  0.
        -12    1    1    2    0    0  0.41479991594E+02 -0.21419174386E+01  0.12587513258E+02  0.43400725835E+02  0.00000000000E+00 0.  1.
         11    1    3    3    0    0 -0.23196853209E+02 -0.20971863122E+01 -0.15451452518E+02  0.27950663220E+02  0.51100000000E-03 0. -1.
        -11    1    3    3    0    0  0.61600244456E-01 -0.58465273158E+00  0.39499468919E+00  0.70826158463E+00  0.51100000000E-03 0.  1.
         12    1    3    3    0    0 -0.18344738629E+02  0.48237564824E+01  0.24689445707E+01  0.19128349361E+02  0.00000000000E+00 0. -1.
</event>
<event>
 7    1  0.2756432E-009  0.4778727E+02  0.7816164E-02  0.1312668E+00
        -11   -1    0    0    0    0  0.00000000000E+00  0.00000000000E+00  0.45593999997E+02  0.45594000000E+02  0.51100000000E-03 0.  1.
         11   -1    0    0    0    0 -0.00000000000E+00 -0.00000000000E+00 -0.45593999997E+02  0.45594000000E+02  0.51100000000E-03 0. -1.
    9900012    2    1    2    0    0 -0.49620286930E+01 -0.22655877120E+02 -0.36683959105E+02  0.47787270139E+02  0.19999995872E+02 0.  0.
        -12    1    1    2    0    0  0.49620286930E+01  0.22655877120E+02  0.36683959105E+02  0.43400729861E+02  0.00000000000E+00 0.  1.
         11    1    3    3    0    0 -0.81248235973E+01 -0.15352112477E+02 -0.22746451923E+02  0.28619943943E+02  0.51100000000E-03 0. -1.
        -11    1    3    3    0    0  0.27716613520E+01 -0.29171609678E+01  0.51681671225E+00  0.40569735687E+01  0.51100000000E-03 0.  1.
         12    1    3    3    0    0  0.39113355229E+00 -0.43866036759E+01 -0.14454323894E+02  0.15110352627E+02  0.00000000000E+00 0. -1.
</event>
<event>
 7    1  0.2756432E-009  0.4778727E+02  0.7816164E-02  0.1312668E+00
        -11   -1    0    0    0    0  0.00000000000E+00  0.00000000000E+00  0.45593999997E+02  0.45594000000E+02  0.51100000000E-03 0.  1.
         11   -1    0    0    0    0 -0.00000000000E+00 -0.00000000000E+00 -0.45593999997E+02  0.45594000000E+02  0.51100000000E-03 0. -1.
    9900012    2    1    2    0    0 -0.36958549993E+00  0.43283133413E+02 -0.31713143388E+01  0.47787268829E+02  0.19999989901E+02 0.  0.
        -12    1    1    2    0    0  0.36958549993E+00 -0.43283133413E+02  0.31713143388E+01  0.43400731171E+02  0.00000000000E+00 0.  1.
         11    1    3    3    0    0  0.65816024192E+01  0.23925262350E+02 -0.39358352722E+01  0.25124220753E+02  0.51100000000E-03 0. -1.
        -11    1    3    3    0    0 -0.50184936636E+01  0.24437317826E+01 -0.42037728279E+00  0.55976621011E+01  0.51100000000E-03 0.  1.
        -12    1    3    3    0    0 -0.19326942555E+01  0.16914139281E+02  0.11848982162E+01  0.17065385975E+02  0.00000000000E+00 0.  1.
</event>
<event>
 7    1  0.3136745E-009  0.4778727E+02  0.7816164E-02  0.1312668E+00
        -11   -1    0    0    0    0  0.00000000000E+00  0.00000000000E+00  0.45593999997E+02  0.45594000000E+02  0.51100000000E-03 0. -1.
         11   -1    0    0    0    0 -0.00000000000E+00 -0.00000000000E+00 -0.45593999997E+02  0.45594000000E+02  0.51100000000E-03 0.  1.
    9900012    2    1    2    0    0  0.94225573640E+01 -0.22355896675E+02  0.35986840141E+02  0.47787269975E+02  0.19999995123E+02 0.  0.
        -12    1    1    2    0    0 -0.94225573640E+01  0.22355896675E+02 -0.35986840141E+02  0.43400730025E+02  0.00000000000E+00 0.  1.
         11    1    3    3    0    0  0.57294940447E+01 -0.19085718682E+02  0.26106995189E+02  0.32843065595E+02  0.51100000000E-03 0. -1.
        -11    1    3    3    0    0 -0.14660948786E-01  0.32056402229E+01  0.52839176648E+01  0.61803017994E+01  0.51100000000E-03 0.  1.
        -12    1    3    3    0    0  0.37077242681E+01 -0.64758182163E+01  0.45959272865E+01  0.87639025806E+01  0.00000000000E+00 0.  1.
</event>
<event>
 7    1  0.2756432E-009  0.4778727E+02  0.7816164E-02  0.1312668E+00
        -11   -1    0    0    0    0  0.00000000000E+00  0.00000000000E+00  0.45593999997E+02  0.45594000000E+02  0.51100000000E-03 0.  1.
         11   -1    0    0    0    0 -0.00000000000E+00 -0.00000000000E+00 -0.45593999997E+02  0.45594000000E+02  0.51100000000E-03 0. -1.
    9900012    2    1    2    0    0  0.10318372348E+02 -0.27602563437E+01 -0.42065851181E+02  0.47787266613E+02  0.19999979794E+02 0.  0.
        -12    1    1    2    0    0 -0.10318372348E+02  0.27602563437E+01  0.42065851181E+02  0.43400733387E+02  0.00000000000E+00 0.  1.
         11    1    3    3    0    0  0.41632216802E+01 -0.39489845060E+01 -0.28591973190E+02  0.29162095681E+02  0.51100000000E-03 0. -1.
        -11    1    3    3    0    0  0.71230124656E+01 -0.78854591535E+00 -0.27473905763E+01  0.76751069364E+01  0.51100000000E-03 0.  1.
         12    1    3    3    0    0 -0.96786179754E+00  0.19772740776E+01 -0.10726487415E+02  0.10950063995E+02  0.00000000000E+00 0. -1.
</event>
<event>
 7    1  0.2756432E-009  0.4778727E+02  0.7816164E-02  0.1312668E+00
        -11   -1    0    0    0    0  0.00000000000E+00  0.00000000000E+00  0.45593999997E+02  0.45594000000E+02  0.51100000000E-03 0.  1.
         11   -1    0    0    0    0 -0.00000000000E+00 -0.00000000000E+00 -0.45593999997E+02  0.45594000000E+02  0.51100000000E-03 0. -1.
    9900012    2    1    2    0    0 -0.24860798678E+01  0.26761229286E+02 -0.34077548296E+02  0.47787270929E+02  0.19999999475E+02 0.  0.
        -12    1    1    2    0    0  0.24860798678E+01 -0.26761229286E+02  0.34077548296E+02  0.43400729071E+02  0.00000000000E+00 0.  1.
         11    1    3    3    0    0  0.28829920295E+01  0.24210416710E+02 -0.30148610672E+02  0.38773633387E+02  0.51100000000E-03 0. -1.
        -11    1    3    3    0    0 -0.46511274231E+01  0.30088553773E+01 -0.59352028918E+00  0.55712174237E+01  0.51100000000E-03 0.  1.
         12    1    3    3    0    0 -0.71794447421E+00 -0.45804280127E+00 -0.33354173353E+01  0.34424201191E+01  0.00000000000E+00 0. -1.
</event>
<event>
 7    1  0.2756432E-009  0.4778727E+02  0.7816164E-02  0.1312668E+00
        -11   -1    0    0    0    0  0.00000000000E+00  0.00000000000E+00  0.45593999997E+02  0.45594000000E+02  0.51100000000E-03 0.  1.
         11   -1    0    0    0    0 -0.00000000000E+00 -0.00000000000E+00 -0.45593999997E+02  0.45594000000E+02  0.51100000000E-03 0. -1.
    9900012    2    1    2    0    0  0.41920204370E+02  0.11174673060E+02  0.12026288951E+01  0.47787272256E+02  0.20000005524E+02 0.  0.
        -12    1    1    2    0    0 -0.41920204370E+02 -0.11174673060E+02 -0.12026288951E+01  0.43400727744E+02  0.00000000000E+00 0.  1.
         11    1    3    3    0    0  0.20794772507E+02  0.12897777232E+02 -0.53528434426E+01  0.25048516010E+02  0.51100000000E-03 0. -1.
        -11    1    3    3    0    0  0.14470747242E+02  0.10884970904E+01  0.50007134346E+01  0.15349087490E+02  0.51100000000E-03 0.  1.
         12    1    3    3    0    0  0.66546846220E+01 -0.28116012625E+01  0.15547589030E+01  0.73896687561E+01  0.00000000000E+00 0. -1.
</event>
<event>
 7    1  0.2756432E-009  0.4778727E+02  0.7816164E-02  0.1312668E+00
        -11   -1    0    0    0    0  0.00000000000E+00  0.00000000000E+00  0.45593999997E+02  0.45594000000E+02  0.51100000000E-03 0.  1.
         11   -1    0    0    0    0 -0.00000000000E+00 -0.00000000000E+00 -0.45593999997E+02  0.45594000000E+02  0.51100000000E-03 0. -1.
    9900012    2    1    2    0    0  0.35417564295E+02 -0.22516435196E+02  0.11055740416E+02  0.47787272925E+02  0.20000008574E+02 0.  0.
        -12    1    1    2    0    0 -0.35417564295E+02  0.22516435196E+02 -0.11055740416E+02  0.43400727075E+02  0.00000000000E+00 0.  1.
         11    1    3    3    0    0  0.74088686309E+01  0.12857725437E+01  0.10154735332E+01  0.75878674330E+01  0.51100000000E-03 0. -1.
        -11    1    3    3    0    0  0.24447768771E+02 -0.25094745510E+02  0.81709517051E+01  0.35975048327E+02  0.51100000000E-03 0.  1.
        -12    1    3    3    0    0  0.35609268923E+01  0.12925377707E+01  0.18693151778E+01  0.42243571647E+01  0.00000000000E+00 0.  1.
</event>
<event>
 7    1  0.2756432E-009  0.4778727E+02  0.7816164E-02  0.1312668E+00
        -11   -1    0    0    0    0  0.00000000000E+00  0.00000000000E+00  0.45593999997E+02  0.45594000000E+02  0.51100000000E-03 0.  1.
         11   -1    0    0    0    0 -0.00000000000E+00 -0.00000000000E+00 -0.45593999997E+02  0.45594000000E+02  0.51100000000E-03 0. -1.
    9900012    2    1    2    0    0 -0.83982576158E+01  0.22443856827E+02 -0.36185162394E+02  0.47787269387E+02  0.19999992444E+02 0.  0.
        -12    1    1    2    0    0  0.83982576158E+01 -0.22443856827E+02  0.36185162394E+02  0.43400730613E+02  0.00000000000E+00 0.  1.
         11    1    3    3    0    0  0.10792596054E+01 -0.90990247939E+00 -0.11391348168E+02  0.11478481484E+02  0.51100000000E-03 0. -1.
        -11    1    3    3    0    0 -0.89278873190E+01  0.11038560450E+02 -0.13413743649E+02  0.19531653994E+02  0.51100000000E-03 0.  1.
         12    1    3    3    0    0 -0.54962990218E+00  0.12315198856E+02 -0.11380070576E+02  0.16777133909E+02  0.00000000000E+00 0. -1.
</event>
<event>
 7    1  0.2756432E-009  0.4778727E+02  0.7816164E-02  0.1312668E+00
        -11   -1    0    0    0    0  0.00000000000E+00  0.00000000000E+00  0.45593999997E+02  0.45594000000E+02  0.51100000000E-03 0. -1.
         11   -1    0    0    0    0 -0.00000000000E+00 -0.00000000000E+00 -0.45593999997E+02  0.45594000000E+02  0.51100000000E-03 0.  1.
    9900012    2    1    2    0    0  0.46085784661E+01 -0.42973561714E+02 -0.39569254320E+01  0.47787271196E+02  0.20000000689E+02 0.  0.
        -12    1    1    2    0    0 -0.46085784661E+01  0.42973561714E+02  0.39569254320E+01  0.43400728804E+02  0.00000000000E+00 0.  1.
         11    1    3    3    0    0  0.88567583739E+01 -0.24317979007E+02  0.50129953544E+01  0.26361646279E+02  0.51100000000E-03 0. -1.
        -11    1    3    3    0    0 -0.29586847667E+01 -0.14580547074E+02 -0.84766163518E+01  0.17123060286E+02  0.51100000000E-03 0.  1.
         12    1    3    3    0    0 -0.12894951412E+01 -0.40750356338E+01 -0.49330443459E+00  0.43025646307E+01  0.00000000000E+00 0. -1.
</event>
<event>
 7    1  0.2756432E-009  0.4778728E+02  0.7816164E-02  0.1312668E+00
        -11   -1    0    0    0    0  0.00000000000E+00  0.00000000000E+00  0.45593999997E+02  0.45594000000E+02  0.51100000000E-03 0.  1.
         11   -1    0    0    0    0 -0.00000000000E+00 -0.00000000000E+00 -0.45593999997E+02  0.45594000000E+02  0.51100000000E-03 0. -1.
    9900012    2    1    2    0    0  0.27475145676E+02  0.32252940615E+02  0.94067420993E+01  0.47787278748E+02  0.20000035125E+02 0.  0.
        -12    1    1    2    0    0 -0.27475145676E+02 -0.32252940615E+02 -0.94067420993E+01  0.43400721252E+02  0.00000000000E+00 0.  1.
         11    1    3    3    0    0 -0.16513923025E+01  0.55831708037E+01 -0.16637035064E+01  0.60553119142E+01  0.51100000000E-03 0. -1.
        -11    1    3    3    0    0  0.72141087301E+01  0.69223828404E+01  0.63888354459E+01  0.11865073433E+02  0.51100000000E-03 0.  1.
         12    1    3    3    0    0  0.21912429248E+02  0.19747386971E+02  0.46816101598E+01  0.29866893401E+02  0.00000000000E+00 0. -1.
</event>
<event>
 7    1  0.2756432E-009  0.4778727E+02  0.7816164E-02  0.1312668E+00
        -11   -1    0    0    0    0  0.00000000000E+00  0.00000000000E+00  0.45593999997E+02  0.45594000000E+02  0.51100000000E-03 0. -1.
         11   -1    0    0    0    0 -0.00000000000E+00 -0.00000000000E+00 -0.45593999997E+02  0.45594000000E+02  0.51100000000E-03 0.  1.
    9900012    2    1    2    0    0 -0.29310764531E+02  0.12096971375E+02  0.29633861257E+02  0.47787269974E+02  0.19999995117E+02 0.  0.
        -12    1    1    2    0    0  0.29310764531E+02 -0.12096971375E+02 -0.29633861257E+02  0.43400730026E+02  0.00000000000E+00 0.  1.
         11    1    3    3    0    0 -0.26564902404E+02  0.11405655044E+02  0.30762013880E+02  0.42214742743E+02  0.51100000000E-03 0. -1.
        -11    1    3    3    0    0 -0.33111650747E+01 -0.11078139181E+01 -0.11811130308E+01  0.36859319150E+01  0.51100000000E-03 0.  1.
         12    1    3    3    0    0  0.56530294746E+00  0.17991302499E+01  0.52960407725E-01  0.18865953152E+01  0.00000000000E+00 0. -1.
</event>
<event>
 7    1  0.2756432E-009  0.4778727E+02  0.7816164E-02  0.1312668E+00
        -11   -1    0    0    0    0  0.00000000000E+00  0.00000000000E+00  0.45593999997E+02  0.45594000000E+02  0.51100000000E-03 0.  1.
         11   -1    0    0    0    0 -0.00000000000E+00 -0.00000000000E+00 -0.45593999997E+02  0.45594000000E+02  0.51100000000E-03 0. -1.
    9900012    2    1    2    0    0 -0.55778673343E+01  0.36101063466E+02 -0.23435529094E+02  0.47787269462E+02  0.19999992783E+02 0.  0.
        -12    1    1    2    0    0  0.55778673343E+01 -0.36101063466E+02  0.23435529094E+02  0.43400730538E+02  0.00000000000E+00 0.  1.
         11    1    3    3    0    0  0.55546357915E+01  0.63784402329E+01 -0.97699827114E+01  0.12922501345E+02  0.51100000000E-03 0. -1.
        -11    1    3    3    0    0 -0.73127141918E+01  0.22721711124E+02 -0.83830253893E+01  0.25298756100E+02  0.51100000000E-03 0.  1.
         12    1    3    3    0    0 -0.38197889341E+01  0.70009121091E+01 -0.52825209931E+01  0.95660120166E+01  0.00000000000E+00 0. -1.
</event>
<event>
 7    1  0.2756432E-009  0.4778727E+02  0.7816164E-02  0.1312668E+00
        -11   -1    0    0    0    0  0.00000000000E+00  0.00000000000E+00  0.45593999997E+02  0.45594000000E+02  0.51100000000E-03 0.  1.
         11   -1    0    0    0    0 -0.00000000000E+00 -0.00000000000E+00 -0.45593999997E+02  0.45594000000E+02  0.51100000000E-03 0. -1.
    9900012    2    1    2    0    0  0.19510748994E+02  0.11539817150E+02 -0.37010633924E+02  0.47787265794E+02  0.19999976059E+02 0.  0.
        -12    1    1    2    0    0 -0.19510748994E+02 -0.11539817150E+02  0.37010633924E+02  0.43400734206E+02  0.00000000000E+00 0.  1.
         11    1    3    3    0    0 -0.33676885807E+01  0.16512271207E-01 -0.23230070594E+01  0.40912053347E+01  0.51100000000E-03 0. -1.
        -11    1    3    3    0    0  0.14913131374E+02  0.38912444166E+01 -0.22308867193E+02  0.27115103285E+02  0.51100000000E-03 0.  1.
         12    1    3    3    0    0  0.79653062006E+01  0.76320604621E+01 -0.12378759672E+02  0.16580957174E+02  0.00000000000E+00 0. -1.
</event>
<event>
 7    1  0.2756432E-009  0.4778726E+02  0.7816164E-02  0.1312668E+00
        -11   -1    0    0    0    0  0.00000000000E+00  0.00000000000E+00  0.45593999997E+02  0.45594000000E+02  0.51100000000E-03 0. -1.
         11   -1    0    0    0    0 -0.00000000000E+00 -0.00000000000E+00 -0.45593999997E+02  0.45594000000E+02  0.51100000000E-03 0.  1.
    9900012    2    1    2    0    0  0.14130142990E+02  0.39026297557E+02 -0.12685078709E+02  0.47787261944E+02  0.19999958508E+02 0.  0.
        -12    1    1    2    0    0 -0.14130142990E+02 -0.39026297557E+02  0.12685078709E+02  0.43400738056E+02  0.00000000000E+00 0.  1.
         11    1    3    3    0    0  0.96401946403E+01  0.22513361666E+02  0.26710188288E+01  0.24635729096E+02  0.51100000000E-03 0. -1.
        -11    1    3    3    0    0  0.26649133941E+01  0.99379984840E+01 -0.10968669179E+02  0.15039191503E+02  0.51100000000E-03 0.  1.
         12    1    3    3    0    0  0.18250349553E+01  0.65749374069E+01 -0.43874283594E+01  0.81123413452E+01  0.00000000000E+00 0. -1.
</event>
<event>
 7    1  0.2756432E-009  0.4778727E+02  0.7816164E-02  0.1312668E+00
        -11   -1    0    0    0    0  0.00000000000E+00  0.00000000000E+00  0.45593999997E+02  0.45594000000E+02  0.51100000000E-03 0. -1.
         11   -1    0    0    0    0 -0.00000000000E+00 -0.00000000000E+00 -0.45593999997E+02  0.45594000000E+02  0.51100000000E-03 0.  1.
    9900012    2    1    2    0    0  0.34920445383E+02 -0.25543097738E+02 -0.34258338188E+01  0.47787266306E+02  0.19999978397E+02 0.  0.
        -12    1    1    2    0    0 -0.34920445383E+02  0.25543097738E+02  0.34258338188E+01  0.43400733694E+02  0.00000000000E+00 0.  1.
         11    1    3    3    0    0  0.18222613859E+02 -0.21530360618E+02 -0.90441958512E+01  0.29621235002E+02  0.51100000000E-03 0. -1.
        -11    1    3    3    0    0  0.12247517491E+02 -0.34630568359E+01  0.34607566528E+01  0.13189817444E+02  0.51100000000E-03 0.  1.
         12    1    3    3    0    0  0.44503140329E+01 -0.54968028390E+00  0.21576053795E+01  0.49762138599E+01  0.00000000000E+00 0. -1.
</event>
<event>
 7    1  0.2756432E-009  0.4778727E+02  0.7816164E-02  0.1312668E+00
        -11   -1    0    0    0    0  0.00000000000E+00  0.00000000000E+00  0.45593999997E+02  0.45594000000E+02  0.51100000000E-03 0. -1.
         11   -1    0    0    0    0 -0.00000000000E+00 -0.00000000000E+00 -0.45593999997E+02  0.45594000000E+02  0.51100000000E-03 0.  1.
    9900012    2    1    2    0    0 -0.22442336831E+02 -0.37144646532E+02  0.48959908612E+00  0.47787274710E+02  0.20000016715E+02 0.  0.
        -12    1    1    2    0    0  0.22442336831E+02  0.37144646532E+02 -0.48959908612E+00  0.43400725290E+02  0.00000000000E+00 0.  1.
         11    1    3    3    0    0 -0.66192730738E+01 -0.10895428735E+02 -0.25201409423E+00  0.12751025633E+02  0.51100000000E-03 0. -1.
        -11    1    3    3    0    0 -0.11402881909E+02 -0.11275914793E+02 -0.71320849881E+01  0.17551028654E+02  0.51100000000E-03 0.  1.
        -12    1    3    3    0    0 -0.44201818476E+01 -0.14973303004E+02  0.78736981685E+01  0.17485220423E+02  0.00000000000E+00 0.  1.
</event>
<event>
 7    1  0.2756432E-009  0.4778727E+02  0.7816164E-02  0.1312668E+00
        -11   -1    0    0    0    0  0.00000000000E+00  0.00000000000E+00  0.45593999997E+02  0.45594000000E+02  0.51100000000E-03 0.  1.
         11   -1    0    0    0    0 -0.00000000000E+00 -0.00000000000E+00 -0.45593999997E+02  0.45594000000E+02  0.51100000000E-03 0. -1.
    9900012    2    1    2    0    0 -0.29734765412E+02 -0.12560168776E+02 -0.29012221721E+02  0.47787272783E+02  0.20000007925E+02 0.  0.
        -12    1    1    2    0    0  0.29734765412E+02  0.12560168776E+02  0.29012221721E+02  0.43400727217E+02  0.00000000000E+00 0.  1.
         11    1    3    3    0    0 -0.16888715118E+02 -0.11745304623E+02 -0.99409695499E+01  0.22847401491E+02  0.51100000000E-03 0. -1.
        -11    1    3    3    0    0 -0.25249428430E+01  0.36580885096E+01 -0.80283728066E+01  0.91766942898E+01  0.51100000000E-03 0.  1.
        -12    1    3    3    0    0 -0.10321107451E+02 -0.44729526622E+01 -0.11042879364E+02  0.15763177002E+02  0.00000000000E+00 0.  1.
</event>
<event>
 7    1  0.2756432E-009  0.4778727E+02  0.7816164E-02  0.1312668E+00
        -11   -1    0    0    0    0  0.00000000000E+00  0.00000000000E+00  0.45593999997E+02  0.45594000000E+02  0.51100000000E-03 0. -1.
         11   -1    0    0    0    0 -0.00000000000E+00 -0.00000000000E+00 -0.45593999997E+02  0.45594000000E+02  0.51100000000E-03 0.  1.
    9900012    2    1    2    0    0  0.22386261958E+02 -0.36161819623E+02 -0.86487871706E+01  0.47787269103E+02  0.19999991147E+02 0.  0.
        -12    1    1    2    0    0 -0.22386261958E+02  0.36161819623E+02  0.86487871706E+01  0.43400730897E+02  0.00000000000E+00 0.  1.
         11    1    3    3    0    0  0.13401203947E+02 -0.30854947889E+02 -0.68962126601E+01  0.34339158781E+02  0.51100000000E-03 0. -1.
        -11    1    3    3    0    0  0.66750006184E+01 -0.31417564571E+01 -0.50004446277E+01  0.89123910163E+01  0.51100000000E-03 0.  1.
         12    1    3    3    0    0  0.23100573928E+01 -0.21651152763E+01  0.32478701172E+01  0.45357193053E+01  0.00000000000E+00 0. -1.
</event>
<event>
 7    1  0.2756432E-009  0.4778727E+02  0.7816164E-02  0.1312668E+00
        -11   -1    0    0    0    0  0.00000000000E+00  0.00000000000E+00  0.45593999997E+02  0.45594000000E+02  0.51100000000E-03 0. -1.
         11   -1    0    0    0    0 -0.00000000000E+00 -0.00000000000E+00 -0.45593999997E+02  0.45594000000E+02  0.51100000000E-03 0.  1.
    9900012    2    1    2    0    0  0.31842404889E+02 -0.28788448140E+02  0.63960579599E+01  0.47787273590E+02  0.20000011608E+02 0.  0.
        -12    1    1    2    0    0 -0.31842404889E+02  0.28788448140E+02 -0.63960579599E+01  0.43400726410E+02  0.00000000000E+00 0.  1.
         11    1    3    3    0    0  0.21028983387E+02 -0.14118726471E+02 -0.15585679727E+00  0.25329446718E+02  0.51100000000E-03 0. -1.
        -11    1    3    3    0    0 -0.48534437680E+00  0.11661038482E+01  0.21795624862E+01  0.25190971083E+01  0.51100000000E-03 0.  1.
        -12    1    3    3    0    0  0.11298765879E+02 -0.15835825518E+02  0.43723522709E+01  0.19938729764E+02  0.00000000000E+00 0.  1.
</event>
<event>
 7    1  0.2756432E-009  0.4778727E+02  0.7816164E-02  0.1312668E+00
        -11   -1    0    0    0    0  0.00000000000E+00  0.00000000000E+00  0.45593999997E+02  0.45594000000E+02  0.51100000000E-03 0.  1.
         11   -1    0    0    0    0 -0.00000000000E+00 -0.00000000000E+00 -0.45593999997E+02  0.45594000000E+02  0.51100000000E-03 0. -1.
    9900012    2    1    2    0    0  0.24194793420E+02 -0.99073019997E+01 -0.34642181435E+02  0.47787269636E+02  0.19999993579E+02 0.  0.
        -12    1    1    2    0    0 -0.24194793420E+02  0.99073019997E+01  0.34642181435E+02  0.43400730364E+02  0.00000000000E+00 0.  1.
         11    1    3    3    0    0  0.25580494261E+00  0.57944335302E+00 -0.43984835860E+01  0.44438551828E+01  0.51100000000E-03 0. -1.
        -11    1    3    3    0    0  0.13142230209E+02 -0.70939919755E+01 -0.28103859525E+02  0.31825616372E+02  0.51100000000E-03 0.  1.
        -12    1    3    3    0    0  0.10796758269E+02 -0.33927533772E+01 -0.21398383242E+01  0.11517798082E+02  0.00000000000E+00 0.  1.
</event>
<event>
 7    1  0.2756432E-009  0.4778726E+02  0.7816164E-02  0.1312668E+00
        -11   -1    0    0    0    0  0.00000000000E+00  0.00000000000E+00  0.45593999997E+02  0.45594000000E+02  0.51100000000E-03 0.  1.
         11   -1    0    0    0    0 -0.00000000000E+00 -0.00000000000E+00 -0.45593999997E+02  0.45594000000E+02  0.51100000000E-03 0. -1.
    9900012    2    1    2    0    0  0.39582173543E+02  0.97543050520E+00 -0.17774258978E+02  0.47787260269E+02  0.19999950868E+02 0.  0.
        -12    1    1    2    0    0 -0.39582173543E+02 -0.97543050520E+00  0.17774258978E+02  0.43400739731E+02  0.00000000000E+00 0.  1.
         11    1    3    3    0    0  0.10717631086E+02 -0.49536091665E+01 -0.13494980737E+01  0.11883896885E+02  0.51100000000E-03 0. -1.
        -11    1    3    3    0    0  0.90230061363E+01 -0.27142315356E+01 -0.13274325306E+01  0.95154490145E+01  0.51100000000E-03 0.  1.
         12    1    3    3    0    0  0.19841536321E+02  0.86432712072E+01 -0.15097328373E+02  0.26387914369E+02  0.00000000000E+00 0. -1.
</event>
<event>
 7    1  0.2756432E-009  0.4778727E+02  0.7816164E-02  0.1312668E+00
        -11   -1    0    0    0    0  0.00000000000E+00  0.00000000000E+00  0.45593999997E+02  0.45594000000E+02  0.51100000000E-03 0.  1.
         11   -1    0    0    0    0 -0.00000000000E+00 -0.00000000000E+00 -0.45593999997E+02  0.45594000000E+02  0.51100000000E-03 0. -1.
    9900012    2    1    2    0    0 -0.32064896637E+02  0.22323297783E+02 -0.18898035912E+02  0.47787274412E+02  0.20000015354E+02 0.  0.
        -12    1    1    2    0    0  0.32064896637E+02 -0.22323297783E+02  0.18898035912E+02  0.43400725588E+02  0.00000000000E+00 0.  1.
         11    1    3    3    0    0  0.21038077851E+01  0.22114611184E+01 -0.40625997632E+01  0.50814648057E+01  0.51100000000E-03 0. -1.
        -11    1    3    3    0    0 -0.13979627273E+02  0.91690203951E+01 -0.34343562413E+01  0.17067387519E+02  0.51100000000E-03 0.  1.
         12    1    3    3    0    0 -0.20189077149E+02  0.10942816270E+02 -0.11401079907E+02  0.25638422087E+02  0.00000000000E+00 0. -1.
</event>
<event>
 7    1  0.2756432E-009  0.4778727E+02  0.7816164E-02  0.1312668E+00
        -11   -1    0    0    0    0  0.00000000000E+00  0.00000000000E+00  0.45593999997E+02  0.45594000000E+02  0.51100000000E-03 0. -1.
         11   -1    0    0    0    0 -0.00000000000E+00 -0.00000000000E+00 -0.45593999997E+02  0.45594000000E+02  0.51100000000E-03 0.  1.
    9900012    2    1    2    0    0  0.15608973238E+02  0.28757286842E+02  0.28513181100E+02  0.47787273180E+02  0.20000009735E+02 0.  0.
        -12    1    1    2    0    0 -0.15608973238E+02 -0.28757286842E+02 -0.28513181100E+02  0.43400726820E+02  0.00000000000E+00 0.  1.
         11    1    3    3    0    0 -0.36368692289E+01  0.75300707707E+01  0.68636424477E+01  0.10818427405E+02  0.51100000000E-03 0. -1.
        -11    1    3    3    0    0  0.15262552509E+02  0.11798051786E+02  0.17054777277E+02  0.25748882757E+02  0.51100000000E-03 0.  1.
        -12    1    3    3    0    0  0.39832899582E+01  0.94291642858E+01  0.45947613759E+01  0.11219963018E+02  0.00000000000E+00 0.  1.
</event>
<event>
 7    1  0.2756432E-009  0.4778728E+02  0.7816164E-02  0.1312668E+00
        -11   -1    0    0    0    0  0.00000000000E+00  0.00000000000E+00  0.45593999997E+02  0.45594000000E+02  0.51100000000E-03 0. -1.
         11   -1    0    0    0    0 -0.00000000000E+00 -0.00000000000E+00 -0.45593999997E+02  0.45594000000E+02  0.51100000000E-03 0.  1.
    9900012    2    1    2    0    0  0.30821984672E+02 -0.45532808778E+01  0.30214165089E+02  0.47787275606E+02  0.20000020798E+02 0.  0.
        -12    1    1    2    0    0 -0.30821984672E+02  0.45532808778E+01 -0.30214165089E+02  0.43400724394E+02  0.00000000000E+00 0.  1.
         11    1    3    3    0    0  0.17722883195E+02 -0.64294663355E+01  0.14385887445E+02  0.23714813597E+02  0.51100000000E-03 0. -1.
        -11    1    3    3    0    0 -0.98687574261E+00  0.27606584965E+01  0.90633918783E-01  0.29331508373E+01  0.51100000000E-03 0.  1.
        -12    1    3    3    0    0  0.14085977220E+02 -0.88447303877E+00  0.15737643725E+02  0.21139311172E+02  0.00000000000E+00 0.  1.
</event>
<event>
 7    1  0.2756432E-009  0.4778727E+02  0.7816164E-02  0.1312668E+00
        -11   -1    0    0    0    0  0.00000000000E+00  0.00000000000E+00  0.45593999997E+02  0.45594000000E+02  0.51100000000E-03 0. -1.
         11   -1    0    0    0    0 -0.00000000000E+00 -0.00000000000E+00 -0.45593999997E+02  0.45594000000E+02  0.51100000000E-03 0.  1.
    9900012    2    1    2    0    0 -0.27958729443E+02 -0.12448418561E+01  0.33172017999E+02  0.47787274643E+02  0.20000016410E+02 0.  0.
        -12    1    1    2    0    0  0.27958729443E+02  0.12448418561E+01 -0.33172017999E+02  0.43400725357E+02  0.00000000000E+00 0.  1.
         11    1    3    3    0    0 -0.17401144550E+01 -0.21758275398E+01  0.26689747970E+01  0.38581926504E+01  0.51100000000E-03 0. -1.
        -11    1    3    3    0    0 -0.17085813401E+02 -0.54670368012E+01  0.98687537032E+01  0.20474516133E+02  0.51100000000E-03 0.  1.
        -12    1    3    3    0    0 -0.91328015868E+01  0.63980224849E+01  0.20634289499E+02  0.23454565860E+02  0.00000000000E+00 0.  1.
</event>
<event>
 7    1  0.2756432E-009  0.4778726E+02  0.7816164E-02  0.1312668E+00
        -11   -1    0    0    0    0  0.00000000000E+00  0.00000000000E+00  0.45593999997E+02  0.45594000000E+02  0.51100000000E-03 0.  1.
         11   -1    0    0    0    0 -0.00000000000E+00 -0.00000000000E+00 -0.45593999997E+02  0.45594000000E+02  0.51100000000E-03 0. -1.
    9900012    2    1    2    0    0 -0.66797707267E+01  0.41456424712E+02  0.10971303455E+02  0.47787262836E+02  0.19999962574E+02 0.  0.
        -12    1    1    2    0    0  0.66797707267E+01 -0.41456424712E+02 -0.10971303455E+02  0.43400737164E+02  0.00000000000E+00 0.  1.
         11    1    3    3    0    0 -0.97408897039E+01  0.87851300667E+01  0.36135828773E+01  0.13605933411E+02  0.51100000000E-03 0. -1.
        -11    1    3    3    0    0  0.30433905558E+01  0.20129216246E+02  0.17203416391E+01  0.20430544495E+02  0.51100000000E-03 0.  1.
         12    1    3    3    0    0  0.17728421373E-01  0.12542078399E+02  0.56373789391E+01  0.13750784930E+02  0.00000000000E+00 0. -1.
</event>
<event>
 7    1  0.2756432E-009  0.4778727E+02  0.7816164E-02  0.1312668E+00
        -11   -1    0    0    0    0  0.00000000000E+00  0.00000000000E+00  0.45593999997E+02  0.45594000000E+02  0.51100000000E-03 0.  1.
         11   -1    0    0    0    0 -0.00000000000E+00 -0.00000000000E+00 -0.45593999997E+02  0.45594000000E+02  0.51100000000E-03 0. -1.
    9900012    2    1    2    0    0 -0.14344520195E+02 -0.13633712677E+02 -0.38626151707E+02  0.47787274469E+02  0.20000015613E+02 0.  0.
        -12    1    1    2    0    0  0.14344520195E+02  0.13633712677E+02  0.38626151707E+02  0.43400725531E+02  0.00000000000E+00 0.  1.
         11    1    3    3    0    0  0.26313342963E+01 -0.26183525951E+01 -0.15203758788E+02  0.15650366514E+02  0.51100000000E-03 0. -1.
        -11    1    3    3    0    0  0.29047093438E+00 -0.46441942891E+00  0.54313882938E+00  0.77140055663E+00  0.51100000000E-03 0.  1.
         12    1    3    3    0    0 -0.17266325425E+02 -0.10550940653E+02 -0.23965531748E+02  0.31365507398E+02  0.00000000000E+00 0. -1.
</event>
<event>
 7    1  0.3406727E-009  0.4778727E+02  0.7816164E-02  0.1312668E+00
        -11   -1    0    0    0    0  0.00000000000E+00  0.00000000000E+00  0.45593999997E+02  0.45594000000E+02  0.51100000000E-03 0. -1.
         11   -1    0    0    0    0 -0.00000000000E+00 -0.00000000000E+00 -0.45593999997E+02  0.45594000000E+02  0.51100000000E-03 0.  1.
    9900012    2    1    2    0    0  0.28193484052E+01  0.38636752616E+02  0.19567213760E+02  0.47787271522E+02  0.20000002176E+02 0.  0.
        -12    1    1    2    0    0 -0.28193484052E+01 -0.38636752616E+02 -0.19567213760E+02  0.43400728478E+02  0.00000000000E+00 0.  1.
         11    1    3    3    0    0 -0.24603502717E+01  0.26367755606E+02  0.92327623562E+01  0.28045601440E+02  0.51100000000E-03 0. -1.
        -11    1    3    3    0    0  0.61794190692E+01  0.11737149112E+02  0.11926102783E+02  0.17837539549E+02  0.51100000000E-03 0.  1.
        -12    1    3    3    0    0 -0.89972039226E+00  0.53184789752E+00 -0.15916513794E+01  0.19041305323E+01  0.00000000000E+00 0.  1.
</event>
<event>
 7    1  0.2756432E-009  0.4778727E+02  0.7816164E-02  0.1312668E+00
        -11   -1    0    0    0    0  0.00000000000E+00  0.00000000000E+00  0.45593999997E+02  0.45594000000E+02  0.51100000000E-03 0.  1.
         11   -1    0    0    0    0 -0.00000000000E+00 -0.00000000000E+00 -0.45593999997E+02  0.45594000000E+02  0.51100000000E-03 0. -1.
    9900012    2    1    2    0    0  0.22064022052E+02 -0.93247573680E+01 -0.36191866978E+02  0.47787269540E+02  0.19999993141E+02 0.  0.
        -12    1    1    2    0    0 -0.22064022052E+02  0.93247573680E+01  0.36191866978E+02  0.43400730460E+02  0.00000000000E+00 0.  1.
         11    1    3    3    0    0  0.21891748689E+02 -0.14074923350E+02 -0.30595138332E+02  0.40167332719E+02  0.51100000000E-03 0. -1.
        -11    1    3    3    0    0  0.55878990364E+00  0.38043894777E+01 -0.53150040962E+01  0.65600986470E+01  0.51100000000E-03 0.  1.
         12    1    3    3    0    0 -0.38651654052E+00  0.94577650426E+00 -0.28172454983E+00  0.10598381735E+01  0.00000000000E+00 0. -1.
</event>
<event>
 7    1  0.2756432E-009  0.4778727E+02  0.7816164E-02  0.1312668E+00
        -11   -1    0    0    0    0  0.00000000000E+00  0.00000000000E+00  0.45593999997E+02  0.45594000000E+02  0.51100000000E-03 0.  1.
         11   -1    0    0    0    0 -0.00000000000E+00 -0.00000000000E+00 -0.45593999997E+02  0.45594000000E+02  0.51100000000E-03 0. -1.
    9900012    2    1    2    0    0 -0.17135980755E+02  0.30838654453E+02 -0.25277630799E+02  0.47787273465E+02  0.20000011038E+02 0.  0.
        -12    1    1    2    0    0  0.17135980755E+02 -0.30838654453E+02  0.25277630799E+02  0.43400726535E+02  0.00000000000E+00 0.  1.
         11    1    3    3    0    0 -0.18040795794E+02  0.16853524741E+02 -0.20183635232E+02  0.31888724348E+02  0.51100000000E-03 0. -1.
        -11    1    3    3    0    0  0.21762798720E+01  0.11649776275E+02 -0.57310117112E+01  0.13164268945E+02  0.51100000000E-03 0.  1.
         12    1    3    3    0    0 -0.12714648327E+01  0.23353534374E+01  0.63701614447E+00  0.27342801734E+01  0.00000000000E+00 0. -1.
</event>
<event>
 7    1  0.2756432E-009  0.4778725E+02  0.7816164E-02  0.1312668E+00
        -11   -1    0    0    0    0  0.00000000000E+00  0.00000000000E+00  0.45593999997E+02  0.45594000000E+02  0.51100000000E-03 0.  1.
         11   -1    0    0    0    0 -0.00000000000E+00 -0.00000000000E+00 -0.45593999997E+02  0.45594000000E+02  0.51100000000E-03 0. -1.
    9900012    2    1    2    0    0 -0.19623944407E+01 -0.24407277535E+02 -0.35833761878E+02  0.47787254857E+02  0.19999926194E+02 0.  0.
        -12    1    1    2    0    0  0.19623944407E+01  0.24407277535E+02  0.35833761878E+02  0.43400745143E+02  0.00000000000E+00 0.  1.
         11    1    3    3    0    0  0.55848563649E+01  0.15223445976E+00 -0.92526296568E+01  0.10808559190E+02  0.51100000000E-03 0. -1.
        -11    1    3    3    0    0 -0.35198482371E+01 -0.11416944475E+02 -0.12976839949E+02  0.17639000201E+02  0.51100000000E-03 0.  1.
         12    1    3    3    0    0 -0.40274025685E+01 -0.13142567520E+02 -0.13604292273E+02  0.19339695466E+02  0.00000000000E+00 0. -1.
</event>
<event>
 7    1  0.2756432E-009  0.4778727E+02  0.7816164E-02  0.1312668E+00
        -11   -1    0    0    0    0  0.00000000000E+00  0.00000000000E+00  0.45593999997E+02  0.45594000000E+02  0.51100000000E-03 0.  1.
         11   -1    0    0    0    0 -0.00000000000E+00 -0.00000000000E+00 -0.45593999997E+02  0.45594000000E+02  0.51100000000E-03 0. -1.
    9900012    2    1    2    0    0 -0.38242063941E+02  0.10422273961E+02 -0.17678915774E+02  0.47787270606E+02  0.19999998001E+02 0.  0.
        -12    1    1    2    0    0  0.38242063941E+02 -0.10422273961E+02  0.17678915774E+02  0.43400729394E+02  0.00000000000E+00 0.  1.
         11    1    3    3    0    0 -0.22294877096E+01 -0.22977008599E+01 -0.21674070839E+01  0.38662253448E+01  0.51100000000E-03 0. -1.
        -11    1    3    3    0    0 -0.25055013328E+01 -0.25662065210E+01 -0.39145690607E+01  0.53091246010E+01  0.51100000000E-03 0.  1.
        -12    1    3    3    0    0 -0.33507074899E+02  0.15286181342E+02 -0.11596939629E+02  0.38611920660E+02  0.00000000000E+00 0.  1.
</event>
<event>
 7    1  0.2756432E-009  0.4778727E+02  0.7816164E-02  0.1312668E+00
        -11   -1    0    0    0    0  0.00000000000E+00  0.00000000000E+00  0.45593999997E+02  0.45594000000E+02  0.51100000000E-03 0.  1.
         11   -1    0    0    0    0 -0.00000000000E+00 -0.00000000000E+00 -0.45593999997E+02  0.45594000000E+02  0.51100000000E-03 0. -1.
    9900012    2    1    2    0    0 -0.57583342682E+01  0.11386864981E+02 -0.41482573381E+02  0.47787274177E+02  0.20000014284E+02 0.  0.
        -12    1    1    2    0    0  0.57583342682E+01 -0.11386864981E+02  0.41482573381E+02  0.43400725823E+02  0.00000000000E+00 0.  1.
         11    1    3    3    0    0 -0.53977071804E+01  0.76171449320E+01 -0.17105038714E+02  0.19486879930E+02  0.51100000000E-03 0. -1.
        -11    1    3    3    0    0 -0.14469859573E+01  0.82936766569E+00  0.14943224225E+01  0.22393344656E+01  0.51100000000E-03 0.  1.
        -12    1    3    3    0    0  0.10863588694E+01  0.29403523835E+01 -0.25871857089E+02  0.26061059782E+02  0.00000000000E+00 0.  1.
</event>
<event>
 7    1  0.2756432E-009  0.4778727E+02  0.7816164E-02  0.1312668E+00
        -11   -1    0    0    0    0  0.00000000000E+00  0.00000000000E+00  0.45593999997E+02  0.45594000000E+02  0.51100000000E-03 0.  1.
         11   -1    0    0    0    0 -0.00000000000E+00 -0.00000000000E+00 -0.45593999997E+02  0.45594000000E+02  0.51100000000E-03 0. -1.
    9900012    2    1    2    0    0  0.21247238520E+02  0.31386075518E+02 -0.21144558826E+02  0.47787271330E+02  0.20000001300E+02 0.  0.
        -12    1    1    2    0    0 -0.21247238520E+02 -0.31386075518E+02  0.21144558826E+02  0.43400728670E+02  0.00000000000E+00 0.  1.
         11    1    3    3    0    0  0.15134762627E+01  0.24571210500E+01 -0.30017405456E+00  0.29014063790E+01  0.51100000000E-03 0. -1.
        -11    1    3    3    0    0  0.15788438072E+02  0.21066100318E+02 -0.50487321703E+01  0.26805690742E+02  0.51100000000E-03 0.  1.
        -12    1    3    3    0    0  0.39453241848E+01  0.78628541508E+01 -0.15795652602E+02  0.18080174209E+02  0.00000000000E+00 0.  1.
</event>
<event>
 7    1  0.2756432E-009  0.4778728E+02  0.7816164E-02  0.1312668E+00
        -11   -1    0    0    0    0  0.00000000000E+00  0.00000000000E+00  0.45593999997E+02  0.45594000000E+02  0.51100000000E-03 0. -1.
         11   -1    0    0    0    0 -0.00000000000E+00 -0.00000000000E+00 -0.45593999997E+02  0.45594000000E+02  0.51100000000E-03 0.  1.
    9900012    2    1    2    0    0  0.10258985543E+02  0.35092598929E+02  0.23385583300E+02  0.47787276616E+02  0.20000025404E+02 0.  0.
        -12    1    1    2    0    0 -0.10258985543E+02 -0.35092598929E+02 -0.23385583300E+02  0.43400723384E+02  0.00000000000E+00 0.  1.
         11    1    3    3    0    0  0.10769835464E+02  0.22066683322E+02  0.16248886128E+02  0.29444085474E+02  0.51100000000E-03 0. -1.
        -11    1    3    3    0    0  0.16620534855E+01 -0.67022918631E+00 -0.12055886033E+01  0.21598780272E+01  0.51100000000E-03 0.  1.
         12    1    3    3    0    0 -0.21729034067E+01  0.13696144793E+02  0.83422857756E+01  0.16183313115E+02  0.00000000000E+00 0. -1.
</event>
<event>
 7    1  0.2756432E-009  0.4778727E+02  0.7816164E-02  0.1312668E+00
        -11   -1    0    0    0    0  0.00000000000E+00  0.00000000000E+00  0.45593999997E+02  0.45594000000E+02  0.51100000000E-03 0. -1.
         11   -1    0    0    0    0 -0.00000000000E+00 -0.00000000000E+00 -0.45593999997E+02  0.45594000000E+02  0.51100000000E-03 0.  1.
    9900012    2    1    2    0    0  0.96128133517E+01 -0.27963256034E+02  0.31769066442E+02  0.47787269002E+02  0.19999990688E+02 0.  0.
        -12    1    1    2    0    0 -0.96128133517E+01  0.27963256034E+02 -0.31769066442E+02  0.43400730998E+02  0.00000000000E+00 0.  1.
         11    1    3    3    0    0  0.94298490731E+01 -0.50260327436E+01  0.14473599495E+02  0.17990779340E+02  0.51100000000E-03 0.  1.
        -11    1    3    3    0    0 -0.35387759512E+01 -0.15884310976E+02  0.12091436424E+02  0.20274050051E+02  0.51100000000E-03 0. -1.
         12    1    3    3    0    0  0.37217402298E+01 -0.70529123150E+01  0.52040305233E+01  0.95224396112E+01  0.00000000000E+00 0. -1.
</event>
<event>
 7    1  0.2756432E-009  0.4778728E+02  0.7816164E-02  0.1312668E+00
        -11   -1    0    0    0    0  0.00000000000E+00  0.00000000000E+00  0.45593999997E+02  0.45594000000E+02  0.51100000000E-03 0. -1.
         11   -1    0    0    0    0 -0.00000000000E+00 -0.00000000000E+00 -0.45593999997E+02  0.45594000000E+02  0.51100000000E-03 0.  1.
    9900012    2    1    2    0    0  0.40671663740E+02  0.78716658263E+01  0.12941216008E+02  0.47787280813E+02  0.20000044536E+02 0.  0.
        -12    1    1    2    0    0 -0.40671663740E+02 -0.78716658263E+01 -0.12941216008E+02  0.43400719187E+02  0.00000000000E+00 0.  1.
         11    1    3    3    0    0  0.35445083595E+02  0.12063722014E+02  0.93480889065E+01  0.38591114345E+02  0.51100000000E-03 0. -1.
        -11    1    3    3    0    0  0.52953174802E+01 -0.27448216307E+01  0.45134773780E+01  0.74796999474E+01  0.51100000000E-03 0.  1.
         12    1    3    3    0    0 -0.68737335836E-01 -0.14472345571E+01 -0.92035027628E+00  0.17164665204E+01  0.00000000000E+00 0. -1.
</event>
<event>
 7    1  0.2756432E-009  0.4778728E+02  0.7816164E-02  0.1312668E+00
        -11   -1    0    0    0    0  0.00000000000E+00  0.00000000000E+00  0.45593999997E+02  0.45594000000E+02  0.51100000000E-03 0.  1.
         11   -1    0    0    0    0 -0.00000000000E+00 -0.00000000000E+00 -0.45593999997E+02  0.45594000000E+02  0.51100000000E-03 0. -1.
    9900012    2    1    2    0    0 -0.57978447713E+01  0.40728983860E+02 -0.13825960423E+02  0.47787282127E+02  0.20000050530E+02 0.  0.
        -12    1    1    2    0    0  0.57978447713E+01 -0.40728983860E+02  0.13825960423E+02  0.43400717873E+02  0.00000000000E+00 0.  1.
         11    1    3    3    0    0 -0.55391283166E+01  0.20452264301E+02 -0.13428225922E+01  0.21231585676E+02  0.51100000000E-03 0. -1.
        -11    1    3    3    0    0  0.10606775506E+01  0.55395206012E+01 -0.10101044839E+02  0.11569029020E+02  0.51100000000E-03 0.  1.
        -12    1    3    3    0    0 -0.13193940054E+01  0.14737198958E+02 -0.23820929915E+01  0.14986667431E+02  0.00000000000E+00 0.  1.
</event>
<event>
 7    1  0.2756432E-009  0.4778727E+02  0.7816164E-02  0.1312668E+00
        -11   -1    0    0    0    0  0.00000000000E+00  0.00000000000E+00  0.45593999997E+02  0.45594000000E+02  0.51100000000E-03 0.  1.
         11   -1    0    0    0    0 -0.00000000000E+00 -0.00000000000E+00 -0.45593999997E+02  0.45594000000E+02  0.51100000000E-03 0. -1.
    9900012    2    1    2    0    0 -0.15835442477E+02 -0.26964058910E+02 -0.30096539935E+02  0.47787269276E+02  0.19999991936E+02 0.  0.
        -12    1    1    2    0    0  0.15835442477E+02  0.26964058910E+02  0.30096539935E+02  0.43400730724E+02  0.00000000000E+00 0.  1.
         11    1    3    3    0    0 -0.10694385185E+02 -0.27694782753E+02 -0.29452643380E+02  0.41819003677E+02  0.51100000000E-03 0. -1.
        -11    1    3    3    0    0 -0.48237665735E+01  0.10827070575E+01 -0.13436760705E+01  0.51231283579E+01  0.51100000000E-03 0.  1.
        -12    1    3    3    0    0 -0.31729071871E+00 -0.35198321470E+00  0.69977951639E+00  0.84513724044E+00  0.00000000000E+00 0.  1.
</event>
<event>
 7    1  0.2756432E-009  0.4778727E+02  0.7816164E-02  0.1312668E+00
        -11   -1    0    0    0    0  0.00000000000E+00  0.00000000000E+00  0.45593999997E+02  0.45594000000E+02  0.51100000000E-03 0.  1.
         11   -1    0    0    0    0 -0.00000000000E+00 -0.00000000000E+00 -0.45593999997E+02  0.45594000000E+02  0.51100000000E-03 0. -1.
    9900012    2    1    2    0    0 -0.41084213662E+02  0.13691665111E+02 -0.28721444752E+01  0.47787268213E+02  0.19999987091E+02 0.  0.
        -12    1    1    2    0    0  0.41084213662E+02 -0.13691665111E+02  0.28721444752E+01  0.43400731787E+02  0.00000000000E+00 0.  1.
         11    1    3    3    0    0 -0.30461473327E+02  0.97472515479E+01 -0.91538258744E+01  0.33267142925E+02  0.51100000000E-03 0. -1.
        -11    1    3    3    0    0 -0.95577203941E+00 -0.18320094999E+00  0.35200464809E+01  0.36520939566E+01  0.51100000000E-03 0.  1.
         12    1    3    3    0    0 -0.96669682959E+01  0.41276145130E+01  0.27616349183E+01  0.10868031332E+02  0.00000000000E+00 0. -1.
</event>
<event>
 7    1  0.2756432E-009  0.4778727E+02  0.7816164E-02  0.1312668E+00
        -11   -1    0    0    0    0  0.00000000000E+00  0.00000000000E+00  0.45593999997E+02  0.45594000000E+02  0.51100000000E-03 0. -1.
         11   -1    0    0    0    0 -0.00000000000E+00 -0.00000000000E+00 -0.45593999997E+02  0.45594000000E+02  0.51100000000E-03 0.  1.
    9900012    2    1    2    0    0  0.19278747387E+02 -0.28825264984E+02  0.26097073510E+02  0.47787271343E+02  0.20000001359E+02 0.  0.
        -12    1    1    2    0    0 -0.19278747387E+02  0.28825264984E+02 -0.26097073510E+02  0.43400728657E+02  0.00000000000E+00 0.  1.
         11    1    3    3    0    0  0.19107570749E+02 -0.18574481645E+02  0.10008024373E+02  0.28465262697E+02  0.51100000000E-03 0. -1.
        -11    1    3    3    0    0 -0.13611313877E+01 -0.52272390448E+01  0.72610743315E+01  0.90498567610E+01  0.51100000000E-03 0.  1.
         12    1    3    3    0    0  0.15323080257E+01 -0.50235442940E+01  0.88279748060E+01  0.10272151884E+02  0.00000000000E+00 0. -1.
</event>
<event>
 7    1  0.2756432E-009  0.4778727E+02  0.7816164E-02  0.1312668E+00
        -11   -1    0    0    0    0  0.00000000000E+00  0.00000000000E+00  0.45593999997E+02  0.45594000000E+02  0.51100000000E-03 0.  1.
         11   -1    0    0    0    0 -0.00000000000E+00 -0.00000000000E+00 -0.45593999997E+02  0.45594000000E+02  0.51100000000E-03 0. -1.
    9900012    2    1    2    0    0 -0.41307907967E+02 -0.59379301785E+01 -0.11917259724E+02  0.47787270113E+02  0.19999995751E+02 0.  0.
        -12    1    1    2    0    0  0.41307907967E+02  0.59379301785E+01  0.11917259724E+02  0.43400729887E+02  0.00000000000E+00 0.  1.
         11    1    3    3    0    0 -0.11155919871E+02 -0.36395211931E+01 -0.48813129585E+01  0.12709361870E+02  0.51100000000E-03 0. -1.
        -11    1    3    3    0    0 -0.23676212814E+02 -0.83805502535E+01 -0.74097623738E+01  0.26185898007E+02  0.51100000000E-03 0.  1.
        -12    1    3    3    0    0 -0.64757752824E+01  0.60821412681E+01  0.37381560865E+00  0.88920102351E+01  0.00000000000E+00 0.  1.
</event>
<event>
 7    1  0.2756432E-009  0.4778728E+02  0.7816164E-02  0.1312668E+00
        -11   -1    0    0    0    0  0.00000000000E+00  0.00000000000E+00  0.45593999997E+02  0.45594000000E+02  0.51100000000E-03 0. -1.
         11   -1    0    0    0    0 -0.00000000000E+00 -0.00000000000E+00 -0.45593999997E+02  0.45594000000E+02  0.51100000000E-03 0.  1.
    9900012    2    1    2    0    0 -0.25375378185E+02  0.24585569191E+02  0.25204421638E+02  0.47787275345E+02  0.20000019610E+02 0.  0.
        -12    1    1    2    0    0  0.25375378185E+02 -0.24585569191E+02 -0.25204421638E+02  0.43400724655E+02  0.00000000000E+00 0.  1.
         11    1    3    3    0    0 -0.11355436712E+02  0.76699309011E+01  0.15259002366E+02  0.20508801438E+02  0.51100000000E-03 0. -1.
        -11    1    3    3    0    0  0.11634028552E+01  0.29973333187E+01 -0.16790585026E+01  0.36272235860E+01  0.51100000000E-03 0.  1.
         12    1    3    3    0    0 -0.15183344328E+02  0.13918304971E+02  0.11624477774E+02  0.23651250321E+02  0.00000000000E+00 0. -1.
</event>
<event>
 7    1  0.2756432E-009  0.4778727E+02  0.7816164E-02  0.1312668E+00
        -11   -1    0    0    0    0  0.00000000000E+00  0.00000000000E+00  0.45593999997E+02  0.45594000000E+02  0.51100000000E-03 0.  1.
         11   -1    0    0    0    0 -0.00000000000E+00 -0.00000000000E+00 -0.45593999997E+02  0.45594000000E+02  0.51100000000E-03 0. -1.
    9900012    2    1    2    0    0  0.38639426257E+02  0.10975533694E+02 -0.16436406567E+02  0.47787273483E+02  0.20000011121E+02 0.  0.
        -12    1    1    2    0    0 -0.38639426257E+02 -0.10975533694E+02  0.16436406567E+02  0.43400726517E+02  0.00000000000E+00 0.  1.
         11    1    3    3    0    0  0.21476739986E+02 -0.96645563591E-01 -0.20433069164E+01  0.21573938079E+02  0.51100000000E-03 0. -1.
        -11    1    3    3    0    0  0.17530829919E+02  0.11548137729E+02 -0.14607275565E+02  0.25574635527E+02  0.51100000000E-03 0.  1.
        -12    1    3    3    0    0 -0.36814364819E+00 -0.47595847106E+00  0.21417591444E+00  0.63869987804E+00  0.00000000000E+00 0.  1.
</event>
<event>
 7    1  0.2756432E-009  0.4778727E+02  0.7816164E-02  0.1312668E+00
        -11   -1    0    0    0    0  0.00000000000E+00  0.00000000000E+00  0.45593999997E+02  0.45594000000E+02  0.51100000000E-03 0.  1.
         11   -1    0    0    0    0 -0.00000000000E+00 -0.00000000000E+00 -0.45593999997E+02  0.45594000000E+02  0.51100000000E-03 0. -1.
    9900012    2    1    2    0    0 -0.37425427425E+02 -0.47476043270E+01 -0.21457424255E+02  0.47787269356E+02  0.19999992304E+02 0.  0.
        -12    1    1    2    0    0  0.37425427425E+02  0.47476043270E+01  0.21457424255E+02  0.43400730644E+02  0.00000000000E+00 0.  1.
         11    1    3    3    0    0 -0.17835114738E+02  0.65815865639E+01 -0.13205958996E+02  0.23147482643E+02  0.51100000000E-03 0. -1.
        -11    1    3    3    0    0 -0.17443230845E+02 -0.99965137331E+01 -0.53746028155E+01  0.20810644988E+02  0.51100000000E-03 0.  1.
        -12    1    3    3    0    0 -0.21470818409E+01 -0.13326771578E+01 -0.28768624432E+01  0.38291417257E+01  0.00000000000E+00 0.  1.
</event>
<event>
 7    1  0.2756432E-009  0.4778727E+02  0.7816164E-02  0.1312668E+00
        -11   -1    0    0    0    0  0.00000000000E+00  0.00000000000E+00  0.45593999997E+02  0.45594000000E+02  0.51100000000E-03 0.  1.
         11   -1    0    0    0    0 -0.00000000000E+00 -0.00000000000E+00 -0.45593999997E+02  0.45594000000E+02  0.51100000000E-03 0. -1.
    9900012    2    1    2    0    0 -0.86442463191E+01 -0.21505575788E+02 -0.36693468923E+02  0.47787269061E+02  0.19999990958E+02 0.  0.
        -12    1    1    2    0    0  0.86442463191E+01  0.21505575788E+02  0.36693468923E+02  0.43400730939E+02  0.00000000000E+00 0.  1.
         11    1    3    3    0    0  0.45653706963E+01 -0.56286394240E+01 -0.11122985956E+02  0.13275730044E+02  0.51100000000E-03 0. -1.
        -11    1    3    3    0    0 -0.14402987505E+02 -0.16353716715E+02 -0.24796122720E+02  0.33011176920E+02  0.51100000000E-03 0.  1.
        -12    1    3    3    0    0  0.11933704898E+01  0.47678035086E+00 -0.77436024710E+00  0.15003620967E+01  0.00000000000E+00 0.  1.
</event>
<event>
 7    1  0.2756432E-009  0.4778727E+02  0.7816164E-02  0.1312668E+00
        -11   -1    0    0    0    0  0.00000000000E+00  0.00000000000E+00  0.45593999997E+02  0.45594000000E+02  0.51100000000E-03 0.  1.
         11   -1    0    0    0    0 -0.00000000000E+00 -0.00000000000E+00 -0.45593999997E+02  0.45594000000E+02  0.51100000000E-03 0. -1.
    9900012    2    1    2    0    0 -0.32952582074E+02  0.13845725679E+02 -0.24618015137E+02  0.47787268967E+02  0.19999990527E+02 0.  0.
        -12    1    1    2    0    0  0.32952582074E+02 -0.13845725679E+02  0.24618015137E+02  0.43400731033E+02  0.00000000000E+00 0.  1.
         11    1    3    3    0    0 -0.10447175913E+02  0.24311261321E+00 -0.53707138957E+01  0.11749347059E+02  0.51100000000E-03 0. -1.
        -11    1    3    3    0    0 -0.14081713936E+02  0.15816548948E+02 -0.16681942100E+02  0.26958209890E+02  0.51100000000E-03 0.  1.
        -12    1    3    3    0    0 -0.84236922249E+01 -0.22139358825E+01 -0.25653591418E+01  0.90797120174E+01  0.00000000000E+00 0.  1.
</event>
<event>
 7    1  0.2756432E-009  0.4778727E+02  0.7816164E-02  0.1312668E+00
        -11   -1    0    0    0    0  0.00000000000E+00  0.00000000000E+00  0.45593999997E+02  0.45594000000E+02  0.51100000000E-03 0. -1.
         11   -1    0    0    0    0 -0.00000000000E+00 -0.00000000000E+00 -0.45593999997E+02  0.45594000000E+02  0.51100000000E-03 0.  1.
    9900012    2    1    2    0    0 -0.41178407996E+02  0.11005622735E+02 -0.81754612147E+01  0.47787272092E+02  0.20000004774E+02 0.  0.
        -12    1    1    2    0    0  0.41178407996E+02 -0.11005622735E+02  0.81754612147E+01  0.43400727908E+02  0.00000000000E+00 0.  1.
         11    1    3    3    0    0 -0.28856296316E+02  0.87546553222E+01  0.30263537727E+00  0.30156614785E+02  0.51100000000E-03 0. -1.
        -11    1    3    3    0    0 -0.12333896048E+02  0.41839868033E+01 -0.87327028636E+01  0.15680906762E+02  0.51100000000E-03 0.  1.
         12    1    3    3    0    0  0.11784367460E-01 -0.19330193901E+01  0.25460627167E+00  0.19497505449E+01  0.00000000000E+00 0. -1.
</event>
<event>
 7    1  0.2756432E-009  0.4778727E+02  0.7816164E-02  0.1312668E+00
        -11   -1    0    0    0    0  0.00000000000E+00  0.00000000000E+00  0.45593999997E+02  0.45594000000E+02  0.51100000000E-03 0. -1.
         11   -1    0    0    0    0 -0.00000000000E+00 -0.00000000000E+00 -0.45593999997E+02  0.45594000000E+02  0.51100000000E-03 0.  1.
    9900012    2    1    2    0    0  0.28490363640E+02 -0.14595539905E+01  0.32707681346E+02  0.47787268011E+02  0.19999986167E+02 0.  0.
        -12    1    1    2    0    0 -0.28490363640E+02  0.14595539905E+01 -0.32707681346E+02  0.43400731989E+02  0.00000000000E+00 0.  1.
         11    1    3    3    0    0  0.19460858855E+02  0.45411855137E+01  0.16078484619E+02  0.25648880310E+02  0.51100000000E-03 0. -1.
        -11    1    3    3    0    0 -0.17209781083E+01  0.72277240451E+00  0.29079374183E+01  0.34554689823E+01  0.51100000000E-03 0.  1.
         12    1    3    3    0    0  0.10750482893E+02 -0.67235119087E+01  0.13721259308E+02  0.18682918718E+02  0.00000000000E+00 0. -1.
</event>
<event>
 7    1  0.2756432E-009  0.4778727E+02  0.7816164E-02  0.1312668E+00
        -11   -1    0    0    0    0  0.00000000000E+00  0.00000000000E+00  0.45593999997E+02  0.45594000000E+02  0.51100000000E-03 0.  1.
         11   -1    0    0    0    0 -0.00000000000E+00 -0.00000000000E+00 -0.45593999997E+02  0.45594000000E+02  0.51100000000E-03 0. -1.
    9900012    2    1    2    0    0  0.35708142049E+02  0.10516835562E+01 -0.24646419534E+02  0.47787269099E+02  0.19999991132E+02 0.  0.
        -12    1    1    2    0    0 -0.35708142049E+02 -0.10516835562E+01  0.24646419534E+02  0.43400730901E+02  0.00000000000E+00 0.  1.
         11    1    3    3    0    0  0.59688267583E+01  0.30834109108E+01 -0.11836564414E+02  0.13610237805E+02  0.51100000000E-03 0. -1.
        -11    1    3    3    0    0  0.22432160253E+02 -0.56832381492E+01 -0.11708678202E+02  0.25934420275E+02  0.51100000000E-03 0.  1.
         12    1    3    3    0    0  0.73071550373E+01  0.36515107946E+01 -0.11011769180E+01  0.82426110200E+01  0.00000000000E+00 0. -1.
</event>
<event>
 7    1  0.2756432E-009  0.4778728E+02  0.7816164E-02  0.1312668E+00
        -11   -1    0    0    0    0  0.00000000000E+00  0.00000000000E+00  0.45593999997E+02  0.45594000000E+02  0.51100000000E-03 0.  1.
         11   -1    0    0    0    0 -0.00000000000E+00 -0.00000000000E+00 -0.45593999997E+02  0.45594000000E+02  0.51100000000E-03 0. -1.
    9900012    2    1    2    0    0  0.24049274402E+02 -0.10731110645E+02 -0.34497805308E+02  0.47787275283E+02  0.20000019325E+02 0.  0.
        -12    1    1    2    0    0 -0.24049274402E+02  0.10731110645E+02  0.34497805308E+02  0.43400724717E+02  0.00000000000E+00 0.  1.
         11    1    3    3    0    0  0.17578760799E+02 -0.62624146954E+01 -0.14335925619E+02  0.23531881197E+02  0.51100000000E-03 0. -1.
        -11    1    3    3    0    0  0.42527645315E+01  0.11812636245E+01 -0.16688252635E+02  0.17262073056E+02  0.51100000000E-03 0.  1.
         12    1    3    3    0    0  0.22177490715E+01 -0.56499595738E+01 -0.34736270534E+01  0.69933210305E+01  0.00000000000E+00 0. -1.
</event>
<event>
 7    1  0.2756432E-009  0.4778727E+02  0.7816164E-02  0.1312668E+00
        -11   -1    0    0    0    0  0.00000000000E+00  0.00000000000E+00  0.45593999997E+02  0.45594000000E+02  0.51100000000E-03 0. -1.
         11   -1    0    0    0    0 -0.00000000000E+00 -0.00000000000E+00 -0.45593999997E+02  0.45594000000E+02  0.51100000000E-03 0.  1.
    9900012    2    1    2    0    0  0.35845636048E+02 -0.13594519866E+02  0.20344598682E+02  0.47787270863E+02  0.19999999173E+02 0.  0.
        -12    1    1    2    0    0 -0.35845636048E+02  0.13594519866E+02 -0.20344598682E+02  0.43400729137E+02  0.00000000000E+00 0.  1.
         11    1    3    3    0    0  0.29675411862E+02 -0.11824443176E+02  0.17671531345E+02  0.36506582227E+02  0.51100000000E-03 0. -1.
        -11    1    3    3    0    0  0.40460923676E+01  0.25340659564E+01 -0.14112695285E+01  0.49783567230E+01  0.51100000000E-03 0.  1.
         12    1    3    3    0    0  0.21241318186E+01 -0.43041426465E+01  0.40843368659E+01  0.63023319128E+01  0.00000000000E+00 0. -1.
</event>
<event>
 7    1  0.2756432E-009  0.4778727E+02  0.7816164E-02  0.1312668E+00
        -11   -1    0    0    0    0  0.00000000000E+00  0.00000000000E+00  0.45593999997E+02  0.45594000000E+02  0.51100000000E-03 0.  1.
         11   -1    0    0    0    0 -0.00000000000E+00 -0.00000000000E+00 -0.45593999997E+02  0.45594000000E+02  0.51100000000E-03 0. -1.
    9900012    2    1    2    0    0  0.15522657343E+02  0.35647954240E+02 -0.19284548160E+02  0.47787270395E+02  0.19999997039E+02 0.  0.
        -12    1    1    2    0    0 -0.15522657343E+02 -0.35647954240E+02  0.19284548160E+02  0.43400729605E+02  0.00000000000E+00 0.  1.
         11    1    3    3    0    0  0.12757404044E+02  0.25698281289E+02 -0.36552983143E+01  0.28922555648E+02  0.51100000000E-03 0. -1.
        -11    1    3    3    0    0  0.14734543097E+01  0.74570584990E+01 -0.98712538561E+01  0.12458749617E+02  0.51100000000E-03 0.  1.
         12    1    3    3    0    0  0.12917989901E+01  0.24926144515E+01 -0.57579959900E+01  0.64059651307E+01  0.00000000000E+00 0. -1.
</event>
<event>
 7    1  0.2756432E-009  0.4778727E+02  0.7816164E-02  0.1312668E+00
        -11   -1    0    0    0    0  0.00000000000E+00  0.00000000000E+00  0.45593999997E+02  0.45594000000E+02  0.51100000000E-03 0. -1.
         11   -1    0    0    0    0 -0.00000000000E+00 -0.00000000000E+00 -0.45593999997E+02  0.45594000000E+02  0.51100000000E-03 0.  1.
    9900012    2    1    2    0    0 -0.26571973656E+02  0.34243581365E+02  0.22204478099E+01  0.47787273772E+02  0.20000012435E+02 0.  0.
        -12    1    1    2    0    0  0.26571973656E+02 -0.34243581365E+02 -0.22204478099E+01  0.43400726228E+02  0.00000000000E+00 0.  1.
         11    1    3    3    0    0 -0.23255551120E+02  0.33166710449E+02  0.38563364703E+01  0.40690572264E+02  0.51100000000E-03 0. -1.
        -11    1    3    3    0    0  0.17479030790E+01  0.36516821549E+00 -0.55197435688E+00  0.18690074775E+01  0.51100000000E-03 0.  1.
         12    1    3    3    0    0 -0.50643256142E+01  0.71170270046E+00 -0.10839143035E+01  0.52276940307E+01  0.00000000000E+00 0. -1.
</event>
<event>
 7    1  0.2756432E-009  0.4778727E+02  0.7816164E-02  0.1312668E+00
        -11   -1    0    0    0    0  0.00000000000E+00  0.00000000000E+00  0.45593999997E+02  0.45594000000E+02  0.51100000000E-03 0.  1.
         11   -1    0    0    0    0 -0.00000000000E+00 -0.00000000000E+00 -0.45593999997E+02  0.45594000000E+02  0.51100000000E-03 0. -1.
    9900012    2    1    2    0    0 -0.38531636146E+02  0.42843308273E+01 -0.19508480815E+02  0.47787270762E+02  0.19999998710E+02 0.  0.
        -12    1    1    2    0    0  0.38531636146E+02 -0.42843308273E+01  0.19508480815E+02  0.43400729238E+02  0.00000000000E+00 0.  1.
         11    1    3    3    0    0 -0.21054284491E+02  0.47087971907E+01 -0.64652161565E+01  0.22522315303E+02  0.51100000000E-03 0. -1.
        -11    1    3    3    0    0  0.14616737735E+01 -0.18484791687E+01 -0.28895375939E+01  0.37286449583E+01  0.51100000000E-03 0.  1.
        -12    1    3    3    0    0 -0.18939025429E+02  0.14240128053E+01 -0.10153727065E+02  0.21536310500E+02  0.00000000000E+00 0.  1.
</event>
<event>
 7    1  0.2756432E-009  0.4778727E+02  0.7816164E-02  0.1312668E+00
        -11   -1    0    0    0    0  0.00000000000E+00  0.00000000000E+00  0.45593999997E+02  0.45594000000E+02  0.51100000000E-03 0.  1.
         11   -1    0    0    0    0 -0.00000000000E+00 -0.00000000000E+00 -0.45593999997E+02  0.45594000000E+02  0.51100000000E-03 0. -1.
    9900012    2    1    2    0    0  0.29747229553E+01 -0.42373929567E+02 -0.89008012377E+01  0.47787272514E+02  0.20000006700E+02 0.  0.
        -12    1    1    2    0    0 -0.29747229553E+01  0.42373929567E+02  0.89008012377E+01  0.43400727486E+02  0.00000000000E+00 0.  1.
         11    1    3    3    0    0  0.54560423020E+01 -0.15858990557E+02 -0.11713011581E+02  0.20456554443E+02  0.51100000000E-03 0. -1.
        -11    1    3    3    0    0 -0.37664639795E+01 -0.16542602630E+02  0.30799667388E+00  0.16968759969E+02  0.51100000000E-03 0.  1.
         12    1    3    3    0    0  0.12851446329E+01 -0.99723363803E+01  0.25042136696E+01  0.10361958102E+02  0.00000000000E+00 0. -1.
</event>
<event>
 7    1  0.2756432E-009  0.4778727E+02  0.7816164E-02  0.1312668E+00
        -11   -1    0    0    0    0  0.00000000000E+00  0.00000000000E+00  0.45593999997E+02  0.45594000000E+02  0.51100000000E-03 0.  1.
         11   -1    0    0    0    0 -0.00000000000E+00 -0.00000000000E+00 -0.45593999997E+02  0.45594000000E+02  0.51100000000E-03 0. -1.
    9900012    2    1    2    0    0 -0.41390489506E+02 -0.56764058512E+01 -0.11757086753E+02  0.47787270814E+02  0.19999998950E+02 0.  0.
        -12    1    1    2    0    0  0.41390489506E+02  0.56764058512E+01  0.11757086753E+02  0.43400729186E+02  0.00000000000E+00 0.  1.
         11    1    3    3    0    0 -0.21850350184E+02 -0.36734034432E+01 -0.76358368281E+01  0.23435820880E+02  0.51100000000E-03 0. -1.
        -11    1    3    3    0    0 -0.66456306765E+00 -0.29076039482E+01  0.29305076643E+01  0.41813490912E+01  0.51100000000E-03 0.  1.
        -12    1    3    3    0    0 -0.18875576255E+02  0.90460154027E+00 -0.70517575893E+01  0.20170100843E+02  0.00000000000E+00 0.  1.
</event>
<event>
 7    1  0.2756432E-009  0.4778727E+02  0.7816164E-02  0.1312668E+00
        -11   -1    0    0    0    0  0.00000000000E+00  0.00000000000E+00  0.45593999997E+02  0.45594000000E+02  0.51100000000E-03 0.  1.
         11   -1    0    0    0    0 -0.00000000000E+00 -0.00000000000E+00 -0.45593999997E+02  0.45594000000E+02  0.51100000000E-03 0. -1.
    9900012    2    1    2    0    0  0.21309718123E+02  0.37879609175E+01 -0.37618752617E+02  0.47787270941E+02  0.19999999528E+02 0.  0.
        -12    1    1    2    0    0 -0.21309718123E+02 -0.37879609175E+01  0.37618752617E+02  0.43400729059E+02  0.00000000000E+00 0.  1.
         11    1    3    3    0    0  0.43926725012E+01 -0.54614489660E+01 -0.39456343303E+01  0.80430732335E+01  0.51100000000E-03 0. -1.
        -11    1    3    3    0    0  0.27735718680E+01  0.59348558459E+01 -0.11537886805E+02  0.13267933034E+02  0.51100000000E-03 0.  1.
         12    1    3    3    0    0  0.14143473754E+02  0.33145540376E+01 -0.22135231482E+02  0.26476264673E+02  0.00000000000E+00 0. -1.
</event>
<event>
 7    1  0.2756432E-009  0.4778727E+02  0.7816164E-02  0.1312668E+00
        -11   -1    0    0    0    0  0.00000000000E+00  0.00000000000E+00  0.45593999997E+02  0.45594000000E+02  0.51100000000E-03 0.  1.
         11   -1    0    0    0    0 -0.00000000000E+00 -0.00000000000E+00 -0.45593999997E+02  0.45594000000E+02  0.51100000000E-03 0. -1.
    9900012    2    1    2    0    0 -0.95780115989E+01 -0.35240849961E+01 -0.42183714023E+02  0.47787271780E+02  0.20000003355E+02 0.  0.
        -12    1    1    2    0    0  0.95780115989E+01  0.35240849961E+01  0.42183714023E+02  0.43400728220E+02  0.00000000000E+00 0.  1.
         11    1    3    3    0    0 -0.70176964180E+01 -0.41794715069E+01 -0.31297039229E+02  0.32345335210E+02  0.51100000000E-03 0. -1.
        -11    1    3    3    0    0 -0.17941338800E+01  0.50881809079E+01 -0.25467158320E+01  0.59660927852E+01  0.51100000000E-03 0.  1.
        -12    1    3    3    0    0 -0.76618130101E+00 -0.44327943970E+01 -0.83399589619E+01  0.94758437850E+01  0.00000000000E+00 0.  1.
</event>
<event>
 7    1  0.2756432E-009  0.4778727E+02  0.7816164E-02  0.1312668E+00
        -11   -1    0    0    0    0  0.00000000000E+00  0.00000000000E+00  0.45593999997E+02  0.45594000000E+02  0.51100000000E-03 0.  1.
         11   -1    0    0    0    0 -0.00000000000E+00 -0.00000000000E+00 -0.45593999997E+02  0.45594000000E+02  0.51100000000E-03 0. -1.
    9900012    2    1    2    0    0 -0.36439945106E+02 -0.37869785595E+01 -0.23268273319E+02  0.47787270177E+02  0.19999996045E+02 0.  0.
        -12    1    1    2    0    0  0.36439945106E+02  0.37869785595E+01  0.23268273319E+02  0.43400729823E+02  0.00000000000E+00 0.  1.
         11    1    3    3    0    0 -0.14807689242E+02 -0.10285366974E+02 -0.15049336744E+02  0.23484866855E+02  0.51100000000E-03 0. -1.
        -11    1    3    3    0    0 -0.82328567010E+01  0.42318261886E+01 -0.38767121776E+01  0.10035794932E+02  0.51100000000E-03 0.  1.
         12    1    3    3    0    0 -0.13399399163E+02  0.22665622258E+01 -0.43422243971E+01  0.14266608390E+02  0.00000000000E+00 0. -1.
</event>
<event>
 7    1  0.2756432E-009  0.4778727E+02  0.7816164E-02  0.1312668E+00
        -11   -1    0    0    0    0  0.00000000000E+00  0.00000000000E+00  0.45593999997E+02  0.45594000000E+02  0.51100000000E-03 0.  1.
         11   -1    0    0    0    0 -0.00000000000E+00 -0.00000000000E+00 -0.45593999997E+02  0.45594000000E+02  0.51100000000E-03 0. -1.
    9900012    2    1    2    0    0 -0.30242417979E+02 -0.28972923390E+02 -0.11383726947E+02  0.47787269888E+02  0.19999994728E+02 0.  0.
        -12    1    1    2    0    0  0.30242417979E+02  0.28972923390E+02  0.11383726947E+02  0.43400730112E+02  0.00000000000E+00 0.  1.
         11    1    3    3    0    0 -0.22611921290E+02 -0.25181016252E+02 -0.78815749002E+01  0.34749126422E+02  0.51100000000E-03 0. -1.
        -11    1    3    3    0    0 -0.50759626961E+01 -0.87771383997E+00 -0.63880779800E+01  0.82062975462E+01  0.51100000000E-03 0.  1.
        -12    1    3    3    0    0 -0.25545339931E+01 -0.29141932981E+01  0.28859259332E+01  0.48318459198E+01  0.00000000000E+00 0.  1.
</event>
<event>
 7    1  0.2756432E-009  0.4778727E+02  0.7816164E-02  0.1312668E+00
        -11   -1    0    0    0    0  0.00000000000E+00  0.00000000000E+00  0.45593999997E+02  0.45594000000E+02  0.51100000000E-03 0. -1.
         11   -1    0    0    0    0 -0.00000000000E+00 -0.00000000000E+00 -0.45593999997E+02  0.45594000000E+02  0.51100000000E-03 0.  1.
    9900012    2    1    2    0    0  0.14664431170E+02 -0.39428977197E+02  0.10673959171E+02  0.47787272026E+02  0.20000004475E+02 0.  0.
        -12    1    1    2    0    0 -0.14664431170E+02  0.39428977197E+02 -0.10673959171E+02  0.43400727974E+02  0.00000000000E+00 0.  1.
         11    1    3    3    0    0 -0.67929371442E+00 -0.12695290153E+02  0.92849783869E+01  0.15743019276E+02  0.51100000000E-03 0. -1.
        -11    1    3    3    0    0  0.23535826985E+01 -0.65769015292E+01 -0.31091575748E+01  0.76460346801E+01  0.51100000000E-03 0.  1.
         12    1    3    3    0    0  0.12990142186E+02 -0.20156785514E+02  0.44981383585E+01  0.24398218070E+02  0.00000000000E+00 0. -1.
</event>
<event>
 7    1  0.2756432E-009  0.4778727E+02  0.7816164E-02  0.1312668E+00
        -11   -1    0    0    0    0  0.00000000000E+00  0.00000000000E+00  0.45593999997E+02  0.45594000000E+02  0.51100000000E-03 0. -1.
         11   -1    0    0    0    0 -0.00000000000E+00 -0.00000000000E+00 -0.45593999997E+02  0.45594000000E+02  0.51100000000E-03 0.  1.
    9900012    2    1    2    0    0 -0.41102115636E+02  0.24404236222E+01 -0.13721660119E+02  0.47787268052E+02  0.19999986357E+02 0.  0.
        -12    1    1    2    0    0  0.41102115636E+02 -0.24404236222E+01  0.13721660119E+02  0.43400731948E+02  0.00000000000E+00 0.  1.
         11    1    3    3    0    0 -0.20112695357E+00  0.11894442961E+01  0.24437990068E+01  0.27253226656E+01  0.51100000000E-03 0. -1.
        -11    1    3    3    0    0 -0.33844697271E+02  0.27405192706E+00 -0.17025259477E+02  0.37886648022E+02  0.51100000000E-03 0.  1.
        -12    1    3    3    0    0 -0.70562914110E+01  0.97692739907E+00  0.85980035140E+00  0.71752973642E+01  0.00000000000E+00 0.  1.
</event>
<event>
 7    1  0.2756432E-009  0.4778728E+02  0.7816164E-02  0.1312668E+00
        -11   -1    0    0    0    0  0.00000000000E+00  0.00000000000E+00  0.45593999997E+02  0.45594000000E+02  0.51100000000E-03 0.  1.
         11   -1    0    0    0    0 -0.00000000000E+00 -0.00000000000E+00 -0.45593999997E+02  0.45594000000E+02  0.51100000000E-03 0. -1.
    9900012    2    1    2    0    0 -0.48570436555E+00  0.54107480619E-01 -0.43397968157E+02  0.47787280230E+02  0.20000041882E+02 0.  0.
        -12    1    1    2    0    0  0.48570436555E+00 -0.54107480619E-01  0.43397968157E+02  0.43400719770E+02  0.00000000000E+00 0.  1.
         11    1    3    3    0    0  0.40867995503E+01  0.52579770751E+01 -0.29891750245E+02  0.30624581409E+02  0.51100000000E-03 0. -1.
        -11    1    3    3    0    0 -0.19747525364E+01 -0.37311735650E+01 -0.13533273845E+02  0.14176417212E+02  0.51100000000E-03 0.  1.
         12    1    3    3    0    0 -0.25977513794E+01 -0.14726960294E+01  0.27055933233E-01  0.29862816090E+01  0.00000000000E+00 0. -1.
</event>
<event>
 7    1  0.2756432E-009  0.4778727E+02  0.7816164E-02  0.1312668E+00
        -11   -1    0    0    0    0  0.00000000000E+00  0.00000000000E+00  0.45593999997E+02  0.45594000000E+02  0.51100000000E-03 0.  1.
         11   -1    0    0    0    0 -0.00000000000E+00 -0.00000000000E+00 -0.45593999997E+02  0.45594000000E+02  0.51100000000E-03 0. -1.
    9900012    2    1    2    0    0  0.40632542276E+02  0.67170002383E+01 -0.13693122065E+02  0.47787272173E+02  0.20000005146E+02 0.  0.
        -12    1    1    2    0    0 -0.40632542276E+02 -0.67170002383E+01  0.13693122065E+02  0.43400727827E+02  0.00000000000E+00 0.  1.
         11    1    3    3    0    0  0.80092171531E+00 -0.15753430196E+01  0.24161710807E+01  0.29935036622E+01  0.51100000000E-03 0. -1.
        -11    1    3    3    0    0  0.11698980684E+02  0.70000720552E+01 -0.54128840542E+01  0.14668553844E+02  0.51100000000E-03 0.  1.
         12    1    3    3    0    0  0.28132639877E+02  0.12922712026E+01 -0.10696409091E+02  0.30125214667E+02  0.00000000000E+00 0. -1.
</event>
<event>
 7    1  0.2756432E-009  0.4778727E+02  0.7816164E-02  0.1312668E+00
        -11   -1    0    0    0    0  0.00000000000E+00  0.00000000000E+00  0.45593999997E+02  0.45594000000E+02  0.51100000000E-03 0.  1.
         11   -1    0    0    0    0 -0.00000000000E+00 -0.00000000000E+00 -0.45593999997E+02  0.45594000000E+02  0.51100000000E-03 0. -1.
    9900012    2    1    2    0    0  0.38738597822E+01  0.24290575703E+02 -0.35757296298E+02  0.47787273092E+02  0.20000009334E+02 0.  0.
        -12    1    1    2    0    0 -0.38738597822E+01 -0.24290575703E+02  0.35757296298E+02  0.43400726908E+02  0.00000000000E+00 0.  1.
         11    1    3    3    0    0  0.16978198558E+01  0.16904057607E+02 -0.14106070215E+02  0.22081915067E+02  0.51100000000E-03 0. -1.
        -11    1    3    3    0    0  0.59949450002E+01  0.58151190586E+00 -0.86047661160E+01  0.10503310041E+02  0.51100000000E-03 0.  1.
         12    1    3    3    0    0 -0.38189050739E+01  0.68050061903E+01 -0.13046459968E+02  0.15202047984E+02  0.00000000000E+00 0. -1.
</event>
<event>
 7    1  0.2756432E-009  0.4778727E+02  0.7816164E-02  0.1312668E+00
        -11   -1    0    0    0    0  0.00000000000E+00  0.00000000000E+00  0.45593999997E+02  0.45594000000E+02  0.51100000000E-03 0.  1.
         11   -1    0    0    0    0 -0.00000000000E+00 -0.00000000000E+00 -0.45593999997E+02  0.45594000000E+02  0.51100000000E-03 0. -1.
    9900012    2    1    2    0    0  0.37124293641E+02 -0.11189456257E+02  0.19498873942E+02  0.47787271957E+02  0.20000004159E+02 0.  0.
        -12    1    1    2    0    0 -0.37124293641E+02  0.11189456257E+02 -0.19498873942E+02  0.43400728043E+02  0.00000000000E+00 0.  1.
         11    1    3    3    0    0  0.87081578571E+01  0.13631170142E+01  0.68743611184E+01  0.11177966823E+02  0.51100000000E-03 0. -1.
        -11    1    3    3    0    0  0.17275625077E+02  0.38828633377E+00  0.67466268021E+01  0.18550335888E+02  0.51100000000E-03 0.  1.
         12    1    3    3    0    0  0.11140510707E+02 -0.12940859605E+02  0.58778860213E+01  0.18058969245E+02  0.00000000000E+00 0. -1.
</event>
<event>
 7    1  0.2756432E-009  0.4778727E+02  0.7816164E-02  0.1312668E+00
        -11   -1    0    0    0    0  0.00000000000E+00  0.00000000000E+00  0.45593999997E+02  0.45594000000E+02  0.51100000000E-03 0. -1.
         11   -1    0    0    0    0 -0.00000000000E+00 -0.00000000000E+00 -0.45593999997E+02  0.45594000000E+02  0.51100000000E-03 0.  1.
    9900012    2    1    2    0    0 -0.87864178720E+01 -0.35945785530E+02  0.22678677950E+02  0.47787273393E+02  0.20000010709E+02 0.  0.
        -12    1    1    2    0    0  0.87864178720E+01  0.35945785530E+02 -0.22678677950E+02  0.43400726607E+02  0.00000000000E+00 0.  1.
         11    1    3    3    0    0 -0.81290427738E+01 -0.17341065783E+02  0.20810057568E+02  0.28281661817E+02  0.51100000000E-03 0. -1.
        -11    1    3    3    0    0 -0.17578025233E+01 -0.75125512479E+01  0.30502724973E+01  0.82965329224E+01  0.51100000000E-03 0.  1.
         12    1    3    3    0    0  0.11004274251E+01 -0.11092168500E+02 -0.11816521150E+01  0.11209078654E+02  0.00000000000E+00 0. -1.
</event>
<event>
 7    1  0.2756432E-009  0.4778727E+02  0.7816164E-02  0.1312668E+00
        -11   -1    0    0    0    0  0.00000000000E+00  0.00000000000E+00  0.45593999997E+02  0.45594000000E+02  0.51100000000E-03 0.  1.
         11   -1    0    0    0    0 -0.00000000000E+00 -0.00000000000E+00 -0.45593999997E+02  0.45594000000E+02  0.51100000000E-03 0. -1.
    9900012    2    1    2    0    0 -0.28935753636E+02  0.28472432181E+02 -0.15351432471E+02  0.47787266001E+02  0.19999977004E+02 0.  0.
        -12    1    1    2    0    0  0.28935753636E+02 -0.28472432181E+02  0.15351432471E+02  0.43400733999E+02  0.00000000000E+00 0.  1.
         11    1    3    3    0    0 -0.24440378292E+02  0.25788452108E+02 -0.10844668490E+02  0.37148124961E+02  0.51100000000E-03 0. -1.
        -11    1    3    3    0    0 -0.26966466228E+01  0.47399703102E+01 -0.54877539877E+01  0.77365797120E+01  0.51100000000E-03 0.  1.
         12    1    3    3    0    0 -0.17987287206E+01 -0.20559902376E+01  0.98099000680E+00  0.29025613277E+01  0.00000000000E+00 0. -1.
</event>
<event>
 7    1  0.2756432E-009  0.4778727E+02  0.7816164E-02  0.1312668E+00
        -11   -1    0    0    0    0  0.00000000000E+00  0.00000000000E+00  0.45593999997E+02  0.45594000000E+02  0.51100000000E-03 0. -1.
         11   -1    0    0    0    0 -0.00000000000E+00 -0.00000000000E+00 -0.45593999997E+02  0.45594000000E+02  0.51100000000E-03 0.  1.
    9900012    2    1    2    0    0 -0.65578829815E+01 -0.69237156852E+01  0.42340048622E+02  0.47787269760E+02  0.19999994143E+02 0.  0.
        -12    1    1    2    0    0  0.65578829815E+01  0.69237156852E+01 -0.42340048622E+02  0.43400730240E+02  0.00000000000E+00 0.  1.
         11    1    3    3    0    0 -0.61267883384E+01 -0.10899015788E+02  0.14334154235E+02  0.19020884795E+02  0.51100000000E-03 0. -1.
        -11    1    3    3    0    0 -0.27061089190E+01  0.26782699019E+01  0.19431557834E+02  0.19801050358E+02  0.51100000000E-03 0.  1.
         12    1    3    3    0    0  0.22750142758E+01  0.12970302010E+01  0.85743365529E+01  0.89653346072E+01  0.00000000000E+00 0. -1.
</event>
<event>
 7    1  0.2762693E-009  0.4778727E+02  0.7816164E-02  0.1312668E+00
        -11   -1    0    0    0    0  0.00000000000E+00  0.00000000000E+00  0.45593999997E+02  0.45594000000E+02  0.51100000000E-03 0. -1.
         11   -1    0    0    0    0 -0.00000000000E+00 -0.00000000000E+00 -0.45593999997E+02  0.45594000000E+02  0.51100000000E-03 0.  1.
    9900012    2    1    2    0    0 -0.30222448192E+02  0.13948508808E+02  0.27850782841E+02  0.47787269850E+02  0.19999994554E+02 0.  0.
        -12    1    1    2    0    0  0.30222448192E+02 -0.13948508808E+02 -0.27850782841E+02  0.43400730150E+02  0.00000000000E+00 0.  1.
         11    1    3    3    0    0 -0.17394784761E+02  0.67239579294E+01  0.69336698875E+01  0.19896379708E+02  0.51100000000E-03 0. -1.
        -11    1    3    3    0    0 -0.99750725437E+01  0.11007466185E+00  0.15762049729E+02  0.18653589483E+02  0.51100000000E-03 0.  1.
        -12    1    3    3    0    0 -0.28525908876E+01  0.71144762168E+01  0.51550632243E+01  0.92373006586E+01  0.00000000000E+00 0.  1.
</event>
<event>
 7    1  0.2756432E-009  0.4778730E+02  0.7816164E-02  0.1312668E+00
        -11   -1    0    0    0    0  0.00000000000E+00  0.00000000000E+00  0.45593999997E+02  0.45594000000E+02  0.51100000000E-03 0.  1.
         11   -1    0    0    0    0 -0.00000000000E+00 -0.00000000000E+00 -0.45593999997E+02  0.45594000000E+02  0.51100000000E-03 0. -1.
    9900012    2    1    2    0    0 -0.27411331197E+02  0.94264725635E+01 -0.32301411841E+02  0.47787301043E+02  0.20000136776E+02 0.  0.
        -12    1    1    2    0    0  0.27411331197E+02 -0.94264725635E+01  0.32301411841E+02  0.43400698957E+02  0.00000000000E+00 0.  1.
         11    1    3    3    0    0 -0.56888920831E+01  0.17997386809E+01 -0.17308201303E+02  0.18307823057E+02  0.51100000000E-03 0. -1.
        -11    1    3    3    0    0 -0.22640126706E+02  0.66393176382E+01 -0.15269258514E+02  0.28103489673E+02  0.51100000000E-03 0.  1.
        -12    1    3    3    0    0  0.91768759133E+00  0.98741624437E+00  0.27604797614E+00  0.13759883139E+01  0.00000000000E+00 0.  1.
</event>
<event>
 7    1  0.2756432E-009  0.4778727E+02  0.7816164E-02  0.1312668E+00
        -11   -1    0    0    0    0  0.00000000000E+00  0.00000000000E+00  0.45593999997E+02  0.45594000000E+02  0.51100000000E-03 0. -1.
         11   -1    0    0    0    0 -0.00000000000E+00 -0.00000000000E+00 -0.45593999997E+02  0.45594000000E+02  0.51100000000E-03 0.  1.
    9900012    2    1    2    0    0 -0.41019017795E+02 -0.86605030531E+01  0.11227612167E+02  0.47787269488E+02  0.19999992904E+02 0.  0.
        -12    1    1    2    0    0  0.41019017795E+02  0.86605030531E+01 -0.11227612167E+02  0.43400730512E+02  0.00000000000E+00 0.  1.
         11    1    3    3    0    0 -0.10905368836E+02 -0.20081967481E+01  0.24538952898E+01  0.11357003389E+02  0.51100000000E-03 0. -1.
        -11    1    3    3    0    0 -0.15555475948E+02 -0.71635250837E+01 -0.33833694966E+01  0.17456692499E+02  0.51100000000E-03 0.  1.
        -12    1    3    3    0    0 -0.14558173011E+02  0.51121877868E+00  0.12157086374E+02  0.18973573600E+02  0.00000000000E+00 0.  1.
</event>
<event>
 7    1  0.2756432E-009  0.4778727E+02  0.7816164E-02  0.1312668E+00
        -11   -1    0    0    0    0  0.00000000000E+00  0.00000000000E+00  0.45593999997E+02  0.45594000000E+02  0.51100000000E-03 0.  1.
         11   -1    0    0    0    0 -0.00000000000E+00 -0.00000000000E+00 -0.45593999997E+02  0.45594000000E+02  0.51100000000E-03 0. -1.
    9900012    2    1    2    0    0  0.13274162678E+02  0.39192570216E+02 -0.13090536697E+02  0.47787272979E+02  0.20000008822E+02 0.  0.
        -12    1    1    2    0    0 -0.13274162678E+02 -0.39192570216E+02  0.13090536697E+02  0.43400727021E+02  0.00000000000E+00 0.  1.
         11    1    3    3    0    0  0.18166736057E+02  0.34326281001E+02 -0.10363599829E+02  0.40196120062E+02  0.51100000000E-03 0. -1.
        -11    1    3    3    0    0 -0.22969133105E+01  0.15664886749E+01 -0.17351046081E+01  0.32772375237E+01  0.51100000000E-03 0.  1.
         12    1    3    3    0    0 -0.25956600688E+01  0.32998005394E+01 -0.99183225982E+00  0.43139153937E+01  0.00000000000E+00 0. -1.
</event>
<event>
 7    1  0.2756432E-009  0.4778728E+02  0.7816164E-02  0.1312668E+00
        -11   -1    0    0    0    0  0.00000000000E+00  0.00000000000E+00  0.45593999997E+02  0.45594000000E+02  0.51100000000E-03 0.  1.
         11   -1    0    0    0    0 -0.00000000000E+00 -0.00000000000E+00 -0.45593999997E+02  0.45594000000E+02  0.51100000000E-03 0. -1.
    9900012    2    1    2    0    0 -0.24326198644E+02  0.94097820485E+00 -0.35930116048E+02  0.47787278581E+02  0.20000034363E+02 0.  0.
        -12    1    1    2    0    0  0.24326198644E+02 -0.94097820485E+00  0.35930116048E+02  0.43400721419E+02  0.00000000000E+00 0.  1.
         11    1    3    3    0    0 -0.96837380940E+01  0.58400395965E+01 -0.25778102308E+02  0.28149447683E+02  0.51100000000E-03 0. -1.
        -11    1    3    3    0    0 -0.85501079141E+01 -0.54365817424E+01 -0.86928745360E+01  0.13350162334E+02  0.51100000000E-03 0.  1.
         12    1    3    3    0    0 -0.60923526354E+01  0.53752035072E+00 -0.14591392041E+01  0.62876685646E+01  0.00000000000E+00 0. -1.
</event>
<event>
 7    1  0.2756432E-009  0.4778727E+02  0.7816164E-02  0.1312668E+00
        -11   -1    0    0    0    0  0.00000000000E+00  0.00000000000E+00  0.45593999997E+02  0.45594000000E+02  0.51100000000E-03 0. -1.
         11   -1    0    0    0    0 -0.00000000000E+00 -0.00000000000E+00 -0.45593999997E+02  0.45594000000E+02  0.51100000000E-03 0.  1.
    9900012    2    1    2    0    0  0.39359209796E+02  0.13618086922E+02  0.12207525287E+02  0.47787270043E+02  0.19999995435E+02 0.  0.
        -12    1    1    2    0    0 -0.39359209796E+02 -0.13618086922E+02 -0.12207525287E+02  0.43400729957E+02  0.00000000000E+00 0.  1.
         11    1    3    3    0    0  0.66529521496E+00  0.66208891868E+01  0.16611031417E+01  0.68584295036E+01  0.51100000000E-03 0.  1.
        -11    1    3    3    0    0  0.21420653122E+02  0.53739148934E+01  0.43687331467E+01  0.22512422594E+02  0.51100000000E-03 0. -1.
        -12    1    3    3    0    0  0.17273261458E+02  0.16232828419E+01  0.61776889981E+01  0.18416417946E+02  0.00000000000E+00 0.  1.
</event>
<event>
 7    1  0.2756432E-009  0.4778728E+02  0.7816164E-02  0.1312668E+00
        -11   -1    0    0    0    0  0.00000000000E+00  0.00000000000E+00  0.45593999997E+02  0.45594000000E+02  0.51100000000E-03 0.  1.
         11   -1    0    0    0    0 -0.00000000000E+00 -0.00000000000E+00 -0.45593999997E+02  0.45594000000E+02  0.51100000000E-03 0. -1.
    9900012    2    1    2    0    0 -0.21172049672E+02 -0.25394799701E+02 -0.28115313592E+02  0.47787281140E+02  0.20000046029E+02 0.  0.
        -12    1    1    2    0    0  0.21172049672E+02  0.25394799701E+02  0.28115313592E+02  0.43400718860E+02  0.00000000000E+00 0.  1.
         11    1    3    3    0    0 -0.97802961520E+01 -0.18972456652E+02 -0.20876368926E+02  0.29856843169E+02  0.51100000000E-03 0. -1.
        -11    1    3    3    0    0 -0.10072986030E+02 -0.49472538591E+01 -0.86404306330E+00  0.11255529262E+02  0.51100000000E-03 0.  1.
        -12    1    3    3    0    0 -0.13187674901E+01 -0.14750891901E+01 -0.63749016034E+01  0.66749087084E+01  0.00000000000E+00 0.  1.
</event>
<event>
 7    1  0.2756432E-009  0.4778727E+02  0.7816164E-02  0.1312668E+00
        -11   -1    0    0    0    0  0.00000000000E+00  0.00000000000E+00  0.45593999997E+02  0.45594000000E+02  0.51100000000E-03 0.  1.
         11   -1    0    0    0    0 -0.00000000000E+00 -0.00000000000E+00 -0.45593999997E+02  0.45594000000E+02  0.51100000000E-03 0. -1.
    9900012    2    1    2    0    0 -0.14642281562E+02 -0.21003180891E+02 -0.35044162361E+02  0.47787270369E+02  0.19999996922E+02 0.  0.
        -12    1    1    2    0    0  0.14642281562E+02  0.21003180891E+02  0.35044162361E+02  0.43400729631E+02  0.00000000000E+00 0.  1.
         11    1    3    3    0    0 -0.83402070291E+01 -0.24255607197E+01 -0.22578760806E+02  0.24191792779E+02  0.51100000000E-03 0.  1.
        -11    1    3    3    0    0 -0.55299356438E+01 -0.16987364326E+02 -0.12539128643E+02  0.21826142178E+02  0.51100000000E-03 0. -1.
        -12    1    3    3    0    0 -0.77213888893E+00 -0.15902558455E+01  0.73727087755E-01  0.17693354124E+01  0.00000000000E+00 0.  1.
</event>
<event>
 7    1  0.2756432E-009  0.4778726E+02  0.7816164E-02  0.1312668E+00
        -11   -1    0    0    0    0  0.00000000000E+00  0.00000000000E+00  0.45593999997E+02  0.45594000000E+02  0.51100000000E-03 0. -1.
         11   -1    0    0    0    0 -0.00000000000E+00 -0.00000000000E+00 -0.45593999997E+02  0.45594000000E+02  0.51100000000E-03 0.  1.
    9900012    2    1    2    0    0  0.13454975744E+02  0.27569985453E+02  0.30699905315E+02  0.47787255115E+02  0.19999927373E+02 0.  0.
        -12    1    1    2    0    0 -0.13454975744E+02 -0.27569985453E+02 -0.30699905315E+02  0.43400744885E+02  0.00000000000E+00 0.  1.
         11    1    3    3    0    0  0.14401351141E+01  0.15669884671E+02  0.53539799523E+01  0.16621804244E+02  0.51100000000E-03 0. -1.
        -11    1    3    3    0    0  0.70214653494E+01  0.10267695636E+02  0.14430847212E+02  0.19051926434E+02  0.51100000000E-03 0.  1.
         12    1    3    3    0    0  0.49933752800E+01  0.16324051466E+01  0.10915078151E+02  0.12113524438E+02  0.00000000000E+00 0. -1.
</event>
<event>
 7    1  0.2756432E-009  0.4778727E+02  0.7816164E-02  0.1312668E+00
        -11   -1    0    0    0    0  0.00000000000E+00  0.00000000000E+00  0.45593999997E+02  0.45594000000E+02  0.51100000000E-03 0. -1.
         11   -1    0    0    0    0 -0.00000000000E+00 -0.00000000000E+00 -0.45593999997E+02  0.45594000000E+02  0.51100000000E-03 0.  1.
    9900012    2    1    2    0    0 -0.79781710013E+01 -0.42651492475E+02 -0.90681412923E+00  0.47787270343E+02  0.19999996803E+02 0.  0.
        -12    1    1    2    0    0  0.79781710013E+01  0.42651492475E+02  0.90681412923E+00  0.43400729657E+02  0.00000000000E+00 0.  1.
         11    1    3    3    0    0 -0.12384541437E+01 -0.77917897311E+01  0.31970766874E+01  0.85127583947E+01  0.51100000000E-03 0. -1.
        -11    1    3    3    0    0 -0.92954980132E+01 -0.28743890418E+02  0.19840088349E+01  0.30274639734E+02  0.51100000000E-03 0.  1.
        -12    1    3    3    0    0  0.25557811556E+01 -0.61158123256E+01 -0.60878996515E+01  0.89998722149E+01  0.00000000000E+00 0.  1.
</event>
<event>
 7    1  0.2756432E-009  0.4778727E+02  0.7816164E-02  0.1312668E+00
        -11   -1    0    0    0    0  0.00000000000E+00  0.00000000000E+00  0.45593999997E+02  0.45594000000E+02  0.51100000000E-03 0. -1.
         11   -1    0    0    0    0 -0.00000000000E+00 -0.00000000000E+00 -0.45593999997E+02  0.45594000000E+02  0.51100000000E-03 0.  1.
    9900012    2    1    2    0    0  0.32093298818E+01 -0.42384871124E+02  0.87661908517E+01  0.47787271889E+02  0.20000003852E+02 0.  0.
        -12    1    1    2    0    0 -0.32093298818E+01  0.42384871124E+02 -0.87661908517E+01  0.43400728111E+02  0.00000000000E+00 0.  1.
         11    1    3    3    0    0  0.47135817011E+01 -0.14624118422E+02 -0.74377796504E+00  0.15382974290E+02  0.51100000000E-03 0. -1.
        -11    1    3    3    0    0 -0.14311224822E+01 -0.27482647754E+02  0.11910408791E+02  0.29986694999E+02  0.51100000000E-03 0.  1.
        -12    1    3    3    0    0 -0.73129337132E-01 -0.27810494794E+00 -0.24004399748E+01  0.24176026006E+01  0.00000000000E+00 0.  1.
</event>
<event>
 7    1  0.2756432E-009  0.4778727E+02  0.7816164E-02  0.1312668E+00
        -11   -1    0    0    0    0  0.00000000000E+00  0.00000000000E+00  0.45593999997E+02  0.45594000000E+02  0.51100000000E-03 0.  1.
         11   -1    0    0    0    0 -0.00000000000E+00 -0.00000000000E+00 -0.45593999997E+02  0.45594000000E+02  0.51100000000E-03 0. -1.
    9900012    2    1    2    0    0  0.22311471712E+02 -0.36603482113E+02 -0.67828193876E+01  0.47787270610E+02  0.19999998018E+02 0.  0.
        -12    1    1    2    0    0 -0.22311471712E+02  0.36603482113E+02  0.67828193876E+01  0.43400729390E+02  0.00000000000E+00 0.  1.
         11    1    3    3    0    0  0.16695036877E+02 -0.26520837932E+02  0.51214651799E+00  0.31342325939E+02  0.51100000000E-03 0. -1.
        -11    1    3    3    0    0  0.47295735910E+01 -0.11656338700E+02 -0.50295978787E+01  0.13547544180E+02  0.51100000000E-03 0.  1.
         12    1    3    3    0    0  0.88686124406E+00  0.15736945187E+01 -0.22653680270E+01  0.28974004904E+01  0.00000000000E+00 0. -1.
</event>
<event>
 7    1  0.2756432E-009  0.4778727E+02  0.7816164E-02  0.1312668E+00
        -11   -1    0    0    0    0  0.00000000000E+00  0.00000000000E+00  0.45593999997E+02  0.45594000000E+02  0.51100000000E-03 0. -1.
         11   -1    0    0    0    0 -0.00000000000E+00 -0.00000000000E+00 -0.45593999997E+02  0.45594000000E+02  0.51100000000E-03 0.  1.
    9900012    2    1    2    0    0  0.12794114926E+02  0.29902940501E+02  0.28735834430E+02  0.47787269503E+02  0.19999992970E+02 0.  0.
        -12    1    1    2    0    0 -0.12794114926E+02 -0.29902940501E+02 -0.28735834430E+02  0.43400730497E+02  0.00000000000E+00 0.  1.
         11    1    3    3    0    0  0.12089566381E+01  0.19660478191E+02  0.15305331795E+02  0.24944922539E+02  0.51100000000E-03 0. -1.
        -11    1    3    3    0    0 -0.10974382914E+01 -0.87203248354E+00  0.21659933902E+00  0.14183536197E+01  0.51100000000E-03 0.  1.
         12    1    3    3    0    0  0.12682596579E+02  0.11114494793E+02  0.13213903296E+02  0.21423993344E+02  0.00000000000E+00 0. -1.
</event>
<event>
 7    1  0.2756432E-009  0.4778727E+02  0.7816164E-02  0.1312668E+00
        -11   -1    0    0    0    0  0.00000000000E+00  0.00000000000E+00  0.45593999997E+02  0.45594000000E+02  0.51100000000E-03 0.  1.
         11   -1    0    0    0    0 -0.00000000000E+00 -0.00000000000E+00 -0.45593999997E+02  0.45594000000E+02  0.51100000000E-03 0. -1.
    9900012    2    1    2    0    0  0.84651666872E+01 -0.41437411521E+02  0.97419381709E+01  0.47787268671E+02  0.19999989178E+02 0.  0.
        -12    1    1    2    0    0 -0.84651666872E+01  0.41437411521E+02 -0.97419381709E+01  0.43400731329E+02  0.00000000000E+00 0.  1.
         11    1    3    3    0    0 -0.69931735790E+00 -0.17020518665E+02  0.40558089205E+01  0.17511044705E+02  0.51100000000E-03 0. -1.
        -11    1    3    3    0    0  0.11585284082E+02 -0.24415510375E+02  0.39837633963E+01  0.27316777357E+02  0.51100000000E-03 0.  1.
        -12    1    3    3    0    0 -0.24208000371E+01 -0.13824811725E-02  0.17023658540E+01  0.29594466090E+01  0.00000000000E+00 0.  1.
</event>
<event>
 7    1  0.2756432E-009  0.4778727E+02  0.7816164E-02  0.1312668E+00
        -11   -1    0    0    0    0  0.00000000000E+00  0.00000000000E+00  0.45593999997E+02  0.45594000000E+02  0.51100000000E-03 0.  1.
         11   -1    0    0    0    0 -0.00000000000E+00 -0.00000000000E+00 -0.45593999997E+02  0.45594000000E+02  0.51100000000E-03 0. -1.
    9900012    2    1    2    0    0  0.76403472991E+01  0.90144398594E+01 -0.41761086381E+02  0.47787269954E+02  0.19999995028E+02 0.  0.
        -12    1    1    2    0    0 -0.76403472991E+01 -0.90144398594E+01  0.41761086381E+02  0.43400730046E+02  0.00000000000E+00 0.  1.
         11    1    3    3    0    0  0.64718346761E+01  0.42064450857E+01 -0.39776547180E+02  0.40518545509E+02  0.51100000000E-03 0. -1.
        -11    1    3    3    0    0  0.22563861282E+01  0.16573900325E+01  0.81499040376E+00  0.29158926075E+01  0.51100000000E-03 0.  1.
        -12    1    3    3    0    0 -0.10878735052E+01  0.31506047412E+01 -0.27995296040E+01  0.43528318371E+01  0.00000000000E+00 0.  1.
</event>
<event>
 7    1  0.2756432E-009  0.4778727E+02  0.7816164E-02  0.1312668E+00
        -11   -1    0    0    0    0  0.00000000000E+00  0.00000000000E+00  0.45593999997E+02  0.45594000000E+02  0.51100000000E-03 0.  1.
         11   -1    0    0    0    0 -0.00000000000E+00 -0.00000000000E+00 -0.45593999997E+02  0.45594000000E+02  0.51100000000E-03 0. -1.
    9900012    2    1    2    0    0 -0.31423196625E+01  0.43009059816E+02  0.48959222077E+01  0.47787268976E+02  0.19999990570E+02 0.  0.
        -12    1    1    2    0    0  0.31423196625E+01 -0.43009059816E+02 -0.48959222077E+01  0.43400731024E+02  0.00000000000E+00 0.  1.
         11    1    3    3    0    0  0.73638403580E+01  0.10981306940E+02  0.35887665604E+01  0.13700163963E+02  0.51100000000E-03 0.  1.
        -11    1    3    3    0    0 -0.69441667119E+01  0.25788522694E+02 -0.36942852329E+00  0.26709658024E+02  0.51100000000E-03 0. -1.
        -12    1    3    3    0    0 -0.35619933086E+01  0.62392301821E+01  0.16765841705E+01  0.73774469891E+01  0.00000000000E+00 0.  1.
</event>
<event>
 7    1  0.3242102E-009  0.4778728E+02  0.7816164E-02  0.1312668E+00
        -11   -1    0    0    0    0  0.00000000000E+00  0.00000000000E+00  0.45593999997E+02  0.45594000000E+02  0.51100000000E-03 0.  1.
         11   -1    0    0    0    0 -0.00000000000E+00 -0.00000000000E+00 -0.45593999997E+02  0.45594000000E+02  0.51100000000E-03 0. -1.
    9900012    2    1    2    0    0 -0.28553055314E+02  0.85647417533E+01 -0.31543475024E+02  0.47787278973E+02  0.20000036149E+02 0.  0.
        -12    1    1    2    0    0  0.28553055314E+02 -0.85647417533E+01  0.31543475024E+02  0.43400721027E+02  0.00000000000E+00 0.  1.
         11    1    3    3    0    0 -0.14222838427E+02  0.25310667772E+01 -0.16845663514E+02  0.22191705915E+02  0.51100000000E-03 0. -1.
        -11    1    3    3    0    0 -0.72252101614E+01  0.44428479510E+01  0.75293616980E+00  0.85152494344E+01  0.51100000000E-03 0.  1.
        -12    1    3    3    0    0 -0.71050067253E+01  0.15908270251E+01 -0.15450747681E+02  0.17080323623E+02  0.00000000000E+00 0.  1.
</event>
<event>
 7    1  0.2756432E-009  0.4778727E+02  0.7816164E-02  0.1312668E+00
        -11   -1    0    0    0    0  0.00000000000E+00  0.00000000000E+00  0.45593999997E+02  0.45594000000E+02  0.51100000000E-03 0. -1.
         11   -1    0    0    0    0 -0.00000000000E+00 -0.00000000000E+00 -0.45593999997E+02  0.45594000000E+02  0.51100000000E-03 0.  1.
    9900012    2    1    2    0    0  0.10765904825E+02  0.41607619108E+02  0.60435728043E+01  0.47787269053E+02  0.19999990919E+02 0.  0.
        -12    1    1    2    0    0 -0.10765904825E+02 -0.41607619108E+02 -0.60435728043E+01  0.43400730947E+02  0.00000000000E+00 0.  1.
         11    1    3    3    0    0  0.20866284141E+00 -0.15851453574E+01  0.34619476074E+00  0.16358719568E+01  0.51100000000E-03 0. -1.
        -11    1    3    3    0    0  0.28089095254E+01  0.18526301514E+02 -0.27781048617E+01  0.18942853201E+02  0.51100000000E-03 0.  1.
         12    1    3    3    0    0  0.77483324580E+01  0.24666462951E+02  0.84754829053E+01  0.27208543895E+02  0.00000000000E+00 0. -1.
</event>
<event>
 7    1  0.2756432E-009  0.4778727E+02  0.7816164E-02  0.1312668E+00
        -11   -1    0    0    0    0  0.00000000000E+00  0.00000000000E+00  0.45593999997E+02  0.45594000000E+02  0.51100000000E-03 0.  1.
         11   -1    0    0    0    0 -0.00000000000E+00 -0.00000000000E+00 -0.45593999997E+02  0.45594000000E+02  0.51100000000E-03 0. -1.
    9900012    2    1    2    0    0  0.27113392529E+02  0.33866505053E+02 -0.12436712017E+01  0.47787274925E+02  0.20000017695E+02 0.  0.
        -12    1    1    2    0    0 -0.27113392529E+02 -0.33866505053E+02  0.12436712017E+01  0.43400725075E+02  0.00000000000E+00 0.  1.
         11    1    3    3    0    0  0.10067301107E+02  0.22786069676E+02  0.33810894483E+01  0.25139357370E+02  0.51100000000E-03 0. -1.
        -11    1    3    3    0    0  0.43436166819E+01 -0.10543457038E+01  0.47588495387E-01  0.44700017526E+01  0.51100000000E-03 0.  1.
         12    1    3    3    0    0  0.12702474740E+02  0.12134781081E+02 -0.46723491454E+01  0.18177915803E+02  0.00000000000E+00 0. -1.
</event>
<event>
 7    1  0.2756432E-009  0.4778726E+02  0.7816164E-02  0.1312668E+00
        -11   -1    0    0    0    0  0.00000000000E+00  0.00000000000E+00  0.45593999997E+02  0.45594000000E+02  0.51100000000E-03 0. -1.
         11   -1    0    0    0    0 -0.00000000000E+00 -0.00000000000E+00 -0.45593999997E+02  0.45594000000E+02  0.51100000000E-03 0.  1.
    9900012    2    1    2    0    0  0.68851394835E+01 -0.42633578370E+02 -0.43124236528E+01  0.47787260973E+02  0.19999954080E+02 0.  0.
        -12    1    1    2    0    0 -0.68851394835E+01  0.42633578370E+02  0.43124236528E+01  0.43400739027E+02  0.00000000000E+00 0.  1.
         11    1    3    3    0    0  0.67042218829E+01 -0.30723831536E+02 -0.76105044334E+01  0.32354600806E+02  0.51100000000E-03 0. -1.
        -11    1    3    3    0    0 -0.10530069029E+01 -0.17523353223E+01  0.46806022161E+01  0.51075963022E+01  0.51100000000E-03 0.  1.
        -12    1    3    3    0    0  0.12339245035E+01 -0.10157411512E+02 -0.13825214356E+01  0.10325063865E+02  0.00000000000E+00 0.  1.
</event>
<event>
 7    1  0.2756432E-009  0.4778722E+02  0.7816164E-02  0.1312668E+00
        -11   -1    0    0    0    0  0.00000000000E+00  0.00000000000E+00  0.45593999997E+02  0.45594000000E+02  0.51100000000E-03 0.  1.
         11   -1    0    0    0    0 -0.00000000000E+00 -0.00000000000E+00 -0.45593999997E+02  0.45594000000E+02  0.51100000000E-03 0. -1.
    9900012    2    1    2    0    0  0.66774062120E+00 -0.14551608175E+02 -0.40883154959E+02  0.47787221926E+02  0.19999776046E+02 0.  0.
        -12    1    1    2    0    0 -0.66774062120E+00  0.14551608175E+02  0.40883154959E+02  0.43400778074E+02  0.00000000000E+00 0.  1.
         11    1    3    3    0    0  0.40339337392E+01  0.28056009127E+01 -0.75728258400E+01  0.90272758548E+01  0.51100000000E-03 0. -1.
        -11    1    3    3    0    0  0.23744056784E+01 -0.51621380019E+01 -0.57692913535E+01  0.80975424704E+01  0.51100000000E-03 0.  1.
         12    1    3    3    0    0 -0.57405987964E+01 -0.12195071086E+02 -0.27541037766E+02  0.30662403600E+02  0.00000000000E+00 0. -1.
</event>
<event>
 7    1  0.2756432E-009  0.4778728E+02  0.7816164E-02  0.1312668E+00
        -11   -1    0    0    0    0  0.00000000000E+00  0.00000000000E+00  0.45593999997E+02  0.45594000000E+02  0.51100000000E-03 0.  1.
         11   -1    0    0    0    0 -0.00000000000E+00 -0.00000000000E+00 -0.45593999997E+02  0.45594000000E+02  0.51100000000E-03 0. -1.
    9900012    2    1    2    0    0  0.22761912941E+02  0.23674290218E+02 -0.28373331091E+02  0.47787278632E+02  0.20000034596E+02 0.  0.
        -12    1    1    2    0    0 -0.22761912941E+02 -0.23674290218E+02  0.28373331091E+02  0.43400721368E+02  0.00000000000E+00 0.  1.
         11    1    3    3    0    0  0.14064014670E+02  0.11095992647E+02 -0.24151853284E+02  0.30070410353E+02  0.51100000000E-03 0. -1.
        -11    1    3    3    0    0  0.19584029829E+01  0.81102909992E-01  0.14389313608E+01  0.24315516954E+01  0.51100000000E-03 0.  1.
         12    1    3    3    0    0  0.67394952876E+01  0.12497194662E+02 -0.56604091673E+01  0.15285316584E+02  0.00000000000E+00 0. -1.
</event>
<event>
 7    1  0.2756432E-009  0.4778728E+02  0.7816164E-02  0.1312668E+00
        -11   -1    0    0    0    0  0.00000000000E+00  0.00000000000E+00  0.45593999997E+02  0.45594000000E+02  0.51100000000E-03 0.  1.
         11   -1    0    0    0    0 -0.00000000000E+00 -0.00000000000E+00 -0.45593999997E+02  0.45594000000E+02  0.51100000000E-03 0. -1.
    9900012    2    1    2    0    0  0.15158747423E+02  0.11897104829E+02 -0.38888216425E+02  0.47787284528E+02  0.20000061478E+02 0.  0.
        -12    1    1    2    0    0 -0.15158747423E+02 -0.11897104829E+02  0.38888216425E+02  0.43400715472E+02  0.00000000000E+00 0.  1.
         11    1    3    3    0    0  0.11049332695E+02  0.10879209692E+02 -0.13760280382E+02  0.20731383769E+02  0.51100000000E-03 0. -1.
        -11    1    3    3    0    0 -0.59548762219E+00  0.33262519519E+01 -0.37627301513E+01  0.50573408041E+01  0.51100000000E-03 0.  1.
         12    1    3    3    0    0  0.47049023505E+01 -0.23083568146E+01 -0.21365205892E+02  0.21998559955E+02  0.00000000000E+00 0. -1.
</event>
<event>
 7    1  0.2756432E-009  0.4778727E+02  0.7816164E-02  0.1312668E+00
        -11   -1    0    0    0    0  0.00000000000E+00  0.00000000000E+00  0.45593999997E+02  0.45594000000E+02  0.51100000000E-03 0.  1.
         11   -1    0    0    0    0 -0.00000000000E+00 -0.00000000000E+00 -0.45593999997E+02  0.45594000000E+02  0.51100000000E-03 0. -1.
    9900012    2    1    2    0    0 -0.28954900966E+02  0.12398441058E+02 -0.29858265489E+02  0.47787266727E+02  0.19999980316E+02 0.  0.
        -12    1    1    2    0    0  0.28954900966E+02 -0.12398441058E+02  0.29858265489E+02  0.43400733273E+02  0.00000000000E+00 0.  1.
         11    1    3    3    0    0 -0.13363208564E+02 -0.11640863272E+01 -0.77654326648E+01  0.15499431758E+02  0.51100000000E-03 0. -1.
        -11    1    3    3    0    0 -0.14988853623E+02  0.15142397532E+02 -0.18117744936E+02  0.27968028493E+02  0.51100000000E-03 0.  1.
        -12    1    3    3    0    0 -0.60283877900E+00 -0.15798701467E+01 -0.39750878879E+01  0.43198064760E+01  0.00000000000E+00 0.  1.
</event>
<event>
 7    1  0.2756432E-009  0.4778727E+02  0.7816164E-02  0.1312668E+00
        -11   -1    0    0    0    0  0.00000000000E+00  0.00000000000E+00  0.45593999997E+02  0.45594000000E+02  0.51100000000E-03 0.  1.
         11   -1    0    0    0    0 -0.00000000000E+00 -0.00000000000E+00 -0.45593999997E+02  0.45594000000E+02  0.51100000000E-03 0. -1.
    9900012    2    1    2    0    0 -0.60475188126E+01  0.69335628661E+01 -0.42414340159E+02  0.47787273867E+02  0.20000012868E+02 0.  0.
        -12    1    1    2    0    0  0.60475188126E+01 -0.69335628661E+01  0.42414340159E+02  0.43400726133E+02  0.00000000000E+00 0.  1.
         11    1    3    3    0    0 -0.11310042085E+02 -0.24764367554E+00 -0.22835530550E+02  0.25484109462E+02  0.51100000000E-03 0. -1.
        -11    1    3    3    0    0  0.22405697181E+01  0.72955385086E+01 -0.13302253628E+02  0.15336068161E+02  0.51100000000E-03 0.  1.
        -12    1    3    3    0    0  0.30219535541E+01 -0.11433196695E+00 -0.62765559807E+01  0.69670962431E+01  0.00000000000E+00 0.  1.
</event>
<event>
 7    1  0.2756432E-009  0.4778728E+02  0.7816164E-02  0.1312668E+00
        -11   -1    0    0    0    0  0.00000000000E+00  0.00000000000E+00  0.45593999997E+02  0.45594000000E+02  0.51100000000E-03 0. -1.
         11   -1    0    0    0    0 -0.00000000000E+00 -0.00000000000E+00 -0.45593999997E+02  0.45594000000E+02  0.51100000000E-03 0.  1.
    9900012    2    1    2    0    0  0.38279793401E+02  0.20430798472E+02 -0.92874111524E+00  0.47787278012E+02  0.20000031766E+02 0.  0.
        -12    1    1    2    0    0 -0.38279793401E+02 -0.20430798472E+02  0.92874111524E+00  0.43400721988E+02  0.00000000000E+00 0.  1.
         11    1    3    3    0    0  0.10664813679E+01 -0.20005496858E+00  0.13451385861E-01  0.10851662082E+01  0.51100000000E-03 0. -1.
        -11    1    3    3    0    0  0.28841096437E+02  0.96352444831E+01 -0.76272650351E+01  0.31349991262E+02  0.51100000000E-03 0.  1.
        -12    1    3    3    0    0  0.83722155964E+01  0.10995608958E+02  0.66850725340E+01  0.15352120542E+02  0.00000000000E+00 0.  1.
</event>
<event>
 7    1  0.2756432E-009  0.4778727E+02  0.7816164E-02  0.1312668E+00
        -11   -1    0    0    0    0  0.00000000000E+00  0.00000000000E+00  0.45593999997E+02  0.45594000000E+02  0.51100000000E-03 0.  1.
         11   -1    0    0    0    0 -0.00000000000E+00 -0.00000000000E+00 -0.45593999997E+02  0.45594000000E+02  0.51100000000E-03 0. -1.
    9900012    2    1    2    0    0  0.34384680499E+02 -0.24256703333E+02 -0.10626821119E+02  0.47787271473E+02  0.20000001952E+02 0.  0.
        -12    1    1    2    0    0 -0.34384680499E+02  0.24256703333E+02  0.10626821119E+02  0.43400728527E+02  0.00000000000E+00 0.  1.
         11    1    3    3    0    0  0.49761536958E+01 -0.29722441296E+01 -0.75637757072E+01  0.95292730037E+01  0.51100000000E-03 0. -1.
        -11    1    3    3    0    0  0.10393460147E+02 -0.12886608868E+02  0.24907214702E+01  0.16741935242E+02  0.51100000000E-03 0.  1.
         12    1    3    3    0    0  0.19015066657E+02 -0.83978503352E+01 -0.55537668822E+01  0.21516063227E+02  0.00000000000E+00 0. -1.
</event>
<event>
 7    1  0.2756432E-009  0.4778727E+02  0.7816164E-02  0.1312668E+00
        -11   -1    0    0    0    0  0.00000000000E+00  0.00000000000E+00  0.45593999997E+02  0.45594000000E+02  0.51100000000E-03 0.  1.
         11   -1    0    0    0    0 -0.00000000000E+00 -0.00000000000E+00 -0.45593999997E+02  0.45594000000E+02  0.51100000000E-03 0. -1.
    9900012    2    1    2    0    0  0.18186172131E+01 -0.43333088740E+02 -0.15998378244E+01  0.47787269253E+02  0.19999991831E+02 0.  0.
        -12    1    1    2    0    0 -0.18186172131E+01  0.43333088740E+02  0.15998378244E+01  0.43400730747E+02  0.00000000000E+00 0.  1.
         11    1    3    3    0    0 -0.13585556311E+01 -0.40314679582E+02 -0.12930014052E+01  0.40358281877E+02  0.51100000000E-03 0. -1.
        -11    1    3    3    0    0 -0.10536350244E+01 -0.26913368169E+01  0.88263133500E+00  0.30219991664E+01  0.51100000000E-03 0.  1.
         12    1    3    3    0    0  0.42308078686E+01 -0.32707234126E+00 -0.11894677542E+01  0.44069882091E+01  0.00000000000E+00 0. -1.
</event>
<event>
 7    1  0.2756432E-009  0.4778723E+02  0.7816164E-02  0.1312668E+00
        -11   -1    0    0    0    0  0.00000000000E+00  0.00000000000E+00  0.45593999997E+02  0.45594000000E+02  0.51100000000E-03 0. -1.
         11   -1    0    0    0    0 -0.00000000000E+00 -0.00000000000E+00 -0.45593999997E+02  0.45594000000E+02  0.51100000000E-03 0.  1.
    9900012    2    1    2    0    0 -0.18771976522E+02 -0.20835911119E+02  0.33122571746E+02  0.47787227498E+02  0.19999801455E+02 0.  0.
        -12    1    1    2    0    0  0.18771976522E+02  0.20835911119E+02 -0.33122571746E+02  0.43400772502E+02  0.00000000000E+00 0.  1.
         11    1    3    3    0    0 -0.47887843780E+01  0.16564200575E+01  0.79425180880E+01  0.94212407392E+01  0.51100000000E-03 0. -1.
        -11    1    3    3    0    0 -0.54368012960E+01 -0.16835161336E+01  0.90282958905E+01  0.10672542427E+02  0.51100000000E-03 0.  1.
         12    1    3    3    0    0 -0.85463908476E+01 -0.20808815043E+02  0.16151757767E+02  0.27693444332E+02  0.00000000000E+00 0. -1.
</event>
<event>
 7    1  0.2756432E-009  0.4778727E+02  0.7816164E-02  0.1312668E+00
        -11   -1    0    0    0    0  0.00000000000E+00  0.00000000000E+00  0.45593999997E+02  0.45594000000E+02  0.51100000000E-03 0. -1.
         11   -1    0    0    0    0 -0.00000000000E+00 -0.00000000000E+00 -0.45593999997E+02  0.45594000000E+02  0.51100000000E-03 0.  1.
    9900012    2    1    2    0    0  0.23573389183E+02  0.21819066460E+02  0.29186415313E+02  0.47787272154E+02  0.20000005059E+02 0.  0.
        -12    1    1    2    0    0 -0.23573389183E+02 -0.21819066460E+02 -0.29186415313E+02  0.43400727846E+02  0.00000000000E+00 0.  1.
         11    1    3    3    0    0  0.12013205311E+02  0.15145430818E+02  0.17176633862E+02  0.25859967665E+02  0.51100000000E-03 0. -1.
        -11    1    3    3    0    0  0.14025101554E+01  0.76862302636E+01  0.31987754052E+01  0.84425905239E+01  0.51100000000E-03 0.  1.
         12    1    3    3    0    0  0.10157673716E+02 -0.10125946222E+01  0.88110060449E+01  0.13484713965E+02  0.00000000000E+00 0. -1.
</event>
<event>
 7    1  0.3548063E-009  0.4778730E+02  0.7816164E-02  0.1312668E+00
        -11   -1    0    0    0    0  0.00000000000E+00  0.00000000000E+00  0.45593999997E+02  0.45594000000E+02  0.51100000000E-03 0. -1.
         11   -1    0    0    0    0 -0.00000000000E+00 -0.00000000000E+00 -0.45593999997E+02  0.45594000000E+02  0.51100000000E-03 0.  1.
    9900012    2    1    2    0    0  0.27726696538E+02 -0.29584385832E+02  0.15479503847E+02  0.47787301557E+02  0.20000139120E+02 0.  0.
        -12    1    1    2    0    0 -0.27726696538E+02  0.29584385832E+02 -0.15479503847E+02  0.43400698443E+02  0.00000000000E+00 0.  1.
         11    1    3    3    0    0  0.21784784319E+02 -0.20568898787E+02  0.11855994987E+02  0.32221437623E+02  0.51100000000E-03 0. -1.
        -11    1    3    3    0    0  0.38487196117E+01 -0.14377204249E+01 -0.31592478764E+01  0.51827145470E+01  0.51100000000E-03 0.  1.
        -12    1    3    3    0    0  0.20931926072E+01 -0.75777666203E+01  0.67827567368E+01  0.10383149387E+02  0.00000000000E+00 0.  1.
</event>
<event>
 7    1  0.2756432E-009  0.4778728E+02  0.7816164E-02  0.1312668E+00
        -11   -1    0    0    0    0  0.00000000000E+00  0.00000000000E+00  0.45593999997E+02  0.45594000000E+02  0.51100000000E-03 0.  1.
         11   -1    0    0    0    0 -0.00000000000E+00 -0.00000000000E+00 -0.45593999997E+02  0.45594000000E+02  0.51100000000E-03 0. -1.
    9900012    2    1    2    0    0 -0.22842625722E+02  0.21122020374E+02 -0.30260484250E+02  0.47787283398E+02  0.20000056325E+02 0.  0.
        -12    1    1    2    0    0  0.22842625722E+02 -0.21122020374E+02  0.30260484250E+02  0.43400716602E+02  0.00000000000E+00 0.  1.
         11    1    3    3    0    0 -0.47820237362E+01  0.14136111690E+02 -0.21385313891E+02  0.26077366723E+02  0.51100000000E-03 0. -1.
        -11    1    3    3    0    0 -0.80509068677E+01  0.35105909048E+01 -0.17902115501E+01  0.89636046069E+01  0.51100000000E-03 0.  1.
         12    1    3    3    0    0 -0.10009695118E+02  0.34753177795E+01 -0.70849588087E+01  0.12746312068E+02  0.00000000000E+00 0. -1.
</event>
<event>
 7    1  0.2756432E-009  0.4778727E+02  0.7816164E-02  0.1312668E+00
        -11   -1    0    0    0    0  0.00000000000E+00  0.00000000000E+00  0.45593999997E+02  0.45594000000E+02  0.51100000000E-03 0.  1.
         11   -1    0    0    0    0 -0.00000000000E+00 -0.00000000000E+00 -0.45593999997E+02  0.45594000000E+02  0.51100000000E-03 0. -1.
    9900012    2    1    2    0    0  0.18605992034E+02  0.10066719229E+02 -0.37895928703E+02  0.47787272035E+02  0.20000004518E+02 0.  0.
        -12    1    1    2    0    0 -0.18605992034E+02 -0.10066719229E+02  0.37895928703E+02  0.43400727965E+02  0.00000000000E+00 0.  1.
         11    1    3    3    0    0  0.12587190904E+01  0.95685764421E+01 -0.14162665420E+02  0.17138352340E+02  0.51100000000E-03 0. -1.
        -11    1    3    3    0    0  0.12032456218E+02 -0.37328505877E+01 -0.15602946684E+02  0.20054079925E+02  0.51100000000E-03 0.  1.
         12    1    3    3    0    0  0.53148167257E+01  0.42309933749E+01 -0.81303165990E+01  0.10594839771E+02  0.00000000000E+00 0. -1.
</event>
<event>
 7    1  0.2756432E-009  0.4778727E+02  0.7816164E-02  0.1312668E+00
        -11   -1    0    0    0    0  0.00000000000E+00  0.00000000000E+00  0.45593999997E+02  0.45594000000E+02  0.51100000000E-03 0. -1.
         11   -1    0    0    0    0 -0.00000000000E+00 -0.00000000000E+00 -0.45593999997E+02  0.45594000000E+02  0.51100000000E-03 0.  1.
    9900012    2    1    2    0    0 -0.51742787522E+01  0.20283003990E+02  0.38019070271E+02  0.47787272867E+02  0.20000008308E+02 0.  0.
        -12    1    1    2    0    0  0.51742787522E+01 -0.20283003990E+02 -0.38019070271E+02  0.43400727133E+02  0.00000000000E+00 0.  1.
         11    1    3    3    0    0  0.14778901568E+01  0.42136482042E+00  0.65502294739E+01  0.67280914121E+01  0.51100000000E-03 0. -1.
        -11    1    3    3    0    0 -0.45198763297E+01  0.55733797315E+01  0.23477652900E+02  0.24549786753E+02  0.51100000000E-03 0.  1.
        -12    1    3    3    0    0 -0.21322925793E+01  0.14288259438E+02  0.79911878967E+01  0.16509394702E+02  0.00000000000E+00 0.  1.
</event>
<event>
 7    1  0.2756432E-009  0.4778727E+02  0.7816164E-02  0.1312668E+00
        -11   -1    0    0    0    0  0.00000000000E+00  0.00000000000E+00  0.45593999997E+02  0.45594000000E+02  0.51100000000E-03 0. -1.
         11   -1    0    0    0    0 -0.00000000000E+00 -0.00000000000E+00 -0.45593999997E+02  0.45594000000E+02  0.51100000000E-03 0.  1.
    9900012    2    1    2    0    0 -0.31781699914E+02 -0.18352671079E+02  0.23167357146E+02  0.47787269335E+02  0.19999992205E+02 0.  0.
        -12    1    1    2    0    0  0.31781699914E+02  0.18352671079E+02 -0.23167357146E+02  0.43400730665E+02  0.00000000000E+00 0.  1.
         11    1    3    3    0    0  0.50895630707E+00  0.10055777755E+01 -0.11356841250E-02  0.11270424730E+01  0.51100000000E-03 0.  1.
        -11    1    3    3    0    0 -0.32106563168E+02 -0.15830881583E+02  0.23913934848E+02  0.43050255404E+02  0.51100000000E-03 0. -1.
        -12    1    3    3    0    0 -0.18409305242E+00 -0.35273672716E+01 -0.74544201858E+00  0.36099714575E+01  0.00000000000E+00 0.  1.
</event>
<event>
 7    1  0.2756432E-009  0.4778727E+02  0.7816164E-02  0.1312668E+00
        -11   -1    0    0    0    0  0.00000000000E+00  0.00000000000E+00  0.45593999997E+02  0.45594000000E+02  0.51100000000E-03 0.  1.
         11   -1    0    0    0    0 -0.00000000000E+00 -0.00000000000E+00 -0.45593999997E+02  0.45594000000E+02  0.51100000000E-03 0. -1.
    9900012    2    1    2    0    0  0.21812858381E+02 -0.20395801918E+02 -0.31493392440E+02  0.47787270813E+02  0.19999998943E+02 0.  0.
        -12    1    1    2    0    0 -0.21812858381E+02  0.20395801918E+02  0.31493392440E+02  0.43400729187E+02  0.00000000000E+00 0.  1.
         11    1    3    3    0    0 -0.13564418967E+01  0.18874311380E+00 -0.68684358901E+01  0.70036397980E+01  0.51100000000E-03 0. -1.
        -11    1    3    3    0    0  0.23478018030E+02 -0.18353373401E+02 -0.24408874163E+02  0.38520861672E+02  0.51100000000E-03 0.  1.
        -12    1    3    3    0    0 -0.30871775275E+00 -0.22311716315E+01 -0.21608238705E+00  0.22627693426E+01  0.00000000000E+00 0.  1.
</event>
<event>
 7    1  0.2756432E-009  0.4778727E+02  0.7816164E-02  0.1312668E+00
        -11   -1    0    0    0    0  0.00000000000E+00  0.00000000000E+00  0.45593999997E+02  0.45594000000E+02  0.51100000000E-03 0.  1.
         11   -1    0    0    0    0 -0.00000000000E+00 -0.00000000000E+00 -0.45593999997E+02  0.45594000000E+02  0.51100000000E-03 0. -1.
    9900012    2    1    2    0    0 -0.13261225626E+02 -0.16317926914E+02 -0.37966939891E+02  0.47787269953E+02  0.19999995025E+02 0.  0.
        -12    1    1    2    0    0  0.13261225626E+02  0.16317926914E+02  0.37966939891E+02  0.43400730047E+02  0.00000000000E+00 0.  1.
         11    1    3    3    0    0 -0.22925470696E+00 -0.98582395180E+01 -0.10274434350E+02  0.14240837251E+02  0.51100000000E-03 0. -1.
        -11    1    3    3    0    0 -0.11160496867E+02  0.10324539142E+01 -0.16087565595E+02  0.19606948218E+02  0.51100000000E-03 0.  1.
        -12    1    3    3    0    0 -0.18714740524E+01 -0.74921413100E+01 -0.11604939946E+02  0.13939484484E+02  0.00000000000E+00 0.  1.
</event>
<event>
 7    1  0.2756432E-009  0.4778730E+02  0.7816164E-02  0.1312668E+00
        -11   -1    0    0    0    0  0.00000000000E+00  0.00000000000E+00  0.45593999997E+02  0.45594000000E+02  0.51100000000E-03 0. -1.
         11   -1    0    0    0    0 -0.00000000000E+00 -0.00000000000E+00 -0.45593999997E+02  0.45594000000E+02  0.51100000000E-03 0.  1.
    9900012    2    1    2    0    0  0.33129905452E+02 -0.27988780092E+02  0.16303174356E+01  0.47787304369E+02  0.20000151939E+02 0.  0.
        -12    1    1    2    0    0 -0.33129905452E+02  0.27988780092E+02 -0.16303174356E+01  0.43400695631E+02  0.00000000000E+00 0.  1.
         11    1    3    3    0    0  0.60446826921E+01 -0.74985035255E+01 -0.35023260950E+01  0.10248513663E+02  0.51100000000E-03 0. -1.
        -11    1    3    3    0    0  0.20454744196E+02 -0.15943051105E+02  0.10384088683E+02  0.27935760893E+02  0.51100000000E-03 0.  1.
        -12    1    3    3    0    0  0.66304785641E+01 -0.45472254616E+01 -0.52514451523E+01  0.96030298123E+01  0.00000000000E+00 0.  1.
</event>
<event>
 7    1  0.2756432E-009  0.4778726E+02  0.7816164E-02  0.1312668E+00
        -11   -1    0    0    0    0  0.00000000000E+00  0.00000000000E+00  0.45593999997E+02  0.45594000000E+02  0.51100000000E-03 0.  1.
         11   -1    0    0    0    0 -0.00000000000E+00 -0.00000000000E+00 -0.45593999997E+02  0.45594000000E+02  0.51100000000E-03 0. -1.
    9900012    2    1    2    0    0 -0.21562262169E+02  0.29936446755E+02 -0.22858298652E+02  0.47787264852E+02  0.19999971766E+02 0.  0.
        -12    1    1    2    0    0  0.21562262169E+02 -0.29936446755E+02  0.22858298652E+02  0.43400735148E+02  0.00000000000E+00 0.  1.
         11    1    3    3    0    0 -0.91588603232E+01  0.56725371927E+01  0.38214509065E+00  0.10780001658E+02  0.51100000000E-03 0. -1.
        -11    1    3    3    0    0 -0.47215562314E+01  0.11993185630E+02 -0.16767930728E+02  0.21149304858E+02  0.51100000000E-03 0.  1.
         12    1    3    3    0    0 -0.76818456140E+01  0.12270723932E+02 -0.64725130143E+01  0.15857958335E+02  0.00000000000E+00 0. -1.
</event>
<event>
 7    1  0.2756432E-009  0.4778727E+02  0.7816164E-02  0.1312668E+00
        -11   -1    0    0    0    0  0.00000000000E+00  0.00000000000E+00  0.45593999997E+02  0.45594000000E+02  0.51100000000E-03 0.  1.
         11   -1    0    0    0    0 -0.00000000000E+00 -0.00000000000E+00 -0.45593999997E+02  0.45594000000E+02  0.51100000000E-03 0. -1.
    9900012    2    1    2    0    0  0.23274643524E+01  0.27299337593E+02 -0.33659354674E+02  0.47787273273E+02  0.20000010161E+02 0.  0.
        -12    1    1    2    0    0 -0.23274643524E+01 -0.27299337593E+02  0.33659354674E+02  0.43400726727E+02  0.00000000000E+00 0.  1.
         11    1    3    3    0    0  0.37668721051E+01  0.12301719067E+01 -0.85782011132E+00  0.40544424994E+01  0.51100000000E-03 0.  1.
        -11    1    3    3    0    0  0.27816978282E+01  0.11291088126E+01 -0.69210184747E+01  0.75440855315E+01  0.51100000000E-03 0. -1.
         12    1    3    3    0    0 -0.42211055809E+01  0.24940056874E+02 -0.25880516088E+02  0.36188745242E+02  0.00000000000E+00 0. -1.
</event>
<event>
 7    1  0.2756432E-009  0.4778727E+02  0.7816164E-02  0.1312668E+00
        -11   -1    0    0    0    0  0.00000000000E+00  0.00000000000E+00  0.45593999997E+02  0.45594000000E+02  0.51100000000E-03 0.  1.
         11   -1    0    0    0    0 -0.00000000000E+00 -0.00000000000E+00 -0.45593999997E+02  0.45594000000E+02  0.51100000000E-03 0. -1.
    9900012    2    1    2    0    0  0.66771628373E+01  0.21561592184E+01 -0.42829774820E+02  0.47787272618E+02  0.20000007176E+02 0.  0.
        -12    1    1    2    0    0 -0.66771628373E+01 -0.21561592184E+01  0.42829774820E+02  0.43400727382E+02  0.00000000000E+00 0.  1.
         11    1    3    3    0    0  0.45946567481E+01  0.23076470170E+01 -0.14867515201E+02  0.15731468905E+02  0.51100000000E-03 0. -1.
        -11    1    3    3    0    0 -0.38515303644E+01 -0.14523934005E+01 -0.76302076187E+00  0.41863986530E+01  0.51100000000E-03 0.  1.
        -12    1    3    3    0    0  0.59340364536E+01  0.13009056019E+01 -0.27199238857E+02  0.27869405061E+02  0.00000000000E+00 0.  1.
</event>
<event>
 7    1  0.2756432E-009  0.4778725E+02  0.7816164E-02  0.1312668E+00
        -11   -1    0    0    0    0  0.00000000000E+00  0.00000000000E+00  0.45593999997E+02  0.45594000000E+02  0.51100000000E-03 0. -1.
         11   -1    0    0    0    0 -0.00000000000E+00 -0.00000000000E+00 -0.45593999997E+02  0.45594000000E+02  0.51100000000E-03 0.  1.
    9900012    2    1    2    0    0  0.25951039882E+02 -0.24274686423E+02  0.24918027331E+02  0.47787251643E+02  0.19999911540E+02 0.  0.
        -12    1    1    2    0    0 -0.25951039882E+02  0.24274686423E+02 -0.24918027331E+02  0.43400748357E+02  0.00000000000E+00 0.  1.
         11    1    3    3    0    0  0.11860170350E+02 -0.15971729914E+02  0.14082359921E+02  0.24373605773E+02  0.51100000000E-03 0. -1.
        -11    1    3    3    0    0 -0.10596801338E+01  0.20057491329E+01  0.21838599136E+01  0.31488404141E+01  0.51100000000E-03 0.  1.
        -12    1    3    3    0    0  0.15150549666E+02 -0.10308705642E+02  0.86518074959E+01  0.20264805455E+02  0.00000000000E+00 0.  1.
</event>
<event>
 7    1  0.2756432E-009  0.4778727E+02  0.7816164E-02  0.1312668E+00
        -11   -1    0    0    0    0  0.00000000000E+00  0.00000000000E+00  0.45593999997E+02  0.45594000000E+02  0.51100000000E-03 0. -1.
         11   -1    0    0    0    0 -0.00000000000E+00 -0.00000000000E+00 -0.45593999997E+02  0.45594000000E+02  0.51100000000E-03 0.  1.
    9900012    2    1    2    0    0  0.29252134302E+02 -0.50228646319E+01  0.31665548910E+02  0.47787268231E+02  0.19999987172E+02 0.  0.
        -12    1    1    2    0    0 -0.29252134302E+02  0.50228646319E+01 -0.31665548910E+02  0.43400731769E+02  0.00000000000E+00 0.  1.
         11    1    3    3    0    0  0.71392706029E+01 -0.73080612489E+01  0.46181039283E+01  0.11211771854E+02  0.51100000000E-03 0.  1.
        -11    1    3    3    0    0  0.22519923455E+02  0.35704654873E+01  0.23333131093E+02  0.32624073673E+02  0.51100000000E-03 0. -1.
        -12    1    3    3    0    0 -0.40705975591E+00 -0.12852688702E+01  0.37143138890E+01  0.39514227032E+01  0.00000000000E+00 0.  1.
</event>
<event>
 7    1  0.2756432E-009  0.4778727E+02  0.7816164E-02  0.1312668E+00
        -11   -1    0    0    0    0  0.00000000000E+00  0.00000000000E+00  0.45593999997E+02  0.45594000000E+02  0.51100000000E-03 0.  1.
         11   -1    0    0    0    0 -0.00000000000E+00 -0.00000000000E+00 -0.45593999997E+02  0.45594000000E+02  0.51100000000E-03 0. -1.
    9900012    2    1    2    0    0  0.21688008606E+02 -0.20176692920E+02 -0.31719935671E+02  0.47787274505E+02  0.20000015780E+02 0.  0.
        -12    1    1    2    0    0 -0.21688008606E+02  0.20176692920E+02  0.31719935671E+02  0.43400725495E+02  0.00000000000E+00 0.  1.
         11    1    3    3    0    0  0.19471016284E+02 -0.70151343595E+01 -0.20386865947E+02  0.29050936105E+02  0.51100000000E-03 0. -1.
        -11    1    3    3    0    0 -0.18066595162E+01 -0.61428415494E+01 -0.72547959465E+01  0.96762898569E+01  0.51100000000E-03 0.  1.
        -12    1    3    3    0    0  0.40236518389E+01 -0.70187170114E+01 -0.40782737775E+01  0.90600485435E+01  0.00000000000E+00 0.  1.
</event>
<event>
 7    1  0.2756432E-009  0.4778727E+02  0.7816164E-02  0.1312668E+00
        -11   -1    0    0    0    0  0.00000000000E+00  0.00000000000E+00  0.45593999997E+02  0.45594000000E+02  0.51100000000E-03 0.  1.
         11   -1    0    0    0    0 -0.00000000000E+00 -0.00000000000E+00 -0.45593999997E+02  0.45594000000E+02  0.51100000000E-03 0. -1.
    9900012    2    1    2    0    0 -0.11796627585E+02 -0.33408071177E+02 -0.25067176620E+02  0.47787274363E+02  0.20000015130E+02 0.  0.
        -12    1    1    2    0    0  0.11796627585E+02  0.33408071177E+02  0.25067176620E+02  0.43400725637E+02  0.00000000000E+00 0.  1.
         11    1    3    3    0    0 -0.32370235382E+01 -0.18194265412E+02 -0.19254270244E+01  0.18580013045E+02  0.51100000000E-03 0. -1.
        -11    1    3    3    0    0 -0.59667274425E+01 -0.10390090911E+02 -0.18433159199E+02  0.21984930835E+02  0.51100000000E-03 0.  1.
         12    1    3    3    0    0 -0.25928766042E+01 -0.48237148545E+01 -0.47085903967E+01  0.72223304830E+01  0.00000000000E+00 0. -1.
</event>
<event>
 7    1  0.2756432E-009  0.4778727E+02  0.7816164E-02  0.1312668E+00
        -11   -1    0    0    0    0  0.00000000000E+00  0.00000000000E+00  0.45593999997E+02  0.45594000000E+02  0.51100000000E-03 0. -1.
         11   -1    0    0    0    0 -0.00000000000E+00 -0.00000000000E+00 -0.45593999997E+02  0.45594000000E+02  0.51100000000E-03 0.  1.
    9900012    2    1    2    0    0 -0.25439318849E+02  0.28480049639E+02  0.20624037637E+02  0.47787273054E+02  0.20000009164E+02 0.  0.
        -12    1    1    2    0    0  0.25439318849E+02 -0.28480049639E+02 -0.20624037637E+02  0.43400726946E+02  0.00000000000E+00 0.  1.
         11    1    3    3    0    0 -0.83730075466E+01  0.14855562912E+02  0.15644893465E+02  0.23142119535E+02  0.51100000000E-03 0. -1.
        -11    1    3    3    0    0 -0.43331566786E+01 -0.12691735404E+01  0.13907749116E+01  0.47245426650E+01  0.51100000000E-03 0.  1.
         12    1    3    3    0    0 -0.12733154624E+02  0.14893660268E+02  0.35883692604E+01  0.19920610854E+02  0.00000000000E+00 0. -1.
</event>
<event>
 7    1  0.2756432E-009  0.4778728E+02  0.7816164E-02  0.1312668E+00
        -11   -1    0    0    0    0  0.00000000000E+00  0.00000000000E+00  0.45593999997E+02  0.45594000000E+02  0.51100000000E-03 0.  1.
         11   -1    0    0    0    0 -0.00000000000E+00 -0.00000000000E+00 -0.45593999997E+02  0.45594000000E+02  0.51100000000E-03 0. -1.
    9900012    2    1    2    0    0  0.20422989816E+02 -0.11997126060E+02 -0.36367476352E+02  0.47787275549E+02  0.20000020536E+02 0.  0.
        -12    1    1    2    0    0 -0.20422989816E+02  0.11997126060E+02  0.36367476352E+02  0.43400724451E+02  0.00000000000E+00 0.  1.
         11    1    3    3    0    0  0.13083692598E+02 -0.15854613590E+01 -0.11534960001E+02  0.17514337048E+02  0.51100000000E-03 0. -1.
        -11    1    3    3    0    0  0.36217989235E+01 -0.11253827363E+02 -0.11835734205E+02  0.16728737615E+02  0.51100000000E-03 0.  1.
        -12    1    3    3    0    0  0.37174982940E+01  0.84216266134E+00 -0.12996782145E+02  0.13544200886E+02  0.00000000000E+00 0.  1.
</event>
<event>
 7    1  0.2756432E-009  0.4778727E+02  0.7816164E-02  0.1312668E+00
        -11   -1    0    0    0    0  0.00000000000E+00  0.00000000000E+00  0.45593999997E+02  0.45594000000E+02  0.51100000000E-03 0.  1.
         11   -1    0    0    0    0 -0.00000000000E+00 -0.00000000000E+00 -0.45593999997E+02  0.45594000000E+02  0.51100000000E-03 0. -1.
    9900012    2    1    2    0    0 -0.25385579263E+00  0.37252572591E+02 -0.22266664910E+02  0.47787274504E+02  0.20000015773E+02 0.  0.
        -12    1    1    2    0    0  0.25385579263E+00 -0.37252572591E+02  0.22266664910E+02  0.43400725496E+02  0.00000000000E+00 0.  1.
         11    1    3    3    0    0  0.73457889808E+00  0.45801800510E+01 -0.98626254417E+01  0.10899038321E+02  0.51100000000E-03 0. -1.
        -11    1    3    3    0    0 -0.60400633792E+01  0.22888158473E+02 -0.94430426509E+01  0.25485706164E+02  0.51100000000E-03 0.  1.
        -12    1    3    3    0    0  0.50516286884E+01  0.97842340664E+01 -0.29609968173E+01  0.11402530019E+02  0.00000000000E+00 0.  1.
</event>
<event>
 7    1  0.2756432E-009  0.4778728E+02  0.7816164E-02  0.1312668E+00
        -11   -1    0    0    0    0  0.00000000000E+00  0.00000000000E+00  0.45593999997E+02  0.45594000000E+02  0.51100000000E-03 0.  1.
         11   -1    0    0    0    0 -0.00000000000E+00 -0.00000000000E+00 -0.45593999997E+02  0.45594000000E+02  0.51100000000E-03 0. -1.
    9900012    2    1    2    0    0 -0.15389325254E+01 -0.15907980442E+02 -0.40350842779E+02  0.47787278024E+02  0.20000031821E+02 0.  0.
        -12    1    1    2    0    0  0.15389325254E+01  0.15907980442E+02  0.40350842779E+02  0.43400721976E+02  0.00000000000E+00 0.  1.
         11    1    3    3    0    0  0.63822567829E+00 -0.52450244279E+01 -0.99585129288E+01  0.11273402028E+02  0.51100000000E-03 0. -1.
        -11    1    3    3    0    0 -0.91567538103E+01 -0.84214121683E+01 -0.22716037797E+02  0.25899511515E+02  0.51100000000E-03 0.  1.
        -12    1    3    3    0    0  0.69795956066E+01 -0.22415438460E+01 -0.76762920531E+01  0.10614364481E+02  0.00000000000E+00 0.  1.
</event>
<event>
 7    1  0.2756432E-009  0.4778727E+02  0.7816164E-02  0.1312668E+00
        -11   -1    0    0    0    0  0.00000000000E+00  0.00000000000E+00  0.45593999997E+02  0.45594000000E+02  0.51100000000E-03 0. -1.
         11   -1    0    0    0    0 -0.00000000000E+00 -0.00000000000E+00 -0.45593999997E+02  0.45594000000E+02  0.51100000000E-03 0.  1.
    9900012    2    1    2    0    0  0.30167056762E+02 -0.34402633742E+01  0.31011876771E+02  0.47787271589E+02  0.20000002482E+02 0.  0.
        -12    1    1    2    0    0 -0.30167056762E+02  0.34402633742E+01 -0.31011876771E+02  0.43400728411E+02  0.00000000000E+00 0.  1.
         11    1    3    3    0    0  0.11739607037E+02 -0.84173093590E+01  0.21288580775E+02  0.25726895302E+02  0.51100000000E-03 0. -1.
        -11    1    3    3    0    0  0.62349197214E+01  0.34511337109E+01  0.15216237053E+01  0.72869669125E+01  0.51100000000E-03 0.  1.
         12    1    3    3    0    0  0.12192530004E+02  0.15259122739E+01  0.82016722901E+01  0.14773409374E+02  0.00000000000E+00 0. -1.
</event>
<event>
 7    1  0.2756432E-009  0.4778727E+02  0.7816164E-02  0.1312668E+00
        -11   -1    0    0    0    0  0.00000000000E+00  0.00000000000E+00  0.45593999997E+02  0.45594000000E+02  0.51100000000E-03 0. -1.
         11   -1    0    0    0    0 -0.00000000000E+00 -0.00000000000E+00 -0.45593999997E+02  0.45594000000E+02  0.51100000000E-03 0.  1.
    9900012    2    1    2    0    0 -0.30039650599E+02  0.16541776523E+02  0.26600980800E+02  0.47787272377E+02  0.20000006075E+02 0.  0.
        -12    1    1    2    0    0  0.30039650599E+02 -0.16541776523E+02 -0.26600980800E+02  0.43400727623E+02  0.00000000000E+00 0.  1.
         11    1    3    3    0    0 -0.13779718642E+02 -0.59553982891E+00  0.99364498896E+01  0.16999069099E+02  0.51100000000E-03 0. -1.
        -11    1    3    3    0    0 -0.16946162203E+02  0.16566640589E+02  0.17581779293E+02  0.29508387912E+02  0.51100000000E-03 0.  1.
        -12    1    3    3    0    0  0.68623024567E+00  0.57067576293E+00 -0.91724838216E+00  0.12798153660E+01  0.00000000000E+00 0.  1.
</event>
<event>
 7    1  0.2756432E-009  0.4778727E+02  0.7816164E-02  0.1312668E+00
        -11   -1    0    0    0    0  0.00000000000E+00  0.00000000000E+00  0.45593999997E+02  0.45594000000E+02  0.51100000000E-03 0. -1.
         11   -1    0    0    0    0 -0.00000000000E+00 -0.00000000000E+00 -0.45593999997E+02  0.45594000000E+02  0.51100000000E-03 0.  1.
    9900012    2    1    2    0    0  0.34095387481E+02 -0.26230882016E+02  0.57505091361E+01  0.47787274497E+02  0.20000015743E+02 0.  0.
        -12    1    1    2    0    0 -0.34095387481E+02  0.26230882016E+02 -0.57505091361E+01  0.43400725503E+02  0.00000000000E+00 0.  1.
         11    1    3    3    0    0 -0.21035528632E+01 -0.21615170875E+01 -0.14471033776E-01  0.30161731449E+01  0.51100000000E-03 0. -1.
        -11    1    3    3    0    0  0.57802511220E+01 -0.81696538174E+01  0.23366116689E+01  0.10276881866E+02  0.51100000000E-03 0.  1.
         12    1    3    3    0    0  0.30418689222E+02 -0.15899711111E+02  0.34283685010E+01  0.34494219487E+02  0.00000000000E+00 0. -1.
</event>
<event>
 7    1  0.2756432E-009  0.4778727E+02  0.7816164E-02  0.1312668E+00
        -11   -1    0    0    0    0  0.00000000000E+00  0.00000000000E+00  0.45593999997E+02  0.45594000000E+02  0.51100000000E-03 0.  1.
         11   -1    0    0    0    0 -0.00000000000E+00 -0.00000000000E+00 -0.45593999997E+02  0.45594000000E+02  0.51100000000E-03 0. -1.
    9900012    2    1    2    0    0  0.17001249003E+02 -0.90938077788E+01 -0.38882943149E+02  0.47787273329E+02  0.20000010418E+02 0.  0.
        -12    1    1    2    0    0 -0.17001249003E+02  0.90938077788E+01  0.38882943149E+02  0.43400726671E+02  0.00000000000E+00 0.  1.
         11    1    3    3    0    0  0.63269475825E+00 -0.66416246356E+01 -0.12872494628E+02  0.14498710241E+02  0.51100000000E-03 0. -1.
        -11    1    3    3    0    0  0.71354973978E+01  0.38286791770E+01 -0.17384857035E+02  0.19178304454E+02  0.51100000000E-03 0.  1.
         12    1    3    3    0    0  0.92330568468E+01 -0.62808623202E+01 -0.86255914867E+01  0.14110258634E+02  0.00000000000E+00 0. -1.
</event>
<event>
 7    1  0.2756432E-009  0.4778727E+02  0.7816164E-02  0.1312668E+00
        -11   -1    0    0    0    0  0.00000000000E+00  0.00000000000E+00  0.45593999997E+02  0.45594000000E+02  0.51100000000E-03 0. -1.
         11   -1    0    0    0    0 -0.00000000000E+00 -0.00000000000E+00 -0.45593999997E+02  0.45594000000E+02  0.51100000000E-03 0.  1.
    9900012    2    1    2    0    0 -0.19554094754E+02 -0.38558550585E+02 -0.38077421788E+01  0.47787270221E+02  0.19999996246E+02 0.  0.
        -12    1    1    2    0    0  0.19554094754E+02  0.38558550585E+02  0.38077421788E+01  0.43400729779E+02  0.00000000000E+00 0.  1.
         11    1    3    3    0    0 -0.18644494686E+01 -0.75601610781E+01 -0.27195799797E+01  0.82479283990E+01  0.51100000000E-03 0. -1.
        -11    1    3    3    0    0 -0.51886979938E+01 -0.15843409250E+01 -0.49531763520E+01  0.73462016902E+01  0.51100000000E-03 0.  1.
        -12    1    3    3    0    0 -0.12500947292E+02 -0.29414048581E+02  0.38650141530E+01  0.32193140132E+02  0.00000000000E+00 0.  1.
</event>
<event>
 7    1  0.2756432E-009  0.4778726E+02  0.7816164E-02  0.1312668E+00
        -11   -1    0    0    0    0  0.00000000000E+00  0.00000000000E+00  0.45593999997E+02  0.45594000000E+02  0.51100000000E-03 0.  1.
         11   -1    0    0    0    0 -0.00000000000E+00 -0.00000000000E+00 -0.45593999997E+02  0.45594000000E+02  0.51100000000E-03 0. -1.
    9900012    2    1    2    0    0 -0.12748354496E+02 -0.41428054890E+02  0.21954635408E+01  0.47787258825E+02  0.19999944287E+02 0.  0.
        -12    1    1    2    0    0  0.12748354496E+02  0.41428054890E+02 -0.21954635408E+01  0.43400741175E+02  0.00000000000E+00 0.  1.
         11    1    3    3    0    0 -0.68154797120E+01 -0.91836707110E+01 -0.55270205126E+01  0.12701910385E+02  0.51100000000E-03 0. -1.
        -11    1    3    3    0    0  0.16424380658E+01 -0.17641662631E+02  0.50089593553E+01  0.18412374569E+02  0.51100000000E-03 0.  1.
         12    1    3    3    0    0 -0.75753128502E+01 -0.14602721549E+02  0.27135246981E+01  0.16672973871E+02  0.00000000000E+00 0. -1.
</event>
<event>
 7    1  0.2756432E-009  0.4778727E+02  0.7816164E-02  0.1312668E+00
        -11   -1    0    0    0    0  0.00000000000E+00  0.00000000000E+00  0.45593999997E+02  0.45594000000E+02  0.51100000000E-03 0. -1.
         11   -1    0    0    0    0 -0.00000000000E+00 -0.00000000000E+00 -0.45593999997E+02  0.45594000000E+02  0.51100000000E-03 0.  1.
    9900012    2    1    2    0    0  0.40984429810E+02 -0.14164876812E+02 -0.18043746900E+01  0.47787274315E+02  0.20000014913E+02 0.  0.
        -12    1    1    2    0    0 -0.40984429810E+02  0.14164876812E+02  0.18043746900E+01  0.43400725685E+02  0.00000000000E+00 0.  1.
         11    1    3    3    0    0  0.27967671261E+02 -0.10026878385E+02  0.37434008405E+01  0.29945650369E+02  0.51100000000E-03 0. -1.
        -11    1    3    3    0    0  0.72526084827E+01 -0.16576538378E+01 -0.81618801340E+01  0.11043750886E+02  0.51100000000E-03 0.  1.
        -12    1    3    3    0    0  0.57641500665E+01 -0.24803445897E+01  0.26141046035E+01  0.67978730608E+01  0.00000000000E+00 0.  1.
</event>
<event>
 7    1  0.2756432E-009  0.4778727E+02  0.7816164E-02  0.1312668E+00
        -11   -1    0    0    0    0  0.00000000000E+00  0.00000000000E+00  0.45593999997E+02  0.45594000000E+02  0.51100000000E-03 0.  1.
         11   -1    0    0    0    0 -0.00000000000E+00 -0.00000000000E+00 -0.45593999997E+02  0.45594000000E+02  0.51100000000E-03 0. -1.
    9900012    2    1    2    0    0 -0.11228559536E+01  0.41945628075E+02 -0.11087236806E+02  0.47787270282E+02  0.19999996523E+02 0.  0.
        -12    1    1    2    0    0  0.11228559536E+01 -0.41945628075E+02  0.11087236806E+02  0.43400729718E+02  0.00000000000E+00 0.  1.
         11    1    3    3    0    0 -0.71124999236E+01  0.20329074382E+02 -0.10142700261E+02  0.23806160741E+02  0.51100000000E-03 0. -1.
        -11    1    3    3    0    0  0.76683030957E+01  0.16123837163E+02 -0.25052176113E+01  0.18029340331E+02  0.51100000000E-03 0.  1.
        -12    1    3    3    0    0 -0.16786591257E+01  0.54927165298E+01  0.15606810663E+01  0.59517692099E+01  0.00000000000E+00 0.  1.
</event>
<event>
 7    1  0.2756432E-009  0.4778727E+02  0.7816164E-02  0.1312668E+00
        -11   -1    0    0    0    0  0.00000000000E+00  0.00000000000E+00  0.45593999997E+02  0.45594000000E+02  0.51100000000E-03 0.  1.
         11   -1    0    0    0    0 -0.00000000000E+00 -0.00000000000E+00 -0.45593999997E+02  0.45594000000E+02  0.51100000000E-03 0. -1.
    9900012    2    1    2    0    0  0.34287832135E+02  0.20503941256E+02  0.16957490387E+02  0.47787268211E+02  0.19999987083E+02 0.  0.
        -12    1    1    2    0    0 -0.34287832135E+02 -0.20503941256E+02 -0.16957490387E+02  0.43400731789E+02  0.00000000000E+00 0.  1.
         11    1    3    3    0    0  0.18729479042E+02  0.15324415054E+02  0.42340375938E+01  0.24567420633E+02  0.51100000000E-03 0. -1.
        -11    1    3    3    0    0  0.92109696377E+01 -0.24145873553E+01  0.64717064418E+01  0.11513260976E+02  0.51100000000E-03 0.  1.
         12    1    3    3    0    0  0.63473834548E+01  0.75941135577E+01  0.62517463518E+01  0.11706586603E+02  0.00000000000E+00 0. -1.
</event>
<event>
 7    1  0.2756432E-009  0.4778729E+02  0.7816164E-02  0.1312668E+00
        -11   -1    0    0    0    0  0.00000000000E+00  0.00000000000E+00  0.45593999997E+02  0.45594000000E+02  0.51100000000E-03 0.  1.
         11   -1    0    0    0    0 -0.00000000000E+00 -0.00000000000E+00 -0.45593999997E+02  0.45594000000E+02  0.51100000000E-03 0. -1.
    9900012    2    1    2    0    0  0.26213890601E+02  0.29667828471E+02 -0.17784091868E+02  0.47787285372E+02  0.20000065326E+02 0.  0.
        -12    1    1    2    0    0 -0.26213890601E+02 -0.29667828471E+02  0.17784091868E+02  0.43400714628E+02  0.00000000000E+00 0.  1.
         11    1    3    3    0    0  0.24557551277E+02  0.19378290006E+02 -0.19335947168E+02  0.36775947322E+02  0.51100000000E-03 0. -1.
        -11    1    3    3    0    0  0.10711418919E+01  0.54111761455E+01  0.24169168564E+01  0.60224297075E+01  0.51100000000E-03 0.  1.
        -12    1    3    3    0    0  0.58519743253E+00  0.48783623198E+01 -0.86506155561E+00  0.49889083429E+01  0.00000000000E+00 0.  1.
</event>
<event>
 7    1  0.2756432E-009  0.4778727E+02  0.7816164E-02  0.1312668E+00
        -11   -1    0    0    0    0  0.00000000000E+00  0.00000000000E+00  0.45593999997E+02  0.45594000000E+02  0.51100000000E-03 0.  1.
         11   -1    0    0    0    0 -0.00000000000E+00 -0.00000000000E+00 -0.45593999997E+02  0.45594000000E+02  0.51100000000E-03 0. -1.
    9900012    2    1    2    0    0  0.36821575818E+02  0.96865878714E+01 -0.20831817510E+02  0.47787273611E+02  0.20000011703E+02 0.  0.
        -12    1    1    2    0    0 -0.36821575818E+02 -0.96865878714E+01  0.20831817510E+02  0.43400726389E+02  0.00000000000E+00 0.  1.
         11    1    3    3    0    0  0.29435293469E+02  0.34453285065E+01 -0.13008698304E+02  0.32365614809E+02  0.51100000000E-03 0. -1.
        -11    1    3    3    0    0  0.77720482839E+01  0.72564013430E+01 -0.89193621867E+01  0.13878584836E+02  0.51100000000E-03 0.  1.
         12    1    3    3    0    0 -0.38576593464E+00 -0.10151419782E+01  0.10962429810E+01  0.15430739663E+01  0.00000000000E+00 0. -1.
</event>
<event>
 7    1  0.2756432E-009  0.4778727E+02  0.7816164E-02  0.1312668E+00
        -11   -1    0    0    0    0  0.00000000000E+00  0.00000000000E+00  0.45593999997E+02  0.45594000000E+02  0.51100000000E-03 0.  1.
         11   -1    0    0    0    0 -0.00000000000E+00 -0.00000000000E+00 -0.45593999997E+02  0.45594000000E+02  0.51100000000E-03 0. -1.
    9900012    2    1    2    0    0 -0.31657580311E+02  0.28587986026E+02  0.80092380507E+01  0.47787271546E+02  0.20000002288E+02 0.  0.
        -12    1    1    2    0    0  0.31657580311E+02 -0.28587986026E+02 -0.80092380507E+01  0.43400728454E+02  0.00000000000E+00 0.  1.
         11    1    3    3    0    0 -0.23131766900E+02  0.12839892557E+02  0.71379608098E-01  0.26456503474E+02  0.51100000000E-03 0. -1.
        -11    1    3    3    0    0  0.47750772873E+00  0.63634143825E+01  0.47095025368E+01  0.79309816945E+01  0.51100000000E-03 0.  1.
        -12    1    3    3    0    0 -0.90033211397E+01  0.93846790865E+01  0.32283559058E+01  0.13399786377E+02  0.00000000000E+00 0.  1.
</event>
<event>
 7    1  0.2756432E-009  0.4778729E+02  0.7816164E-02  0.1312668E+00
        -11   -1    0    0    0    0  0.00000000000E+00  0.00000000000E+00  0.45593999997E+02  0.45594000000E+02  0.51100000000E-03 0.  1.
         11   -1    0    0    0    0 -0.00000000000E+00 -0.00000000000E+00 -0.45593999997E+02  0.45594000000E+02  0.51100000000E-03 0. -1.
    9900012    2    1    2    0    0  0.27125762672E+02 -0.30181783583E+02 -0.15390736174E+02  0.47787287785E+02  0.20000076328E+02 0.  0.
        -12    1    1    2    0    0 -0.27125762672E+02  0.30181783583E+02  0.15390736174E+02  0.43400712215E+02  0.00000000000E+00 0.  1.
         11    1    3    3    0    0  0.10256579158E+02 -0.73150362709E+01 -0.62875394920E+01  0.14079784260E+02  0.51100000000E-03 0. -1.
        -11    1    3    3    0    0  0.14759149550E+02 -0.25191349815E+02 -0.73326814547E+01  0.30103236014E+02  0.51100000000E-03 0.  1.
        -12    1    3    3    0    0  0.21100339646E+01  0.23246025032E+01 -0.17705152269E+01  0.36042675120E+01  0.00000000000E+00 0.  1.
</event>
<event>
 7    1  0.2756432E-009  0.4778726E+02  0.7816164E-02  0.1312668E+00
        -11   -1    0    0    0    0  0.00000000000E+00  0.00000000000E+00  0.45593999997E+02  0.45594000000E+02  0.51100000000E-03 0. -1.
         11   -1    0    0    0    0 -0.00000000000E+00 -0.00000000000E+00 -0.45593999997E+02  0.45594000000E+02  0.51100000000E-03 0.  1.
    9900012    2    1    2    0    0 -0.43210236315E+02  0.32815421351E+01  0.23940208976E+01  0.47787258333E+02  0.19999942043E+02 0.  0.
        -12    1    1    2    0    0  0.43210236315E+02 -0.32815421351E+01 -0.23940208976E+01  0.43400741667E+02  0.00000000000E+00 0.  1.
         11    1    3    3    0    0 -0.10909671466E+02  0.26167421872E+01  0.45609519105E+01  0.12110761898E+02  0.51100000000E-03 0. -1.
        -11    1    3    3    0    0 -0.21373053976E+02 -0.25536411948E+01 -0.78931829979E+01  0.22926640785E+02  0.51100000000E-03 0.  1.
        -12    1    3    3    0    0 -0.10927510874E+02  0.32184411427E+01  0.57262519849E+01  0.12749855649E+02  0.00000000000E+00 0.  1.
</event>
<event>
 7    1  0.2756432E-009  0.4778727E+02  0.7816164E-02  0.1312668E+00
        -11   -1    0    0    0    0  0.00000000000E+00  0.00000000000E+00  0.45593999997E+02  0.45594000000E+02  0.51100000000E-03 0.  1.
         11   -1    0    0    0    0 -0.00000000000E+00 -0.00000000000E+00 -0.45593999997E+02  0.45594000000E+02  0.51100000000E-03 0. -1.
    9900012    2    1    2    0    0  0.93133886374E+01  0.31590666120E+02 -0.28265065113E+02  0.47787270748E+02  0.19999998647E+02 0.  0.
        -12    1    1    2    0    0 -0.93133886374E+01 -0.31590666120E+02  0.28265065113E+02  0.43400729252E+02  0.00000000000E+00 0.  1.
         11    1    3    3    0    0  0.98745648892E+01  0.22668237993E+02 -0.26391341086E+02  0.36164332291E+02  0.51100000000E-03 0. -1.
        -11    1    3    3    0    0 -0.23538149523E+01  0.82374470842E+01  0.48655889753E+00  0.85809509448E+01  0.51100000000E-03 0.  1.
        -12    1    3    3    0    0  0.17926387005E+01  0.68498104231E+00 -0.23602829248E+01  0.30419875122E+01  0.00000000000E+00 0.  1.
</event>
<event>
 7    1  0.2756432E-009  0.4778727E+02  0.7816164E-02  0.1312668E+00
        -11   -1    0    0    0    0  0.00000000000E+00  0.00000000000E+00  0.45593999997E+02  0.45594000000E+02  0.51100000000E-03 0.  1.
         11   -1    0    0    0    0 -0.00000000000E+00 -0.00000000000E+00 -0.45593999997E+02  0.45594000000E+02  0.51100000000E-03 0. -1.
    9900012    2    1    2    0    0  0.17474661489E+02 -0.17228228594E+02 -0.35797313082E+02  0.47787270991E+02  0.19999999757E+02 0.  0.
        -12    1    1    2    0    0 -0.17474661489E+02  0.17228228594E+02  0.35797313082E+02  0.43400729009E+02  0.00000000000E+00 0.  1.
         11    1    3    3    0    0  0.15475050232E+02 -0.14709338943E+02 -0.21817858595E+02  0.30526394903E+02  0.51100000000E-03 0. -1.
        -11    1    3    3    0    0  0.36806517733E+01  0.26627893405E+01 -0.77696614752E+01  0.90002935646E+01  0.51100000000E-03 0.  1.
         12    1    3    3    0    0 -0.16810405167E+01 -0.51816789909E+01 -0.62097930116E+01  0.82605825237E+01  0.00000000000E+00 0. -1.
</event>
<event>
 7    1  0.2756432E-009  0.4778727E+02  0.7816164E-02  0.1312668E+00
        -11   -1    0    0    0    0  0.00000000000E+00  0.00000000000E+00  0.45593999997E+02  0.45594000000E+02  0.51100000000E-03 0. -1.
         11   -1    0    0    0    0 -0.00000000000E+00 -0.00000000000E+00 -0.45593999997E+02  0.45594000000E+02  0.51100000000E-03 0.  1.
    9900012    2    1    2    0    0 -0.34427579194E+02  0.17443102088E+02  0.19852031988E+02  0.47787271968E+02  0.20000004212E+02 0.  0.
        -12    1    1    2    0    0  0.34427579194E+02 -0.17443102088E+02 -0.19852031988E+02  0.43400728032E+02  0.00000000000E+00 0.  1.
         11    1    3    3    0    0 -0.32289984984E+02  0.10954141005E+02  0.17962781668E+02  0.38539562283E+02  0.51100000000E-03 0. -1.
        -11    1    3    3    0    0 -0.57215280042E+00  0.37367936311E+01 -0.19643152330E+01  0.42602253537E+01  0.51100000000E-03 0.  1.
         12    1    3    3    0    0 -0.15654414098E+01  0.27521674527E+01  0.38535655521E+01  0.49874843318E+01  0.00000000000E+00 0. -1.
</event>
<event>
 7    1  0.2756432E-009  0.4778730E+02  0.7816164E-02  0.1312668E+00
        -11   -1    0    0    0    0  0.00000000000E+00  0.00000000000E+00  0.45593999997E+02  0.45594000000E+02  0.51100000000E-03 0. -1.
         11   -1    0    0    0    0 -0.00000000000E+00 -0.00000000000E+00 -0.45593999997E+02  0.45594000000E+02  0.51100000000E-03 0.  1.
    9900012    2    1    2    0    0  0.34121859502E+01 -0.88665316342E+01  0.42348107597E+02  0.47787301697E+02  0.20000139756E+02 0.  0.
        -12    1    1    2    0    0 -0.34121859502E+01  0.88665316342E+01 -0.42348107597E+02  0.43400698303E+02  0.00000000000E+00 0.  1.
         11    1    3    3    0    0 -0.28755253175E+01 -0.27531926299E+01  0.90344038992E+01  0.98726475469E+01  0.51100000000E-03 0. -1.
        -11    1    3    3    0    0 -0.24262786979E+01 -0.85990947528E+01  0.14487143794E+02  0.17020828254E+02  0.51100000000E-03 0.  1.
        -12    1    3    3    0    0  0.87139899657E+01  0.24857557484E+01  0.18826559903E+02  0.20893825896E+02  0.00000000000E+00 0.  1.
</event>
<event>
 7    1  0.2756432E-009  0.4778727E+02  0.7816164E-02  0.1312668E+00
        -11   -1    0    0    0    0  0.00000000000E+00  0.00000000000E+00  0.45593999997E+02  0.45594000000E+02  0.51100000000E-03 0. -1.
         11   -1    0    0    0    0 -0.00000000000E+00 -0.00000000000E+00 -0.45593999997E+02  0.45594000000E+02  0.51100000000E-03 0.  1.
    9900012    2    1    2    0    0 -0.62250226774E+01  0.40707076580E+02 -0.13704241078E+02  0.47787271728E+02  0.20000003118E+02 0.  0.
        -12    1    1    2    0    0  0.62250226774E+01 -0.40707076580E+02  0.13704241078E+02  0.43400728272E+02  0.00000000000E+00 0.  1.
         11    1    3    3    0    0  0.17792992207E+01  0.38463734611E+01  0.20099306121E+01  0.46904494290E+01  0.51100000000E-03 0. -1.
        -11    1    3    3    0    0 -0.52783183689E+00  0.29615341597E+02 -0.12933901658E+02  0.32320780880E+02  0.51100000000E-03 0.  1.
        -12    1    3    3    0    0 -0.74764900613E+01  0.72453615222E+01 -0.27802700316E+01  0.10776041419E+02  0.00000000000E+00 0.  1.
</event>
<event>
 7    1  0.2756432E-009  0.4778727E+02  0.7816164E-02  0.1312668E+00
        -11   -1    0    0    0    0  0.00000000000E+00  0.00000000000E+00  0.45593999997E+02  0.45594000000E+02  0.51100000000E-03 0.  1.
         11   -1    0    0    0    0 -0.00000000000E+00 -0.00000000000E+00 -0.45593999997E+02  0.45594000000E+02  0.51100000000E-03 0. -1.
    9900012    2    1    2    0    0 -0.43007854285E+02 -0.22606194357E+01 -0.53700817762E+01  0.47787266035E+02  0.19999977159E+02 0.  0.
        -12    1    1    2    0    0  0.43007854285E+02  0.22606194357E+01  0.53700817762E+01  0.43400733965E+02  0.00000000000E+00 0.  1.
         11    1    3    3    0    0 -0.10657590471E+02 -0.12183290211E+01 -0.32399105370E+01  0.11205604883E+02  0.51100000000E-03 0. -1.
        -11    1    3    3    0    0 -0.27998965343E+01 -0.58815689828E+01 -0.11973824046E+01  0.66231411873E+01  0.51100000000E-03 0.  1.
        -12    1    3    3    0    0 -0.29550367280E+02  0.48392785682E+01 -0.93278883459E+00  0.29958519964E+02  0.00000000000E+00 0.  1.
</event>
<event>
 7    1  0.2756432E-009  0.4778727E+02  0.7816164E-02  0.1312668E+00
        -11   -1    0    0    0    0  0.00000000000E+00  0.00000000000E+00  0.45593999997E+02  0.45594000000E+02  0.51100000000E-03 0. -1.
         11   -1    0    0    0    0 -0.00000000000E+00 -0.00000000000E+00 -0.45593999997E+02  0.45594000000E+02  0.51100000000E-03 0.  1.
    9900012    2    1    2    0    0  0.16982412108E+02 -0.32680814378E+01  0.39806288953E+02  0.47787270542E+02  0.19999997707E+02 0.  0.
        -12    1    1    2    0    0 -0.16982412108E+02  0.32680814378E+01 -0.39806288953E+02  0.43400729458E+02  0.00000000000E+00 0.  1.
         11    1    3    3    0    0  0.12054378944E+02 -0.57215187474E+01  0.12406162357E+02  0.18219678735E+02  0.51100000000E-03 0. -1.
        -11    1    3    3    0    0 -0.59741725881E-01  0.34010184382E+01  0.26771296059E+01  0.43286855602E+01  0.51100000000E-03 0.  1.
         12    1    3    3    0    0  0.49877748898E+01 -0.94758112861E+00  0.24722996990E+02  0.25238906246E+02  0.00000000000E+00 0. -1.
</event>
<event>
 7    1  0.2756432E-009  0.4778726E+02  0.7816164E-02  0.1312668E+00
        -11   -1    0    0    0    0  0.00000000000E+00  0.00000000000E+00  0.45593999997E+02  0.45594000000E+02  0.51100000000E-03 0. -1.
         11   -1    0    0    0    0 -0.00000000000E+00 -0.00000000000E+00 -0.45593999997E+02  0.45594000000E+02  0.51100000000E-03 0.  1.
    9900012    2    1    2    0    0  0.14198564148E+02  0.28151986337E+02  0.29824324686E+02  0.47787263813E+02  0.19999967031E+02 0.  0.
        -12    1    1    2    0    0 -0.14198564148E+02 -0.28151986337E+02 -0.29824324686E+02  0.43400736187E+02  0.00000000000E+00 0.  1.
         11    1    3    3    0    0  0.66777162357E+01  0.14768170168E+02  0.11776581030E+02  0.20034435486E+02  0.51100000000E-03 0. -1.
        -11    1    3    3    0    0 -0.11715362437E+01 -0.21775801781E+01  0.52705412693E+01  0.58217658949E+01  0.51100000000E-03 0.  1.
        -12    1    3    3    0    0  0.86923841561E+01  0.15561396347E+02  0.12777202386E+02  0.21931062432E+02  0.00000000000E+00 0.  1.
</event>
<event>
 7    1  0.3455787E-009  0.4778727E+02  0.7816164E-02  0.1312668E+00
        -11   -1    0    0    0    0  0.00000000000E+00  0.00000000000E+00  0.45593999997E+02  0.45594000000E+02  0.51100000000E-03 0. -1.
         11   -1    0    0    0    0 -0.00000000000E+00 -0.00000000000E+00 -0.45593999997E+02  0.45594000000E+02  0.51100000000E-03 0.  1.
    9900012    2    1    2    0    0 -0.42675539322E+02 -0.46867452923E+01 -0.63605360807E+01  0.47787266630E+02  0.19999979872E+02 0.  0.
        -12    1    1    2    0    0  0.42675539322E+02  0.46867452923E+01  0.63605360807E+01  0.43400733370E+02  0.00000000000E+00 0.  1.
         11    1    3    3    0    0 -0.21265763913E+02 -0.41974625193E+01 -0.72366931566E+01  0.22852158202E+02  0.51100000000E-03 0. -1.
        -11    1    3    3    0    0 -0.13823491521E+02  0.47016094496E+01  0.41463974298E+01  0.15178493376E+02  0.51100000000E-03 0.  1.
        -12    1    3    3    0    0 -0.75862838877E+01 -0.51908922227E+01 -0.32702403540E+01  0.97566150516E+01  0.00000000000E+00 0.  1.
</event>
<event>
 7    1  0.2756432E-009  0.4778727E+02  0.7816164E-02  0.1312668E+00
        -11   -1    0    0    0    0  0.00000000000E+00  0.00000000000E+00  0.45593999997E+02  0.45594000000E+02  0.51100000000E-03 0.  1.
         11   -1    0    0    0    0 -0.00000000000E+00 -0.00000000000E+00 -0.45593999997E+02  0.45594000000E+02  0.51100000000E-03 0. -1.
    9900012    2    1    2    0    0  0.19365715701E+02 -0.26802764308E+02 -0.28110567400E+02  0.47787272832E+02  0.20000008149E+02 0.  0.
        -12    1    1    2    0    0 -0.19365715701E+02  0.26802764308E+02  0.28110567400E+02  0.43400727168E+02  0.00000000000E+00 0.  1.
         11    1    3    3    0    0  0.76346820344E-01 -0.24590781371E+01 -0.45586040002E+01  0.51801317371E+01  0.51100000000E-03 0. -1.
        -11    1    3    3    0    0  0.15062868591E+02 -0.12837174025E+02 -0.22991264405E+02  0.30336138290E+02  0.51100000000E-03 0.  1.
        -12    1    3    3    0    0  0.42265002902E+01 -0.11506512146E+02 -0.56069899472E+00  0.12271002805E+02  0.00000000000E+00 0.  1.
</event>
<event>
 7    1  0.2756432E-009  0.4778727E+02  0.7816164E-02  0.1312668E+00
        -11   -1    0    0    0    0  0.00000000000E+00  0.00000000000E+00  0.45593999997E+02  0.45594000000E+02  0.51100000000E-03 0. -1.
         11   -1    0    0    0    0 -0.00000000000E+00 -0.00000000000E+00 -0.45593999997E+02  0.45594000000E+02  0.51100000000E-03 0.  1.
    9900012    2    1    2    0    0  0.25456490426E+02  0.18994324590E+02  0.29577121238E+02  0.47787269912E+02  0.19999994837E+02 0.  0.
        -12    1    1    2    0    0 -0.25456490426E+02 -0.18994324590E+02 -0.29577121238E+02  0.43400730088E+02  0.00000000000E+00 0.  1.
         11    1    3    3    0    0  0.87848140709E+01  0.25561961910E+01  0.20386607975E+02  0.22345489080E+02  0.51100000000E-03 0. -1.
        -11    1    3    3    0    0  0.16478707912E+02  0.15650816511E+02  0.94166924824E+01  0.24600202631E+02  0.51100000000E-03 0.  1.
         12    1    3    3    0    0  0.19296844325E+00  0.78731188810E+00 -0.22617921970E+00  0.84157820115E+00  0.00000000000E+00 0. -1.
</event>
<event>
 7    1  0.2756432E-009  0.4778729E+02  0.7816164E-02  0.1312668E+00
        -11   -1    0    0    0    0  0.00000000000E+00  0.00000000000E+00  0.45593999997E+02  0.45594000000E+02  0.51100000000E-03 0.  1.
         11   -1    0    0    0    0 -0.00000000000E+00 -0.00000000000E+00 -0.45593999997E+02  0.45594000000E+02  0.51100000000E-03 0. -1.
    9900012    2    1    2    0    0 -0.24650026933E+01 -0.21241120079E+02 -0.37767186677E+02  0.47787287909E+02  0.20000076892E+02 0.  0.
        -12    1    1    2    0    0  0.24650026933E+01  0.21241120079E+02  0.37767186677E+02  0.43400712091E+02  0.00000000000E+00 0.  1.
         11    1    3    3    0    0  0.63551707919E+00 -0.15837543161E+02 -0.28906388412E+02  0.32966815840E+02  0.51100000000E-03 0. -1.
        -11    1    3    3    0    0  0.26646041153E+01 -0.51597604315E+01 -0.61053151832E+01  0.84260380102E+01  0.51100000000E-03 0.  1.
         12    1    3    3    0    0 -0.57651238878E+01 -0.24381648646E+00 -0.27554830825E+01  0.63944340593E+01  0.00000000000E+00 0. -1.
</event>
<event>
 7    1  0.2756432E-009  0.4778727E+02  0.7816164E-02  0.1312668E+00
        -11   -1    0    0    0    0  0.00000000000E+00  0.00000000000E+00  0.45593999997E+02  0.45594000000E+02  0.51100000000E-03 0.  1.
         11   -1    0    0    0    0 -0.00000000000E+00 -0.00000000000E+00 -0.45593999997E+02  0.45594000000E+02  0.51100000000E-03 0. -1.
    9900012    2    1    2    0    0  0.40430082600E+02 -0.83964319282E+01  0.13361572453E+02  0.47787271129E+02  0.20000000385E+02 0.  0.
        -12    1    1    2    0    0 -0.40430082600E+02  0.83964319282E+01 -0.13361572453E+02  0.43400728871E+02  0.00000000000E+00 0.  1.
         11    1    3    3    0    0 -0.76078074115E+00  0.24739461824E+01  0.19994083885E+01  0.32706010479E+01  0.51100000000E-03 0. -1.
        -11    1    3    3    0    0  0.22420352039E+02 -0.89931049390E+01  0.56835526416E+01  0.24816343262E+02  0.51100000000E-03 0.  1.
         12    1    3    3    0    0  0.18770511302E+02 -0.18772731716E+01  0.56786114229E+01  0.19700326819E+02  0.00000000000E+00 0. -1.
</event>
<event>
 7    1  0.2756432E-009  0.4778727E+02  0.7816164E-02  0.1312668E+00
        -11   -1    0    0    0    0  0.00000000000E+00  0.00000000000E+00  0.45593999997E+02  0.45594000000E+02  0.51100000000E-03 0. -1.
         11   -1    0    0    0    0 -0.00000000000E+00 -0.00000000000E+00 -0.45593999997E+02  0.45594000000E+02  0.51100000000E-03 0.  1.
    9900012    2    1    2    0    0 -0.43032558540E+02  0.46962724715E+01  0.31252432287E+01  0.47787271724E+02  0.20000003100E+02 0.  0.
        -12    1    1    2    0    0  0.43032558540E+02 -0.46962724715E+01 -0.31252432287E+01  0.43400728276E+02  0.00000000000E+00 0.  1.
         11    1    3    3    0    0 -0.34284415874E+02  0.57890168227E+01  0.61662597061E+01  0.35312273314E+02  0.51100000000E-03 0. -1.
        -11    1    3    3    0    0 -0.66607755067E+01 -0.45035381279E+01 -0.26080869974E+01  0.84528045090E+01  0.51100000000E-03 0.  1.
         12    1    3    3    0    0 -0.20873671591E+01  0.34107937767E+01 -0.43292948002E+00  0.40221939012E+01  0.00000000000E+00 0. -1.
</event>
<event>
 7    1  0.2756432E-009  0.4778726E+02  0.7816164E-02  0.1312668E+00
        -11   -1    0    0    0    0  0.00000000000E+00  0.00000000000E+00  0.45593999997E+02  0.45594000000E+02  0.51100000000E-03 0.  1.
         11   -1    0    0    0    0 -0.00000000000E+00 -0.00000000000E+00 -0.45593999997E+02  0.45594000000E+02  0.51100000000E-03 0. -1.
    9900012    2    1    2    0    0  0.19359842101E+02 -0.19363341096E+02 -0.33673154799E+02  0.47787264768E+02  0.19999971383E+02 0.  0.
        -12    1    1    2    0    0 -0.19359842101E+02  0.19363341096E+02  0.33673154799E+02  0.43400735232E+02  0.00000000000E+00 0.  1.
         11    1    3    3    0    0  0.84677836820E+01 -0.42337999731E+01 -0.11802101708E+02  0.15130037266E+02  0.51100000000E-03 0. -1.
        -11    1    3    3    0    0 -0.39175350468E+01 -0.35935860936E+01 -0.64827966343E+01  0.83837696961E+01  0.51100000000E-03 0.  1.
        -12    1    3    3    0    0  0.14809593466E+02 -0.11535955030E+02 -0.15388256457E+02  0.24273457806E+02  0.00000000000E+00 0.  1.
</event>
<event>
 7    1  0.2756432E-009  0.4778727E+02  0.7816164E-02  0.1312668E+00
        -11   -1    0    0    0    0  0.00000000000E+00  0.00000000000E+00  0.45593999997E+02  0.45594000000E+02  0.51100000000E-03 0. -1.
         11   -1    0    0    0    0 -0.00000000000E+00 -0.00000000000E+00 -0.45593999997E+02  0.45594000000E+02  0.51100000000E-03 0.  1.
    9900012    2    1    2    0    0 -0.81987114348E+01  0.16354284373E+02  0.39356598700E+02  0.47787270193E+02  0.19999996116E+02 0.  0.
        -12    1    1    2    0    0  0.81987114348E+01 -0.16354284373E+02 -0.39356598700E+02  0.43400729807E+02  0.00000000000E+00 0.  1.
         11    1    3    3    0    0 -0.47994753473E+01  0.11938321283E+01  0.18877617202E+02  0.19514728547E+02  0.51100000000E-03 0. -1.
        -11    1    3    3    0    0  0.41935978648E+01  0.58780577574E+01  0.54566945196E+01  0.90505989521E+01  0.51100000000E-03 0.  1.
         12    1    3    3    0    0 -0.75928339523E+01  0.92823944875E+01  0.15022286979E+02  0.19221942694E+02  0.00000000000E+00 0. -1.
</event>
<event>
 7    1  0.2756432E-009  0.4778727E+02  0.7816164E-02  0.1312668E+00
        -11   -1    0    0    0    0  0.00000000000E+00  0.00000000000E+00  0.45593999997E+02  0.45594000000E+02  0.51100000000E-03 0.  1.
         11   -1    0    0    0    0 -0.00000000000E+00 -0.00000000000E+00 -0.45593999997E+02  0.45594000000E+02  0.51100000000E-03 0. -1.
    9900012    2    1    2    0    0  0.15609418684E+02 -0.16257998004E+02 -0.37089710298E+02  0.47787273500E+02  0.20000011195E+02 0.  0.
        -12    1    1    2    0    0 -0.15609418684E+02  0.16257998004E+02  0.37089710298E+02  0.43400726500E+02  0.00000000000E+00 0.  1.
         11    1    3    3    0    0  0.98331117262E+01 -0.10183116551E+02 -0.74530761866E+01  0.15997946550E+02  0.51100000000E-03 0. -1.
        -11    1    3    3    0    0 -0.11512900169E+01  0.10222918834E-01 -0.54958607452E+00  0.12757814568E+01  0.51100000000E-03 0.  1.
         12    1    3    3    0    0  0.69275969744E+01 -0.60851043721E+01 -0.29087048037E+02  0.30513545493E+02  0.00000000000E+00 0. -1.
</event>
<event>
 7    1  0.2756432E-009  0.4778727E+02  0.7816164E-02  0.1312668E+00
        -11   -1    0    0    0    0  0.00000000000E+00  0.00000000000E+00  0.45593999997E+02  0.45594000000E+02  0.51100000000E-03 0.  1.
         11   -1    0    0    0    0 -0.00000000000E+00 -0.00000000000E+00 -0.45593999997E+02  0.45594000000E+02  0.51100000000E-03 0. -1.
    9900012    2    1    2    0    0 -0.67305848473E+01 -0.38792208377E+02 -0.18261634806E+02  0.47787268336E+02  0.19999987653E+02 0.  0.
        -12    1    1    2    0    0  0.67305848473E+01  0.38792208377E+02  0.18261634806E+02  0.43400731664E+02  0.00000000000E+00 0.  1.
         11    1    3    3    0    0  0.25526294601E+01 -0.24156962058E+02 -0.14773140638E+02  0.28430976374E+02  0.51100000000E-03 0. -1.
        -11    1    3    3    0    0 -0.30320629288E+01  0.77793165851E-01 -0.88660514517E+00  0.31599883426E+01  0.51100000000E-03 0.  1.
         12    1    3    3    0    0 -0.62511513786E+01 -0.14713039485E+02 -0.26018890228E+01  0.16196303620E+02  0.00000000000E+00 0. -1.
</event>
<event>
 7    1  0.2756432E-009  0.4778727E+02  0.7816164E-02  0.1312668E+00
        -11   -1    0    0    0    0  0.00000000000E+00  0.00000000000E+00  0.45593999997E+02  0.45594000000E+02  0.51100000000E-03 0.  1.
         11   -1    0    0    0    0 -0.00000000000E+00 -0.00000000000E+00 -0.45593999997E+02  0.45594000000E+02  0.51100000000E-03 0. -1.
    9900012    2    1    2    0    0  0.17528439855E+02  0.33618731794E+02 -0.21122460523E+02  0.47787266484E+02  0.19999979205E+02 0.  0.
        -12    1    1    2    0    0 -0.17528439855E+02 -0.33618731794E+02  0.21122460523E+02  0.43400733516E+02  0.00000000000E+00 0.  1.
         11    1    3    3    0    0  0.94880760027E+01  0.56826211008E+01 -0.47996738466E+00  0.11070055906E+02  0.51100000000E-03 0. -1.
        -11    1    3    3    0    0  0.42271414737E+01  0.19653435346E+02 -0.92607638786E+01  0.22133413515E+02  0.51100000000E-03 0.  1.
        -12    1    3    3    0    0  0.38132223781E+01  0.82826753474E+01 -0.11381729260E+02  0.14583797063E+02  0.00000000000E+00 0.  1.
</event>
<event>
 7    1  0.2756432E-009  0.4778727E+02  0.7816164E-02  0.1312668E+00
        -11   -1    0    0    0    0  0.00000000000E+00  0.00000000000E+00  0.45593999997E+02  0.45594000000E+02  0.51100000000E-03 0. -1.
         11   -1    0    0    0    0 -0.00000000000E+00 -0.00000000000E+00 -0.45593999997E+02  0.45594000000E+02  0.51100000000E-03 0.  1.
    9900012    2    1    2    0    0  0.10653698156E+01  0.14940800302E+02  0.40734027403E+02  0.47787268267E+02  0.19999987337E+02 0.  0.
        -12    1    1    2    0    0 -0.10653698156E+01 -0.14940800302E+02 -0.40734027403E+02  0.43400731733E+02  0.00000000000E+00 0.  1.
         11    1    3    3    0    0 -0.27924509908E+01  0.65068395020E-01  0.20296170974E+02  0.20487473561E+02  0.51100000000E-03 0. -1.
        -11    1    3    3    0    0  0.60203307439E+01  0.59995331634E+01  0.68003390578E+01  0.10885007671E+02  0.51100000000E-03 0.  1.
        -12    1    3    3    0    0 -0.21625099375E+01  0.88761987432E+01  0.13637517371E+02  0.16414787035E+02  0.00000000000E+00 0.  1.
</event>
<event>
 7    1  0.2756432E-009  0.4778727E+02  0.7816164E-02  0.1312668E+00
        -11   -1    0    0    0    0  0.00000000000E+00  0.00000000000E+00  0.45593999997E+02  0.45594000000E+02  0.51100000000E-03 0. -1.
         11   -1    0    0    0    0 -0.00000000000E+00 -0.00000000000E+00 -0.45593999997E+02  0.45594000000E+02  0.51100000000E-03 0.  1.
    9900012    2    1    2    0    0  0.94812888204E+01 -0.11747641098E+02  0.40690553402E+02  0.47787273679E+02  0.20000012011E+02 0.  0.
        -12    1    1    2    0    0 -0.94812888204E+01  0.11747641098E+02 -0.40690553402E+02  0.43400726321E+02  0.00000000000E+00 0.  1.
         11    1    3    3    0    0 -0.18072617934E+01 -0.20482214616E+01  0.29164233584E+01  0.39958643386E+01  0.51100000000E-03 0. -1.
        -11    1    3    3    0    0  0.56895917025E+00 -0.10914260599E+02  0.14678498018E+02  0.18300358010E+02  0.51100000000E-03 0.  1.
         12    1    3    3    0    0  0.10719591444E+02  0.12148409629E+01  0.23095632025E+02  0.25491051331E+02  0.00000000000E+00 0. -1.
</event>
<event>
 7    1  0.2756432E-009  0.4778727E+02  0.7816164E-02  0.1312668E+00
        -11   -1    0    0    0    0  0.00000000000E+00  0.00000000000E+00  0.45593999997E+02  0.45594000000E+02  0.51100000000E-03 0.  1.
         11   -1    0    0    0    0 -0.00000000000E+00 -0.00000000000E+00 -0.45593999997E+02  0.45594000000E+02  0.51100000000E-03 0. -1.
    9900012    2    1    2    0    0 -0.26223031013E+02  0.16597166060E+02 -0.30339903584E+02  0.47787273898E+02  0.20000013010E+02 0.  0.
        -12    1    1    2    0    0  0.26223031013E+02 -0.16597166060E+02  0.30339903584E+02  0.43400726102E+02  0.00000000000E+00 0.  1.
         11    1    3    3    0    0  0.19885504596E-01 -0.29530906232E+01  0.11523614350E+00  0.29554050978E+01  0.51100000000E-03 0. -1.
        -11    1    3    3    0    0 -0.17056171631E+02  0.14659843544E+02 -0.21032024560E+02  0.30792370172E+02  0.51100000000E-03 0.  1.
         12    1    3    3    0    0 -0.91867448867E+01  0.48904131389E+01 -0.94231151669E+01  0.14039498628E+02  0.00000000000E+00 0. -1.
</event>
<event>
 7    1  0.2756432E-009  0.4778727E+02  0.7816164E-02  0.1312668E+00
        -11   -1    0    0    0    0  0.00000000000E+00  0.00000000000E+00  0.45593999997E+02  0.45594000000E+02  0.51100000000E-03 0. -1.
         11   -1    0    0    0    0 -0.00000000000E+00 -0.00000000000E+00 -0.45593999997E+02  0.45594000000E+02  0.51100000000E-03 0.  1.
    9900012    2    1    2    0    0 -0.42646998789E+02 -0.79636421012E+01  0.11989146255E+01  0.47787268468E+02  0.19999988252E+02 0.  0.
        -12    1    1    2    0    0  0.42646998789E+02  0.79636421012E+01 -0.11989146255E+01  0.43400731532E+02  0.00000000000E+00 0.  1.
         11    1    3    3    0    0 -0.38135257413E+02 -0.48701544160E+01  0.56884682336E+01  0.38863542467E+02  0.51100000000E-03 0. -1.
        -11    1    3    3    0    0 -0.47098405741E+01 -0.22141488519E+01 -0.97429608599E+00  0.52947432890E+01  0.51100000000E-03 0.  1.
         12    1    3    3    0    0  0.19809919744E+00 -0.87933883335E+00 -0.35152575221E+01  0.36289827118E+01  0.00000000000E+00 0. -1.
</event>
<event>
 7    1  0.2756432E-009  0.4778727E+02  0.7816164E-02  0.1312668E+00
        -11   -1    0    0    0    0  0.00000000000E+00  0.00000000000E+00  0.45593999997E+02  0.45594000000E+02  0.51100000000E-03 0.  1.
         11   -1    0    0    0    0 -0.00000000000E+00 -0.00000000000E+00 -0.45593999997E+02  0.45594000000E+02  0.51100000000E-03 0. -1.
    9900012    2    1    2    0    0  0.97914580126E+01  0.57147754105E+01 -0.41893818872E+02  0.47787269964E+02  0.19999995073E+02 0.  0.
        -12    1    1    2    0    0 -0.97914580126E+01 -0.57147754105E+01  0.41893818872E+02  0.43400730036E+02  0.00000000000E+00 0.  1.
         11    1    3    3    0    0  0.97177397772E+00  0.61563674012E+01 -0.11108812473E+02  0.12737775279E+02  0.51100000000E-03 0. -1.
        -11    1    3    3    0    0  0.34832237148E+01 -0.68416093714E+01 -0.96520642904E+01  0.12332996861E+02  0.51100000000E-03 0.  1.
        -12    1    3    3    0    0  0.53364603201E+01  0.64000173806E+01 -0.21132942109E+02  0.22716497824E+02  0.00000000000E+00 0.  1.
</event>
<event>
 7    1  0.2756432E-009  0.4778727E+02  0.7816164E-02  0.1312668E+00
        -11   -1    0    0    0    0  0.00000000000E+00  0.00000000000E+00  0.45593999997E+02  0.45594000000E+02  0.51100000000E-03 0.  1.
         11   -1    0    0    0    0 -0.00000000000E+00 -0.00000000000E+00 -0.45593999997E+02  0.45594000000E+02  0.51100000000E-03 0. -1.
    9900012    2    1    2    0    0  0.13235495834E+02 -0.41132912021E+02 -0.40655538039E+01  0.47787268105E+02  0.19999986598E+02 0.  0.
        -12    1    1    2    0    0 -0.13235495834E+02  0.41132912021E+02  0.40655538039E+01  0.43400731895E+02  0.00000000000E+00 0.  1.
         11    1    3    3    0    0  0.10204031131E+02 -0.33164920712E+02 -0.41256272556E+01  0.34943597663E+02  0.51100000000E-03 0. -1.
        -11    1    3    3    0    0  0.49330131054E+00 -0.23118164425E+01  0.45917083538E+01  0.51644580853E+01  0.51100000000E-03 0.  1.
        -12    1    3    3    0    0  0.25381633923E+01 -0.56561748666E+01 -0.45316349021E+01  0.76792123563E+01  0.00000000000E+00 0.  1.
</event>
<event>
 7    1  0.2815642E-009  0.4778727E+02  0.7816164E-02  0.1312668E+00
        -11   -1    0    0    0    0  0.00000000000E+00  0.00000000000E+00  0.45593999997E+02  0.45594000000E+02  0.51100000000E-03 0.  1.
         11   -1    0    0    0    0 -0.00000000000E+00 -0.00000000000E+00 -0.45593999997E+02  0.45594000000E+02  0.51100000000E-03 0. -1.
    9900012    2    1    2    0    0  0.23797808577E+02  0.24359046164E+02 -0.26905842154E+02  0.47787272297E+02  0.20000005711E+02 0.  0.
        -12    1    1    2    0    0 -0.23797808577E+02 -0.24359046164E+02  0.26905842154E+02  0.43400727703E+02  0.00000000000E+00 0.  1.
         11    1    3    3    0    0  0.36946276700E+01  0.62676377313E+01 -0.83002739153E+01  0.11037576893E+02  0.51100000000E-03 0. -1.
        -11    1    3    3    0    0  0.54887694609E+00  0.95933473409E+01 -0.22265169820E+01  0.98636178574E+01  0.51100000000E-03 0.  1.
        -12    1    3    3    0    0  0.19554303961E+02  0.84980610921E+01 -0.16379051257E+02  0.26886077546E+02  0.00000000000E+00 0.  1.
</event>
<event>
 7    1  0.2756432E-009  0.4778727E+02  0.7816164E-02  0.1312668E+00
        -11   -1    0    0    0    0  0.00000000000E+00  0.00000000000E+00  0.45593999997E+02  0.45594000000E+02  0.51100000000E-03 0. -1.
         11   -1    0    0    0    0 -0.00000000000E+00 -0.00000000000E+00 -0.45593999997E+02  0.45594000000E+02  0.51100000000E-03 0.  1.
    9900012    2    1    2    0    0  0.13450282032E+02 -0.11749184881E+02  0.39555910914E+02  0.47787268205E+02  0.19999987052E+02 0.  0.
        -12    1    1    2    0    0 -0.13450282032E+02  0.11749184881E+02 -0.39555910914E+02  0.43400731795E+02  0.00000000000E+00 0.  1.
         11    1    3    3    0    0  0.12356216078E+02 -0.12205802488E+02  0.33087126266E+02  0.37368644811E+02  0.51100000000E-03 0. -1.
        -11    1    3    3    0    0 -0.33419809417E+01  0.14139842959E+01  0.28395179141E+01  0.46077164028E+01  0.51100000000E-03 0.  1.
         12    1    3    3    0    0  0.44360468954E+01 -0.95736668834E+00  0.36292667340E+01  0.58109069912E+01  0.00000000000E+00 0. -1.
</event>
<event>
 7    1  0.2756432E-009  0.4778727E+02  0.7816164E-02  0.1312668E+00
        -11   -1    0    0    0    0  0.00000000000E+00  0.00000000000E+00  0.45593999997E+02  0.45594000000E+02  0.51100000000E-03 0.  1.
         11   -1    0    0    0    0 -0.00000000000E+00 -0.00000000000E+00 -0.45593999997E+02  0.45594000000E+02  0.51100000000E-03 0. -1.
    9900012    2    1    2    0    0  0.19946289307E+01 -0.96026041068E+00 -0.43344232822E+02  0.47787272315E+02  0.20000005793E+02 0.  0.
        -12    1    1    2    0    0 -0.19946289307E+01  0.96026041068E+00  0.43344232822E+02  0.43400727685E+02  0.00000000000E+00 0.  1.
         11    1    3    3    0    0  0.25089626518E-01 -0.66988922768E+01 -0.18887256699E+02  0.20040066195E+02  0.51100000000E-03 0. -1.
        -11    1    3    3    0    0  0.39598577072E+01  0.80218513278E+01 -0.22303565064E+02  0.24030804951E+02  0.51100000000E-03 0.  1.
        -12    1    3    3    0    0 -0.19903184031E+01 -0.22832194617E+01 -0.21534110594E+01  0.37164011687E+01  0.00000000000E+00 0.  1.
</event>
<event>
 7    1  0.2756432E-009  0.4778727E+02  0.7816164E-02  0.1312668E+00
        -11   -1    0    0    0    0  0.00000000000E+00  0.00000000000E+00  0.45593999997E+02  0.45594000000E+02  0.51100000000E-03 0. -1.
         11   -1    0    0    0    0 -0.00000000000E+00 -0.00000000000E+00 -0.45593999997E+02  0.45594000000E+02  0.51100000000E-03 0.  1.
    9900012    2    1    2    0    0 -0.32486972389E+02  0.83238686820E+01  0.27548741201E+02  0.47787270668E+02  0.19999998282E+02 0.  0.
        -12    1    1    2    0    0  0.32486972389E+02 -0.83238686820E+01 -0.27548741201E+02  0.43400729332E+02  0.00000000000E+00 0.  1.
         11    1    3    3    0    0 -0.20974065107E+02  0.68262406236E+01  0.87389117365E+01  0.23725040501E+02  0.51100000000E-03 0. -1.
        -11    1    3    3    0    0  0.10846233973E+01  0.18140957162E+01  0.46452914552E+01  0.51035364353E+01  0.51100000000E-03 0.  1.
        -12    1    3    3    0    0 -0.12597530679E+02 -0.31646765783E+00  0.14164538009E+02  0.18958693732E+02  0.00000000000E+00 0.  1.
</event>
<event>
 7    1  0.2756432E-009  0.4778727E+02  0.7816164E-02  0.1312668E+00
        -11   -1    0    0    0    0  0.00000000000E+00  0.00000000000E+00  0.45593999997E+02  0.45594000000E+02  0.51100000000E-03 0. -1.
         11   -1    0    0    0    0 -0.00000000000E+00 -0.00000000000E+00 -0.45593999997E+02  0.45594000000E+02  0.51100000000E-03 0.  1.
    9900012    2    1    2    0    0 -0.19123055711E+01 -0.43195722305E+02  0.37544267209E+01  0.47787273531E+02  0.20000011335E+02 0.  0.
        -12    1    1    2    0    0  0.19123055711E+01  0.43195722305E+02 -0.37544267209E+01  0.43400726469E+02  0.00000000000E+00 0.  1.
         11    1    3    3    0    0  0.57700788039E+01 -0.11837355110E+02 -0.20285774724E+01  0.13324110186E+02  0.51100000000E-03 0. -1.
        -11    1    3    3    0    0 -0.92811443060E+01 -0.26345499193E+02  0.75115336506E+01  0.28924870015E+02  0.51100000000E-03 0.  1.
        -12    1    3    3    0    0  0.15987599311E+01 -0.50128680018E+01 -0.17285294572E+01  0.55382933296E+01  0.00000000000E+00 0.  1.
</event>
<event>
 7    1  0.2756432E-009  0.4778727E+02  0.7816164E-02  0.1312668E+00
        -11   -1    0    0    0    0  0.00000000000E+00  0.00000000000E+00  0.45593999997E+02  0.45594000000E+02  0.51100000000E-03 0.  1.
         11   -1    0    0    0    0 -0.00000000000E+00 -0.00000000000E+00 -0.45593999997E+02  0.45594000000E+02  0.51100000000E-03 0. -1.
    9900012    2    1    2    0    0 -0.13536830107E+02  0.20106944343E+02 -0.36001224946E+02  0.47787272151E+02  0.20000005047E+02 0.  0.
        -12    1    1    2    0    0  0.13536830107E+02 -0.20106944343E+02  0.36001224946E+02  0.43400727849E+02  0.00000000000E+00 0.  1.
         11    1    3    3    0    0 -0.91578984973E+01  0.11596075533E+02 -0.81451747465E+01  0.16872461129E+02  0.51100000000E-03 0. -1.
        -11    1    3    3    0    0 -0.57624433179E+01  0.75631098213E+01 -0.27632931737E+02  0.29223026876E+02  0.51100000000E-03 0.  1.
        -12    1    3    3    0    0  0.13835117078E+01  0.94775898929E+00 -0.22311846236E+00  0.16917841457E+01  0.00000000000E+00 0.  1.
</event>
<event>
 7    1  0.2756432E-009  0.4778727E+02  0.7816164E-02  0.1312668E+00
        -11   -1    0    0    0    0  0.00000000000E+00  0.00000000000E+00  0.45593999997E+02  0.45594000000E+02  0.51100000000E-03 0.  1.
         11   -1    0    0    0    0 -0.00000000000E+00 -0.00000000000E+00 -0.45593999997E+02  0.45594000000E+02  0.51100000000E-03 0. -1.
    9900012    2    1    2    0    0  0.32024193481E+02  0.15120483896E+02 -0.25088744188E+02  0.47787273206E+02  0.20000009854E+02 0.  0.
        -12    1    1    2    0    0 -0.32024193481E+02 -0.15120483896E+02  0.25088744188E+02  0.43400726794E+02  0.00000000000E+00 0.  1.
         11    1    3    3    0    0  0.43271099603E+01  0.36135967975E+01 -0.29349954337E+01  0.63557974229E+01  0.51100000000E-03 0. -1.
        -11    1    3    3    0    0  0.62089708312E+01  0.95580814064E+01 -0.14706332975E+02  0.18606033128E+02  0.51100000000E-03 0.  1.
        -12    1    3    3    0    0  0.21488112690E+02  0.19488056920E+01 -0.74474157792E+01  0.22825442655E+02  0.00000000000E+00 0.  1.
</event>
<event>
 7    1  0.2756432E-009  0.4778727E+02  0.7816164E-02  0.1312668E+00
        -11   -1    0    0    0    0  0.00000000000E+00  0.00000000000E+00  0.45593999997E+02  0.45594000000E+02  0.51100000000E-03 0.  1.
         11   -1    0    0    0    0 -0.00000000000E+00 -0.00000000000E+00 -0.45593999997E+02  0.45594000000E+02  0.51100000000E-03 0. -1.
    9900012    2    1    2    0    0  0.32661168557E+02 -0.13243940298E+02 -0.25327251794E+02  0.47787267637E+02  0.19999984465E+02 0.  0.
        -12    1    1    2    0    0 -0.32661168557E+02  0.13243940298E+02  0.25327251794E+02  0.43400732363E+02  0.00000000000E+00 0.  1.
         11    1    3    3    0    0  0.21068552582E+02 -0.17191303448E+02 -0.18049094149E+02  0.32637319467E+02  0.51100000000E-03 0. -1.
        -11    1    3    3    0    0  0.73606722444E+01  0.34113422673E+01 -0.19854022334E+01  0.83521598550E+01  0.51100000000E-03 0.  1.
         12    1    3    3    0    0  0.42319437313E+01  0.53602088187E+00 -0.52927554120E+01  0.67977883155E+01  0.00000000000E+00 0. -1.
</event>
<event>
 7    1  0.2756432E-009  0.4778727E+02  0.7816164E-02  0.1312668E+00
        -11   -1    0    0    0    0  0.00000000000E+00  0.00000000000E+00  0.45593999997E+02  0.45594000000E+02  0.51100000000E-03 0.  1.
         11   -1    0    0    0    0 -0.00000000000E+00 -0.00000000000E+00 -0.45593999997E+02  0.45594000000E+02  0.51100000000E-03 0. -1.
    9900012    2    1    2    0    0 -0.38133543790E+02 -0.17749072940E+02 -0.10697023770E+02  0.47787273396E+02  0.20000010722E+02 0.  0.
        -12    1    1    2    0    0  0.38133543790E+02  0.17749072940E+02  0.10697023770E+02  0.43400726604E+02  0.00000000000E+00 0.  1.
         11    1    3    3    0    0 -0.96294494479E+01  0.18429755380E+01 -0.35677217512E+01  0.10433191950E+02  0.51100000000E-03 0. -1.
        -11    1    3    3    0    0 -0.27017337701E+02 -0.19547075603E+02 -0.93936860930E+01  0.34644855892E+02  0.51100000000E-03 0.  1.
        -12    1    3    3    0    0 -0.14867566409E+01 -0.44972875212E-01  0.22643840745E+01  0.27092255546E+01  0.00000000000E+00 0.  1.
</event>
<event>
 7    1  0.2756432E-009  0.4778727E+02  0.7816164E-02  0.1312668E+00
        -11   -1    0    0    0    0  0.00000000000E+00  0.00000000000E+00  0.45593999997E+02  0.45594000000E+02  0.51100000000E-03 0.  1.
         11   -1    0    0    0    0 -0.00000000000E+00 -0.00000000000E+00 -0.45593999997E+02  0.45594000000E+02  0.51100000000E-03 0. -1.
    9900012    2    1    2    0    0 -0.29646236910E+02 -0.56079763824E+01 -0.31197344697E+02  0.47787273299E+02  0.20000010279E+02 0.  0.
        -12    1    1    2    0    0  0.29646236910E+02  0.56079763824E+01  0.31197344697E+02  0.43400726701E+02  0.00000000000E+00 0.  1.
         11    1    3    3    0    0 -0.18088385436E+02 -0.13355564916E+01 -0.27558903682E+02  0.32991916756E+02  0.51100000000E-03 0. -1.
        -11    1    3    3    0    0 -0.45808663841E+01  0.40963986523E+00  0.16281761125E+01  0.48788420104E+01  0.51100000000E-03 0.  1.
        -12    1    3    3    0    0 -0.69769850903E+01 -0.46820597561E+01 -0.52666171271E+01  0.99165145325E+01  0.00000000000E+00 0.  1.
</event>
<event>
 7    1  0.2756432E-009  0.4778727E+02  0.7816164E-02  0.1312668E+00
        -11   -1    0    0    0    0  0.00000000000E+00  0.00000000000E+00  0.45593999997E+02  0.45594000000E+02  0.51100000000E-03 0.  1.
         11   -1    0    0    0    0 -0.00000000000E+00 -0.00000000000E+00 -0.45593999997E+02  0.45594000000E+02  0.51100000000E-03 0. -1.
    9900012    2    1    2    0    0  0.21020283007E+01 -0.18339810648E+02 -0.39279207389E+02  0.47787270620E+02  0.19999998066E+02 0.  0.
        -12    1    1    2    0    0 -0.21020283007E+01  0.18339810648E+02  0.39279207389E+02  0.43400729380E+02  0.00000000000E+00 0.  1.
         11    1    3    3    0    0  0.14332504291E+01 -0.15555251915E+02 -0.14515785128E+02  0.21324354318E+02  0.51100000000E-03 0. -1.
        -11    1    3    3    0    0 -0.21569461029E+01 -0.50928961794E+01 -0.12516861899E+02  0.13684364802E+02  0.51100000000E-03 0.  1.
         12    1    3    3    0    0  0.28257239745E+01  0.23083374461E+01 -0.12246560362E+02  0.12778551501E+02  0.00000000000E+00 0. -1.
</event>
<event>
 7    1  0.2756432E-009  0.4778727E+02  0.7816164E-02  0.1312668E+00
        -11   -1    0    0    0    0  0.00000000000E+00  0.00000000000E+00  0.45593999997E+02  0.45594000000E+02  0.51100000000E-03 0.  1.
         11   -1    0    0    0    0 -0.00000000000E+00 -0.00000000000E+00 -0.45593999997E+02  0.45594000000E+02  0.51100000000E-03 0. -1.
    9900012    2    1    2    0    0  0.33853537862E+02  0.25069072166E+02 -0.10445231857E+02  0.47787271048E+02  0.20000000017E+02 0.  0.
        -12    1    1    2    0    0 -0.33853537862E+02 -0.25069072166E+02  0.10445231857E+02  0.43400728952E+02  0.00000000000E+00 0.  1.
         11    1    3    3    0    0  0.34743709225E+01  0.11561999180E+02 -0.54765660775E+01  0.13256841804E+02  0.51100000000E-03 0. -1.
        -11    1    3    3    0    0  0.10277151681E+01 -0.98144735206E+00  0.11466498488E-01  0.14211154468E+01  0.51100000000E-03 0.  1.
         12    1    3    3    0    0  0.29351451771E+02  0.14488520338E+02 -0.49801322777E+01  0.33109313798E+02  0.00000000000E+00 0. -1.
</event>
<event>
 7    1  0.2756432E-009  0.4778728E+02  0.7816164E-02  0.1312668E+00
        -11   -1    0    0    0    0  0.00000000000E+00  0.00000000000E+00  0.45593999997E+02  0.45594000000E+02  0.51100000000E-03 0. -1.
         11   -1    0    0    0    0 -0.00000000000E+00 -0.00000000000E+00 -0.45593999997E+02  0.45594000000E+02  0.51100000000E-03 0.  1.
    9900012    2    1    2    0    0  0.78604727131E+01  0.42612948846E+02 -0.24438385443E+01  0.47787276648E+02  0.20000025548E+02 0.  0.
        -12    1    1    2    0    0 -0.78604727131E+01 -0.42612948846E+02  0.24438385443E+01  0.43400723352E+02  0.00000000000E+00 0.  1.
         11    1    3    3    0    0  0.50348747159E+01  0.16820964587E+02  0.55411780610E+01  0.18411938182E+02  0.51100000000E-03 0. -1.
        -11    1    3    3    0    0 -0.34447687420E+01  0.17605764571E+02 -0.45657388073E+01  0.18511492348E+02  0.51100000000E-03 0.  1.
         12    1    3    3    0    0  0.62703667392E+01  0.81862196881E+01 -0.34192777980E+01  0.10863846118E+02  0.00000000000E+00 0. -1.
</event>
<event>
 7    1  0.2756432E-009  0.4778727E+02  0.7816164E-02  0.1312668E+00
        -11   -1    0    0    0    0  0.00000000000E+00  0.00000000000E+00  0.45593999997E+02  0.45594000000E+02  0.51100000000E-03 0.  1.
         11   -1    0    0    0    0 -0.00000000000E+00 -0.00000000000E+00 -0.45593999997E+02  0.45594000000E+02  0.51100000000E-03 0. -1.
    9900012    2    1    2    0    0  0.38717771296E+02  0.16444549185E+02  0.10683361563E+02  0.47787271593E+02  0.20000002501E+02 0.  0.
        -12    1    1    2    0    0 -0.38717771296E+02 -0.16444549185E+02 -0.10683361563E+02  0.43400728407E+02  0.00000000000E+00 0.  1.
         11    1    3    3    0    0  0.99710987752E+00  0.51922473931E+01 -0.13703307331E+01  0.54618190814E+01  0.51100000000E-03 0. -1.
        -11    1    3    3    0    0  0.34523656364E+01 -0.99291398205E+00  0.33427022311E+01  0.49069710749E+01  0.51100000000E-03 0.  1.
         12    1    3    3    0    0  0.34268295782E+02  0.12245215774E+02  0.87109900648E+01  0.37418481437E+02  0.00000000000E+00 0. -1.
</event>
<event>
 7    1  0.2756432E-009  0.4778727E+02  0.7816164E-02  0.1312668E+00
        -11   -1    0    0    0    0  0.00000000000E+00  0.00000000000E+00  0.45593999997E+02  0.45594000000E+02  0.51100000000E-03 0.  1.
         11   -1    0    0    0    0 -0.00000000000E+00 -0.00000000000E+00 -0.45593999997E+02  0.45594000000E+02  0.51100000000E-03 0. -1.
    9900012    2    1    2    0    0 -0.36048221804E+02 -0.13529377845E+02 -0.20027605524E+02  0.47787270247E+02  0.19999996362E+02 0.  0.
        -12    1    1    2    0    0  0.36048221804E+02  0.13529377845E+02  0.20027605524E+02  0.43400729753E+02  0.00000000000E+00 0.  1.
         11    1    3    3    0    0 -0.20033014768E+02 -0.10440260366E+02 -0.18500244672E+01  0.22665906291E+02  0.51100000000E-03 0. -1.
        -11    1    3    3    0    0 -0.15772889504E+02 -0.30845258981E+01 -0.15158266211E+02  0.22092337543E+02  0.51100000000E-03 0.  1.
        -12    1    3    3    0    0 -0.24231753182E+00 -0.45915808047E-02 -0.30193148455E+01  0.30290264120E+01  0.00000000000E+00 0.  1.
</event>
<event>
 7    1  0.2756432E-009  0.4778727E+02  0.7816164E-02  0.1312668E+00
        -11   -1    0    0    0    0  0.00000000000E+00  0.00000000000E+00  0.45593999997E+02  0.45594000000E+02  0.51100000000E-03 0.  1.
         11   -1    0    0    0    0 -0.00000000000E+00 -0.00000000000E+00 -0.45593999997E+02  0.45594000000E+02  0.51100000000E-03 0. -1.
    9900012    2    1    2    0    0 -0.32016187471E+02 -0.16705408647E+02 -0.24073141325E+02  0.47787273376E+02  0.20000010629E+02 0.  0.
        -12    1    1    2    0    0  0.32016187471E+02  0.16705408647E+02  0.24073141325E+02  0.43400726624E+02  0.00000000000E+00 0.  1.
         11    1    3    3    0    0 -0.26284338293E+02 -0.15190973664E+02 -0.12138483291E+02  0.32695181559E+02  0.51100000000E-03 0. -1.
        -11    1    3    3    0    0  0.55162126099E+00 -0.14996644595E+01 -0.67772239826E+01  0.69630485191E+01  0.51100000000E-03 0.  1.
         12    1    3    3    0    0 -0.62834704393E+01 -0.14770524293E-01 -0.51574340520E+01  0.81290432974E+01  0.00000000000E+00 0. -1.
</event>
<event>
 7    1  0.4058481E-009  0.4778727E+02  0.7816164E-02  0.1312668E+00
        -11   -1    0    0    0    0  0.00000000000E+00  0.00000000000E+00  0.45593999997E+02  0.45594000000E+02  0.51100000000E-03 0.  1.
         11   -1    0    0    0    0 -0.00000000000E+00 -0.00000000000E+00 -0.45593999997E+02  0.45594000000E+02  0.51100000000E-03 0. -1.
    9900012    2    1    2    0    0  0.31838876606E+02 -0.72160676667E+00 -0.29485394740E+02  0.47787270941E+02  0.19999999529E+02 0.  0.
        -12    1    1    2    0    0 -0.31838876606E+02  0.72160676667E+00  0.29485394740E+02  0.43400729059E+02  0.00000000000E+00 0.  1.
         11    1    3    3    0    0  0.40829528729E+01 -0.26960449405E+00 -0.77243665394E+01  0.87412258547E+01  0.51100000000E-03 0. -1.
        -11    1    3    3    0    0  0.30134300078E+01 -0.62858973421E+01 -0.53617095968E+01  0.87943843371E+01  0.51100000000E-03 0.  1.
        -12    1    3    3    0    0  0.24742493725E+02  0.58338950695E+01 -0.16399318604E+02  0.30251660749E+02  0.00000000000E+00 0.  1.
</event>
<event>
 7    1  0.2756432E-009  0.4778727E+02  0.7816164E-02  0.1312668E+00
        -11   -1    0    0    0    0  0.00000000000E+00  0.00000000000E+00  0.45593999997E+02  0.45594000000E+02  0.51100000000E-03 0.  1.
         11   -1    0    0    0    0 -0.00000000000E+00 -0.00000000000E+00 -0.45593999997E+02  0.45594000000E+02  0.51100000000E-03 0. -1.
    9900012    2    1    2    0    0  0.22470654685E+02  0.13741595725E+02 -0.34494366585E+02  0.47787273034E+02  0.20000009073E+02 0.  0.
        -12    1    1    2    0    0 -0.22470654685E+02 -0.13741595725E+02  0.34494366585E+02  0.43400726966E+02  0.00000000000E+00 0.  1.
         11    1    3    3    0    0  0.13718320718E+02  0.96028891687E+01 -0.30771197492E+02  0.35032476348E+02  0.51100000000E-03 0. -1.
        -11    1    3    3    0    0  0.68552038033E+01  0.35506333886E+01  0.85207157714E+00  0.77670356558E+01  0.51100000000E-03 0.  1.
        -12    1    3    3    0    0  0.18971301634E+01  0.58807316751E+00 -0.45752406701E+01  0.49877610304E+01  0.00000000000E+00 0.  1.
</event>
<event>
 7    1  0.2756432E-009  0.4778727E+02  0.7816164E-02  0.1312668E+00
        -11   -1    0    0    0    0  0.00000000000E+00  0.00000000000E+00  0.45593999997E+02  0.45594000000E+02  0.51100000000E-03 0.  1.
         11   -1    0    0    0    0 -0.00000000000E+00 -0.00000000000E+00 -0.45593999997E+02  0.45594000000E+02  0.51100000000E-03 0. -1.
    9900012    2    1    2    0    0 -0.28377586614E+02 -0.21692570889E+02 -0.24652958959E+02  0.47787269140E+02  0.19999991315E+02 0.  0.
        -12    1    1    2    0    0  0.28377586614E+02  0.21692570889E+02  0.24652958959E+02  0.43400730860E+02  0.00000000000E+00 0.  1.
         11    1    3    3    0    0 -0.21127932412E+02 -0.20276772075E+02 -0.18723261115E+02  0.34757697289E+02  0.51100000000E-03 0. -1.
        -11    1    3    3    0    0 -0.45798773995E+00 -0.39097665223E+00  0.22611718364E+01  0.23399815912E+01  0.51100000000E-03 0.  1.
         12    1    3    3    0    0 -0.67916664621E+01 -0.10248221615E+01 -0.81908696803E+01  0.10689590259E+02  0.00000000000E+00 0. -1.
</event>
<event>
 7    1  0.2756432E-009  0.4778727E+02  0.7816164E-02  0.1312668E+00
        -11   -1    0    0    0    0  0.00000000000E+00  0.00000000000E+00  0.45593999997E+02  0.45594000000E+02  0.51100000000E-03 0. -1.
         11   -1    0    0    0    0 -0.00000000000E+00 -0.00000000000E+00 -0.45593999997E+02  0.45594000000E+02  0.51100000000E-03 0.  1.
    9900012    2    1    2    0    0  0.75128991527E+01 -0.15019254787E+02  0.40020016160E+02  0.47787270035E+02  0.19999995399E+02 0.  0.
        -12    1    1    2    0    0 -0.75128991527E+01  0.15019254787E+02 -0.40020016160E+02  0.43400729965E+02  0.00000000000E+00 0.  1.
         11    1    3    3    0    0 -0.50405871734E+01 -0.27704639162E+01  0.17461912186E+02  0.18384813483E+02  0.51100000000E-03 0. -1.
        -11    1    3    3    0    0  0.13228875848E+02 -0.10562118100E+02  0.21225453468E+02  0.27149242534E+02  0.51100000000E-03 0.  1.
        -12    1    3    3    0    0 -0.67538952215E+00 -0.16866727708E+01  0.13326505059E+01  0.22532140185E+01  0.00000000000E+00 0.  1.
</event>
<event>
 7    1  0.2756432E-009  0.4778727E+02  0.7816164E-02  0.1312668E+00
        -11   -1    0    0    0    0  0.00000000000E+00  0.00000000000E+00  0.45593999997E+02  0.45594000000E+02  0.51100000000E-03 0.  1.
         11   -1    0    0    0    0 -0.00000000000E+00 -0.00000000000E+00 -0.45593999997E+02  0.45594000000E+02  0.51100000000E-03 0. -1.
    9900012    2    1    2    0    0 -0.34361050862E+02 -0.23082540450E+01 -0.26412372173E+02  0.47787271240E+02  0.20000000893E+02 0.  0.
        -12    1    1    2    0    0  0.34361050862E+02  0.23082540450E+01  0.26412372173E+02  0.43400728760E+02  0.00000000000E+00 0.  1.
         11    1    3    3    0    0 -0.80954399323E+01  0.21937904451E+01 -0.66479298461E+01  0.10702515392E+02  0.51100000000E-03 0. -1.
        -11    1    3    3    0    0 -0.76591221130E+01  0.52688742017E+01 -0.18702190935E+01  0.94826634768E+01  0.51100000000E-03 0.  1.
        -12    1    3    3    0    0 -0.18606488817E+02 -0.97709186919E+01 -0.17894223233E+02  0.27602092372E+02  0.00000000000E+00 0.  1.
</event>
<event>
 7    1  0.2756432E-009  0.4778727E+02  0.7816164E-02  0.1312668E+00
        -11   -1    0    0    0    0  0.00000000000E+00  0.00000000000E+00  0.45593999997E+02  0.45594000000E+02  0.51100000000E-03 0.  1.
         11   -1    0    0    0    0 -0.00000000000E+00 -0.00000000000E+00 -0.45593999997E+02  0.45594000000E+02  0.51100000000E-03 0. -1.
    9900012    2    1    2    0    0  0.65400142288E+01  0.47914645788E+01 -0.42636761891E+02  0.47787269781E+02  0.19999994242E+02 0.  0.
        -12    1    1    2    0    0 -0.65400142288E+01 -0.47914645788E+01  0.42636761891E+02  0.43400730219E+02  0.00000000000E+00 0.  1.
         11    1    3    3    0    0  0.15508087630E+00  0.57873344263E+00  0.15705503136E+01  0.16809553904E+01  0.51100000000E-03 0.  1.
        -11    1    3    3    0    0  0.20365110490E+01  0.74183213751E+01 -0.26244862325E+02  0.27349070698E+02  0.51100000000E-03 0. -1.
         12    1    3    3    0    0  0.43484223035E+01 -0.32055902390E+01 -0.17962449879E+02  0.18757243694E+02  0.00000000000E+00 0. -1.
</event>
<event>
 7    1  0.2756432E-009  0.4778727E+02  0.7816164E-02  0.1312668E+00
        -11   -1    0    0    0    0  0.00000000000E+00  0.00000000000E+00  0.45593999997E+02  0.45594000000E+02  0.51100000000E-03 0. -1.
         11   -1    0    0    0    0 -0.00000000000E+00 -0.00000000000E+00 -0.45593999997E+02  0.45594000000E+02  0.51100000000E-03 0.  1.
    9900012    2    1    2    0    0 -0.38097194846E+02  0.68481939887E+01  0.19629801758E+02  0.47787272666E+02  0.20000007395E+02 0.  0.
        -12    1    1    2    0    0  0.38097194846E+02 -0.68481939887E+01 -0.19629801758E+02  0.43400727334E+02  0.00000000000E+00 0.  1.
         11    1    3    3    0    0 -0.22965539170E+01  0.51741212229E+01  0.13549461985E+01  0.58207877289E+01  0.51100000000E-03 0.  1.
        -11    1    3    3    0    0 -0.24629546412E+02 -0.42393236155E+01  0.10365167430E+02  0.27055925733E+02  0.51100000000E-03 0. -1.
         12    1    3    3    0    0 -0.11171094517E+02  0.59133963813E+01  0.79096881300E+01  0.14910559204E+02  0.00000000000E+00 0. -1.
</event>
<event>
 7    1  0.2756432E-009  0.4778721E+02  0.7816164E-02  0.1312668E+00
        -11   -1    0    0    0    0  0.00000000000E+00  0.00000000000E+00  0.45593999997E+02  0.45594000000E+02  0.51100000000E-03 0.  1.
         11   -1    0    0    0    0 -0.00000000000E+00 -0.00000000000E+00 -0.45593999997E+02  0.45594000000E+02  0.51100000000E-03 0. -1.
    9900012    2    1    2    0    0 -0.10365225040E+02  0.26730310510E+02 -0.32583447375E+02  0.47787211609E+02  0.19999729010E+02 0.  0.
        -12    1    1    2    0    0  0.10365225040E+02 -0.26730310510E+02  0.32583447375E+02  0.43400788391E+02  0.00000000000E+00 0.  1.
         11    1    3    3    0    0 -0.90281662439E+01  0.19169364850E+02 -0.11272962434E+02  0.24001083658E+02  0.51100000000E-03 0. -1.
        -11    1    3    3    0    0  0.11508827673E+01 -0.27183671063E-01 -0.92510086480E+01  0.93223618983E+01  0.51100000000E-03 0.  1.
        -12    1    3    3    0    0 -0.24879415639E+01  0.75881293313E+01 -0.12059476293E+02  0.14463766053E+02  0.00000000000E+00 0.  1.
</event>
<event>
 7    1 -0.2756432E-009  0.4778728E+02  0.7816164E-02  0.1312668E+00
        -11   -1    0    0    0    0  0.00000000000E+00  0.00000000000E+00  0.45593999997E+02  0.45594000000E+02  0.51100000000E-03 0.  1.
         11   -1    0    0    0    0 -0.00000000000E+00 -0.00000000000E+00 -0.45593999997E+02  0.45594000000E+02  0.51100000000E-03 0. -1.
    9900012    2    1    2    0    0 -0.81620243404E+01  0.29737619673E+02 -0.30539770806E+02  0.47787282655E+02  0.20000052938E+02 0.  0.
        -12    1    1    2    0    0  0.81620243404E+01 -0.29737619673E+02  0.30539770806E+02  0.43400717345E+02  0.00000000000E+00 0.  1.
         11    1    3    3    0    0  0.19868326541E+01  0.43429809140E+01 -0.13725699934E+02  0.14532853338E+02  0.51100000000E-03 0. -1.
        -11    1    3    3    0    0  0.68325544613E+00  0.66270591546E+01 -0.18296900644E+01  0.69088723418E+01  0.51100000000E-03 0.  1.
         12    1    3    3    0    0 -0.10832112441E+02  0.18767579605E+02 -0.14984380807E+02  0.26345556975E+02  0.00000000000E+00 0. -1.
</event>
<event>
 7    1  0.2756432E-009  0.4778727E+02  0.7816164E-02  0.1312668E+00
        -11   -1    0    0    0    0  0.00000000000E+00  0.00000000000E+00  0.45593999997E+02  0.45594000000E+02  0.51100000000E-03 0.  1.
         11   -1    0    0    0    0 -0.00000000000E+00 -0.00000000000E+00 -0.45593999997E+02  0.45594000000E+02  0.51100000000E-03 0. -1.
    9900012    2    1    2    0    0  0.40622697892E+02 -0.84234150590E+01 -0.12746200057E+02  0.47787272804E+02  0.20000008021E+02 0.  0.
        -12    1    1    2    0    0 -0.40622697892E+02  0.84234150590E+01  0.12746200057E+02  0.43400727196E+02  0.00000000000E+00 0.  1.
         11    1    3    3    0    0  0.17140689772E+02 -0.66497878549E+01  0.33833551553E+01  0.18694117170E+02  0.51100000000E-03 0. -1.
        -11    1    3    3    0    0  0.83028291124E+01 -0.90266531222E+00 -0.90715774480E+01  0.12330664767E+02  0.51100000000E-03 0.  1.
         12    1    3    3    0    0  0.15179179007E+02 -0.87096189189E+00 -0.70579777647E+01  0.16762490867E+02  0.00000000000E+00 0. -1.
</event>
<event>
 7    1  0.2756432E-009  0.4778728E+02  0.7816164E-02  0.1312668E+00
        -11   -1    0    0    0    0  0.00000000000E+00  0.00000000000E+00  0.45593999997E+02  0.45594000000E+02  0.51100000000E-03 0.  1.
         11   -1    0    0    0    0 -0.00000000000E+00 -0.00000000000E+00 -0.45593999997E+02  0.45594000000E+02  0.51100000000E-03 0. -1.
    9900012    2    1    2    0    0 -0.10964593842E+02  0.54966202267E+00 -0.41989264710E+02  0.47787276534E+02  0.20000025029E+02 0.  0.
        -12    1    1    2    0    0  0.10964593842E+02 -0.54966202267E+00  0.41989264710E+02  0.43400723466E+02  0.00000000000E+00 0.  1.
         11    1    3    3    0    0  0.52116000256E+00  0.36093012923E+00  0.42442025802E+00  0.76289653492E+00  0.51100000000E-03 0.  1.
        -11    1    3    3    0    0  0.76398740597E+00  0.14820510216E+01 -0.28061737924E+02  0.28111230631E+02  0.51100000000E-03 0. -1.
        -12    1    3    3    0    0 -0.12249741251E+02 -0.12933191281E+01 -0.14351947044E+02  0.18913149368E+02  0.00000000000E+00 0.  1.
</event>
<event>
 7    1  0.2756432E-009  0.4778722E+02  0.7816164E-02  0.1312668E+00
        -11   -1    0    0    0    0  0.00000000000E+00  0.00000000000E+00  0.45593999997E+02  0.45594000000E+02  0.51100000000E-03 0.  1.
         11   -1    0    0    0    0 -0.00000000000E+00 -0.00000000000E+00 -0.45593999997E+02  0.45594000000E+02  0.51100000000E-03 0. -1.
    9900012    2    1    2    0    0 -0.41818670091E+01 -0.34761059327E+02 -0.25647772039E+02  0.47787222728E+02  0.19999779704E+02 0.  0.
        -12    1    1    2    0    0  0.41818670091E+01  0.34761059327E+02  0.25647772039E+02  0.43400777272E+02  0.00000000000E+00 0.  1.
         11    1    3    3    0    0  0.16127261474E+01 -0.20858763163E+02 -0.23870843895E+02  0.31741236189E+02  0.51100000000E-03 0. -1.
        -11    1    3    3    0    0 -0.53035491422E+01 -0.85097770942E+01 -0.30552808765E+01  0.10482303239E+02  0.51100000000E-03 0.  1.
         12    1    3    3    0    0 -0.49104401433E+00 -0.53925190706E+01  0.12783527322E+01  0.55636832996E+01  0.00000000000E+00 0. -1.
</event>
<event>
 7    1  0.2756432E-009  0.4778728E+02  0.7816164E-02  0.1312668E+00
        -11   -1    0    0    0    0  0.00000000000E+00  0.00000000000E+00  0.45593999997E+02  0.45594000000E+02  0.51100000000E-03 0.  1.
         11   -1    0    0    0    0 -0.00000000000E+00 -0.00000000000E+00 -0.45593999997E+02  0.45594000000E+02  0.51100000000E-03 0. -1.
    9900012    2    1    2    0    0 -0.11851590818E+02 -0.31455000363E+02 -0.27454419665E+02  0.47787280975E+02  0.20000045278E+02 0.  0.
        -12    1    1    2    0    0  0.11851590818E+02  0.31455000363E+02  0.27454419665E+02  0.43400719025E+02  0.00000000000E+00 0.  1.
         11    1    3    3    0    0 -0.11672268678E+02 -0.20795931474E+02 -0.27932943385E+02  0.36728217332E+02  0.51100000000E-03 0. -1.
        -11    1    3    3    0    0 -0.30651939647E+00 -0.92233893585E+01 -0.61638287188E+00  0.92490428426E+01  0.51100000000E-03 0.  1.
         12    1    3    3    0    0  0.12719725679E+00 -0.14356795300E+01  0.10949065914E+01  0.18100208007E+01  0.00000000000E+00 0. -1.
</event>
<event>
 7    1  0.2756432E-009  0.4778727E+02  0.7816164E-02  0.1312668E+00
        -11   -1    0    0    0    0  0.00000000000E+00  0.00000000000E+00  0.45593999997E+02  0.45594000000E+02  0.51100000000E-03 0. -1.
         11   -1    0    0    0    0 -0.00000000000E+00 -0.00000000000E+00 -0.45593999997E+02  0.45594000000E+02  0.51100000000E-03 0.  1.
    9900012    2    1    2    0    0 -0.28277139107E+02  0.32739969565E+02 -0.34815400353E+01  0.47787270464E+02  0.19999997353E+02 0.  0.
        -12    1    1    2    0    0  0.28277139107E+02 -0.32739969565E+02  0.34815400353E+01  0.43400729536E+02  0.00000000000E+00 0.  1.
         11    1    3    3    0    0 -0.14112827987E+02  0.14971352729E+02  0.57980360714E+01  0.21375933637E+02  0.51100000000E-03 0. -1.
        -11    1    3    3    0    0 -0.12208079028E+02  0.79247662477E+01 -0.68449279909E+01  0.16083909757E+02  0.51100000000E-03 0.  1.
        -12    1    3    3    0    0 -0.19562320927E+01  0.98438505890E+01 -0.24346481158E+01  0.10327427069E+02  0.00000000000E+00 0.  1.
</event>
<event>
 7    1  0.2756432E-009  0.4778728E+02  0.7816164E-02  0.1312668E+00
        -11   -1    0    0    0    0  0.00000000000E+00  0.00000000000E+00  0.45593999997E+02  0.45594000000E+02  0.51100000000E-03 0.  1.
         11   -1    0    0    0    0 -0.00000000000E+00 -0.00000000000E+00 -0.45593999997E+02  0.45594000000E+02  0.51100000000E-03 0. -1.
    9900012    2    1    2    0    0 -0.32818350035E+02 -0.16801972980E+02 -0.22896997019E+02  0.47787275726E+02  0.20000021346E+02 0.  0.
        -12    1    1    2    0    0  0.32818350035E+02  0.16801972980E+02  0.22896997019E+02  0.43400724274E+02  0.00000000000E+00 0.  1.
         11    1    3    3    0    0 -0.18370911251E+01  0.10524660735E+01  0.23197448273E+01  0.31406695087E+01  0.51100000000E-03 0. -1.
        -11    1    3    3    0    0 -0.42662782954E+01 -0.65802950519E+01 -0.56592534407E+01  0.96710166597E+01  0.51100000000E-03 0.  1.
         12    1    3    3    0    0 -0.26714980614E+02 -0.11274144001E+02 -0.19557488406E+02  0.34975589558E+02  0.00000000000E+00 0. -1.
</event>
<event>
 7    1  0.2756432E-009  0.4778729E+02  0.7816164E-02  0.1312668E+00
        -11   -1    0    0    0    0  0.00000000000E+00  0.00000000000E+00  0.45593999997E+02  0.45594000000E+02  0.51100000000E-03 0. -1.
         11   -1    0    0    0    0 -0.00000000000E+00 -0.00000000000E+00 -0.45593999997E+02  0.45594000000E+02  0.51100000000E-03 0.  1.
    9900012    2    1    2    0    0  0.28193060358E+02  0.25116327074E+02  0.21399604230E+02  0.47787290337E+02  0.20000087963E+02 0.  0.
        -12    1    1    2    0    0 -0.28193060358E+02 -0.25116327074E+02 -0.21399604230E+02  0.43400709663E+02  0.00000000000E+00 0.  1.
         11    1    3    3    0    0  0.77760508252E+01  0.10278092241E+02  0.15584218467E+02  0.20223105895E+02  0.51100000000E-03 0.  1.
        -11    1    3    3    0    0  0.98417378220E+01  0.84338259831E+01 -0.17364121610E+01  0.13076863214E+02  0.51100000000E-03 0. -1.
         12    1    3    3    0    0  0.10575271711E+02  0.64044088499E+01  0.75517979238E+01  0.14487321228E+02  0.00000000000E+00 0. -1.
</event>
<event>
 7    1  0.2756432E-009  0.4778727E+02  0.7816164E-02  0.1312668E+00
        -11   -1    0    0    0    0  0.00000000000E+00  0.00000000000E+00  0.45593999997E+02  0.45594000000E+02  0.51100000000E-03 0.  1.
         11   -1    0    0    0    0 -0.00000000000E+00 -0.00000000000E+00 -0.45593999997E+02  0.45594000000E+02  0.51100000000E-03 0. -1.
    9900012    2    1    2    0    0 -0.74976296910E+00  0.12163676521E+02 -0.41654606541E+02  0.47787269394E+02  0.19999992475E+02 0.  0.
        -12    1    1    2    0    0  0.74976296910E+00 -0.12163676521E+02  0.41654606541E+02  0.43400730606E+02  0.00000000000E+00 0.  1.
         11    1    3    3    0    0  0.28609727458E+01  0.13781241990E+02 -0.31456352046E+02  0.34461716152E+02  0.51100000000E-03 0. -1.
        -11    1    3    3    0    0 -0.40906909138E+01  0.12879377135E+01 -0.93089198059E+01  0.10249318217E+02  0.51100000000E-03 0.  1.
         12    1    3    3    0    0  0.47995519888E+00 -0.29055031823E+01 -0.88933468927E+00  0.30762350244E+01  0.00000000000E+00 0. -1.
</event>
<event>
 7    1  0.3296307E-009  0.4778727E+02  0.7816164E-02  0.1312668E+00
        -11   -1    0    0    0    0  0.00000000000E+00  0.00000000000E+00  0.45593999997E+02  0.45594000000E+02  0.51100000000E-03 0.  1.
         11   -1    0    0    0    0 -0.00000000000E+00 -0.00000000000E+00 -0.45593999997E+02  0.45594000000E+02  0.51100000000E-03 0. -1.
    9900012    2    1    2    0    0 -0.26714644746E+02  0.26163062736E+02 -0.22032813388E+02  0.47787274644E+02  0.20000016412E+02 0.  0.
        -12    1    1    2    0    0  0.26714644746E+02 -0.26163062736E+02  0.22032813388E+02  0.43400725356E+02  0.00000000000E+00 0.  1.
         11    1    3    3    0    0 -0.15372771240E+02  0.89141711931E+01 -0.17428165221E+02  0.24890268920E+02  0.51100000000E-03 0. -1.
        -11    1    3    3    0    0 -0.41631439224E+01  0.13587633973E+02 -0.16181747625E+01  0.14302938653E+02  0.51100000000E-03 0.  1.
        -12    1    3    3    0    0 -0.71787295832E+01  0.36612575699E+01 -0.29864734046E+01  0.85940670708E+01  0.00000000000E+00 0.  1.
</event>
<event>
 7    1  0.2756432E-009  0.4778728E+02  0.7816164E-02  0.1312668E+00
        -11   -1    0    0    0    0  0.00000000000E+00  0.00000000000E+00  0.45593999997E+02  0.45594000000E+02  0.51100000000E-03 0.  1.
         11   -1    0    0    0    0 -0.00000000000E+00 -0.00000000000E+00 -0.45593999997E+02  0.45594000000E+02  0.51100000000E-03 0. -1.
    9900012    2    1    2    0    0 -0.16235615044E+02  0.13651550543E+02 -0.37863740262E+02  0.47787275873E+02  0.20000022014E+02 0.  0.
        -12    1    1    2    0    0  0.16235615044E+02 -0.13651550543E+02  0.37863740262E+02  0.43400724127E+02  0.00000000000E+00 0.  1.
         11    1    3    3    0    0 -0.12360652297E+02  0.78470762814E+00 -0.16879544634E+02  0.20936105621E+02  0.51100000000E-03 0. -1.
        -11    1    3    3    0    0 -0.58805621969E+01  0.12780424850E+02 -0.15119189771E+02  0.20652122668E+02  0.51100000000E-03 0.  1.
        -12    1    3    3    0    0  0.20055994495E+01  0.86418065071E-01 -0.58650058581E+01  0.61990475841E+01  0.00000000000E+00 0.  1.
</event>
<event>
 7    1  0.2756432E-009  0.4778727E+02  0.7816164E-02  0.1312668E+00
        -11   -1    0    0    0    0  0.00000000000E+00  0.00000000000E+00  0.45593999997E+02  0.45594000000E+02  0.51100000000E-03 0.  1.
         11   -1    0    0    0    0 -0.00000000000E+00 -0.00000000000E+00 -0.45593999997E+02  0.45594000000E+02  0.51100000000E-03 0. -1.
    9900012    2    1    2    0    0 -0.34640694958E+02  0.15569293008E+01 -0.26100218724E+02  0.47787271971E+02  0.20000004225E+02 0.  0.
        -12    1    1    2    0    0  0.34640694958E+02 -0.15569293008E+01  0.26100218724E+02  0.43400728029E+02  0.00000000000E+00 0.  1.
         11    1    3    3    0    0  0.28678909207E+00  0.35372313737E+01 -0.29565680886E+01  0.46190419892E+01  0.51100000000E-03 0. -1.
        -11    1    3    3    0    0 -0.13815850051E+02 -0.57859447300E+01 -0.90307524995E+01  0.17490264721E+02  0.51100000000E-03 0.  1.
        -12    1    3    3    0    0 -0.21111633999E+02  0.38056426571E+01 -0.14112898136E+02  0.25677965261E+02  0.00000000000E+00 0.  1.
</event>
<event>
 7    1  0.2756432E-009  0.4778727E+02  0.7816164E-02  0.1312668E+00
        -11   -1    0    0    0    0  0.00000000000E+00  0.00000000000E+00  0.45593999997E+02  0.45594000000E+02  0.51100000000E-03 0.  1.
         11   -1    0    0    0    0 -0.00000000000E+00 -0.00000000000E+00 -0.45593999997E+02  0.45594000000E+02  0.51100000000E-03 0. -1.
    9900012    2    1    2    0    0 -0.68211242036E+01 -0.41442787182E+02 -0.10935761636E+02  0.47787271580E+02  0.20000002441E+02 0.  0.
        -12    1    1    2    0    0  0.68211242036E+01  0.41442787182E+02  0.10935761636E+02  0.43400728420E+02  0.00000000000E+00 0.  1.
         11    1    3    3    0    0 -0.13689776959E+01 -0.60850086476E+01 -0.10112334579E+02  0.11881108579E+02  0.51100000000E-03 0. -1.
        -11    1    3    3    0    0 -0.34124178179E+01 -0.28120453368E+02  0.12729375496E+00  0.28327031206E+02  0.51100000000E-03 0.  1.
         12    1    3    3    0    0 -0.20397286899E+01 -0.72373251671E+01 -0.95072081227E+00  0.75791317949E+01  0.00000000000E+00 0. -1.
</event>
<event>
 7    1  0.2756432E-009  0.4778727E+02  0.7816164E-02  0.1312668E+00
        -11   -1    0    0    0    0  0.00000000000E+00  0.00000000000E+00  0.45593999997E+02  0.45594000000E+02  0.51100000000E-03 0.  1.
         11   -1    0    0    0    0 -0.00000000000E+00 -0.00000000000E+00 -0.45593999997E+02  0.45594000000E+02  0.51100000000E-03 0. -1.
    9900012    2    1    2    0    0  0.16215162998E+02  0.16826918218E+02 -0.36572487822E+02  0.47787267826E+02  0.19999985327E+02 0.  0.
        -12    1    1    2    0    0 -0.16215162998E+02 -0.16826918218E+02  0.36572487822E+02  0.43400732174E+02  0.00000000000E+00 0.  1.
         11    1    3    3    0    0  0.35461189465E+01  0.83485701659E+01 -0.23200545656E+02  0.24910618266E+02  0.51100000000E-03 0. -1.
        -11    1    3    3    0    0  0.33487490008E+01  0.33586953365E+00  0.13654084523E+01  0.36319786228E+01  0.51100000000E-03 0.  1.
        -12    1    3    3    0    0  0.93202950507E+01  0.81424785181E+01 -0.14737350618E+02  0.19244670938E+02  0.00000000000E+00 0.  1.
</event>
<event>
 7    1  0.2756432E-009  0.4778727E+02  0.7816164E-02  0.1312668E+00
        -11   -1    0    0    0    0  0.00000000000E+00  0.00000000000E+00  0.45593999997E+02  0.45594000000E+02  0.51100000000E-03 0. -1.
         11   -1    0    0    0    0 -0.00000000000E+00 -0.00000000000E+00 -0.45593999997E+02  0.45594000000E+02  0.51100000000E-03 0.  1.
    9900012    2    1    2    0    0  0.12054988606E+01 -0.42726481278E+02  0.75244825862E+01  0.47787271111E+02  0.20000000304E+02 0.  0.
        -12    1    1    2    0    0 -0.12054988606E+01  0.42726481278E+02 -0.75244825862E+01  0.43400728889E+02  0.00000000000E+00 0.  1.
         11    1    3    3    0    0 -0.36925806997E+01 -0.34984670623E+02  0.61388016527E+00  0.35184359876E+02  0.51100000000E-03 0. -1.
        -11    1    3    3    0    0  0.35729743468E+01 -0.41635638744E+01  0.68635368968E+01  0.87868964267E+01  0.51100000000E-03 0.  1.
         12    1    3    3    0    0  0.13251052135E+01 -0.35782467809E+01  0.47065524174E-01  0.38160148081E+01  0.00000000000E+00 0. -1.
</event>
<event>
 7    1  0.2756432E-009  0.4778727E+02  0.7816164E-02  0.1312668E+00
        -11   -1    0    0    0    0  0.00000000000E+00  0.00000000000E+00  0.45593999997E+02  0.45594000000E+02  0.51100000000E-03 0. -1.
         11   -1    0    0    0    0 -0.00000000000E+00 -0.00000000000E+00 -0.45593999997E+02  0.45594000000E+02  0.51100000000E-03 0.  1.
    9900012    2    1    2    0    0 -0.26317554926E+02 -0.13068842167E+02  0.31940804284E+02  0.47787270614E+02  0.19999998039E+02 0.  0.
        -12    1    1    2    0    0  0.26317554926E+02  0.13068842167E+02 -0.31940804284E+02  0.43400729386E+02  0.00000000000E+00 0.  1.
         11    1    3    3    0    0 -0.20185456356E+02  0.30089633739E+00  0.18275911039E+02  0.27231454450E+02  0.51100000000E-03 0. -1.
        -11    1    3    3    0    0 -0.50143925438E+01 -0.10648097347E+02  0.81848628169E+01  0.14335902110E+02  0.51100000000E-03 0.  1.
         12    1    3    3    0    0 -0.11177060262E+01 -0.27216411571E+01  0.54800304285E+01  0.62199140546E+01  0.00000000000E+00 0. -1.
</event>
<event>
 7    1  0.2756432E-009  0.4778727E+02  0.7816164E-02  0.1312668E+00
        -11   -1    0    0    0    0  0.00000000000E+00  0.00000000000E+00  0.45593999997E+02  0.45594000000E+02  0.51100000000E-03 0.  1.
         11   -1    0    0    0    0 -0.00000000000E+00 -0.00000000000E+00 -0.45593999997E+02  0.45594000000E+02  0.51100000000E-03 0. -1.
    9900012    2    1    2    0    0 -0.25511353194E+02 -0.41288674692E+01 -0.34867557057E+02  0.47787271624E+02  0.20000002644E+02 0.  0.
        -12    1    1    2    0    0  0.25511353194E+02  0.41288674692E+01  0.34867557057E+02  0.43400728376E+02  0.00000000000E+00 0.  1.
         11    1    3    3    0    0 -0.13775931273E+02 -0.14620318250E+01 -0.85603601883E+01  0.16284765466E+02  0.51100000000E-03 0. -1.
        -11    1    3    3    0    0 -0.11837282667E+01  0.34408864713E+01 -0.12797896081E+02  0.13305151509E+02  0.51100000000E-03 0.  1.
        -12    1    3    3    0    0 -0.10551693655E+02 -0.61077221155E+01 -0.13509300788E+02  0.18197354649E+02  0.00000000000E+00 0.  1.
</event>
<event>
 7    1  0.2756432E-009  0.4778727E+02  0.7816164E-02  0.1312668E+00
        -11   -1    0    0    0    0  0.00000000000E+00  0.00000000000E+00  0.45593999997E+02  0.45594000000E+02  0.51100000000E-03 0.  1.
         11   -1    0    0    0    0 -0.00000000000E+00 -0.00000000000E+00 -0.45593999997E+02  0.45594000000E+02  0.51100000000E-03 0. -1.
    9900012    2    1    2    0    0 -0.17123850768E+02  0.29623523914E+01 -0.39769606022E+02  0.47787270053E+02  0.19999995478E+02 0.  0.
        -12    1    1    2    0    0  0.17123850768E+02 -0.29623523914E+01  0.39769606022E+02  0.43400729947E+02  0.00000000000E+00 0.  1.
         11    1    3    3    0    0 -0.12503951232E+01 -0.52899565226E+01 -0.14700382666E+02  0.15673173857E+02  0.51100000000E-03 0.  1.
        -11    1    3    3    0    0 -0.56859582935E+01  0.66701338710E+01 -0.66353862894E+01  0.10993141455E+02  0.51100000000E-03 0. -1.
         12    1    3    3    0    0 -0.10187497351E+02  0.15821750430E+01 -0.18433837067E+02  0.21120954740E+02  0.00000000000E+00 0. -1.
</event>
<event>
 7    1  0.2756432E-009  0.4778725E+02  0.7816164E-02  0.1312668E+00
        -11   -1    0    0    0    0  0.00000000000E+00  0.00000000000E+00  0.45593999997E+02  0.45594000000E+02  0.51100000000E-03 0.  1.
         11   -1    0    0    0    0 -0.00000000000E+00 -0.00000000000E+00 -0.45593999997E+02  0.45594000000E+02  0.51100000000E-03 0. -1.
    9900012    2    1    2    0    0  0.33513049198E+02 -0.23198596706E+02 -0.14910580800E+02  0.47787253745E+02  0.19999921125E+02 0.  0.
        -12    1    1    2    0    0 -0.33513049198E+02  0.23198596706E+02  0.14910580800E+02  0.43400746255E+02  0.00000000000E+00 0.  1.
         11    1    3    3    0    0  0.10157788384E+02 -0.80825642413E+01 -0.72808479424E+01  0.14883522990E+02  0.51100000000E-03 0. -1.
        -11    1    3    3    0    0  0.35041431866E+01 -0.11206279112E+02 -0.35247913465E+01  0.12259031989E+02  0.51100000000E-03 0.  1.
        -12    1    3    3    0    0  0.19851117627E+02 -0.39097533535E+01 -0.41049415107E+01  0.20644698766E+02  0.00000000000E+00 0.  1.
</event>
<event>
 7    1  0.2756432E-009  0.4778727E+02  0.7816164E-02  0.1312668E+00
        -11   -1    0    0    0    0  0.00000000000E+00  0.00000000000E+00  0.45593999997E+02  0.45594000000E+02  0.51100000000E-03 0. -1.
         11   -1    0    0    0    0 -0.00000000000E+00 -0.00000000000E+00 -0.45593999997E+02  0.45594000000E+02  0.51100000000E-03 0.  1.
    9900012    2    1    2    0    0  0.17227707211E+02  0.30909566786E+02  0.25128229517E+02  0.47787272664E+02  0.20000007384E+02 0.  0.
        -12    1    1    2    0    0 -0.17227707211E+02 -0.30909566786E+02 -0.25128229517E+02  0.43400727336E+02  0.00000000000E+00 0.  1.
         11    1    3    3    0    0  0.89084577044E+01  0.84780798691E+01  0.15778306576E+02  0.20004834806E+02  0.51100000000E-03 0. -1.
        -11    1    3    3    0    0  0.79411310023E+01  0.10749136414E+02  0.96824768649E+00  0.13399365622E+02  0.51100000000E-03 0.  1.
         12    1    3    3    0    0  0.37811850477E+00  0.11682350503E+02  0.83816752539E+01  0.14383072236E+02  0.00000000000E+00 0. -1.
</event>
<event>
 7    1  0.2756432E-009  0.4778727E+02  0.7816164E-02  0.1312668E+00
        -11   -1    0    0    0    0  0.00000000000E+00  0.00000000000E+00  0.45593999997E+02  0.45594000000E+02  0.51100000000E-03 0. -1.
         11   -1    0    0    0    0 -0.00000000000E+00 -0.00000000000E+00 -0.45593999997E+02  0.45594000000E+02  0.51100000000E-03 0.  1.
    9900012    2    1    2    0    0 -0.25354199130E+02  0.29225330701E+02  0.19663884214E+02  0.47787266014E+02  0.19999977065E+02 0.  0.
        -12    1    1    2    0    0  0.25354199130E+02 -0.29225330701E+02 -0.19663884214E+02  0.43400733986E+02  0.00000000000E+00 0.  1.
         11    1    3    3    0    0  0.26159821307E+01  0.13955052748E+01  0.25409046482E+01  0.39047399622E+01  0.51100000000E-03 0. -1.
        -11    1    3    3    0    0 -0.38493483751E+01  0.47895231143E+01 -0.48481548753E+00  0.61637700227E+01  0.51100000000E-03 0.  1.
         12    1    3    3    0    0 -0.24120832886E+02  0.23040302312E+02  0.17607795053E+02  0.37718756029E+02  0.00000000000E+00 0. -1.
</event>
<event>
 7    1  0.2756432E-009  0.4778730E+02  0.7816164E-02  0.1312668E+00
        -11   -1    0    0    0    0  0.00000000000E+00  0.00000000000E+00  0.45593999997E+02  0.45594000000E+02  0.51100000000E-03 0.  1.
         11   -1    0    0    0    0 -0.00000000000E+00 -0.00000000000E+00 -0.45593999997E+02  0.45594000000E+02  0.51100000000E-03 0. -1.
    9900012    2    1    2    0    0  0.69276726516E+01  0.13394614496E+02 -0.40696594759E+02  0.47787295273E+02  0.20000110467E+02 0.  0.
        -12    1    1    2    0    0 -0.69276726516E+01 -0.13394614496E+02  0.40696594759E+02  0.43400704727E+02  0.00000000000E+00 0.  1.
         11    1    3    3    0    0  0.60381091228E+01  0.13715848525E+02 -0.26044511757E+02  0.30048292055E+02  0.51100000000E-03 0. -1.
        -11    1    3    3    0    0 -0.39508033394E+00 -0.24252914089E+00 -0.15923271787E+02  0.15930018629E+02  0.51100000000E-03 0.  1.
         12    1    3    3    0    0  0.12846438627E+01 -0.78704888056E-01  0.12711887853E+01  0.18089845885E+01  0.00000000000E+00 0. -1.
</event>
<event>
 7    1  0.2756432E-009  0.4778726E+02  0.7816164E-02  0.1312668E+00
        -11   -1    0    0    0    0  0.00000000000E+00  0.00000000000E+00  0.45593999997E+02  0.45594000000E+02  0.51100000000E-03 0. -1.
         11   -1    0    0    0    0 -0.00000000000E+00 -0.00000000000E+00 -0.45593999997E+02  0.45594000000E+02  0.51100000000E-03 0.  1.
    9900012    2    1    2    0    0  0.24525786930E+02  0.22693348472E+02  0.27696964543E+02  0.47787261132E+02  0.19999954804E+02 0.  0.
        -12    1    1    2    0    0 -0.24525786930E+02 -0.22693348472E+02 -0.27696964543E+02  0.43400738868E+02  0.00000000000E+00 0.  1.
         11    1    3    3    0    0  0.94245562201E+01  0.91529225833E+01  0.17382415226E+01  0.13252159658E+02  0.51100000000E-03 0. -1.
        -11    1    3    3    0    0 -0.39738721537E-01 -0.11680645546E+01  0.12726053839E+00  0.11756485340E+01  0.51100000000E-03 0.  1.
         12    1    3    3    0    0  0.15140969431E+02  0.14708490443E+02  0.25831462482E+02  0.33359452939E+02  0.00000000000E+00 0. -1.
</event>
<event>
 7    1  0.2756432E-009  0.4778728E+02  0.7816164E-02  0.1312668E+00
        -11   -1    0    0    0    0  0.00000000000E+00  0.00000000000E+00  0.45593999997E+02  0.45594000000E+02  0.51100000000E-03 0.  1.
         11   -1    0    0    0    0 -0.00000000000E+00 -0.00000000000E+00 -0.45593999997E+02  0.45594000000E+02  0.51100000000E-03 0. -1.
    9900012    2    1    2    0    0 -0.31029573693E+01  0.39965267232E+02 -0.16636463152E+02  0.47787276094E+02  0.20000023024E+02 0.  0.
        -12    1    1    2    0    0  0.31029573693E+01 -0.39965267232E+02  0.16636463152E+02  0.43400723906E+02  0.00000000000E+00 0.  1.
         11    1    3    3    0    0 -0.91306767867E+01  0.24926176293E+02 -0.11158384588E+02  0.28795712703E+02  0.51100000000E-03 0. -1.
        -11    1    3    3    0    0  0.29662550935E+01  0.22662951833E+01  0.16113411064E+01  0.40658558213E+01  0.51100000000E-03 0.  1.
         12    1    3    3    0    0  0.30614643239E+01  0.12772795755E+02 -0.70894196701E+01  0.14925707570E+02  0.00000000000E+00 0. -1.
</event>
<event>
 7    1  0.2756432E-009  0.4778728E+02  0.7816164E-02  0.1312668E+00
        -11   -1    0    0    0    0  0.00000000000E+00  0.00000000000E+00  0.45593999997E+02  0.45594000000E+02  0.51100000000E-03 0.  1.
         11   -1    0    0    0    0 -0.00000000000E+00 -0.00000000000E+00 -0.45593999997E+02  0.45594000000E+02  0.51100000000E-03 0. -1.
    9900012    2    1    2    0    0  0.15926897177E+02 -0.12419209515E+02 -0.38415099491E+02  0.47787277799E+02  0.20000030795E+02 0.  0.
        -12    1    1    2    0    0 -0.15926897177E+02  0.12419209515E+02  0.38415099491E+02  0.43400722201E+02  0.00000000000E+00 0.  1.
         11    1    3    3    0    0  0.85277039222E+01 -0.82677324965E+01 -0.22632970811E+02  0.25560291525E+02  0.51100000000E-03 0. -1.
        -11    1    3    3    0    0 -0.36544017228E+01 -0.23463706531E+01 -0.32836791917E+01  0.54445070014E+01  0.51100000000E-03 0.  1.
        -12    1    3    3    0    0  0.11053594978E+02 -0.18051063654E+01 -0.12498449488E+02  0.16782479273E+02  0.00000000000E+00 0.  1.
</event>
<event>
 7    1  0.2756432E-009  0.4778727E+02  0.7816164E-02  0.1312668E+00
        -11   -1    0    0    0    0  0.00000000000E+00  0.00000000000E+00  0.45593999997E+02  0.45594000000E+02  0.51100000000E-03 0.  1.
         11   -1    0    0    0    0 -0.00000000000E+00 -0.00000000000E+00 -0.45593999997E+02  0.45594000000E+02  0.51100000000E-03 0. -1.
    9900012    2    1    2    0    0 -0.83704985592E+01  0.30287324065E+02 -0.29937199817E+02  0.47787272148E+02  0.20000005032E+02 0.  0.
        -12    1    1    2    0    0  0.83704985592E+01 -0.30287324065E+02  0.29937199817E+02  0.43400727852E+02  0.00000000000E+00 0.  1.
         11    1    3    3    0    0 -0.11745216328E+02  0.14435122581E+02 -0.13325576238E+02  0.22888727637E+02  0.51100000000E-03 0. -1.
        -11    1    3    3    0    0  0.30357980307E+01  0.18487316766E+01 -0.56647098511E+00  0.35992732785E+01  0.51100000000E-03 0.  1.
         12    1    3    3    0    0  0.33891973828E+00  0.14003469808E+02 -0.16045152594E+02  0.21299271232E+02  0.00000000000E+00 0. -1.
</event>
<event>
 7    1  0.2756432E-009  0.4778728E+02  0.7816164E-02  0.1312668E+00
        -11   -1    0    0    0    0  0.00000000000E+00  0.00000000000E+00  0.45593999997E+02  0.45594000000E+02  0.51100000000E-03 0. -1.
         11   -1    0    0    0    0 -0.00000000000E+00 -0.00000000000E+00 -0.45593999997E+02  0.45594000000E+02  0.51100000000E-03 0.  1.
    9900012    2    1    2    0    0 -0.26316385951E+02  0.17504578824E+02  0.29743234532E+02  0.47787280539E+02  0.20000043288E+02 0.  0.
        -12    1    1    2    0    0  0.26316385951E+02 -0.17504578824E+02 -0.29743234532E+02  0.43400719461E+02  0.00000000000E+00 0.  1.
         11    1    3    3    0    0 -0.18975824394E+02  0.14265912341E+02  0.18260767070E+02  0.29950856092E+02  0.51100000000E-03 0. -1.
        -11    1    3    3    0    0 -0.45545454369E+01  0.28270043419E-01  0.12636148340E+02  0.13431936885E+02  0.51100000000E-03 0.  1.
         12    1    3    3    0    0 -0.27860161195E+01  0.32103964396E+01 -0.11536808785E+01  0.44044875624E+01  0.00000000000E+00 0. -1.
</event>
<event>
 7    1  0.2756432E-009  0.4778726E+02  0.7816164E-02  0.1312668E+00
        -11   -1    0    0    0    0  0.00000000000E+00  0.00000000000E+00  0.45593999997E+02  0.45594000000E+02  0.51100000000E-03 0.  1.
         11   -1    0    0    0    0 -0.00000000000E+00 -0.00000000000E+00 -0.45593999997E+02  0.45594000000E+02  0.51100000000E-03 0. -1.
    9900012    2    1    2    0    0 -0.18706497412E+02 -0.36805899846E+02 -0.13379716812E+02  0.47787261172E+02  0.19999954987E+02 0.  0.
        -12    1    1    2    0    0  0.18706497412E+02  0.36805899846E+02  0.13379716812E+02  0.43400738828E+02  0.00000000000E+00 0.  1.
         11    1    3    3    0    0 -0.30284426639E+01 -0.10865561992E+02  0.20960352146E+01  0.11472805509E+02  0.51100000000E-03 0. -1.
        -11    1    3    3    0    0 -0.14120159368E+02 -0.11928029802E+02 -0.11061234033E+02  0.21540837823E+02  0.51100000000E-03 0.  1.
        -12    1    3    3    0    0 -0.15578953795E+01 -0.14012308052E+02 -0.44145179937E+01  0.14773617840E+02  0.00000000000E+00 0.  1.
</event>
<event>
 7    1  0.2756432E-009  0.4778727E+02  0.7816164E-02  0.1312668E+00
        -11   -1    0    0    0    0  0.00000000000E+00  0.00000000000E+00  0.45593999997E+02  0.45594000000E+02  0.51100000000E-03 0.  1.
         11   -1    0    0    0    0 -0.00000000000E+00 -0.00000000000E+00 -0.45593999997E+02  0.45594000000E+02  0.51100000000E-03 0. -1.
    9900012    2    1    2    0    0  0.36692815522E+02  0.17699789948E+02  0.14965904795E+02  0.47787267500E+02  0.19999983841E+02 0.  0.
        -12    1    1    2    0    0 -0.36692815522E+02 -0.17699789948E+02 -0.14965904795E+02  0.43400732500E+02  0.00000000000E+00 0.  1.
         11    1    3    3    0    0  0.15158132972E+02  0.17455711515E+01  0.22244168106E+01  0.15419599355E+02  0.51100000000E-03 0. -1.
        -11    1    3    3    0    0  0.12479063798E+02  0.13882519755E+02  0.13515293329E+02  0.23045922461E+02  0.51100000000E-03 0.  1.
        -12    1    3    3    0    0  0.90556187521E+01  0.20716990413E+01 -0.77380534486E+00  0.93217456849E+01  0.00000000000E+00 0.  1.
</event>
<event>
 7    1  0.2756432E-009  0.4778727E+02  0.7816164E-02  0.1312668E+00
        -11   -1    0    0    0    0  0.00000000000E+00  0.00000000000E+00  0.45593999997E+02  0.45594000000E+02  0.51100000000E-03 0.  1.
         11   -1    0    0    0    0 -0.00000000000E+00 -0.00000000000E+00 -0.45593999997E+02  0.45594000000E+02  0.51100000000E-03 0. -1.
    9900012    2    1    2    0    0 -0.14112907442E+02 -0.29955361996E+02 -0.28055750045E+02  0.47787274437E+02  0.20000015469E+02 0.  0.
        -12    1    1    2    0    0  0.14112907442E+02  0.29955361996E+02  0.28055750045E+02  0.43400725563E+02  0.00000000000E+00 0.  1.
         11    1    3    3    0    0 -0.14948476884E+01 -0.29799873701E+01  0.12272587505E+01  0.35526129313E+01  0.51100000000E-03 0.  1.
        -11    1    3    3    0    0  0.12974475166E+01 -0.91724077653E+01 -0.14586770975E+02  0.17279766260E+02  0.51100000000E-03 0. -1.
        -12    1    3    3    0    0 -0.13915507270E+02 -0.17802966860E+02 -0.14696237821E+02  0.26954895246E+02  0.00000000000E+00 0.  1.
</event>
<event>
 7    1  0.2756432E-009  0.4778727E+02  0.7816164E-02  0.1312668E+00
        -11   -1    0    0    0    0  0.00000000000E+00  0.00000000000E+00  0.45593999997E+02  0.45594000000E+02  0.51100000000E-03 0.  1.
         11   -1    0    0    0    0 -0.00000000000E+00 -0.00000000000E+00 -0.45593999997E+02  0.45594000000E+02  0.51100000000E-03 0. -1.
    9900012    2    1    2    0    0  0.37110734950E+02 -0.16768316869E+02 -0.15008009497E+02  0.47787269037E+02  0.19999990845E+02 0.  0.
        -12    1    1    2    0    0 -0.37110734950E+02  0.16768316869E+02  0.15008009497E+02  0.43400730963E+02  0.00000000000E+00 0.  1.
         11    1    3    3    0    0  0.82431861769E+00 -0.54040055144E+01 -0.12287464891E+01  0.56029095101E+01  0.51100000000E-03 0. -1.
        -11    1    3    3    0    0  0.82760355602E+01 -0.39896757170E+01  0.16988416636E+01  0.93432510498E+01  0.51100000000E-03 0.  1.
         12    1    3    3    0    0  0.28010380772E+02 -0.73746356374E+01 -0.15478104671E+02  0.32841108477E+02  0.00000000000E+00 0. -1.
</event>
<event>
 7    1  0.2756432E-009  0.4778727E+02  0.7816164E-02  0.1312668E+00
        -11   -1    0    0    0    0  0.00000000000E+00  0.00000000000E+00  0.45593999997E+02  0.45594000000E+02  0.51100000000E-03 0.  1.
         11   -1    0    0    0    0 -0.00000000000E+00 -0.00000000000E+00 -0.45593999997E+02  0.45594000000E+02  0.51100000000E-03 0. -1.
    9900012    2    1    2    0    0 -0.39186180237E+02  0.18285436936E+02 -0.37025722444E+01  0.47787274583E+02  0.20000016132E+02 0.  0.
        -12    1    1    2    0    0  0.39186180237E+02 -0.18285436936E+02  0.37025722444E+01  0.43400725417E+02  0.00000000000E+00 0.  1.
         11    1    3    3    0    0 -0.95713753343E+01  0.48619911123E+00 -0.39623028518E+00  0.95919035684E+01  0.51100000000E-03 0. -1.
        -11    1    3    3    0    0 -0.22527946562E+00  0.50932593531E+01  0.24616913623E+01  0.56614456016E+01  0.51100000000E-03 0.  1.
        -12    1    3    3    0    0 -0.29389525437E+02  0.12705978472E+02 -0.57680333216E+01  0.32533925413E+02  0.00000000000E+00 0.  1.
</event>
<event>
 7    1  0.2756432E-009  0.4778727E+02  0.7816164E-02  0.1312668E+00
        -11   -1    0    0    0    0  0.00000000000E+00  0.00000000000E+00  0.45593999997E+02  0.45594000000E+02  0.51100000000E-03 0. -1.
         11   -1    0    0    0    0 -0.00000000000E+00 -0.00000000000E+00 -0.45593999997E+02  0.45594000000E+02  0.51100000000E-03 0.  1.
    9900012    2    1    2    0    0  0.12716586133E+02  0.34332390452E+02 -0.23306621679E+02  0.47787271767E+02  0.20000003296E+02 0.  0.
        -12    1    1    2    0    0 -0.12716586133E+02 -0.34332390452E+02  0.23306621679E+02  0.43400728233E+02  0.00000000000E+00 0.  1.
         11    1    3    3    0    0  0.71523386438E+01  0.76584740400E+01  0.43580106827E+00  0.10487997689E+02  0.51100000000E-03 0. -1.
        -11    1    3    3    0    0 -0.14200573256E+01  0.65486491500E+01 -0.96822750909E+01  0.11774880878E+02  0.51100000000E-03 0.  1.
         12    1    3    3    0    0  0.69843048153E+01  0.20125267262E+02 -0.14060147656E+02  0.25524393200E+02  0.00000000000E+00 0. -1.
</event>
<event>
 7    1  0.2756432E-009  0.4778726E+02  0.7816164E-02  0.1312668E+00
        -11   -1    0    0    0    0  0.00000000000E+00  0.00000000000E+00  0.45593999997E+02  0.45594000000E+02  0.51100000000E-03 0.  1.
         11   -1    0    0    0    0 -0.00000000000E+00 -0.00000000000E+00 -0.45593999997E+02  0.45594000000E+02  0.51100000000E-03 0. -1.
    9900012    2    1    2    0    0  0.30006154623E+02  0.87297301892E+01 -0.30117217428E+02  0.47787259338E+02  0.19999946626E+02 0.  0.
        -12    1    1    2    0    0 -0.30006154623E+02 -0.87297301892E+01  0.30117217428E+02  0.43400740662E+02  0.00000000000E+00 0.  1.
         11    1    3    3    0    0  0.24512772548E+02  0.71592052217E+01 -0.26780701434E+02  0.37004543058E+02  0.51100000000E-03 0. -1.
        -11    1    3    3    0    0  0.16910458155E+00  0.42010861251E+01 -0.61162233659E+00  0.42487413588E+01  0.51100000000E-03 0.  1.
        -12    1    3    3    0    0  0.53242774931E+01 -0.26305611576E+01 -0.27248936575E+01  0.65339749213E+01  0.00000000000E+00 0.  1.
</event>
<event>
 7    1  0.2756432E-009  0.4778727E+02  0.7816164E-02  0.1312668E+00
        -11   -1    0    0    0    0  0.00000000000E+00  0.00000000000E+00  0.45593999997E+02  0.45594000000E+02  0.51100000000E-03 0. -1.
         11   -1    0    0    0    0 -0.00000000000E+00 -0.00000000000E+00 -0.45593999997E+02  0.45594000000E+02  0.51100000000E-03 0.  1.
    9900012    2    1    2    0    0 -0.32471623650E+02  0.24059637383E+02 -0.15822470639E+02  0.47787273387E+02  0.20000010679E+02 0.  0.
        -12    1    1    2    0    0  0.32471623650E+02 -0.24059637383E+02  0.15822470639E+02  0.43400726613E+02  0.00000000000E+00 0.  1.
         11    1    3    3    0    0 -0.26592786499E+02  0.10482188881E+02 -0.86882752094E+01  0.29875386255E+02  0.51100000000E-03 0. -1.
        -11    1    3    3    0    0 -0.23230954670E+01  0.12499364680E+02 -0.55954610622E+01  0.13890287064E+02  0.51100000000E-03 0.  1.
        -12    1    3    3    0    0 -0.35557416838E+01  0.10780838212E+01 -0.15387343679E+01  0.40216000675E+01  0.00000000000E+00 0.  1.
</event>
<event>
 7    1  0.2756432E-009  0.4778728E+02  0.7816164E-02  0.1312668E+00
        -11   -1    0    0    0    0  0.00000000000E+00  0.00000000000E+00  0.45593999997E+02  0.45594000000E+02  0.51100000000E-03 0.  1.
         11   -1    0    0    0    0 -0.00000000000E+00 -0.00000000000E+00 -0.45593999997E+02  0.45594000000E+02  0.51100000000E-03 0. -1.
    9900012    2    1    2    0    0  0.36751086052E+02 -0.31363347222E+01 -0.22872338121E+02  0.47787276820E+02  0.20000026332E+02 0.  0.
        -12    1    1    2    0    0 -0.36751086052E+02  0.31363347222E+01  0.22872338121E+02  0.43400723180E+02  0.00000000000E+00 0.  1.
         11    1    3    3    0    0  0.21929686128E+02 -0.30044430393E+01 -0.20884711719E+02  0.30432038964E+02  0.51100000000E-03 0. -1.
        -11    1    3    3    0    0  0.12024029163E+02 -0.59808520903E+00  0.22587285354E+01  0.12248952531E+02  0.51100000000E-03 0.  1.
        -12    1    3    3    0    0  0.27973707602E+01  0.46619352609E+00 -0.42463549367E+01  0.51062853252E+01  0.00000000000E+00 0.  1.
</event>
<event>
 7    1  0.2756432E-009  0.4778727E+02  0.7816164E-02  0.1312668E+00
        -11   -1    0    0    0    0  0.00000000000E+00  0.00000000000E+00  0.45593999997E+02  0.45594000000E+02  0.51100000000E-03 0. -1.
         11   -1    0    0    0    0 -0.00000000000E+00 -0.00000000000E+00 -0.45593999997E+02  0.45594000000E+02  0.51100000000E-03 0.  1.
    9900012    2    1    2    0    0 -0.33505512420E+01  0.38779802531E+02  0.19196977344E+02  0.47787271698E+02  0.20000002981E+02 0.  0.
        -12    1    1    2    0    0  0.33505512420E+01 -0.38779802531E+02 -0.19196977344E+02  0.43400728302E+02  0.00000000000E+00 0.  1.
         11    1    3    3    0    0  0.44184589728E+01  0.24513843895E+01  0.48355942746E+01  0.69939286076E+01  0.51100000000E-03 0. -1.
        -11    1    3    3    0    0 -0.54581950406E+01  0.81782840818E+01  0.50487787969E+01  0.11052890628E+02  0.51100000000E-03 0.  1.
         12    1    3    3    0    0 -0.23108151742E+01  0.28150134060E+02  0.93126042723E+01  0.29740452463E+02  0.00000000000E+00 0. -1.
</event>
<event>
 7    1  0.2756432E-009  0.4778727E+02  0.7816164E-02  0.1312668E+00
        -11   -1    0    0    0    0  0.00000000000E+00  0.00000000000E+00  0.45593999997E+02  0.45594000000E+02  0.51100000000E-03 0.  1.
         11   -1    0    0    0    0 -0.00000000000E+00 -0.00000000000E+00 -0.45593999997E+02  0.45594000000E+02  0.51100000000E-03 0. -1.
    9900012    2    1    2    0    0 -0.41057404538E+02 -0.94591168781E+01  0.10413358287E+02  0.47787269703E+02  0.19999993885E+02 0.  0.
        -12    1    1    2    0    0  0.41057404538E+02  0.94591168781E+01 -0.10413358287E+02  0.43400730297E+02  0.00000000000E+00 0.  1.
         11    1    3    3    0    0 -0.19317689544E+02 -0.29960777823E+01 -0.45843410745E+00  0.19554021926E+02  0.51100000000E-03 0. -1.
        -11    1    3    3    0    0 -0.16672536229E+01 -0.57315569732E+01  0.23776403791E+01  0.64252357166E+01  0.51100000000E-03 0.  1.
        -12    1    3    3    0    0 -0.20072461371E+02 -0.73148212260E+00  0.84941520153E+01  0.21808012061E+02  0.00000000000E+00 0.  1.
</event>
<event>
 7    1  0.2756432E-009  0.4778727E+02  0.7816164E-02  0.1312668E+00
        -11   -1    0    0    0    0  0.00000000000E+00  0.00000000000E+00  0.45593999997E+02  0.45594000000E+02  0.51100000000E-03 0.  1.
         11   -1    0    0    0    0 -0.00000000000E+00 -0.00000000000E+00 -0.45593999997E+02  0.45594000000E+02  0.51100000000E-03 0. -1.
    9900012    2    1    2    0    0 -0.20605694270E+02  0.20928310720E+02 -0.31953630896E+02  0.47787270129E+02  0.19999995826E+02 0.  0.
        -12    1    1    2    0    0  0.20605694270E+02 -0.20928310720E+02  0.31953630896E+02  0.43400729871E+02  0.00000000000E+00 0.  1.
         11    1    3    3    0    0 -0.17809747600E+02  0.16225386610E+02 -0.26603385621E+02  0.35891369533E+02  0.51100000000E-03 0. -1.
        -11    1    3    3    0    0  0.31693116125E+01  0.17621207670E+01 -0.49150351611E+00  0.36593963522E+01  0.51100000000E-03 0.  1.
        -12    1    3    3    0    0 -0.59652582823E+01  0.29408033428E+01 -0.48587417589E+01  0.82365042437E+01  0.00000000000E+00 0.  1.
</event>
<event>
 7    1  0.3375112E-009  0.4778727E+02  0.7816164E-02  0.1312668E+00
        -11   -1    0    0    0    0  0.00000000000E+00  0.00000000000E+00  0.45593999997E+02  0.45594000000E+02  0.51100000000E-03 0.  1.
         11   -1    0    0    0    0 -0.00000000000E+00 -0.00000000000E+00 -0.45593999997E+02  0.45594000000E+02  0.51100000000E-03 0. -1.
    9900012    2    1    2    0    0  0.38126907577E+02  0.15209002198E+02 -0.14094257799E+02  0.47787274982E+02  0.20000017951E+02 0.  0.
        -12    1    1    2    0    0 -0.38126907577E+02 -0.15209002198E+02  0.14094257799E+02  0.43400725018E+02  0.00000000000E+00 0.  1.
         11    1    3    3    0    0  0.28345028267E+02  0.12843858810E+02 -0.11891400000E+02  0.33313821918E+02  0.51100000000E-03 0. -1.
        -11    1    3    3    0    0  0.52364380857E+01 -0.35453885819E+01  0.91871974824E+00  0.63901572953E+01  0.51100000000E-03 0.  1.
        -12    1    3    3    0    0  0.45454412244E+01  0.59105319700E+01 -0.31215775469E+01  0.80832957681E+01  0.00000000000E+00 0.  1.
</event>
<event>
 7    1  0.2756432E-009  0.4778728E+02  0.7816164E-02  0.1312668E+00
        -11   -1    0    0    0    0  0.00000000000E+00  0.00000000000E+00  0.45593999997E+02  0.45594000000E+02  0.51100000000E-03 0.  1.
         11   -1    0    0    0    0 -0.00000000000E+00 -0.00000000000E+00 -0.45593999997E+02  0.45594000000E+02  0.51100000000E-03 0. -1.
    9900012    2    1    2    0    0  0.10721454544E+02 -0.30795076290E+02 -0.28641510970E+02  0.47787280399E+02  0.20000042652E+02 0.  0.
        -12    1    1    2    0    0 -0.10721454544E+02  0.30795076290E+02  0.28641510970E+02  0.43400719601E+02  0.00000000000E+00 0.  1.
         11    1    3    3    0    0  0.56278403314E+01 -0.84020155791E+01 -0.16977461446E+02  0.19761089292E+02  0.51100000000E-03 0. -1.
        -11    1    3    3    0    0  0.62030217514E+01 -0.11979256887E+02 -0.17462204239E+01  0.13602549777E+02  0.51100000000E-03 0.  1.
        -12    1    3    3    0    0 -0.11094075389E+01 -0.10413803824E+02 -0.99178290998E+01  0.14423641330E+02  0.00000000000E+00 0.  1.
</event>
<event>
 7    1  0.2756432E-009  0.4778728E+02  0.7816164E-02  0.1312668E+00
        -11   -1    0    0    0    0  0.00000000000E+00  0.00000000000E+00  0.45593999997E+02  0.45594000000E+02  0.51100000000E-03 0.  1.
         11   -1    0    0    0    0 -0.00000000000E+00 -0.00000000000E+00 -0.45593999997E+02  0.45594000000E+02  0.51100000000E-03 0. -1.
    9900012    2    1    2    0    0  0.15990235912E+02 -0.94340666639E+00 -0.40336646583E+02  0.47787277446E+02  0.20000029187E+02 0.  0.
        -12    1    1    2    0    0 -0.15990235912E+02  0.94340666639E+00  0.40336646583E+02  0.43400722554E+02  0.00000000000E+00 0.  1.
         11    1    3    3    0    0  0.11376495204E+02 -0.28990227575E+00 -0.27600613168E+02  0.29854690317E+02  0.51100000000E-03 0. -1.
        -11    1    3    3    0    0  0.39200275364E+01 -0.50227955017E+01 -0.26155356953E+01  0.68873883129E+01  0.51100000000E-03 0.  1.
        -12    1    3    3    0    0  0.69371317135E+00  0.43692911110E+01 -0.10120497720E+02  0.11045198816E+02  0.00000000000E+00 0.  1.
</event>
<event>
 7    1  0.2756432E-009  0.4778727E+02  0.7816164E-02  0.1312668E+00
        -11   -1    0    0    0    0  0.00000000000E+00  0.00000000000E+00  0.45593999997E+02  0.45594000000E+02  0.51100000000E-03 0.  1.
         11   -1    0    0    0    0 -0.00000000000E+00 -0.00000000000E+00 -0.45593999997E+02  0.45594000000E+02  0.51100000000E-03 0. -1.
    9900012    2    1    2    0    0 -0.34553911902E+02 -0.25373413417E+02  0.67705293707E+01  0.47787274152E+02  0.20000014169E+02 0.  0.
        -12    1    1    2    0    0  0.34553911902E+02  0.25373413417E+02 -0.67705293707E+01  0.43400725848E+02  0.00000000000E+00 0.  1.
         11    1    3    3    0    0 -0.59358449089E+01 -0.45450416559E+01 -0.23485317136E+01  0.78362784475E+01  0.51100000000E-03 0. -1.
        -11    1    3    3    0    0  0.67523328075E+00  0.62839876182E+00 -0.18094921732E+01  0.20310310616E+01  0.51100000000E-03 0.  1.
        -12    1    3    3    0    0 -0.29293300274E+02 -0.21456770523E+02  0.10928553258E+02  0.37919964643E+02  0.00000000000E+00 0.  1.
</event>
<event>
 7    1  0.2756432E-009  0.4778727E+02  0.7816164E-02  0.1312668E+00
        -11   -1    0    0    0    0  0.00000000000E+00  0.00000000000E+00  0.45593999997E+02  0.45594000000E+02  0.51100000000E-03 0.  1.
         11   -1    0    0    0    0 -0.00000000000E+00 -0.00000000000E+00 -0.45593999997E+02  0.45594000000E+02  0.51100000000E-03 0. -1.
    9900012    2    1    2    0    0  0.16141155131E+02  0.30565587916E+02 -0.26245601015E+02  0.47787266985E+02  0.19999981493E+02 0.  0.
        -12    1    1    2    0    0 -0.16141155131E+02 -0.30565587916E+02  0.26245601015E+02  0.43400733015E+02  0.00000000000E+00 0.  1.
         11    1    3    3    0    0  0.98364003419E+01  0.22831491838E+02 -0.13831036892E+02  0.28448714787E+02  0.51100000000E-03 0. -1.
        -11    1    3    3    0    0  0.55834734196E+01 -0.12776577417E+01 -0.56677280561E+01  0.80579604313E+01  0.51100000000E-03 0.  1.
        -12    1    3    3    0    0  0.72128136910E+00  0.90117538191E+01 -0.67468360668E+01  0.11280591767E+02  0.00000000000E+00 0.  1.
</event>
<event>
 7    1  0.2756432E-009  0.4778727E+02  0.7816164E-02  0.1312668E+00
        -11   -1    0    0    0    0  0.00000000000E+00  0.00000000000E+00  0.45593999997E+02  0.45594000000E+02  0.51100000000E-03 0.  1.
         11   -1    0    0    0    0 -0.00000000000E+00 -0.00000000000E+00 -0.45593999997E+02  0.45594000000E+02  0.51100000000E-03 0. -1.
    9900012    2    1    2    0    0  0.23530059899E+02 -0.32451104693E+02 -0.16639877052E+02  0.47787269327E+02  0.19999992170E+02 0.  0.
        -12    1    1    2    0    0 -0.23530059899E+02  0.32451104693E+02  0.16639877052E+02  0.43400730673E+02  0.00000000000E+00 0.  1.
         11    1    3    3    0    0 -0.60133083627E+00 -0.21277241732E+01  0.79388034427E+00  0.23492669483E+01  0.51100000000E-03 0.  1.
        -11    1    3    3    0    0  0.13591636569E+02 -0.78704972201E+01 -0.11106087199E+01  0.15745182219E+02  0.51100000000E-03 0. -1.
        -12    1    3    3    0    0  0.10539754166E+02 -0.22452883299E+02 -0.16323148676E+02  0.29692820160E+02  0.00000000000E+00 0.  1.
</event>
<event>
 7    1  0.2756432E-009  0.4778727E+02  0.7816164E-02  0.1312668E+00
        -11   -1    0    0    0    0  0.00000000000E+00  0.00000000000E+00  0.45593999997E+02  0.45594000000E+02  0.51100000000E-03 0.  1.
         11   -1    0    0    0    0 -0.00000000000E+00 -0.00000000000E+00 -0.45593999997E+02  0.45594000000E+02  0.51100000000E-03 0. -1.
    9900012    2    1    2    0    0 -0.68140255809E+01 -0.57523621583E+01 -0.42474732682E+02  0.47787268077E+02  0.19999986471E+02 0.  0.
        -12    1    1    2    0    0  0.68140255809E+01  0.57523621583E+01  0.42474732682E+02  0.43400731923E+02  0.00000000000E+00 0.  1.
         11    1    3    3    0    0 -0.18865098306E+01  0.13550443293E+01 -0.20833475327E+02  0.20962556116E+02  0.51100000000E-03 0. -1.
        -11    1    3    3    0    0  0.40419517920E+01 -0.42999377911E+01 -0.50998841348E+01  0.77997216454E+01  0.51100000000E-03 0.  1.
        -12    1    3    3    0    0 -0.89694675424E+01 -0.28074686965E+01 -0.16541373221E+02  0.19024990315E+02  0.00000000000E+00 0.  1.
</event>
<event>
 7    1  0.2756432E-009  0.4778726E+02  0.7816164E-02  0.1312668E+00
        -11   -1    0    0    0    0  0.00000000000E+00  0.00000000000E+00  0.45593999997E+02  0.45594000000E+02  0.51100000000E-03 0.  1.
         11   -1    0    0    0    0 -0.00000000000E+00 -0.00000000000E+00 -0.45593999997E+02  0.45594000000E+02  0.51100000000E-03 0. -1.
    9900012    2    1    2    0    0  0.42086270483E+02  0.42154130655E+01  0.97262566414E+01  0.47787263385E+02  0.19999965075E+02 0.  0.
        -12    1    1    2    0    0 -0.42086270483E+02 -0.42154130655E+01 -0.97262566414E+01  0.43400736615E+02  0.00000000000E+00 0.  1.
         11    1    3    3    0    0  0.68291475654E+01  0.40334745727E+01 -0.15436658548E+01  0.80801657242E+01  0.51100000000E-03 0. -1.
        -11    1    3    3    0    0  0.25138157028E+02 -0.32923318581E+01  0.13581421550E+02  0.28761456837E+02  0.51100000000E-03 0.  1.
        -12    1    3    3    0    0  0.10118965890E+02  0.34742703510E+01 -0.23114990535E+01  0.10945640823E+02  0.00000000000E+00 0.  1.
</event>
<event>
 7    1  0.2756432E-009  0.4778727E+02  0.7816164E-02  0.1312668E+00
        -11   -1    0    0    0    0  0.00000000000E+00  0.00000000000E+00  0.45593999997E+02  0.45594000000E+02  0.51100000000E-03 0.  1.
         11   -1    0    0    0    0 -0.00000000000E+00 -0.00000000000E+00 -0.45593999997E+02  0.45594000000E+02  0.51100000000E-03 0. -1.
    9900012    2    1    2    0    0  0.21500786237E+02  0.37572021607E+02  0.31117331696E+01  0.47787268442E+02  0.19999988134E+02 0.  0.
        -12    1    1    2    0    0 -0.21500786237E+02 -0.37572021607E+02 -0.31117331696E+01  0.43400731558E+02  0.00000000000E+00 0.  1.
         11    1    3    3    0    0  0.44979469887E+00  0.69198728990E+01 -0.48254702547E+01  0.84482021549E+01  0.51100000000E-03 0. -1.
        -11    1    3    3    0    0  0.46371148281E+00  0.29173308984E+01  0.33963385185E+01  0.45012180022E+01  0.51100000000E-03 0.  1.
         12    1    3    3    0    0  0.20587280055E+02  0.27734817810E+02  0.45408649058E+01  0.34837848285E+02  0.00000000000E+00 0. -1.
</event>
<event>
 7    1  0.2756432E-009  0.4778727E+02  0.7816164E-02  0.1312668E+00
        -11   -1    0    0    0    0  0.00000000000E+00  0.00000000000E+00  0.45593999997E+02  0.45594000000E+02  0.51100000000E-03 0. -1.
         11   -1    0    0    0    0 -0.00000000000E+00 -0.00000000000E+00 -0.45593999997E+02  0.45594000000E+02  0.51100000000E-03 0.  1.
    9900012    2    1    2    0    0  0.16207299654E+02  0.35214916233E+02 -0.19515544447E+02  0.47787270024E+02  0.19999995348E+02 0.  0.
        -12    1    1    2    0    0 -0.16207299654E+02 -0.35214916233E+02  0.19515544447E+02  0.43400729976E+02  0.00000000000E+00 0.  1.
         11    1    3    3    0    0 -0.23715157411E+01  0.63170322669E+01 -0.83253236926E+01  0.10716342586E+02  0.51100000000E-03 0. -1.
        -11    1    3    3    0    0  0.81021669677E+01  0.88761386959E+01 -0.75223953151E+01  0.14178059785E+02  0.51100000000E-03 0.  1.
         12    1    3    3    0    0  0.10476648428E+02  0.20021745270E+02 -0.36678254390E+01  0.22892867653E+02  0.00000000000E+00 0. -1.
</event>
<event>
 7    1  0.2756432E-009  0.4778727E+02  0.7816164E-02  0.1312668E+00
        -11   -1    0    0    0    0  0.00000000000E+00  0.00000000000E+00  0.45593999997E+02  0.45594000000E+02  0.51100000000E-03 0.  1.
         11   -1    0    0    0    0 -0.00000000000E+00 -0.00000000000E+00 -0.45593999997E+02  0.45594000000E+02  0.51100000000E-03 0. -1.
    9900012    2    1    2    0    0 -0.37195945749E+02  0.21735434291E+02 -0.52588885047E+01  0.47787269680E+02  0.19999993779E+02 0.  0.
        -12    1    1    2    0    0  0.37195945749E+02 -0.21735434291E+02  0.52588885047E+01  0.43400730320E+02  0.00000000000E+00 0.  1.
         11    1    3    3    0    0 -0.22295379071E+02  0.12001374058E+02 -0.10231763618E+02  0.27309446977E+02  0.51100000000E-03 0. -1.
        -11    1    3    3    0    0 -0.63222671728E+01  0.90021898999E+01  0.44049627081E+01  0.11849649021E+02  0.51100000000E-03 0.  1.
        -12    1    3    3    0    0 -0.85782995054E+01  0.73187033335E+00  0.56791240534E+00  0.86281736821E+01  0.00000000000E+00 0.  1.
</event>
<event>
 7    1  0.2756432E-009  0.4778726E+02  0.7816164E-02  0.1312668E+00
        -11   -1    0    0    0    0  0.00000000000E+00  0.00000000000E+00  0.45593999997E+02  0.45594000000E+02  0.51100000000E-03 0.  1.
         11   -1    0    0    0    0 -0.00000000000E+00 -0.00000000000E+00 -0.45593999997E+02  0.45594000000E+02  0.51100000000E-03 0. -1.
    9900012    2    1    2    0    0  0.23729063199E+02  0.30895639859E+02 -0.19131518862E+02  0.47787262489E+02  0.19999960991E+02 0.  0.
        -12    1    1    2    0    0 -0.23729063199E+02 -0.30895639859E+02  0.19131518862E+02  0.43400737511E+02  0.00000000000E+00 0.  1.
         11    1    3    3    0    0  0.22404890668E+02  0.20737366105E+02 -0.15422372548E+02  0.34203319344E+02  0.51100000000E-03 0. -1.
        -11    1    3    3    0    0 -0.21980794882E+01  0.75311912078E+01 -0.18246220239E-01  0.78454271796E+01  0.51100000000E-03 0.  1.
        -12    1    3    3    0    0  0.35222520187E+01  0.26270825454E+01 -0.36909000937E+01  0.57385159654E+01  0.00000000000E+00 0.  1.
</event>
<event>
 7    1  0.2756432E-009  0.4778727E+02  0.7816164E-02  0.1312668E+00
        -11   -1    0    0    0    0  0.00000000000E+00  0.00000000000E+00  0.45593999997E+02  0.45594000000E+02  0.51100000000E-03 0.  1.
         11   -1    0    0    0    0 -0.00000000000E+00 -0.00000000000E+00 -0.45593999997E+02  0.45594000000E+02  0.51100000000E-03 0. -1.
    9900012    2    1    2    0    0  0.55284997126E+01  0.31799835205E+02 -0.29014293677E+02  0.47787273443E+02  0.20000010937E+02 0.  0.
        -12    1    1    2    0    0 -0.55284997126E+01 -0.31799835205E+02  0.29014293677E+02  0.43400726557E+02  0.00000000000E+00 0.  1.
         11    1    3    3    0    0  0.96508704126E+01  0.16021990174E+02 -0.20359542492E+02  0.27646960766E+02  0.51100000000E-03 0. -1.
        -11    1    3    3    0    0 -0.27569742276E+01  0.15935604193E+02 -0.92629990544E+01  0.18637262128E+02  0.51100000000E-03 0.  1.
         12    1    3    3    0    0 -0.13653964724E+01 -0.15775916286E+00  0.60824786985E+00  0.15030505485E+01  0.00000000000E+00 0. -1.
</event>
<event>
 7    1  0.2756432E-009  0.4778727E+02  0.7816164E-02  0.1312668E+00
        -11   -1    0    0    0    0  0.00000000000E+00  0.00000000000E+00  0.45593999997E+02  0.45594000000E+02  0.51100000000E-03 0.  1.
         11   -1    0    0    0    0 -0.00000000000E+00 -0.00000000000E+00 -0.45593999997E+02  0.45594000000E+02  0.51100000000E-03 0. -1.
    9900012    2    1    2    0    0  0.25618515927E+02 -0.20361666804E+01 -0.34973835294E+02  0.47787268575E+02  0.19999988742E+02 0.  0.
        -12    1    1    2    0    0 -0.25618515927E+02  0.20361666804E+01  0.34973835294E+02  0.43400731425E+02  0.00000000000E+00 0.  1.
         11    1    3    3    0    0  0.68745026417E+01  0.66565022133E+01 -0.14231192446E+02  0.17149187939E+02  0.51100000000E-03 0. -1.
        -11    1    3    3    0    0  0.72384210800E+01 -0.42363888770E+01 -0.27598437802E+01  0.88294092895E+01  0.51100000000E-03 0.  1.
         12    1    3    3    0    0  0.11505592205E+02 -0.44562800166E+01 -0.17982799068E+02  0.21808671347E+02  0.00000000000E+00 0. -1.
</event>
<event>
 7    1  0.2756432E-009  0.4778727E+02  0.7816164E-02  0.1312668E+00
        -11   -1    0    0    0    0  0.00000000000E+00  0.00000000000E+00  0.45593999997E+02  0.45594000000E+02  0.51100000000E-03 0.  1.
         11   -1    0    0    0    0 -0.00000000000E+00 -0.00000000000E+00 -0.45593999997E+02  0.45594000000E+02  0.51100000000E-03 0. -1.
    9900012    2    1    2    0    0 -0.22313706299E+01 -0.42262854494E+02 -0.96174515378E+01  0.47787271216E+02  0.20000000784E+02 0.  0.
        -12    1    1    2    0    0  0.22313706299E+01  0.42262854494E+02  0.96174515378E+01  0.43400728784E+02  0.00000000000E+00 0.  1.
         11    1    3    3    0    0  0.21476186121E+01 -0.24571695779E+01  0.33920590360E+01  0.47070173998E+01  0.51100000000E-03 0. -1.
        -11    1    3    3    0    0 -0.11092721864E+01 -0.71139263111E+01  0.11732939061E+01  0.72948647140E+01  0.51100000000E-03 0.  1.
         12    1    3    3    0    0 -0.32697170555E+01 -0.32691758605E+02 -0.14182804480E+02  0.35785389103E+02  0.00000000000E+00 0. -1.
</event>
<event>
 7    1  0.2756432E-009  0.4778727E+02  0.7816164E-02  0.1312668E+00
        -11   -1    0    0    0    0  0.00000000000E+00  0.00000000000E+00  0.45593999997E+02  0.45594000000E+02  0.51100000000E-03 0. -1.
         11   -1    0    0    0    0 -0.00000000000E+00 -0.00000000000E+00 -0.45593999997E+02  0.45594000000E+02  0.51100000000E-03 0.  1.
    9900012    2    1    2    0    0  0.34213908381E+02 -0.80612587771E+01  0.25456780862E+02  0.47787272914E+02  0.20000008525E+02 0.  0.
        -12    1    1    2    0    0 -0.34213908381E+02  0.80612587771E+01 -0.25456780862E+02  0.43400727086E+02  0.00000000000E+00 0.  1.
         11    1    3    3    0    0  0.71226178571E+01 -0.23553801757E+01 -0.27041973721E+01  0.79744708037E+01  0.51100000000E-03 0.  1.
        -11    1    3    3    0    0  0.25520023561E+02 -0.64854581017E+01  0.26971897832E+02  0.37693713564E+02  0.51100000000E-03 0. -1.
        -12    1    3    3    0    0  0.15712669628E+01  0.77957950026E+00  0.11890804013E+01  0.21190885461E+01  0.00000000000E+00 0.  1.
</event>
<event>
 7    1  0.2756432E-009  0.4778727E+02  0.7816164E-02  0.1312668E+00
        -11   -1    0    0    0    0  0.00000000000E+00  0.00000000000E+00  0.45593999997E+02  0.45594000000E+02  0.51100000000E-03 0.  1.
         11   -1    0    0    0    0 -0.00000000000E+00 -0.00000000000E+00 -0.45593999997E+02  0.45594000000E+02  0.51100000000E-03 0. -1.
    9900012    2    1    2    0    0  0.21910005897E+02  0.15190952771E+02 -0.34246313872E+02  0.47787269381E+02  0.19999992414E+02 0.  0.
        -12    1    1    2    0    0 -0.21910005897E+02 -0.15190952771E+02  0.34246313872E+02  0.43400730619E+02  0.00000000000E+00 0.  1.
         11    1    3    3    0    0  0.21806118221E+01  0.12919700376E+02 -0.10968822241E+02  0.17087679402E+02  0.51100000000E-03 0. -1.
        -11    1    3    3    0    0  0.10940425288E+02  0.18065064318E+01 -0.14667150245E+02  0.18386997241E+02  0.51100000000E-03 0.  1.
         12    1    3    3    0    0  0.87889687865E+01  0.46474596294E+00 -0.86103413854E+01  0.12312592737E+02  0.00000000000E+00 0. -1.
</event>
<event>
 7    1  0.2756432E-009  0.4778727E+02  0.7816164E-02  0.1312668E+00
        -11   -1    0    0    0    0  0.00000000000E+00  0.00000000000E+00  0.45593999997E+02  0.45594000000E+02  0.51100000000E-03 0.  1.
         11   -1    0    0    0    0 -0.00000000000E+00 -0.00000000000E+00 -0.45593999997E+02  0.45594000000E+02  0.51100000000E-03 0. -1.
    9900012    2    1    2    0    0 -0.25644669146E+02  0.16195338981E+02 -0.31043283801E+02  0.47787268100E+02  0.19999986573E+02 0.  0.
        -12    1    1    2    0    0  0.25644669146E+02 -0.16195338981E+02  0.31043283801E+02  0.43400731900E+02  0.00000000000E+00 0.  1.
         11    1    3    3    0    0 -0.22799701526E+02  0.12471411716E+02 -0.24275182450E+02  0.35561875416E+02  0.51100000000E-03 0. -1.
        -11    1    3    3    0    0 -0.63828455557E+00 -0.25305085945E+01 -0.45257189851E+01  0.52242715773E+01  0.51100000000E-03 0.  1.
         12    1    3    3    0    0 -0.22066830650E+01  0.62544358598E+01 -0.22423823663E+01  0.70011211067E+01  0.00000000000E+00 0. -1.
</event>
<event>
 7    1  0.2756432E-009  0.4778727E+02  0.7816164E-02  0.1312668E+00
        -11   -1    0    0    0    0  0.00000000000E+00  0.00000000000E+00  0.45593999997E+02  0.45594000000E+02  0.51100000000E-03 0. -1.
         11   -1    0    0    0    0 -0.00000000000E+00 -0.00000000000E+00 -0.45593999997E+02  0.45594000000E+02  0.51100000000E-03 0.  1.
    9900012    2    1    2    0    0 -0.36920067424E+02  0.18928351403E+02  0.12737705438E+02  0.47787274140E+02  0.20000014112E+02 0.  0.
        -12    1    1    2    0    0  0.36920067424E+02 -0.18928351403E+02 -0.12737705438E+02  0.43400725860E+02  0.00000000000E+00 0.  1.
         11    1    3    3    0    0 -0.12597780550E+02  0.75512146672E+01 -0.13969693684E+01  0.14753861915E+02  0.51100000000E-03 0. -1.
        -11    1    3    3    0    0 -0.10036055190E+01 -0.79278573029E+00  0.50436927349E+01  0.52033229688E+01  0.51100000000E-03 0.  1.
        -12    1    3    3    0    0 -0.23318681355E+02  0.12169922466E+02  0.90909820714E+01  0.27830089255E+02  0.00000000000E+00 0.  1.
</event>
<event>
 7    1  0.2756432E-009  0.4778727E+02  0.7816164E-02  0.1312668E+00
        -11   -1    0    0    0    0  0.00000000000E+00  0.00000000000E+00  0.45593999997E+02  0.45594000000E+02  0.51100000000E-03 0.  1.
         11   -1    0    0    0    0 -0.00000000000E+00 -0.00000000000E+00 -0.45593999997E+02  0.45594000000E+02  0.51100000000E-03 0. -1.
    9900012    2    1    2    0    0 -0.76678409748E-02  0.11837688149E+01 -0.43384581343E+02  0.47787271139E+02  0.20000000429E+02 0.  0.
        -12    1    1    2    0    0  0.76678409748E-02 -0.11837688149E+01  0.43384581343E+02  0.43400728861E+02  0.00000000000E+00 0.  1.
         11    1    3    3    0    0 -0.66461406020E+00 -0.59275347036E+01 -0.89504122093E+01  0.10755801155E+02  0.51100000000E-03 0. -1.
        -11    1    3    3    0    0  0.31455089167E+01  0.65102760626E+01 -0.33554164784E+02  0.34324333866E+02  0.51100000000E-03 0.  1.
        -12    1    3    3    0    0 -0.24885626974E+01  0.60102745594E+00 -0.88000435006E+00  0.27071361174E+01  0.00000000000E+00 0.  1.
</event>
<event>
 7    1  0.2756432E-009  0.4778727E+02  0.7816164E-02  0.1312668E+00
        -11   -1    0    0    0    0  0.00000000000E+00  0.00000000000E+00  0.45593999997E+02  0.45594000000E+02  0.51100000000E-03 0. -1.
         11   -1    0    0    0    0 -0.00000000000E+00 -0.00000000000E+00 -0.45593999997E+02  0.45594000000E+02  0.51100000000E-03 0.  1.
    9900012    2    1    2    0    0 -0.10619953116E+02  0.35771735913E+02  0.22163553794E+02  0.47787267158E+02  0.19999982281E+02 0.  0.
        -12    1    1    2    0    0  0.10619953116E+02 -0.35771735913E+02 -0.22163553794E+02  0.43400732842E+02  0.00000000000E+00 0.  1.
         11    1    3    3    0    0 -0.28701137732E+01  0.24076037954E+02  0.77327412551E+01  0.25449723853E+02  0.51100000000E-03 0. -1.
        -11    1    3    3    0    0  0.23602556911E+00 -0.52126571676E+00  0.48382992339E+01  0.48720186530E+01  0.51100000000E-03 0.  1.
         12    1    3    3    0    0 -0.79858649122E+01  0.12216963676E+02  0.95925133050E+01  0.17465524652E+02  0.00000000000E+00 0. -1.
</event>
<event>
 7    1  0.2756432E-009  0.4778727E+02  0.7816164E-02  0.1312668E+00
        -11   -1    0    0    0    0  0.00000000000E+00  0.00000000000E+00  0.45593999997E+02  0.45594000000E+02  0.51100000000E-03 0.  1.
         11   -1    0    0    0    0 -0.00000000000E+00 -0.00000000000E+00 -0.45593999997E+02  0.45594000000E+02  0.51100000000E-03 0. -1.
    9900012    2    1    2    0    0  0.22605366011E+02  0.15314938389E+02 -0.33735346244E+02  0.47787268479E+02  0.19999988304E+02 0.  0.
        -12    1    1    2    0    0 -0.22605366011E+02 -0.15314938389E+02  0.33735346244E+02  0.43400731521E+02  0.00000000000E+00 0.  1.
         11    1    3    3    0    0  0.14696406989E+02  0.11834402721E+02 -0.31770193902E+02  0.36951085058E+02  0.51100000000E-03 0. -1.
        -11    1    3    3    0    0  0.72089131110E+01  0.49306162372E+01 -0.25888105470E+01  0.91094096971E+01  0.51100000000E-03 0.  1.
         12    1    3    3    0    0  0.70004591113E+00 -0.14500805693E+01  0.62365820542E+00  0.17267737235E+01  0.00000000000E+00 0. -1.
</event>
<event>
 7    1  0.2756432E-009  0.4778727E+02  0.7816164E-02  0.1312668E+00
        -11   -1    0    0    0    0  0.00000000000E+00  0.00000000000E+00  0.45593999997E+02  0.45594000000E+02  0.51100000000E-03 0.  1.
         11   -1    0    0    0    0 -0.00000000000E+00 -0.00000000000E+00 -0.45593999997E+02  0.45594000000E+02  0.51100000000E-03 0. -1.
    9900012    2    1    2    0    0  0.52703305118E+01 -0.32175735614E+02 -0.28645576669E+02  0.47787269492E+02  0.19999992920E+02 0.  0.
        -12    1    1    2    0    0 -0.52703305118E+01  0.32175735614E+02  0.28645576669E+02  0.43400730508E+02  0.00000000000E+00 0.  1.
         11    1    3    3    0    0 -0.30900471786E+01 -0.71019510240E+00  0.10573559659E+01  0.33422702687E+01  0.51100000000E-03 0.  1.
        -11    1    3    3    0    0  0.53740981850E+01 -0.20542318307E+02 -0.15546354550E+02  0.26316476071E+02  0.51100000000E-03 0. -1.
        -12    1    3    3    0    0  0.29862795053E+01 -0.10923222204E+02 -0.14156578084E+02  0.18128523151E+02  0.00000000000E+00 0.  1.
</event>
<event>
 7    1  0.2756432E-009  0.4778727E+02  0.7816164E-02  0.1312668E+00
        -11   -1    0    0    0    0  0.00000000000E+00  0.00000000000E+00  0.45593999997E+02  0.45594000000E+02  0.51100000000E-03 0.  1.
         11   -1    0    0    0    0 -0.00000000000E+00 -0.00000000000E+00 -0.45593999997E+02  0.45594000000E+02  0.51100000000E-03 0. -1.
    9900012    2    1    2    0    0 -0.23071391906E+02 -0.34579070678E+02 -0.12474853938E+02  0.47787271501E+02  0.20000002082E+02 0.  0.
        -12    1    1    2    0    0  0.23071391906E+02  0.34579070678E+02  0.12474853938E+02  0.43400728499E+02  0.00000000000E+00 0.  1.
         11    1    3    3    0    0 -0.13064072925E+02 -0.74608778748E+01  0.24389614800E+00  0.15046401086E+02  0.51100000000E-03 0. -1.
        -11    1    3    3    0    0 -0.87825016207E+01 -0.23439748771E+02 -0.13971744423E+02  0.28666422861E+02  0.51100000000E-03 0.  1.
        -12    1    3    3    0    0 -0.12248173607E+01 -0.36784440325E+01  0.12529943363E+01  0.40744475545E+01  0.00000000000E+00 0.  1.
</event>
<event>
 7    1  0.2756432E-009  0.4778727E+02  0.7816164E-02  0.1312668E+00
        -11   -1    0    0    0    0  0.00000000000E+00  0.00000000000E+00  0.45593999997E+02  0.45594000000E+02  0.51100000000E-03 0. -1.
         11   -1    0    0    0    0 -0.00000000000E+00 -0.00000000000E+00 -0.45593999997E+02  0.45594000000E+02  0.51100000000E-03 0.  1.
    9900012    2    1    2    0    0 -0.39065721619E+01  0.39125807702E+01  0.43047107758E+02  0.47787273270E+02  0.20000010149E+02 0.  0.
        -12    1    1    2    0    0  0.39065721619E+01 -0.39125807702E+01 -0.43047107758E+02  0.43400726730E+02  0.00000000000E+00 0.  1.
         11    1    3    3    0    0  0.19498723682E+01 -0.47362641189E+01  0.68938991914E+01  0.85883669215E+01  0.51100000000E-03 0. -1.
        -11    1    3    3    0    0 -0.31775865275E+01 -0.13507177398E+01  0.33886016420E+01  0.48377800593E+01  0.51100000000E-03 0.  1.
         12    1    3    3    0    0 -0.26788580025E+01  0.99995626289E+01  0.32764606925E+02  0.34361126290E+02  0.00000000000E+00 0. -1.
</event>
<event>
 7    1  0.2756432E-009  0.4778727E+02  0.7816164E-02  0.1312668E+00
        -11   -1    0    0    0    0  0.00000000000E+00  0.00000000000E+00  0.45593999997E+02  0.45594000000E+02  0.51100000000E-03 0. -1.
         11   -1    0    0    0    0 -0.00000000000E+00 -0.00000000000E+00 -0.45593999997E+02  0.45594000000E+02  0.51100000000E-03 0.  1.
    9900012    2    1    2    0    0  0.33399082972E+02  0.27278404221E+02 -0.49003347999E+01  0.47787270037E+02  0.19999995406E+02 0.  0.
        -12    1    1    2    0    0 -0.33399082972E+02 -0.27278404221E+02  0.49003347999E+01  0.43400729963E+02  0.00000000000E+00 0.  1.
         11    1    3    3    0    0  0.21644807863E+02  0.23567978888E+02  0.19223008879E+00  0.31999754514E+02  0.51100000000E-03 0. -1.
        -11    1    3    3    0    0  0.59908340953E+01 -0.22539136341E+01 -0.80618519802E+00  0.64513684333E+01  0.51100000000E-03 0.  1.
         12    1    3    3    0    0  0.57634410133E+01  0.59643389670E+01 -0.42863796907E+01  0.93361470896E+01  0.00000000000E+00 0. -1.
</event>
<event>
 7    1  0.2756432E-009  0.4778727E+02  0.7816164E-02  0.1312668E+00
        -11   -1    0    0    0    0  0.00000000000E+00  0.00000000000E+00  0.45593999997E+02  0.45594000000E+02  0.51100000000E-03 0.  1.
         11   -1    0    0    0    0 -0.00000000000E+00 -0.00000000000E+00 -0.45593999997E+02  0.45594000000E+02  0.51100000000E-03 0. -1.
    9900012    2    1    2    0    0  0.15010905468E+02 -0.35381831992E+02 -0.20159917812E+02  0.47787267238E+02  0.19999982647E+02 0.  0.
        -12    1    1    2    0    0 -0.15010905468E+02  0.35381831992E+02  0.20159917812E+02  0.43400732762E+02  0.00000000000E+00 0.  1.
         11    1    3    3    0    0  0.47459899546E+01 -0.95420786927E+01 -0.13292944562E+02  0.17037548586E+02  0.51100000000E-03 0.  1.
        -11    1    3    3    0    0  0.24067512330E+01 -0.19936163228E+02 -0.36650966067E+01  0.20412642875E+02  0.51100000000E-03 0. -1.
        -12    1    3    3    0    0  0.78581642806E+01 -0.59035900712E+01 -0.32018766428E+01  0.10337075777E+02  0.00000000000E+00 0.  1.
</event>
<event>
 7    1 -0.2756432E-009  0.4778728E+02  0.7816164E-02  0.1312668E+00
        -11   -1    0    0    0    0  0.00000000000E+00  0.00000000000E+00  0.45593999997E+02  0.45594000000E+02  0.51100000000E-03 0. -1.
         11   -1    0    0    0    0 -0.00000000000E+00 -0.00000000000E+00 -0.45593999997E+02  0.45594000000E+02  0.51100000000E-03 0.  1.
    9900012    2    1    2    0    0 -0.28205606672E+02 -0.20340481605E+02  0.25967892926E+02  0.47787275321E+02  0.20000019499E+02 0.  0.
        -12    1    1    2    0    0  0.28205606672E+02  0.20340481605E+02 -0.25967892926E+02  0.43400724679E+02  0.00000000000E+00 0.  1.
         11    1    3    3    0    0 -0.11255638886E+02 -0.77877433836E+01  0.87974234427E+01  0.16270618096E+02  0.51100000000E-03 0. -1.
        -11    1    3    3    0    0 -0.86795945507E+01  0.17199930700E+01  0.19261437843E+01  0.90555931813E+01  0.51100000000E-03 0.  1.
        -12    1    3    3    0    0 -0.82703732352E+01 -0.14272731291E+02  0.15244325699E+02  0.22461064044E+02  0.00000000000E+00 0.  1.
</event>
<event>
 7    1  0.2756432E-009  0.4778728E+02  0.7816164E-02  0.1312668E+00
        -11   -1    0    0    0    0  0.00000000000E+00  0.00000000000E+00  0.45593999997E+02  0.45594000000E+02  0.51100000000E-03 0.  1.
         11   -1    0    0    0    0 -0.00000000000E+00 -0.00000000000E+00 -0.45593999997E+02  0.45594000000E+02  0.51100000000E-03 0. -1.
    9900012    2    1    2    0    0 -0.12768021738E+02 -0.41461223113E+02  0.12518674138E+01  0.47787279117E+02  0.20000036807E+02 0.  0.
        -12    1    1    2    0    0  0.12768021738E+02  0.41461223113E+02 -0.12518674138E+01  0.43400720883E+02  0.00000000000E+00 0.  1.
         11    1    3    3    0    0 -0.11255329354E+02 -0.36108167712E+02 -0.35193079684E+01  0.37985098963E+02  0.51100000000E-03 0. -1.
        -11    1    3    3    0    0 -0.45675794600E-01 -0.63253934966E+01  0.49513790441E+01  0.80329847420E+01  0.51100000000E-03 0.  1.
         12    1    3    3    0    0 -0.14670165898E+01  0.97233809564E+00 -0.18020366189E+00  0.17691954123E+01  0.00000000000E+00 0. -1.
</event>
<event>
 7    1  0.2756432E-009  0.4778727E+02  0.7816164E-02  0.1312668E+00
        -11   -1    0    0    0    0  0.00000000000E+00  0.00000000000E+00  0.45593999997E+02  0.45594000000E+02  0.51100000000E-03 0. -1.
         11   -1    0    0    0    0 -0.00000000000E+00 -0.00000000000E+00 -0.45593999997E+02  0.45594000000E+02  0.51100000000E-03 0.  1.
    9900012    2    1    2    0    0 -0.14721068654E+01 -0.18416720662E+02  0.39271879746E+02  0.47787271465E+02  0.20000001917E+02 0.  0.
        -12    1    1    2    0    0  0.14721068654E+01  0.18416720662E+02 -0.39271879746E+02  0.43400728535E+02  0.00000000000E+00 0.  1.
         11    1    3    3    0    0  0.58702861225E+01 -0.44858730180E+01  0.14342865250E+02  0.16133849501E+02  0.51100000000E-03 0. -1.
        -11    1    3    3    0    0 -0.83016344540E+01 -0.15274478147E+02  0.24318140453E+02  0.29893122497E+02  0.51100000000E-03 0.  1.
        -12    1    3    3    0    0  0.95924146605E+00  0.13436305020E+01  0.61087404314E+00  0.17602994668E+01  0.00000000000E+00 0.  1.
</event>
<event>
 7    1  0.2756432E-009  0.4778724E+02  0.7816164E-02  0.1312668E+00
        -11   -1    0    0    0    0  0.00000000000E+00  0.00000000000E+00  0.45593999997E+02  0.45594000000E+02  0.51100000000E-03 0. -1.
         11   -1    0    0    0    0 -0.00000000000E+00 -0.00000000000E+00 -0.45593999997E+02  0.45594000000E+02  0.51100000000E-03 0.  1.
    9900012    2    1    2    0    0 -0.21784861858E+02  0.28125422512E+02  0.24859735736E+02  0.47787238964E+02  0.19999853733E+02 0.  0.
        -12    1    1    2    0    0  0.21784861858E+02 -0.28125422512E+02 -0.24859735736E+02  0.43400761036E+02  0.00000000000E+00 0.  1.
         11    1    3    3    0    0 -0.13724678124E+02  0.98242167847E+01  0.13847103694E+02  0.21831727050E+02  0.51100000000E-03 0. -1.
        -11    1    3    3    0    0 -0.49433612082E+01  0.19322837032E+02  0.10768423671E+02  0.22666446559E+02  0.51100000000E-03 0.  1.
        -12    1    3    3    0    0 -0.31168225255E+01 -0.10216313050E+01  0.24420837146E+00  0.32890653547E+01  0.00000000000E+00 0.  1.
</event>
<event>
 7    1  0.2756432E-009  0.4778727E+02  0.7816164E-02  0.1312668E+00
        -11   -1    0    0    0    0  0.00000000000E+00  0.00000000000E+00  0.45593999997E+02  0.45594000000E+02  0.51100000000E-03 0. -1.
         11   -1    0    0    0    0 -0.00000000000E+00 -0.00000000000E+00 -0.45593999997E+02  0.45594000000E+02  0.51100000000E-03 0.  1.
    9900012    2    1    2    0    0 -0.24217511963E+01  0.22472819101E+02  0.37050381453E+02  0.47787271400E+02  0.20000001621E+02 0.  0.
        -12    1    1    2    0    0  0.24217511963E+01 -0.22472819101E+02 -0.37050381453E+02  0.43400728600E+02  0.00000000000E+00 0.  1.
         11    1    3    3    0    0 -0.14764354027E+01  0.55994647037E+01  0.15579879558E+00  0.57929388044E+01  0.51100000000E-03 0. -1.
        -11    1    3    3    0    0  0.22969956400E+01  0.27531834482E+01  0.17687803356E+01  0.39980985739E+01  0.51100000000E-03 0.  1.
         12    1    3    3    0    0 -0.32423114336E+01  0.14120170949E+02  0.35125802322E+02  0.37996234022E+02  0.00000000000E+00 0. -1.
</event>
<event>
 7    1  0.2756432E-009  0.4778724E+02  0.7816164E-02  0.1312668E+00
        -11   -1    0    0    0    0  0.00000000000E+00  0.00000000000E+00  0.45593999997E+02  0.45594000000E+02  0.51100000000E-03 0.  1.
         11   -1    0    0    0    0 -0.00000000000E+00 -0.00000000000E+00 -0.45593999997E+02  0.45594000000E+02  0.51100000000E-03 0. -1.
    9900012    2    1    2    0    0  0.30864763342E+02 -0.15414668634E+02 -0.26332118833E+02  0.47787238400E+02  0.19999851158E+02 0.  0.
        -12    1    1    2    0    0 -0.30864763342E+02  0.15414668634E+02  0.26332118833E+02  0.43400761600E+02  0.00000000000E+00 0.  1.
         11    1    3    3    0    0  0.17657619815E+02 -0.13133237057E+02 -0.19056959096E+02  0.29110842368E+02  0.51100000000E-03 0. -1.
        -11    1    3    3    0    0  0.11351450984E+02  0.25649932114E+01 -0.67669290851E+01  0.13462019133E+02  0.51100000000E-03 0.  1.
         12    1    3    3    0    0  0.18556925424E+01 -0.48464247887E+01 -0.50823065157E+00  0.52143768985E+01  0.00000000000E+00 0. -1.
</event>
<event>
 7    1  0.2756432E-009  0.4778728E+02  0.7816164E-02  0.1312668E+00
        -11   -1    0    0    0    0  0.00000000000E+00  0.00000000000E+00  0.45593999997E+02  0.45594000000E+02  0.51100000000E-03 0. -1.
         11   -1    0    0    0    0 -0.00000000000E+00 -0.00000000000E+00 -0.45593999997E+02  0.45594000000E+02  0.51100000000E-03 0.  1.
    9900012    2    1    2    0    0  0.33381980835E+02 -0.23416047943E+02 -0.14864549449E+02  0.47787276780E+02  0.20000026149E+02 0.  0.
        -12    1    1    2    0    0 -0.33381980835E+02  0.23416047943E+02  0.14864549449E+02  0.43400723220E+02  0.00000000000E+00 0.  1.
         11    1    3    3    0    0  0.14088235776E+02 -0.14422168847E+02 -0.56855140056E+01  0.20947611112E+02  0.51100000000E-03 0. -1.
        -11    1    3    3    0    0  0.17446623582E+02 -0.25370749939E+01 -0.96663165315E+01  0.20106195550E+02  0.51100000000E-03 0.  1.
         12    1    3    3    0    0  0.18471214766E+01 -0.64568041025E+01  0.48728108846E+00  0.67334701178E+01  0.00000000000E+00 0. -1.
</event>
<event>
 7    1  0.2756432E-009  0.4778727E+02  0.7816164E-02  0.1312668E+00
        -11   -1    0    0    0    0  0.00000000000E+00  0.00000000000E+00  0.45593999997E+02  0.45594000000E+02  0.51100000000E-03 0.  1.
         11   -1    0    0    0    0 -0.00000000000E+00 -0.00000000000E+00 -0.45593999997E+02  0.45594000000E+02  0.51100000000E-03 0. -1.
    9900012    2    1    2    0    0 -0.11824948099E+02 -0.34870344607E+02 -0.22975052798E+02  0.47787269803E+02  0.19999994341E+02 0.  0.
        -12    1    1    2    0    0  0.11824948099E+02  0.34870344607E+02  0.22975052798E+02  0.43400730197E+02  0.00000000000E+00 0.  1.
         11    1    3    3    0    0  0.34562640495E+01 -0.90146980691E+01 -0.46559099453E+01  0.10718583868E+02  0.51100000000E-03 0. -1.
        -11    1    3    3    0    0 -0.51261708590E+01 -0.12442036972E+01 -0.11816089756E+01  0.54057257189E+01  0.51100000000E-03 0.  1.
         12    1    3    3    0    0 -0.10155041290E+02 -0.24611442841E+02 -0.17137533877E+02  0.31662960216E+02  0.00000000000E+00 0. -1.
</event>
<event>
 7    1  0.2756432E-009  0.4778727E+02  0.7816164E-02  0.1312668E+00
        -11   -1    0    0    0    0  0.00000000000E+00  0.00000000000E+00  0.45593999997E+02  0.45594000000E+02  0.51100000000E-03 0.  1.
         11   -1    0    0    0    0 -0.00000000000E+00 -0.00000000000E+00 -0.45593999997E+02  0.45594000000E+02  0.51100000000E-03 0. -1.
    9900012    2    1    2    0    0  0.71100588007E+01 -0.28006079928E+02 -0.32384095346E+02  0.47787273272E+02  0.20000010157E+02 0.  0.
        -12    1    1    2    0    0 -0.71100588007E+01  0.28006079928E+02  0.32384095346E+02  0.43400726728E+02  0.00000000000E+00 0.  1.
         11    1    3    3    0    0 -0.33999082841E+01 -0.22256579977E+02 -0.21667470393E+02  0.31247303918E+02  0.51100000000E-03 0. -1.
        -11    1    3    3    0    0 -0.68137538604E-01 -0.82691144557E+00 -0.25190946051E+00  0.86711239202E+00  0.51100000000E-03 0.  1.
         12    1    3    3    0    0  0.10578104623E+02 -0.49225885053E+01 -0.10464715493E+02  0.15672856962E+02  0.00000000000E+00 0. -1.
</event>
<event>
 7    1  0.2756432E-009  0.4778727E+02  0.7816164E-02  0.1312668E+00
        -11   -1    0    0    0    0  0.00000000000E+00  0.00000000000E+00  0.45593999997E+02  0.45594000000E+02  0.51100000000E-03 0. -1.
         11   -1    0    0    0    0 -0.00000000000E+00 -0.00000000000E+00 -0.45593999997E+02  0.45594000000E+02  0.51100000000E-03 0.  1.
    9900012    2    1    2    0    0  0.17629745693E+02 -0.33109018667E+02 -0.21831359229E+02  0.47787270789E+02  0.19999998834E+02 0.  0.
        -12    1    1    2    0    0 -0.17629745693E+02  0.33109018667E+02  0.21831359229E+02  0.43400729211E+02  0.00000000000E+00 0.  1.
         11    1    3    3    0    0  0.83859016508E+01 -0.33717344230E+01 -0.11446925430E+01  0.91105576556E+01  0.51100000000E-03 0. -1.
        -11    1    3    3    0    0  0.19370145473E+01 -0.10277923459E+01  0.50805045851E+00  0.22508882674E+01  0.51100000000E-03 0.  1.
         12    1    3    3    0    0  0.73068294948E+01 -0.28709491898E+02 -0.21194717145E+02  0.36425824866E+02  0.00000000000E+00 0. -1.
</event>
<event>
 7    1  0.3141698E-009  0.4778727E+02  0.7816164E-02  0.1312668E+00
        -11   -1    0    0    0    0  0.00000000000E+00  0.00000000000E+00  0.45593999997E+02  0.45594000000E+02  0.51100000000E-03 0. -1.
         11   -1    0    0    0    0 -0.00000000000E+00 -0.00000000000E+00 -0.45593999997E+02  0.45594000000E+02  0.51100000000E-03 0.  1.
    9900012    2    1    2    0    0  0.37035503071E+02  0.15678645741E+02  0.16314868216E+02  0.47787270226E+02  0.19999996269E+02 0.  0.
        -12    1    1    2    0    0 -0.37035503071E+02 -0.15678645741E+02 -0.16314868216E+02  0.43400729774E+02  0.00000000000E+00 0.  1.
         11    1    3    3    0    0  0.88241122932E+01  0.22374064195E+01  0.27072584532E+01  0.94973782616E+01  0.51100000000E-03 0. -1.
        -11    1    3    3    0    0  0.27231003839E+02  0.58964917758E+01  0.12725943831E+02  0.30630798749E+02  0.51100000000E-03 0.  1.
        -12    1    3    3    0    0  0.98038693938E+00  0.75447475456E+01  0.88166593105E+00  0.76590932160E+01  0.00000000000E+00 0.  1.
</event>
<event>
 7    1  0.2756432E-009  0.4778727E+02  0.7816164E-02  0.1312668E+00
        -11   -1    0    0    0    0  0.00000000000E+00  0.00000000000E+00  0.45593999997E+02  0.45594000000E+02  0.51100000000E-03 0. -1.
         11   -1    0    0    0    0 -0.00000000000E+00 -0.00000000000E+00 -0.45593999997E+02  0.45594000000E+02  0.51100000000E-03 0.  1.
    9900012    2    1    2    0    0 -0.24631545495E+02  0.31625766732E+02  0.16634933324E+02  0.47787272339E+02  0.20000005902E+02 0.  0.
        -12    1    1    2    0    0  0.24631545495E+02 -0.31625766732E+02 -0.16634933324E+02  0.43400727661E+02  0.00000000000E+00 0.  1.
         11    1    3    3    0    0 -0.75014245418E+01  0.15663249413E+02  0.16743740772E+02  0.24123880443E+02  0.51100000000E-03 0. -1.
        -11    1    3    3    0    0 -0.15343440415E+00  0.44212585921E+00 -0.46352584342E+00  0.65869102043E+00  0.51100000000E-03 0.  1.
         12    1    3    3    0    0 -0.16976686549E+02  0.15520391460E+02  0.35471839501E+00  0.23004700875E+02  0.00000000000E+00 0. -1.
</event>
<event>
 7    1  0.2756432E-009  0.4778727E+02  0.7816164E-02  0.1312668E+00
        -11   -1    0    0    0    0  0.00000000000E+00  0.00000000000E+00  0.45593999997E+02  0.45594000000E+02  0.51100000000E-03 0. -1.
         11   -1    0    0    0    0 -0.00000000000E+00 -0.00000000000E+00 -0.45593999997E+02  0.45594000000E+02  0.51100000000E-03 0.  1.
    9900012    2    1    2    0    0 -0.53481430740E+01  0.13020055440E+02  0.41054831935E+02  0.47787266098E+02  0.19999977446E+02 0.  0.
        -12    1    1    2    0    0  0.53481430740E+01 -0.13020055440E+02 -0.41054831935E+02  0.43400733902E+02  0.00000000000E+00 0.  1.
         11    1    3    3    0    0 -0.55716614084E+01  0.27742960326E+01  0.12447635604E+02  0.13917031354E+02  0.51100000000E-03 0. -1.
        -11    1    3    3    0    0  0.76803658367E+00 -0.31304466298E+00 -0.16348973141E+01  0.18332393852E+01  0.51100000000E-03 0.  1.
         12    1    3    3    0    0 -0.54451824920E+00  0.10558804071E+02  0.30242093645E+02  0.32036995358E+02  0.00000000000E+00 0. -1.
</event>
<event>
 7    1  0.2756432E-009  0.4778727E+02  0.7816164E-02  0.1312668E+00
        -11   -1    0    0    0    0  0.00000000000E+00  0.00000000000E+00  0.45593999997E+02  0.45594000000E+02  0.51100000000E-03 0.  1.
         11   -1    0    0    0    0 -0.00000000000E+00 -0.00000000000E+00 -0.45593999997E+02  0.45594000000E+02  0.51100000000E-03 0. -1.
    9900012    2    1    2    0    0 -0.10885849639E+01 -0.22443555816E+01 -0.43328986198E+02  0.47787271963E+02  0.20000004190E+02 0.  0.
        -12    1    1    2    0    0  0.10885849639E+01  0.22443555816E+01  0.43328986198E+02  0.43400728037E+02  0.00000000000E+00 0.  1.
         11    1    3    3    0    0 -0.20106056556E+01  0.83888216933E+00  0.11794883549E+01  0.24773880271E+01  0.51100000000E-03 0.  1.
        -11    1    3    3    0    0  0.29626578135E+00 -0.36194435817E+01 -0.44314816223E+02  0.44463367871E+02  0.51100000000E-03 0. -1.
         12    1    3    3    0    0  0.62575491040E+00  0.53620583077E+00 -0.19365832939E+00  0.84651606564E+00  0.00000000000E+00 0. -1.
</event>
<event>
 7    1  0.2756432E-009  0.4778727E+02  0.7816164E-02  0.1312668E+00
        -11   -1    0    0    0    0  0.00000000000E+00  0.00000000000E+00  0.45593999997E+02  0.45594000000E+02  0.51100000000E-03 0.  1.
         11   -1    0    0    0    0 -0.00000000000E+00 -0.00000000000E+00 -0.45593999997E+02  0.45594000000E+02  0.51100000000E-03 0. -1.
    9900012    2    1    2    0    0 -0.25595615048E+02  0.13644778303E+02 -0.32284796998E+02  0.47787267267E+02  0.19999982776E+02 0.  0.
        -12    1    1    2    0    0  0.25595615048E+02 -0.13644778303E+02  0.32284796998E+02  0.43400732733E+02  0.00000000000E+00 0.  1.
         11    1    3    3    0    0 -0.19520692005E+02  0.92142394685E+01 -0.28735149962E+02  0.35939789495E+02  0.51100000000E-03 0. -1.
        -11    1    3    3    0    0 -0.52892834422E+01  0.53541752504E+01  0.57514644308E+00  0.75481458409E+01  0.51100000000E-03 0.  1.
         12    1    3    3    0    0 -0.78563960065E+00 -0.92363641612E+00 -0.41247934783E+01  0.42993319307E+01  0.00000000000E+00 0. -1.
</event>
<event>
 7    1  0.2756432E-009  0.4778727E+02  0.7816164E-02  0.1312668E+00
        -11   -1    0    0    0    0  0.00000000000E+00  0.00000000000E+00  0.45593999997E+02  0.45594000000E+02  0.51100000000E-03 0.  1.
         11   -1    0    0    0    0 -0.00000000000E+00 -0.00000000000E+00 -0.45593999997E+02  0.45594000000E+02  0.51100000000E-03 0. -1.
    9900012    2    1    2    0    0  0.42356523678E+02  0.32108862341E+01 -0.89015890533E+01  0.47787272170E+02  0.20000005134E+02 0.  0.
        -12    1    1    2    0    0 -0.42356523678E+02 -0.32108862341E+01  0.89015890533E+01  0.43400727830E+02  0.00000000000E+00 0.  1.
         11    1    3    3    0    0  0.92882063446E+01  0.25744676405E+01 -0.43004375495E+01  0.10554260946E+02  0.51100000000E-03 0. -1.
        -11    1    3    3    0    0  0.14281668156E+02 -0.13740373801E+01 -0.10110654417E+02  0.17552189522E+02  0.51100000000E-03 0.  1.
        -12    1    3    3    0    0  0.18786649178E+02  0.20104559738E+01  0.55095029128E+01  0.19680821703E+02  0.00000000000E+00 0.  1.
</event>
<event>
 7    1  0.2756432E-009  0.4778727E+02  0.7816164E-02  0.1312668E+00
        -11   -1    0    0    0    0  0.00000000000E+00  0.00000000000E+00  0.45593999997E+02  0.45594000000E+02  0.51100000000E-03 0. -1.
         11   -1    0    0    0    0 -0.00000000000E+00 -0.00000000000E+00 -0.45593999997E+02  0.45594000000E+02  0.51100000000E-03 0.  1.
    9900012    2    1    2    0    0 -0.28284004685E+02  0.29033827697E+02  0.15513700266E+02  0.47787274572E+02  0.20000016083E+02 0.  0.
        -12    1    1    2    0    0  0.28284004685E+02 -0.29033827697E+02 -0.15513700266E+02  0.43400725428E+02  0.00000000000E+00 0.  1.
         11    1    3    3    0    0 -0.11523065817E+02  0.79325812315E+01 -0.20800288047E+01  0.14143316828E+02  0.51100000000E-03 0. -1.
        -11    1    3    3    0    0 -0.13762756203E+02  0.14018152401E+02  0.16912942858E+02  0.25922378198E+02  0.51100000000E-03 0.  1.
        -12    1    3    3    0    0 -0.29981826646E+01  0.70830940642E+01  0.68078621269E+00  0.77215795456E+01  0.00000000000E+00 0.  1.
</event>
<event>
 7    1  0.2756432E-009  0.4778728E+02  0.7816164E-02  0.1312668E+00
        -11   -1    0    0    0    0  0.00000000000E+00  0.00000000000E+00  0.45593999997E+02  0.45594000000E+02  0.51100000000E-03 0.  1.
         11   -1    0    0    0    0 -0.00000000000E+00 -0.00000000000E+00 -0.45593999997E+02  0.45594000000E+02  0.51100000000E-03 0. -1.
    9900012    2    1    2    0    0 -0.43347654733E+02 -0.83418107843E+00  0.19766423176E+01  0.47787284064E+02  0.20000059362E+02 0.  0.
        -12    1    1    2    0    0  0.43347654733E+02  0.83418107843E+00 -0.19766423176E+01  0.43400715936E+02  0.00000000000E+00 0.  1.
         11    1    3    3    0    0 -0.30273102840E+02 -0.32598792711E-01 -0.33526229771E+01  0.30458199214E+02  0.51100000000E-03 0. -1.
        -11    1    3    3    0    0 -0.10635184613E+02  0.22842167090E+01  0.21857952612E+00  0.10879916130E+02  0.51100000000E-03 0.  1.
         12    1    3    3    0    0 -0.24393672794E+01 -0.30857989947E+01  0.51106857686E+01  0.64491687204E+01  0.00000000000E+00 0. -1.
</event>
<event>
 7    1  0.2756432E-009  0.4778732E+02  0.7816164E-02  0.1312668E+00
        -11   -1    0    0    0    0  0.00000000000E+00  0.00000000000E+00  0.45593999997E+02  0.45594000000E+02  0.51100000000E-03 0.  1.
         11   -1    0    0    0    0 -0.00000000000E+00 -0.00000000000E+00 -0.45593999997E+02  0.45594000000E+02  0.51100000000E-03 0. -1.
    9900012    2    1    2    0    0  0.28870033913E+02  0.11781537924E+02 -0.30188338859E+02  0.47787316859E+02  0.20000208888E+02 0.  0.
        -12    1    1    2    0    0 -0.28870033913E+02 -0.11781537924E+02  0.30188338859E+02  0.43400683141E+02  0.00000000000E+00 0.  1.
         11    1    3    3    0    0  0.18145442622E+02  0.56697163871E+01 -0.85860486585E+01  0.20859602194E+02  0.51100000000E-03 0. -1.
        -11    1    3    3    0    0  0.36007267572E+01  0.52325803642E+01 -0.30717744335E+01  0.70555601393E+01  0.51100000000E-03 0.  1.
         12    1    3    3    0    0  0.71238645346E+01  0.87924117271E+00 -0.18530515767E+02  0.19872154527E+02  0.00000000000E+00 0. -1.
</event>
<event>
 7    1  0.2756432E-009  0.4778727E+02  0.7816164E-02  0.1312668E+00
        -11   -1    0    0    0    0  0.00000000000E+00  0.00000000000E+00  0.45593999997E+02  0.45594000000E+02  0.51100000000E-03 0.  1.
         11   -1    0    0    0    0 -0.00000000000E+00 -0.00000000000E+00 -0.45593999997E+02  0.45594000000E+02  0.51100000000E-03 0. -1.
    9900012    2    1    2    0    0 -0.13333101522E+02  0.10730648044E+02 -0.39883641213E+02  0.47787271434E+02  0.20000001777E+02 0.  0.
        -12    1    1    2    0    0  0.13333101522E+02 -0.10730648044E+02  0.39883641213E+02  0.43400728566E+02  0.00000000000E+00 0.  1.
         11    1    3    3    0    0 -0.80933145082E+01  0.56762663922E+01 -0.36227503720E+02  0.37552014139E+02  0.51100000000E-03 0. -1.
        -11    1    3    3    0    0  0.13785561802E+01  0.95569704314E+00 -0.12340207289E+01  0.20824460139E+01  0.51100000000E-03 0.  1.
         12    1    3    3    0    0 -0.66183431945E+01  0.40986846090E+01 -0.24221167638E+01  0.81528112808E+01  0.00000000000E+00 0. -1.
</event>
<event>
 7    1  0.2756432E-009  0.4778727E+02  0.7816164E-02  0.1312668E+00
        -11   -1    0    0    0    0  0.00000000000E+00  0.00000000000E+00  0.45593999997E+02  0.45594000000E+02  0.51100000000E-03 0.  1.
         11   -1    0    0    0    0 -0.00000000000E+00 -0.00000000000E+00 -0.45593999997E+02  0.45594000000E+02  0.51100000000E-03 0. -1.
    9900012    2    1    2    0    0 -0.93842590348E+01  0.34850477688E+02 -0.24104013006E+02  0.47787267797E+02  0.19999985194E+02 0.  0.
        -12    1    1    2    0    0  0.93842590348E+01 -0.34850477688E+02  0.24104013006E+02  0.43400732203E+02  0.00000000000E+00 0.  1.
         11    1    3    3    0    0 -0.88466451521E+01  0.13186712194E+02 -0.17964027394E+01  0.15980599864E+02  0.51100000000E-03 0. -1.
        -11    1    3    3    0    0  0.14741911903E+01  0.18892556601E+02 -0.16818820391E+02  0.25337218754E+02  0.51100000000E-03 0.  1.
         12    1    3    3    0    0 -0.20118050730E+01  0.27712088930E+01 -0.54887898762E+01  0.64694491794E+01  0.00000000000E+00 0. -1.
</event>
<event>
 7    1  0.2756432E-009  0.4778727E+02  0.7816164E-02  0.1312668E+00
        -11   -1    0    0    0    0  0.00000000000E+00  0.00000000000E+00  0.45593999997E+02  0.45594000000E+02  0.51100000000E-03 0. -1.
         11   -1    0    0    0    0 -0.00000000000E+00 -0.00000000000E+00 -0.45593999997E+02  0.45594000000E+02  0.51100000000E-03 0.  1.
    9900012    2    1    2    0    0 -0.22035055947E+02  0.12674086579E+02  0.35177373848E+02  0.47787265075E+02  0.19999972783E+02 0.  0.
        -12    1    1    2    0    0  0.22035055947E+02 -0.12674086579E+02 -0.35177373848E+02  0.43400734925E+02  0.00000000000E+00 0.  1.
         11    1    3    3    0    0 -0.15354161715E+02 -0.41398221618E+00  0.10128317143E+02  0.18398491015E+02  0.51100000000E-03 0. -1.
        -11    1    3    3    0    0 -0.67536271194E+01  0.12786044598E+02  0.22017314439E+02  0.26341156981E+02  0.51100000000E-03 0.  1.
        -12    1    3    3    0    0  0.72732887249E-01  0.30202419669E+00  0.30317422666E+01  0.30476170789E+01  0.00000000000E+00 0.  1.
</event>
<event>
 7    1  0.2770269E-009  0.4778727E+02  0.7816164E-02  0.1312668E+00
        -11   -1    0    0    0    0  0.00000000000E+00  0.00000000000E+00  0.45593999997E+02  0.45594000000E+02  0.51100000000E-03 0.  1.
         11   -1    0    0    0    0 -0.00000000000E+00 -0.00000000000E+00 -0.45593999997E+02  0.45594000000E+02  0.51100000000E-03 0. -1.
    9900012    2    1    2    0    0 -0.34434919642E+02 -0.20533843923E+02 -0.16619900619E+02  0.47787268053E+02  0.19999986359E+02 0.  0.
        -12    1    1    2    0    0  0.34434919642E+02  0.20533843923E+02  0.16619900619E+02  0.43400731947E+02  0.00000000000E+00 0.  1.
         11    1    3    3    0    0 -0.16137712763E+02 -0.71185777495E+01 -0.11265669806E+02  0.20928813603E+02  0.51100000000E-03 0. -1.
        -11    1    3    3    0    0 -0.16857951839E+02 -0.15742164394E+02 -0.30202657776E+01  0.23262164251E+02  0.51100000000E-03 0.  1.
        -12    1    3    3    0    0 -0.14392550397E+01  0.23268982213E+01 -0.23339650353E+01  0.35962901979E+01  0.00000000000E+00 0.  1.
</event>
<event>
 7    1  0.2756432E-009  0.4778727E+02  0.7816164E-02  0.1312668E+00
        -11   -1    0    0    0    0  0.00000000000E+00  0.00000000000E+00  0.45593999997E+02  0.45594000000E+02  0.51100000000E-03 0.  1.
         11   -1    0    0    0    0 -0.00000000000E+00 -0.00000000000E+00 -0.45593999997E+02  0.45594000000E+02  0.51100000000E-03 0. -1.
    9900012    2    1    2    0    0 -0.29841054777E+02  0.19183434606E+02 -0.25002608360E+02  0.47787272607E+02  0.20000007124E+02 0.  0.
        -12    1    1    2    0    0  0.29841054777E+02 -0.19183434606E+02  0.25002608360E+02  0.43400727393E+02  0.00000000000E+00 0.  1.
         11    1    3    3    0    0 -0.20676396861E+02  0.30855016455E+01 -0.11043953382E+02  0.23643236118E+02  0.51100000000E-03 0. -1.
        -11    1    3    3    0    0 -0.24608814587E+01  0.70672450861E+01 -0.20398256187E+01  0.77564669455E+01  0.51100000000E-03 0.  1.
         12    1    3    3    0    0 -0.67037764572E+01  0.90306878742E+01 -0.11918829359E+02  0.16387569544E+02  0.00000000000E+00 0. -1.
</event>
<event>
 7    1  0.2756432E-009  0.4778727E+02  0.7816164E-02  0.1312668E+00
        -11   -1    0    0    0    0  0.00000000000E+00  0.00000000000E+00  0.45593999997E+02  0.45594000000E+02  0.51100000000E-03 0.  1.
         11   -1    0    0    0    0 -0.00000000000E+00 -0.00000000000E+00 -0.45593999997E+02  0.45594000000E+02  0.51100000000E-03 0. -1.
    9900012    2    1    2    0    0 -0.41392532410E+02  0.37833254859E+01 -0.12488710784E+02  0.47787272033E+02  0.20000004506E+02 0.  0.
        -12    1    1    2    0    0  0.41392532410E+02 -0.37833254859E+01  0.12488710784E+02  0.43400727967E+02  0.00000000000E+00 0.  1.
         11    1    3    3    0    0 -0.98372471233E+01  0.92714678358E+01 -0.70173947182E+01  0.15230737858E+02  0.51100000000E-03 0. -1.
        -11    1    3    3    0    0 -0.30387543338E+02 -0.49812981797E+01 -0.49860207924E+01  0.31194174541E+02  0.51100000000E-03 0.  1.
         12    1    3    3    0    0 -0.11677419486E+01 -0.50684417009E+00 -0.48529527364E+00  0.13623596346E+01  0.00000000000E+00 0. -1.
</event>
<event>
 7    1  0.2756432E-009  0.4778730E+02  0.7816164E-02  0.1312668E+00
        -11   -1    0    0    0    0  0.00000000000E+00  0.00000000000E+00  0.45593999997E+02  0.45594000000E+02  0.51100000000E-03 0.  1.
         11   -1    0    0    0    0 -0.00000000000E+00 -0.00000000000E+00 -0.45593999997E+02  0.45594000000E+02  0.51100000000E-03 0. -1.
    9900012    2    1    2    0    0  0.16680150274E+02 -0.12181086313E+02 -0.38170862858E+02  0.47787296685E+02  0.20000116903E+02 0.  0.
        -12    1    1    2    0    0 -0.16680150274E+02  0.12181086313E+02  0.38170862858E+02  0.43400703315E+02  0.00000000000E+00 0.  1.
         11    1    3    3    0    0  0.30652319893E+01  0.29490407235E+01 -0.18843756695E+02  0.19317858447E+02  0.51100000000E-03 0. -1.
        -11    1    3    3    0    0  0.76684282985E+01 -0.11020490241E+02 -0.14588621898E+02  0.19826343255E+02  0.51100000000E-03 0.  1.
         12    1    3    3    0    0  0.59464899866E+01 -0.41096367955E+01 -0.47384842654E+01  0.86430949830E+01  0.00000000000E+00 0. -1.
</event>
<event>
 7    1  0.3431369E-009  0.4778727E+02  0.7816164E-02  0.1312668E+00
        -11   -1    0    0    0    0  0.00000000000E+00  0.00000000000E+00  0.45593999997E+02  0.45594000000E+02  0.51100000000E-03 0.  1.
         11   -1    0    0    0    0 -0.00000000000E+00 -0.00000000000E+00 -0.45593999997E+02  0.45594000000E+02  0.51100000000E-03 0. -1.
    9900012    2    1    2    0    0 -0.35723706656E+02 -0.57028564122E+01 -0.23977434268E+02  0.47787272557E+02  0.20000006895E+02 0.  0.
        -12    1    1    2    0    0  0.35723706656E+02  0.57028564122E+01  0.23977434268E+02  0.43400727443E+02  0.00000000000E+00 0.  1.
         11    1    3    3    0    0 -0.19264678091E+02 -0.12213370135E+01 -0.86189221680E+01  0.21140134949E+02  0.51100000000E-03 0. -1.
        -11    1    3    3    0    0 -0.28436773311E+01 -0.73251999074E+01 -0.51809173687E+01  0.94120645710E+01  0.51100000000E-03 0.  1.
        -12    1    3    3    0    0 -0.13615351234E+02  0.28436805087E+01 -0.10177594732E+02  0.17235073037E+02  0.00000000000E+00 0.  1.
</event>
<event>
 7    1  0.2756432E-009  0.4778726E+02  0.7816164E-02  0.1312668E+00
        -11   -1    0    0    0    0  0.00000000000E+00  0.00000000000E+00  0.45593999997E+02  0.45594000000E+02  0.51100000000E-03 0.  1.
         11   -1    0    0    0    0 -0.00000000000E+00 -0.00000000000E+00 -0.45593999997E+02  0.45594000000E+02  0.51100000000E-03 0. -1.
    9900012    2    1    2    0    0 -0.17832536047E+02  0.33449725052E+02 -0.21136247259E+02  0.47787258116E+02  0.19999941052E+02 0.  0.
        -12    1    1    2    0    0  0.17832536047E+02 -0.33449725052E+02  0.21136247259E+02  0.43400741884E+02  0.00000000000E+00 0.  1.
         11    1    3    3    0    0 -0.10527415195E+02  0.12224463433E+02 -0.66574655896E+01  0.17452387380E+02  0.51100000000E-03 0. -1.
        -11    1    3    3    0    0 -0.42004767930E+01  0.12625725111E+02 -0.11316372657E+00  0.13306605359E+02  0.51100000000E-03 0.  1.
        -12    1    3    3    0    0 -0.31046440587E+01  0.85995365078E+01 -0.14365617943E+02  0.17028265377E+02  0.00000000000E+00 0.  1.
</event>
<event>
 7    1  0.2756432E-009  0.4778727E+02  0.7816164E-02  0.1312668E+00
        -11   -1    0    0    0    0  0.00000000000E+00  0.00000000000E+00  0.45593999997E+02  0.45594000000E+02  0.51100000000E-03 0. -1.
         11   -1    0    0    0    0 -0.00000000000E+00 -0.00000000000E+00 -0.45593999997E+02  0.45594000000E+02  0.51100000000E-03 0.  1.
    9900012    2    1    2    0    0  0.34214003944E+02  0.21209219913E+02  0.16223262048E+02  0.47787270666E+02  0.19999998275E+02 0.  0.
        -12    1    1    2    0    0 -0.34214003944E+02 -0.21209219913E+02 -0.16223262048E+02  0.43400729334E+02  0.00000000000E+00 0.  1.
         11    1    3    3    0    0  0.29593543991E+02  0.13833222636E+02  0.46475266406E+01  0.32995990644E+02  0.51100000000E-03 0. -1.
        -11    1    3    3    0    0  0.10440859617E+01  0.44705770644E-01  0.14853416985E+01  0.18161371985E+01  0.51100000000E-03 0.  1.
         12    1    3    3    0    0  0.35763739918E+01  0.73312915069E+01  0.10090393709E+02  0.12975142824E+02  0.00000000000E+00 0. -1.
</event>
<event>
 7    1  0.2756432E-009  0.4778727E+02  0.7816164E-02  0.1312668E+00
        -11   -1    0    0    0    0  0.00000000000E+00  0.00000000000E+00  0.45593999997E+02  0.45594000000E+02  0.51100000000E-03 0.  1.
         11   -1    0    0    0    0 -0.00000000000E+00 -0.00000000000E+00 -0.45593999997E+02  0.45594000000E+02  0.51100000000E-03 0. -1.
    9900012    2    1    2    0    0 -0.15275395180E+02  0.30161233751E+02 -0.27213703616E+02  0.47787269778E+02  0.19999994226E+02 0.  0.
        -12    1    1    2    0    0  0.15275395180E+02 -0.30161233751E+02  0.27213703616E+02  0.43400730222E+02  0.00000000000E+00 0.  1.
         11    1    3    3    0    0 -0.14862210356E+02  0.12587405840E+02 -0.20868460561E+02  0.28545064879E+02  0.51100000000E-03 0. -1.
        -11    1    3    3    0    0  0.60830054707E+00  0.20024392101E+01  0.57704771679E+00  0.21708930591E+01  0.51100000000E-03 0.  1.
         12    1    3    3    0    0 -0.10214853709E+01  0.15571388701E+02 -0.69222907714E+01  0.17071311840E+02  0.00000000000E+00 0. -1.
</event>
<event>
 7    1  0.2756432E-009  0.4778728E+02  0.7816164E-02  0.1312668E+00
        -11   -1    0    0    0    0  0.00000000000E+00  0.00000000000E+00  0.45593999997E+02  0.45594000000E+02  0.51100000000E-03 0.  1.
         11   -1    0    0    0    0 -0.00000000000E+00 -0.00000000000E+00 -0.45593999997E+02  0.45594000000E+02  0.51100000000E-03 0. -1.
    9900012    2    1    2    0    0 -0.21086833892E+02  0.32924268661E+02 -0.18840384399E+02  0.47787284398E+02  0.20000060885E+02 0.  0.
        -12    1    1    2    0    0  0.21086833892E+02 -0.32924268661E+02  0.18840384399E+02  0.43400715602E+02  0.00000000000E+00 0.  1.
         11    1    3    3    0    0 -0.13233780209E+02  0.70876812851E+01 -0.67064197040E+01  0.16442147978E+02  0.51100000000E-03 0. -1.
        -11    1    3    3    0    0 -0.63669679299E+01  0.58899080211E+01 -0.19084933621E+01  0.88809709093E+01  0.51100000000E-03 0.  1.
         12    1    3    3    0    0 -0.14860857535E+01  0.19946679355E+02 -0.10225471333E+02  0.22464165511E+02  0.00000000000E+00 0. -1.
</event>
<event>
 7    1  0.2756432E-009  0.4778727E+02  0.7816164E-02  0.1312668E+00
        -11   -1    0    0    0    0  0.00000000000E+00  0.00000000000E+00  0.45593999997E+02  0.45594000000E+02  0.51100000000E-03 0.  1.
         11   -1    0    0    0    0 -0.00000000000E+00 -0.00000000000E+00 -0.45593999997E+02  0.45594000000E+02  0.51100000000E-03 0. -1.
    9900012    2    1    2    0    0  0.34355589481E+02  0.21262097680E+02 -0.15850552562E+02  0.47787270250E+02  0.19999996378E+02 0.  0.
        -12    1    1    2    0    0 -0.34355589481E+02 -0.21262097680E+02  0.15850552562E+02  0.43400729750E+02  0.00000000000E+00 0.  1.
         11    1    3    3    0    0  0.13496618949E+02  0.18008398873E+02 -0.28857255011E+01  0.22688952487E+02  0.51100000000E-03 0. -1.
        -11    1    3    3    0    0  0.20954272442E+02  0.30797354000E+01 -0.12500185967E+02  0.24593107839E+02  0.51100000000E-03 0.  1.
         12    1    3    3    0    0 -0.95301910458E-01  0.17396340684E+00 -0.46464109409E+00  0.50520992407E+00  0.00000000000E+00 0. -1.
</event>
<event>
 7    1  0.3829047E-009  0.4778728E+02  0.7816164E-02  0.1312668E+00
        -11   -1    0    0    0    0  0.00000000000E+00  0.00000000000E+00  0.45593999997E+02  0.45594000000E+02  0.51100000000E-03 0. -1.
         11   -1    0    0    0    0 -0.00000000000E+00 -0.00000000000E+00 -0.45593999997E+02  0.45594000000E+02  0.51100000000E-03 0.  1.
    9900012    2    1    2    0    0 -0.16069288258E+02 -0.35663229587E+02 -0.18802522539E+02  0.47787276233E+02  0.20000023657E+02 0.  0.
        -12    1    1    2    0    0  0.16069288258E+02  0.35663229587E+02  0.18802522539E+02  0.43400723767E+02  0.00000000000E+00 0.  1.
         11    1    3    3    0    0 -0.70050838621E+01 -0.16163403982E+02 -0.14585298196E+02  0.22870455875E+02  0.51100000000E-03 0. -1.
        -11    1    3    3    0    0  0.23735971112E+01 -0.57965158945E+01  0.94802457282E+00  0.63350067572E+01  0.51100000000E-03 0.  1.
        -12    1    3    3    0    0 -0.11437801508E+02 -0.13703309710E+02 -0.51652489153E+01  0.18581813601E+02  0.00000000000E+00 0.  1.
</event>
<event>
 7    1  0.2756432E-009  0.4778727E+02  0.7816164E-02  0.1312668E+00
        -11   -1    0    0    0    0  0.00000000000E+00  0.00000000000E+00  0.45593999997E+02  0.45594000000E+02  0.51100000000E-03 0.  1.
         11   -1    0    0    0    0 -0.00000000000E+00 -0.00000000000E+00 -0.45593999997E+02  0.45594000000E+02  0.51100000000E-03 0. -1.
    9900012    2    1    2    0    0 -0.40888765434E+01  0.19722384979E+02 -0.38443885820E+02  0.47787265702E+02  0.19999975643E+02 0.  0.
        -12    1    1    2    0    0  0.40888765434E+01 -0.19722384979E+02  0.38443885820E+02  0.43400734298E+02  0.00000000000E+00 0.  1.
         11    1    3    3    0    0 -0.35105793276E+01  0.40360823060E+01 -0.24709356355E+02  0.25281740828E+02  0.51100000000E-03 0. -1.
        -11    1    3    3    0    0  0.17514815540E+01  0.13994015370E+02 -0.13646487429E+02  0.19624647085E+02  0.51100000000E-03 0.  1.
         12    1    3    3    0    0 -0.23297787698E+01  0.16922873030E+01 -0.88042036286E-01  0.28808777885E+01  0.00000000000E+00 0. -1.
</event>
<event>
 7    1  0.2756432E-009  0.4778728E+02  0.7816164E-02  0.1312668E+00
        -11   -1    0    0    0    0  0.00000000000E+00  0.00000000000E+00  0.45593999997E+02  0.45594000000E+02  0.51100000000E-03 0.  1.
         11   -1    0    0    0    0 -0.00000000000E+00 -0.00000000000E+00 -0.45593999997E+02  0.45594000000E+02  0.51100000000E-03 0. -1.
    9900012    2    1    2    0    0 -0.24954602263E+01  0.18167011387E+02 -0.39336427455E+02  0.47787283998E+02  0.20000059062E+02 0.  0.
        -12    1    1    2    0    0  0.24954602263E+01 -0.18167011387E+02  0.39336427455E+02  0.43400716002E+02  0.00000000000E+00 0.  1.
         11    1    3    3    0    0 -0.38073230782E+01  0.16053682939E+02 -0.18812266816E+02  0.25022346572E+02  0.51100000000E-03 0. -1.
        -11    1    3    3    0    0 -0.82624047036E+00 -0.31377125504E+01 -0.32844885486E+01  0.46169014122E+01  0.51100000000E-03 0.  1.
         12    1    3    3    0    0  0.21381033223E+01  0.52510409983E+01 -0.17239672090E+02  0.18148036014E+02  0.00000000000E+00 0. -1.
</event>
<event>
 7    1  0.2756432E-009  0.4778727E+02  0.7816164E-02  0.1312668E+00
        -11   -1    0    0    0    0  0.00000000000E+00  0.00000000000E+00  0.45593999997E+02  0.45594000000E+02  0.51100000000E-03 0.  1.
         11   -1    0    0    0    0 -0.00000000000E+00 -0.00000000000E+00 -0.45593999997E+02  0.45594000000E+02  0.51100000000E-03 0. -1.
    9900012    2    1    2    0    0 -0.28481473296E+02 -0.53960286829E+01 -0.32300341875E+02  0.47787268072E+02  0.19999986446E+02 0.  0.
        -12    1    1    2    0    0  0.28481473296E+02  0.53960286829E+01  0.32300341875E+02  0.43400731928E+02  0.00000000000E+00 0.  1.
         11    1    3    3    0    0 -0.18468116934E+02 -0.43034440767E+01 -0.25359881998E+02  0.31665668937E+02  0.51100000000E-03 0. -1.
        -11    1    3    3    0    0 -0.80129160903E+01 -0.20347328460E+01  0.57539452706E+00  0.82872215577E+01  0.51100000000E-03 0.  1.
        -12    1    3    3    0    0 -0.20004402711E+01  0.94214823977E+00 -0.75158544049E+01  0.78343775770E+01  0.00000000000E+00 0.  1.
</event>
<event>
 7    1  0.2756432E-009  0.4778727E+02  0.7816164E-02  0.1312668E+00
        -11   -1    0    0    0    0  0.00000000000E+00  0.00000000000E+00  0.45593999997E+02  0.45594000000E+02  0.51100000000E-03 0.  1.
         11   -1    0    0    0    0 -0.00000000000E+00 -0.00000000000E+00 -0.45593999997E+02  0.45594000000E+02  0.51100000000E-03 0. -1.
    9900012    2    1    2    0    0  0.16606211211E+02 -0.70449921811E+01 -0.39474364268E+02  0.47787267287E+02  0.19999982870E+02 0.  0.
        -12    1    1    2    0    0 -0.16606211211E+02  0.70449921811E+01  0.39474364268E+02  0.43400732713E+02  0.00000000000E+00 0.  1.
         11    1    3    3    0    0  0.45928915360E+01 -0.44928624965E+01 -0.10244361953E+02  0.12092452942E+02  0.51100000000E-03 0. -1.
        -11    1    3    3    0    0 -0.23145931755E+01 -0.54034420033E+01 -0.84239803127E+01  0.10272194100E+02  0.51100000000E-03 0.  1.
        -12    1    3    3    0    0  0.14327912850E+02  0.28513123187E+01 -0.20806022003E+02  0.25422620246E+02  0.00000000000E+00 0.  1.
</event>
<event>
 7    1  0.2756432E-009  0.4778727E+02  0.7816164E-02  0.1312668E+00
        -11   -1    0    0    0    0  0.00000000000E+00  0.00000000000E+00  0.45593999997E+02  0.45594000000E+02  0.51100000000E-03 0.  1.
         11   -1    0    0    0    0 -0.00000000000E+00 -0.00000000000E+00 -0.45593999997E+02  0.45594000000E+02  0.51100000000E-03 0. -1.
    9900012    2    1    2    0    0  0.11063945520E+02 -0.31267897665E+02 -0.27991623835E+02  0.47787270515E+02  0.19999997587E+02 0.  0.
        -12    1    1    2    0    0 -0.11063945520E+02  0.31267897665E+02  0.27991623835E+02  0.43400729485E+02  0.00000000000E+00 0.  1.
         11    1    3    3    0    0  0.51521594978E+01 -0.23697152035E+02 -0.24034463147E+02  0.34143157164E+02  0.51100000000E-03 0. -1.
        -11    1    3    3    0    0  0.69121701225E+01 -0.43395710379E+01  0.34824179220E+00  0.81689194636E+01  0.51100000000E-03 0.  1.
        -12    1    3    3    0    0 -0.10003841002E+01 -0.32311745920E+01 -0.43054024801E+01  0.54751938877E+01  0.00000000000E+00 0.  1.
</event>
<event>
 7    1  0.2756432E-009  0.4778727E+02  0.7816164E-02  0.1312668E+00
        -11   -1    0    0    0    0  0.00000000000E+00  0.00000000000E+00  0.45593999997E+02  0.45594000000E+02  0.51100000000E-03 0.  1.
         11   -1    0    0    0    0 -0.00000000000E+00 -0.00000000000E+00 -0.45593999997E+02  0.45594000000E+02  0.51100000000E-03 0. -1.
    9900012    2    1    2    0    0 -0.34931456794E+02  0.11346046876E+02 -0.23123234522E+02  0.47787269266E+02  0.19999991893E+02 0.  0.
        -12    1    1    2    0    0  0.34931456794E+02 -0.11346046876E+02  0.23123234522E+02  0.43400730734E+02  0.00000000000E+00 0.  1.
         11    1    3    3    0    0 -0.11238268744E+02  0.53988023265E+01 -0.57613112827E+01  0.13734571667E+02  0.51100000000E-03 0. -1.
        -11    1    3    3    0    0 -0.15308993169E+02  0.85808466290E+01 -0.18127920413E+02  0.25231284142E+02  0.51100000000E-03 0.  1.
        -12    1    3    3    0    0 -0.83841948805E+01 -0.26336020796E+01  0.76599717284E+00  0.88214134569E+01  0.00000000000E+00 0.  1.
</event>
<event>
 7    1  0.2756432E-009  0.4778727E+02  0.7816164E-02  0.1312668E+00
        -11   -1    0    0    0    0  0.00000000000E+00  0.00000000000E+00  0.45593999997E+02  0.45594000000E+02  0.51100000000E-03 0.  1.
         11   -1    0    0    0    0 -0.00000000000E+00 -0.00000000000E+00 -0.45593999997E+02  0.45594000000E+02  0.51100000000E-03 0. -1.
    9900012    2    1    2    0    0  0.81463896498E+01  0.86188987120E+01 -0.41748939492E+02  0.47787273877E+02  0.20000012915E+02 0.  0.
        -12    1    1    2    0    0 -0.81463896498E+01 -0.86188987120E+01  0.41748939492E+02  0.43400726123E+02  0.00000000000E+00 0.  1.
         11    1    3    3    0    0  0.33180129376E+01 -0.11968776630E+01 -0.13032600847E+02  0.13501496624E+02  0.51100000000E-03 0. -1.
        -11    1    3    3    0    0  0.13603195491E+01 -0.38667407631E+01 -0.10275208818E+02  0.11062642990E+02  0.51100000000E-03 0.  1.
        -12    1    3    3    0    0  0.34680571631E+01  0.13682517138E+02 -0.18441129827E+02  0.23223134263E+02  0.00000000000E+00 0.  1.
</event>
<event>
 7    1  0.2756432E-009  0.4778727E+02  0.7816164E-02  0.1312668E+00
        -11   -1    0    0    0    0  0.00000000000E+00  0.00000000000E+00  0.45593999997E+02  0.45594000000E+02  0.51100000000E-03 0.  1.
         11   -1    0    0    0    0 -0.00000000000E+00 -0.00000000000E+00 -0.45593999997E+02  0.45594000000E+02  0.51100000000E-03 0. -1.
    9900012    2    1    2    0    0  0.29085094356E+02 -0.14974817267E+02 -0.28520796773E+02  0.47787265969E+02  0.19999976859E+02 0.  0.
        -12    1    1    2    0    0 -0.29085094356E+02  0.14974817267E+02  0.28520796773E+02  0.43400734031E+02  0.00000000000E+00 0.  1.
         11    1    3    3    0    0  0.23283013314E+01 -0.57072839187E+01 -0.14787443385E+01  0.63388296947E+01  0.51100000000E-03 0. -1.
        -11    1    3    3    0    0  0.20951041026E+02 -0.51394975859E+01 -0.26687448914E+02  0.34315892606E+02  0.51100000000E-03 0.  1.
        -12    1    3    3    0    0  0.58057519988E+01 -0.41280357625E+01 -0.35460351990E+00  0.71325436686E+01  0.00000000000E+00 0.  1.
</event>
<event>
 7    1  0.2756432E-009  0.4778727E+02  0.7816164E-02  0.1312668E+00
        -11   -1    0    0    0    0  0.00000000000E+00  0.00000000000E+00  0.45593999997E+02  0.45594000000E+02  0.51100000000E-03 0.  1.
         11   -1    0    0    0    0 -0.00000000000E+00 -0.00000000000E+00 -0.45593999997E+02  0.45594000000E+02  0.51100000000E-03 0. -1.
    9900012    2    1    2    0    0  0.35673523397E+02  0.21617937170E+02 -0.11986991533E+02  0.47787269072E+02  0.19999991007E+02 0.  0.
        -12    1    1    2    0    0 -0.35673523397E+02 -0.21617937170E+02  0.11986991533E+02  0.43400730928E+02  0.00000000000E+00 0.  1.
         11    1    3    3    0    0  0.11310862981E+02  0.46166140149E+01 -0.12771528151E+02  0.17673728467E+02  0.51100000000E-03 0. -1.
        -11    1    3    3    0    0  0.23707904979E+02  0.16950751131E+02  0.71858370658E-01  0.29144431480E+02  0.51100000000E-03 0.  1.
        -12    1    3    3    0    0  0.65475543697E+00  0.50572023664E-01  0.71267824734E+00  0.96910912495E+00  0.00000000000E+00 0.  1.
</event>
<event>
 7    1  0.2756432E-009  0.4778727E+02  0.7816164E-02  0.1312668E+00
        -11   -1    0    0    0    0  0.00000000000E+00  0.00000000000E+00  0.45593999997E+02  0.45594000000E+02  0.51100000000E-03 0.  1.
         11   -1    0    0    0    0 -0.00000000000E+00 -0.00000000000E+00 -0.45593999997E+02  0.45594000000E+02  0.51100000000E-03 0. -1.
    9900012    2    1    2    0    0  0.18808198499E+02  0.11788213824E+02 -0.37294942831E+02  0.47787273316E+02  0.20000010355E+02 0.  0.
        -12    1    1    2    0    0 -0.18808198499E+02 -0.11788213824E+02  0.37294942831E+02  0.43400726684E+02  0.00000000000E+00 0.  1.
         11    1    3    3    0    0  0.38813066237E+01  0.11028979116E+02 -0.21667269523E+02  0.24620590779E+02  0.51100000000E-03 0. -1.
        -11    1    3    3    0    0  0.65039842476E+01 -0.34802825920E+01 -0.90204939337E+01  0.11652617263E+02  0.51100000000E-03 0.  1.
        -12    1    3    3    0    0  0.84229076275E+01  0.42395172994E+01 -0.66071793746E+01  0.11514065273E+02  0.00000000000E+00 0.  1.
</event>
<event>
 7    1  0.2756432E-009  0.4778727E+02  0.7816164E-02  0.1312668E+00
        -11   -1    0    0    0    0  0.00000000000E+00  0.00000000000E+00  0.45593999997E+02  0.45594000000E+02  0.51100000000E-03 0.  1.
         11   -1    0    0    0    0 -0.00000000000E+00 -0.00000000000E+00 -0.45593999997E+02  0.45594000000E+02  0.51100000000E-03 0. -1.
    9900012    2    1    2    0    0  0.21274390343E+02  0.37315393067E+02 -0.62116933795E+01  0.47787269835E+02  0.19999994485E+02 0.  0.
        -12    1    1    2    0    0 -0.21274390343E+02 -0.37315393067E+02  0.62116933795E+01  0.43400730165E+02  0.00000000000E+00 0.  1.
         11    1    3    3    0    0  0.82643033695E+01  0.32554621774E+01  0.80793108722E+00  0.89190524763E+01  0.51100000000E-03 0. -1.
        -11    1    3    3    0    0  0.11808184971E+02  0.24704124131E+02 -0.97222846420E+01  0.29055977015E+02  0.51100000000E-03 0.  1.
         12    1    3    3    0    0  0.12019020026E+01  0.93558067590E+01  0.27026601752E+01  0.98122403435E+01  0.00000000000E+00 0. -1.
</event>
<event>
 7    1  0.2756432E-009  0.4778727E+02  0.7816164E-02  0.1312668E+00
        -11   -1    0    0    0    0  0.00000000000E+00  0.00000000000E+00  0.45593999997E+02  0.45594000000E+02  0.51100000000E-03 0.  1.
         11   -1    0    0    0    0 -0.00000000000E+00 -0.00000000000E+00 -0.45593999997E+02  0.45594000000E+02  0.51100000000E-03 0. -1.
    9900012    2    1    2    0    0  0.28104901273E+02  0.19781544194E+02 -0.26503366009E+02  0.47787269867E+02  0.19999994632E+02 0.  0.
        -12    1    1    2    0    0 -0.28104901273E+02 -0.19781544194E+02  0.26503366009E+02  0.43400730133E+02  0.00000000000E+00 0.  1.
         11    1    3    3    0    0  0.73276627303E+01  0.62031031541E+01 -0.17281103042E+01  0.97549728505E+01  0.51100000000E-03 0. -1.
        -11    1    3    3    0    0  0.19556262554E+02  0.89272760448E+01 -0.25294358194E+02  0.33195605423E+02  0.51100000000E-03 0.  1.
        -12    1    3    3    0    0  0.12209759880E+01  0.46511649955E+01  0.51910248932E+00  0.48366915937E+01  0.00000000000E+00 0.  1.
</event>
<event>
 7    1  0.3447604E-009  0.4778727E+02  0.7816164E-02  0.1312668E+00
        -11   -1    0    0    0    0  0.00000000000E+00  0.00000000000E+00  0.45593999997E+02  0.45594000000E+02  0.51100000000E-03 0. -1.
         11   -1    0    0    0    0 -0.00000000000E+00 -0.00000000000E+00 -0.45593999997E+02  0.45594000000E+02  0.51100000000E-03 0.  1.
    9900012    2    1    2    0    0 -0.17308988144E+01 -0.17966630011E+01  0.43328964796E+02  0.47787271907E+02  0.20000003935E+02 0.  0.
        -12    1    1    2    0    0  0.17308988144E+01  0.17966630011E+01 -0.43328964796E+02  0.43400728093E+02  0.00000000000E+00 0.  1.
         11    1    3    3    0    0  0.39934687300E+00  0.36728681879E+00  0.33182812853E+02  0.33187248254E+02  0.51100000000E-03 0. -1.
        -11    1    3    3    0    0  0.83343907018E+00 -0.57680916797E+01  0.54286116865E+01  0.79646297725E+01  0.51100000000E-03 0.  1.
        -12    1    3    3    0    0 -0.29636847576E+01  0.36041418598E+01  0.47175402567E+01  0.66353938814E+01  0.00000000000E+00 0.  1.
</event>
<event>
 7    1  0.2756432E-009  0.4778727E+02  0.7816164E-02  0.1312668E+00
        -11   -1    0    0    0    0  0.00000000000E+00  0.00000000000E+00  0.45593999997E+02  0.45594000000E+02  0.51100000000E-03 0.  1.
         11   -1    0    0    0    0 -0.00000000000E+00 -0.00000000000E+00 -0.45593999997E+02  0.45594000000E+02  0.51100000000E-03 0. -1.
    9900012    2    1    2    0    0 -0.12703424818E+02 -0.20049168343E+02 -0.36335618191E+02  0.47787270713E+02  0.19999998487E+02 0.  0.
        -12    1    1    2    0    0  0.12703424818E+02  0.20049168343E+02  0.36335618191E+02  0.43400729287E+02  0.00000000000E+00 0.  1.
         11    1    3    3    0    0 -0.60904761504E+01 -0.21528933141E+02 -0.31158254382E+02  0.38359166810E+02  0.51100000000E-03 0. -1.
        -11    1    3    3    0    0 -0.30110117141E+01 -0.10161486711E+01 -0.35218187310E+01  0.47436227822E+01  0.51100000000E-03 0.  1.
         12    1    3    3    0    0 -0.36019369536E+01  0.24959134693E+01 -0.16555450776E+01  0.46844811205E+01  0.00000000000E+00 0. -1.
</event>
<event>
 7    1  0.2756432E-009  0.4778727E+02  0.7816164E-02  0.1312668E+00
        -11   -1    0    0    0    0  0.00000000000E+00  0.00000000000E+00  0.45593999997E+02  0.45594000000E+02  0.51100000000E-03 0. -1.
         11   -1    0    0    0    0 -0.00000000000E+00 -0.00000000000E+00 -0.45593999997E+02  0.45594000000E+02  0.51100000000E-03 0.  1.
    9900012    2    1    2    0    0  0.14618283307E+02 -0.27856827919E+01  0.40769713066E+02  0.47787265687E+02  0.19999975572E+02 0.  0.
        -12    1    1    2    0    0 -0.14618283307E+02  0.27856827919E+01 -0.40769713066E+02  0.43400734313E+02  0.00000000000E+00 0.  1.
         11    1    3    3    0    0  0.97135691084E+01  0.39984583430E+01  0.26183422382E+02  0.28211924817E+02  0.51100000000E-03 0. -1.
        -11    1    3    3    0    0 -0.14027337062E+01 -0.43846123675E+01  0.11019147004E+02  0.11942114068E+02  0.51100000000E-03 0.  1.
         12    1    3    3    0    0  0.63074479046E+01 -0.23995287674E+01  0.35671436798E+01  0.76332268018E+01  0.00000000000E+00 0. -1.
</event>
<event>
 7    1  0.2756432E-009  0.4778727E+02  0.7816164E-02  0.1312668E+00
        -11   -1    0    0    0    0  0.00000000000E+00  0.00000000000E+00  0.45593999997E+02  0.45594000000E+02  0.51100000000E-03 0.  1.
         11   -1    0    0    0    0 -0.00000000000E+00 -0.00000000000E+00 -0.45593999997E+02  0.45594000000E+02  0.51100000000E-03 0. -1.
    9900012    2    1    2    0    0  0.20756807074E+02 -0.33999253194E+02 -0.17228737115E+02  0.47787266824E+02  0.19999980756E+02 0.  0.
        -12    1    1    2    0    0 -0.20756807074E+02  0.33999253194E+02  0.17228737115E+02  0.43400733176E+02  0.00000000000E+00 0.  1.
         11    1    3    3    0    0  0.10910165243E+01 -0.50562691153E+01 -0.76933260509E+01  0.92705685052E+01  0.51100000000E-03 0. -1.
        -11    1    3    3    0    0  0.11969063328E+02 -0.24787029150E+02 -0.31886405898E+01  0.27709614218E+02  0.51100000000E-03 0.  1.
        -12    1    3    3    0    0  0.76967272220E+01 -0.41559549281E+01 -0.63467704747E+01  0.10807084100E+02  0.00000000000E+00 0.  1.
</event>
<event>
 7    1  0.2756432E-009  0.4778727E+02  0.7816164E-02  0.1312668E+00
        -11   -1    0    0    0    0  0.00000000000E+00  0.00000000000E+00  0.45593999997E+02  0.45594000000E+02  0.51100000000E-03 0.  1.
         11   -1    0    0    0    0 -0.00000000000E+00 -0.00000000000E+00 -0.45593999997E+02  0.45594000000E+02  0.51100000000E-03 0. -1.
    9900012    2    1    2    0    0 -0.43495531347E+01 -0.24385412044E+01 -0.43113317695E+02  0.47787271223E+02  0.20000000816E+02 0.  0.
        -12    1    1    2    0    0  0.43495531347E+01  0.24385412044E+01  0.43113317695E+02  0.43400728777E+02  0.00000000000E+00 0.  1.
         11    1    3    3    0    0 -0.13377483090E+00 -0.25009861632E+01 -0.22088646119E+02  0.22230184775E+02  0.51100000000E-03 0. -1.
        -11    1    3    3    0    0 -0.46397900722E+01  0.51483305417E+01 -0.45026380354E+01  0.82647872822E+01  0.51100000000E-03 0.  1.
        -12    1    3    3    0    0  0.42401176837E+00 -0.50858855829E+01 -0.16522033540E+02  0.17292299166E+02  0.00000000000E+00 0.  1.
</event>
<event>
 7    1  0.3164032E-009  0.4778727E+02  0.7816164E-02  0.1312668E+00
        -11   -1    0    0    0    0  0.00000000000E+00  0.00000000000E+00  0.45593999997E+02  0.45594000000E+02  0.51100000000E-03 0.  1.
         11   -1    0    0    0    0 -0.00000000000E+00 -0.00000000000E+00 -0.45593999997E+02  0.45594000000E+02  0.51100000000E-03 0. -1.
    9900012    2    1    2    0    0  0.21709877003E+02  0.31855630203E+02 -0.19937982819E+02  0.47787273117E+02  0.20000009448E+02 0.  0.
        -12    1    1    2    0    0 -0.21709877003E+02 -0.31855630203E+02  0.19937982819E+02  0.43400726883E+02  0.00000000000E+00 0.  1.
         11    1    3    3    0    0  0.99842166025E+01  0.19417907660E+02 -0.12599098379E+02  0.25208669130E+02  0.51100000000E-03 0. -1.
        -11    1    3    3    0    0  0.39866542149E+01 -0.19199441475E+01 -0.39244716029E+01  0.59144801109E+01  0.51100000000E-03 0.  1.
        -12    1    3    3    0    0  0.77390061859E+01  0.14357666690E+02 -0.34144128369E+01  0.16664123876E+02  0.00000000000E+00 0.  1.
</event>
<event>
 7    1  0.2756432E-009  0.4778727E+02  0.7816164E-02  0.1312668E+00
        -11   -1    0    0    0    0  0.00000000000E+00  0.00000000000E+00  0.45593999997E+02  0.45594000000E+02  0.51100000000E-03 0.  1.
         11   -1    0    0    0    0 -0.00000000000E+00 -0.00000000000E+00 -0.45593999997E+02  0.45594000000E+02  0.51100000000E-03 0. -1.
    9900012    2    1    2    0    0  0.37442575969E+01  0.13053939061E+02 -0.41221336843E+02  0.47787269579E+02  0.19999993318E+02 0.  0.
        -12    1    1    2    0    0 -0.37442575969E+01 -0.13053939061E+02  0.41221336843E+02  0.43400730421E+02  0.00000000000E+00 0.  1.
         11    1    3    3    0    0  0.24129403024E+01  0.40005928004E+00 -0.16891139632E+02  0.17067305782E+02  0.51100000000E-03 0. -1.
        -11    1    3    3    0    0 -0.58235380705E+01  0.52511465023E+01 -0.67475355514E+01  0.10344920083E+02  0.51100000000E-03 0.  1.
        -12    1    3    3    0    0  0.71548553650E+01  0.74027332790E+01 -0.17582661660E+02  0.20375043714E+02  0.00000000000E+00 0.  1.
</event>
<event>
 7    1  0.2756432E-009  0.4778727E+02  0.7816164E-02  0.1312668E+00
        -11   -1    0    0    0    0  0.00000000000E+00  0.00000000000E+00  0.45593999997E+02  0.45594000000E+02  0.51100000000E-03 0.  1.
         11   -1    0    0    0    0 -0.00000000000E+00 -0.00000000000E+00 -0.45593999997E+02  0.45594000000E+02  0.51100000000E-03 0. -1.
    9900012    2    1    2    0    0  0.33110516030E+02 -0.25365596914E+02 -0.11995970666E+02  0.47787273154E+02  0.20000009617E+02 0.  0.
        -12    1    1    2    0    0 -0.33110516030E+02  0.25365596914E+02  0.11995970666E+02  0.43400726846E+02  0.00000000000E+00 0.  1.
         11    1    3    3    0    0  0.11379028003E+02 -0.10631757099E+02 -0.10186139795E+02  0.18608438448E+02  0.51100000000E-03 0. -1.
        -11    1    3    3    0    0  0.19443668903E+02 -0.10391929128E+02  0.30684455676E+01  0.22259016372E+02  0.51100000000E-03 0.  1.
        -12    1    3    3    0    0  0.22878191250E+01 -0.43419106870E+01 -0.48782764378E+01  0.69198183334E+01  0.00000000000E+00 0.  1.
</event>
<event>
 7    1  0.3749250E-009  0.4778727E+02  0.7816164E-02  0.1312668E+00
        -11   -1    0    0    0    0  0.00000000000E+00  0.00000000000E+00  0.45593999997E+02  0.45594000000E+02  0.51100000000E-03 0.  1.
         11   -1    0    0    0    0 -0.00000000000E+00 -0.00000000000E+00 -0.45593999997E+02  0.45594000000E+02  0.51100000000E-03 0. -1.
    9900012    2    1    2    0    0  0.32745349102E+02 -0.26624998920E+00 -0.28483230442E+02  0.47787271973E+02  0.20000004234E+02 0.  0.
        -12    1    1    2    0    0 -0.32745349102E+02  0.26624998920E+00  0.28483230442E+02  0.43400728027E+02  0.00000000000E+00 0.  1.
         11    1    3    3    0    0  0.93925148517E+01  0.33489575975E+01 -0.62254391876E+01  0.11755464498E+02  0.51100000000E-03 0. -1.
        -11    1    3    3    0    0  0.17214830356E+02 -0.45550370093E+01 -0.62673039863E+01  0.18877972504E+02  0.51100000000E-03 0.  1.
        -12    1    3    3    0    0  0.61380038943E+01  0.93982942258E+00 -0.15990487268E+02  0.17153834971E+02  0.00000000000E+00 0.  1.
</event>
<event>
 7    1  0.2756432E-009  0.4778727E+02  0.7816164E-02  0.1312668E+00
        -11   -1    0    0    0    0  0.00000000000E+00  0.00000000000E+00  0.45593999997E+02  0.45594000000E+02  0.51100000000E-03 0.  1.
         11   -1    0    0    0    0 -0.00000000000E+00 -0.00000000000E+00 -0.45593999997E+02  0.45594000000E+02  0.51100000000E-03 0. -1.
    9900012    2    1    2    0    0 -0.82903725942E+00  0.27089870732E+02 -0.33898007515E+02  0.47787270599E+02  0.19999997967E+02 0.  0.
        -12    1    1    2    0    0  0.82903725942E+00 -0.27089870732E+02  0.33898007515E+02  0.43400729401E+02  0.00000000000E+00 0.  1.
         11    1    3    3    0    0  0.51249887504E+01  0.20298349408E+02 -0.28593764152E+02  0.35438564404E+02  0.51100000000E-03 0. -1.
        -11    1    3    3    0    0 -0.30235311579E+01  0.46268729650E+00  0.70915171350E+00  0.31398593298E+01  0.51100000000E-03 0.  1.
        -12    1    3    3    0    0 -0.29304948518E+01  0.63288340281E+01 -0.60133950772E+01  0.92088468652E+01  0.00000000000E+00 0.  1.
</event>
<event>
 7    1  0.2756432E-009  0.4778727E+02  0.7816164E-02  0.1312668E+00
        -11   -1    0    0    0    0  0.00000000000E+00  0.00000000000E+00  0.45593999997E+02  0.45594000000E+02  0.51100000000E-03 0.  1.
         11   -1    0    0    0    0 -0.00000000000E+00 -0.00000000000E+00 -0.45593999997E+02  0.45594000000E+02  0.51100000000E-03 0. -1.
    9900012    2    1    2    0    0  0.11087054623E+02  0.18388903715E+02 -0.37716695856E+02  0.47787266062E+02  0.19999977283E+02 0.  0.
        -12    1    1    2    0    0 -0.11087054623E+02 -0.18388903715E+02  0.37716695856E+02  0.43400733938E+02  0.00000000000E+00 0.  1.
         11    1    3    3    0    0  0.15915099126E+02  0.16987168509E+02 -0.27204765636E+02  0.35804378891E+02  0.51100000000E-03 0. -1.
        -11    1    3    3    0    0 -0.25738143790E+01  0.88809212939E+00 -0.84748521745E+01  0.89014800864E+01  0.51100000000E-03 0.  1.
         12    1    3    3    0    0 -0.22542301239E+01  0.51364307623E+00 -0.20370780450E+01  0.30814070849E+01  0.00000000000E+00 0. -1.
</event>
<event>
 7    1  0.2756432E-009  0.4778728E+02  0.7816164E-02  0.1312668E+00
        -11   -1    0    0    0    0  0.00000000000E+00  0.00000000000E+00  0.45593999997E+02  0.45594000000E+02  0.51100000000E-03 0.  1.
         11   -1    0    0    0    0 -0.00000000000E+00 -0.00000000000E+00 -0.45593999997E+02  0.45594000000E+02  0.51100000000E-03 0. -1.
    9900012    2    1    2    0    0  0.33461110816E+02  0.18688402832E+02 -0.20364670143E+02  0.47787284251E+02  0.20000060215E+02 0.  0.
        -12    1    1    2    0    0 -0.33461110816E+02 -0.18688402832E+02  0.20364670143E+02  0.43400715749E+02  0.00000000000E+00 0.  1.
         11    1    3    3    0    0  0.31138471350E+02  0.22114389435E+02 -0.17623170111E+02  0.42062177108E+02  0.51100000000E-03 0. -1.
        -11    1    3    3    0    0 -0.71024805234E-01 -0.21575351070E+01 -0.51681248277E+00  0.22197066617E+01  0.51100000000E-03 0.  1.
         12    1    3    3    0    0  0.23936642714E+01 -0.12684514952E+01 -0.22246875493E+01  0.35054004809E+01  0.00000000000E+00 0. -1.
</event>
<event>
 7    1  0.2756432E-009  0.4778727E+02  0.7816164E-02  0.1312668E+00
        -11   -1    0    0    0    0  0.00000000000E+00  0.00000000000E+00  0.45593999997E+02  0.45594000000E+02  0.51100000000E-03 0.  1.
         11   -1    0    0    0    0 -0.00000000000E+00 -0.00000000000E+00 -0.45593999997E+02  0.45594000000E+02  0.51100000000E-03 0. -1.
    9900012    2    1    2    0    0 -0.23506033799E+02 -0.25267324265E+02  0.26318281191E+02  0.47787271604E+02  0.20000002551E+02 0.  0.
        -12    1    1    2    0    0  0.23506033799E+02  0.25267324265E+02 -0.26318281191E+02  0.43400728396E+02  0.00000000000E+00 0.  1.
         11    1    3    3    0    0 -0.20205201672E+02 -0.24234823589E+02  0.22399594036E+02  0.38695202057E+02  0.51100000000E-03 0. -1.
        -11    1    3    3    0    0 -0.13408707835E+01 -0.12904110564E+00 -0.22135116113E+01  0.25911811939E+01  0.51100000000E-03 0.  1.
         12    1    3    3    0    0 -0.19599613432E+01 -0.90345956997E+00  0.61321987668E+01  0.65008883529E+01  0.00000000000E+00 0. -1.
</event>
<event>
 7    1  0.2756432E-009  0.4778727E+02  0.7816164E-02  0.1312668E+00
        -11   -1    0    0    0    0  0.00000000000E+00  0.00000000000E+00  0.45593999997E+02  0.45594000000E+02  0.51100000000E-03 0. -1.
         11   -1    0    0    0    0 -0.00000000000E+00 -0.00000000000E+00 -0.45593999997E+02  0.45594000000E+02  0.51100000000E-03 0.  1.
    9900012    2    1    2    0    0  0.22639468717E+02  0.34138140556E+02 -0.14341041849E+02  0.47787266531E+02  0.19999979420E+02 0.  0.
        -12    1    1    2    0    0 -0.22639468717E+02 -0.34138140556E+02  0.14341041849E+02  0.43400733469E+02  0.00000000000E+00 0.  1.
         11    1    3    3    0    0 -0.50330939527E+00 -0.44354726760E+00 -0.38087892477E+01  0.38674190774E+01  0.51100000000E-03 0. -1.
        -11    1    3    3    0    0  0.11580076987E+02  0.10720569765E+02 -0.66396626137E+01  0.17120570055E+02  0.51100000000E-03 0.  1.
         12    1    3    3    0    0  0.11562701125E+02  0.23861118058E+02 -0.38925899878E+01  0.26799277399E+02  0.00000000000E+00 0. -1.
</event>
<event>
 7    1  0.2756432E-009  0.4778727E+02  0.7816164E-02  0.1312668E+00
        -11   -1    0    0    0    0  0.00000000000E+00  0.00000000000E+00  0.45593999997E+02  0.45594000000E+02  0.51100000000E-03 0.  1.
         11   -1    0    0    0    0 -0.00000000000E+00 -0.00000000000E+00 -0.45593999997E+02  0.45594000000E+02  0.51100000000E-03 0. -1.
    9900012    2    1    2    0    0  0.65696961017E+01 -0.15607051379E+02 -0.39961007034E+02  0.47787273707E+02  0.20000012140E+02 0.  0.
        -12    1    1    2    0    0 -0.65696961017E+01  0.15607051379E+02  0.39961007034E+02  0.43400726293E+02  0.00000000000E+00 0.  1.
         11    1    3    3    0    0 -0.33839239334E+01 -0.10668473044E+02 -0.24602806000E+02  0.27028971894E+02  0.51100000000E-03 0. -1.
        -11    1    3    3    0    0  0.89563736087E+01 -0.24193748431E+01 -0.15478877311E+02  0.18046208630E+02  0.51100000000E-03 0.  1.
         12    1    3    3    0    0  0.99724642646E+00 -0.25192034920E+01  0.12067627820E+00  0.27120931830E+01  0.00000000000E+00 0. -1.
</event>
<event>
 7    1  0.2756432E-009  0.4778727E+02  0.7816164E-02  0.1312668E+00
        -11   -1    0    0    0    0  0.00000000000E+00  0.00000000000E+00  0.45593999997E+02  0.45594000000E+02  0.51100000000E-03 0.  1.
         11   -1    0    0    0    0 -0.00000000000E+00 -0.00000000000E+00 -0.45593999997E+02  0.45594000000E+02  0.51100000000E-03 0. -1.
    9900012    2    1    2    0    0  0.30318676564E+00  0.33550747039E+01 -0.43269792507E+02  0.47787269682E+02  0.19999993790E+02 0.  0.
        -12    1    1    2    0    0 -0.30318676564E+00 -0.33550747039E+01  0.43269792507E+02  0.43400730318E+02  0.00000000000E+00 0.  1.
         11    1    3    3    0    0  0.43575848384E+01  0.41572747673E+01 -0.38056921220E+01  0.71242383385E+01  0.51100000000E-03 0.  1.
        -11    1    3    3    0    0 -0.23047173579E+01  0.23637279013E+01 -0.33677093077E+02  0.33838521393E+02  0.51100000000E-03 0. -1.
        -12    1    3    3    0    0 -0.17496807149E+01 -0.31659279647E+01 -0.57870073080E+01  0.68245099505E+01  0.00000000000E+00 0.  1.
</event>
<event>
 7    1  0.2756432E-009  0.4778727E+02  0.7816164E-02  0.1312668E+00
        -11   -1    0    0    0    0  0.00000000000E+00  0.00000000000E+00  0.45593999997E+02  0.45594000000E+02  0.51100000000E-03 0. -1.
         11   -1    0    0    0    0 -0.00000000000E+00 -0.00000000000E+00 -0.45593999997E+02  0.45594000000E+02  0.51100000000E-03 0.  1.
    9900012    2    1    2    0    0  0.30958448638E+02 -0.22501386786E+02  0.20466688513E+02  0.47787270882E+02  0.19999999257E+02 0.  0.
        -12    1    1    2    0    0 -0.30958448638E+02  0.22501386786E+02 -0.20466688513E+02  0.43400729118E+02  0.00000000000E+00 0.  1.
         11    1    3    3    0    0  0.61488981542E+01 -0.11912062077E+02  0.11509966754E+02  0.17668772068E+02  0.51100000000E-03 0.  1.
        -11    1    3    3    0    0  0.19581766643E+02 -0.60256661701E+01  0.25001466314E+01  0.20639887865E+02  0.51100000000E-03 0. -1.
         12    1    3    3    0    0  0.52277838409E+01 -0.45636585381E+01  0.64565751275E+01  0.94786109487E+01  0.00000000000E+00 0. -1.
</event>
<event>
 7    1  0.2756432E-009  0.4778727E+02  0.7816164E-02  0.1312668E+00
        -11   -1    0    0    0    0  0.00000000000E+00  0.00000000000E+00  0.45593999997E+02  0.45594000000E+02  0.51100000000E-03 0.  1.
         11   -1    0    0    0    0 -0.00000000000E+00 -0.00000000000E+00 -0.45593999997E+02  0.45594000000E+02  0.51100000000E-03 0. -1.
    9900012    2    1    2    0    0  0.32688584732E+02 -0.19067366845E+01 -0.28485856750E+02  0.47787271304E+02  0.20000001184E+02 0.  0.
        -12    1    1    2    0    0 -0.32688584732E+02  0.19067366845E+01  0.28485856750E+02  0.43400728696E+02  0.00000000000E+00 0.  1.
         11    1    3    3    0    0  0.21636701957E+02  0.61134987091E+01 -0.95712813726E+01  0.24436267420E+02  0.51100000000E-03 0. -1.
        -11    1    3    3    0    0  0.65650060887E+01 -0.51374755175E+01 -0.12201622089E+02  0.14777433522E+02  0.51100000000E-03 0.  1.
         12    1    3    3    0    0  0.44868766862E+01 -0.28827598762E+01 -0.67129532886E+01  0.85735703622E+01  0.00000000000E+00 0. -1.
</event>
<event>
 7    1  0.2756432E-009  0.4778727E+02  0.7816164E-02  0.1312668E+00
        -11   -1    0    0    0    0  0.00000000000E+00  0.00000000000E+00  0.45593999997E+02  0.45594000000E+02  0.51100000000E-03 0.  1.
         11   -1    0    0    0    0 -0.00000000000E+00 -0.00000000000E+00 -0.45593999997E+02  0.45594000000E+02  0.51100000000E-03 0. -1.
    9900012    2    1    2    0    0 -0.16581311320E+02  0.71284915162E+01 -0.39469835877E+02  0.47787271659E+02  0.20000002801E+02 0.  0.
        -12    1    1    2    0    0  0.16581311320E+02 -0.71284915162E+01  0.39469835877E+02  0.43400728341E+02  0.00000000000E+00 0.  1.
         11    1    3    3    0    0 -0.76300680861E+01  0.68714202863E+01 -0.54758108105E+01  0.11636960945E+02  0.51100000000E-03 0. -1.
        -11    1    3    3    0    0 -0.43044156966E+01 -0.71894043340E+00 -0.44705729903E+01  0.62474709250E+01  0.51100000000E-03 0.  1.
         12    1    3    3    0    0 -0.46468275374E+01  0.97601166335E+00 -0.29523452076E+02  0.29902839789E+02  0.00000000000E+00 0. -1.
</event>
<event>
 7    1  0.2756432E-009  0.4778727E+02  0.7816164E-02  0.1312668E+00
        -11   -1    0    0    0    0  0.00000000000E+00  0.00000000000E+00  0.45593999997E+02  0.45594000000E+02  0.51100000000E-03 0.  1.
         11   -1    0    0    0    0 -0.00000000000E+00 -0.00000000000E+00 -0.45593999997E+02  0.45594000000E+02  0.51100000000E-03 0. -1.
    9900012    2    1    2    0    0  0.24101983727E+01 -0.20481748322E+02 -0.38187851363E+02  0.47787273483E+02  0.20000011116E+02 0.  0.
        -12    1    1    2    0    0 -0.24101983727E+01  0.20481748322E+02  0.38187851363E+02  0.43400726517E+02  0.00000000000E+00 0.  1.
         11    1    3    3    0    0 -0.13311387984E+01 -0.16583219544E+02 -0.28664404682E+02  0.33142468179E+02  0.51100000000E-03 0. -1.
        -11    1    3    3    0    0  0.69209610687E+01 -0.36710177742E+01 -0.58272432346E+01  0.97638536239E+01  0.51100000000E-03 0.  1.
         12    1    3    3    0    0 -0.31796238975E+01 -0.22751100415E+00 -0.36962034460E+01  0.48809516798E+01  0.00000000000E+00 0. -1.
</event>
<event>
 7    1  0.2756432E-009  0.4778728E+02  0.7816164E-02  0.1312668E+00
        -11   -1    0    0    0    0  0.00000000000E+00  0.00000000000E+00  0.45593999997E+02  0.45594000000E+02  0.51100000000E-03 0. -1.
         11   -1    0    0    0    0 -0.00000000000E+00 -0.00000000000E+00 -0.45593999997E+02  0.45594000000E+02  0.51100000000E-03 0.  1.
    9900012    2    1    2    0    0 -0.42722219732E+02 -0.71211173755E+01 -0.27792919406E+01  0.47787276098E+02  0.20000023042E+02 0.  0.
        -12    1    1    2    0    0  0.42722219732E+02  0.71211173755E+01  0.27792919406E+01  0.43400723902E+02  0.00000000000E+00 0.  1.
         11    1    3    3    0    0 -0.17616531124E+02  0.48505343987E+01 -0.22104132358E+01  0.18405319333E+02  0.51100000000E-03 0. -1.
        -11    1    3    3    0    0 -0.46933213316E+01 -0.66811491837E+01 -0.13744911547E+01  0.82797491346E+01  0.51100000000E-03 0.  1.
        -12    1    3    3    0    0 -0.20412367276E+02 -0.52905025905E+01  0.80561244988E+00  0.21102207631E+02  0.00000000000E+00 0.  1.
</event>
<event>
 7    1  0.2756432E-009  0.4778727E+02  0.7816164E-02  0.1312668E+00
        -11   -1    0    0    0    0  0.00000000000E+00  0.00000000000E+00  0.45593999997E+02  0.45594000000E+02  0.51100000000E-03 0.  1.
         11   -1    0    0    0    0 -0.00000000000E+00 -0.00000000000E+00 -0.45593999997E+02  0.45594000000E+02  0.51100000000E-03 0. -1.
    9900012    2    1    2    0    0  0.82093829156E+01 -0.24897966619E+02 -0.34587867003E+02  0.47787271280E+02  0.20000001075E+02 0.  0.
        -12    1    1    2    0    0 -0.82093829156E+01  0.24897966619E+02  0.34587867003E+02  0.43400728720E+02  0.00000000000E+00 0.  1.
         11    1    3    3    0    0 -0.13699348968E+01 -0.11051505573E+02 -0.52212343275E+01  0.12299340845E+02  0.51100000000E-03 0. -1.
        -11    1    3    3    0    0  0.66663710915E+01 -0.14307577188E+01 -0.13564862486E+02  0.15181998080E+02  0.51100000000E-03 0.  1.
        -12    1    3    3    0    0  0.29129467210E+01 -0.12415703327E+02 -0.15801770190E+02  0.20305932356E+02  0.00000000000E+00 0.  1.
</event>
<event>
 7    1  0.2756432E-009  0.4778727E+02  0.7816164E-02  0.1312668E+00
        -11   -1    0    0    0    0  0.00000000000E+00  0.00000000000E+00  0.45593999997E+02  0.45594000000E+02  0.51100000000E-03 0.  1.
         11   -1    0    0    0    0 -0.00000000000E+00 -0.00000000000E+00 -0.45593999997E+02  0.45594000000E+02  0.51100000000E-03 0. -1.
    9900012    2    1    2    0    0 -0.11992997429E+02 -0.38406624226E+02 -0.16270294049E+02  0.47787271432E+02  0.20000001769E+02 0.  0.
        -12    1    1    2    0    0  0.11992997429E+02  0.38406624226E+02  0.16270294049E+02  0.43400728568E+02  0.00000000000E+00 0.  1.
         11    1    3    3    0    0 -0.12924841055E+02 -0.31883831943E+02 -0.54673134627E+01  0.34835639400E+02  0.51100000000E-03 0. -1.
        -11    1    3    3    0    0  0.64786602023E+00 -0.14049732283E+01 -0.48766659913E+01  0.51162048048E+01  0.51100000000E-03 0.  1.
         12    1    3    3    0    0  0.28397760613E+00 -0.51178190545E+01 -0.59263145952E+01  0.78354272274E+01  0.00000000000E+00 0. -1.
</event>
<event>
 7    1  0.2756432E-009  0.4778727E+02  0.7816164E-02  0.1312668E+00
        -11   -1    0    0    0    0  0.00000000000E+00  0.00000000000E+00  0.45593999997E+02  0.45594000000E+02  0.51100000000E-03 0.  1.
         11   -1    0    0    0    0 -0.00000000000E+00 -0.00000000000E+00 -0.45593999997E+02  0.45594000000E+02  0.51100000000E-03 0. -1.
    9900012    2    1    2    0    0  0.83998600483E+01 -0.27612651309E+02 -0.32413077150E+02  0.47787265772E+02  0.19999975963E+02 0.  0.
        -12    1    1    2    0    0 -0.83998600483E+01  0.27612651309E+02  0.32413077150E+02  0.43400734228E+02  0.00000000000E+00 0.  1.
         11    1    3    3    0    0  0.78491989499E+01 -0.13310329238E+02 -0.21974042078E+02  0.26863233500E+02  0.51100000000E-03 0. -1.
        -11    1    3    3    0    0  0.22099370657E+00  0.36179916186E+00  0.17822744172E+01  0.18320041516E+01  0.51100000000E-03 0.  1.
         12    1    3    3    0    0  0.32966739183E+00 -0.14664121233E+02 -0.12221309489E+02  0.19092028121E+02  0.00000000000E+00 0. -1.
</event>
<event>
 7    1  0.2756432E-009  0.4778727E+02  0.7816164E-02  0.1312668E+00
        -11   -1    0    0    0    0  0.00000000000E+00  0.00000000000E+00  0.45593999997E+02  0.45594000000E+02  0.51100000000E-03 0.  1.
         11   -1    0    0    0    0 -0.00000000000E+00 -0.00000000000E+00 -0.45593999997E+02  0.45594000000E+02  0.51100000000E-03 0. -1.
    9900012    2    1    2    0    0  0.37048352601E+02 -0.21935827362E+02  0.54646589362E+01  0.47787269018E+02  0.19999990761E+02 0.  0.
        -12    1    1    2    0    0 -0.37048352601E+02  0.21935827362E+02 -0.54646589362E+01  0.43400730982E+02  0.00000000000E+00 0.  1.
         11    1    3    3    0    0  0.11345774584E+02 -0.80054434115E+01  0.56847128682E+00  0.13897369715E+02  0.51100000000E-03 0. -1.
        -11    1    3    3    0    0  0.10403480712E+02  0.28702635173E+01  0.21164783008E+01  0.10997740870E+02  0.51100000000E-03 0.  1.
        -12    1    3    3    0    0  0.15299097305E+02 -0.16800647468E+02  0.27797093485E+01  0.22892158434E+02  0.00000000000E+00 0.  1.
</event>
<event>
 7    1  0.2756432E-009  0.4778727E+02  0.7816164E-02  0.1312668E+00
        -11   -1    0    0    0    0  0.00000000000E+00  0.00000000000E+00  0.45593999997E+02  0.45594000000E+02  0.51100000000E-03 0. -1.
         11   -1    0    0    0    0 -0.00000000000E+00 -0.00000000000E+00 -0.45593999997E+02  0.45594000000E+02  0.51100000000E-03 0.  1.
    9900012    2    1    2    0    0  0.24498211604E+02  0.18459211161E+02  0.30703722429E+02  0.47787269367E+02  0.19999992351E+02 0.  0.
        -12    1    1    2    0    0 -0.24498211604E+02 -0.18459211161E+02 -0.30703722429E+02  0.43400730633E+02  0.00000000000E+00 0.  1.
         11    1    3    3    0    0  0.11920558081E+02  0.13791414049E+02  0.15306687225E+02  0.23803308184E+02  0.51100000000E-03 0. -1.
        -11    1    3    3    0    0  0.36445293142E+01 -0.55630030684E+00  0.12791884188E+02  0.13312564189E+02  0.51100000000E-03 0.  1.
         12    1    3    3    0    0  0.89331242097E+01  0.52240974187E+01  0.26051510164E+01  0.10671396994E+02  0.00000000000E+00 0. -1.
</event>
<event>
 7    1  0.2756432E-009  0.4778727E+02  0.7816164E-02  0.1312668E+00
        -11   -1    0    0    0    0  0.00000000000E+00  0.00000000000E+00  0.45593999997E+02  0.45594000000E+02  0.51100000000E-03 0.  1.
         11   -1    0    0    0    0 -0.00000000000E+00 -0.00000000000E+00 -0.45593999997E+02  0.45594000000E+02  0.51100000000E-03 0. -1.
    9900012    2    1    2    0    0  0.54885625690E+01 -0.40680721804E+02 -0.14091763971E+02  0.47787271234E+02  0.20000000866E+02 0.  0.
        -12    1    1    2    0    0 -0.54885625690E+01  0.40680721804E+02  0.14091763971E+02  0.43400728766E+02  0.00000000000E+00 0.  1.
         11    1    3    3    0    0  0.79726154025E+01 -0.15834492348E+02 -0.95353527597E+01  0.20129994952E+02  0.51100000000E-03 0. -1.
        -11    1    3    3    0    0 -0.32298348842E+01 -0.24686210866E+02 -0.63624921952E+01  0.25696734180E+02  0.51100000000E-03 0.  1.
         12    1    3    3    0    0  0.74578205067E+00 -0.16001859010E+00  0.18060809837E+01  0.19605421026E+01  0.00000000000E+00 0. -1.
</event>
<event>
 7    1  0.2756432E-009  0.4778727E+02  0.7816164E-02  0.1312668E+00
        -11   -1    0    0    0    0  0.00000000000E+00  0.00000000000E+00  0.45593999997E+02  0.45594000000E+02  0.51100000000E-03 0.  1.
         11   -1    0    0    0    0 -0.00000000000E+00 -0.00000000000E+00 -0.45593999997E+02  0.45594000000E+02  0.51100000000E-03 0. -1.
    9900012    2    1    2    0    0  0.17506930864E+02  0.20200009322E+01 -0.39661701487E+02  0.47787267324E+02  0.19999983036E+02 0.  0.
        -12    1    1    2    0    0 -0.17506930864E+02 -0.20200009322E+01  0.39661701487E+02  0.43400732676E+02  0.00000000000E+00 0.  1.
         11    1    3    3    0    0  0.99492207488E+01  0.28022143591E+01 -0.46089798523E+01  0.11317336010E+02  0.51100000000E-03 0. -1.
        -11    1    3    3    0    0  0.42373225800E+01 -0.37148685565E+01 -0.20040394147E+02  0.20817601900E+02  0.51100000000E-03 0.  1.
         12    1    3    3    0    0  0.33203875349E+01  0.29326551296E+01 -0.15012327487E+02  0.15652329413E+02  0.00000000000E+00 0. -1.
</event>
<event>
 7    1  0.2756432E-009  0.4778728E+02  0.7816164E-02  0.1312668E+00
        -11   -1    0    0    0    0  0.00000000000E+00  0.00000000000E+00  0.45593999997E+02  0.45594000000E+02  0.51100000000E-03 0. -1.
         11   -1    0    0    0    0 -0.00000000000E+00 -0.00000000000E+00 -0.45593999997E+02  0.45594000000E+02  0.51100000000E-03 0.  1.
    9900012    2    1    2    0    0  0.23169140878E+02  0.23244155291E+02  0.28399346573E+02  0.47787277310E+02  0.20000028568E+02 0.  0.
        -12    1    1    2    0    0 -0.23169140878E+02 -0.23244155291E+02 -0.28399346573E+02  0.43400722690E+02  0.00000000000E+00 0.  1.
         11    1    3    3    0    0  0.36617796083E+01  0.37017637094E+00  0.40753447395E+01  0.54912744834E+01  0.51100000000E-03 0. -1.
        -11    1    3    3    0    0  0.40431011497E+01  0.63804505201E+01  0.16879641007E+02  0.18492676835E+02  0.51100000000E-03 0.  1.
        -12    1    3    3    0    0  0.15464260120E+02  0.16493528400E+02  0.74443608266E+01  0.23803325992E+02  0.00000000000E+00 0.  1.
</event>
<event>
 7    1  0.2756432E-009  0.4778727E+02  0.7816164E-02  0.1312668E+00
        -11   -1    0    0    0    0  0.00000000000E+00  0.00000000000E+00  0.45593999997E+02  0.45594000000E+02  0.51100000000E-03 0. -1.
         11   -1    0    0    0    0 -0.00000000000E+00 -0.00000000000E+00 -0.45593999997E+02  0.45594000000E+02  0.51100000000E-03 0.  1.
    9900012    2    1    2    0    0 -0.14063717483E+02  0.28875549610E+02  0.29189681180E+02  0.47787274175E+02  0.20000014274E+02 0.  0.
        -12    1    1    2    0    0  0.14063717483E+02 -0.28875549610E+02 -0.29189681180E+02  0.43400725825E+02  0.00000000000E+00 0.  1.
         11    1    3    3    0    0 -0.40224480250E+01  0.48832101085E+01  0.72903824359E+00  0.63684634017E+01  0.51100000000E-03 0. -1.
        -11    1    3    3    0    0  0.37216640157E+01  0.90043285399E+01  0.92689468114E+01  0.13447754116E+02  0.51100000000E-03 0.  1.
        -12    1    3    3    0    0 -0.13762933474E+02  0.14988010962E+02  0.19191696125E+02  0.27971056658E+02  0.00000000000E+00 0.  1.
</event>
<event>
 7    1  0.3431399E-009  0.4778727E+02  0.7816164E-02  0.1312668E+00
        -11   -1    0    0    0    0  0.00000000000E+00  0.00000000000E+00  0.45593999997E+02  0.45594000000E+02  0.51100000000E-03 0.  1.
         11   -1    0    0    0    0 -0.00000000000E+00 -0.00000000000E+00 -0.45593999997E+02  0.45594000000E+02  0.51100000000E-03 0. -1.
    9900012    2    1    2    0    0 -0.20396638620E+02  0.19815183036E+02 -0.32786565405E+02  0.47787271702E+02  0.20000002998E+02 0.  0.
        -12    1    1    2    0    0  0.20396638620E+02 -0.19815183036E+02  0.32786565405E+02  0.43400728298E+02  0.00000000000E+00 0.  1.
         11    1    3    3    0    0 -0.80728316695E+01  0.84667569161E+01 -0.92519004477E+01  0.14914900134E+02  0.51100000000E-03 0. -1.
        -11    1    3    3    0    0 -0.13373716146E+02  0.25466068124E+01 -0.10908230776E+02  0.17445084944E+02  0.51100000000E-03 0.  1.
        -12    1    3    3    0    0  0.10499091952E+01  0.88018193078E+01 -0.12626434181E+02  0.15427286624E+02  0.00000000000E+00 0.  1.
</event>
<event>
 7    1  0.2756432E-009  0.4778727E+02  0.7816164E-02  0.1312668E+00
        -11   -1    0    0    0    0  0.00000000000E+00  0.00000000000E+00  0.45593999997E+02  0.45594000000E+02  0.51100000000E-03 0.  1.
         11   -1    0    0    0    0 -0.00000000000E+00 -0.00000000000E+00 -0.45593999997E+02  0.45594000000E+02  0.51100000000E-03 0. -1.
    9900012    2    1    2    0    0 -0.32300068643E+01  0.99018931454E+01 -0.42132444129E+02  0.47787270968E+02  0.19999999651E+02 0.  0.
        -12    1    1    2    0    0  0.32300068643E+01 -0.99018931454E+01  0.42132444129E+02  0.43400729032E+02  0.00000000000E+00 0.  1.
         11    1    3    3    0    0  0.57045773479E+01  0.10124814040E+02 -0.23483448024E+02  0.26201648678E+02  0.51100000000E-03 0. -1.
        -11    1    3    3    0    0 -0.62120547363E+01  0.27822359148E+01 -0.11277501110E+02  0.13172414064E+02  0.51100000000E-03 0.  1.
         12    1    3    3    0    0 -0.27225294759E+01 -0.30051568091E+01 -0.73714949947E+01  0.84132082258E+01  0.00000000000E+00 0. -1.
</event>
<event>
 7    1  0.2756432E-009  0.4778727E+02  0.7816164E-02  0.1312668E+00
        -11   -1    0    0    0    0  0.00000000000E+00  0.00000000000E+00  0.45593999997E+02  0.45594000000E+02  0.51100000000E-03 0.  1.
         11   -1    0    0    0    0 -0.00000000000E+00 -0.00000000000E+00 -0.45593999997E+02  0.45594000000E+02  0.51100000000E-03 0. -1.
    9900012    2    1    2    0    0 -0.10506403668E+02  0.20506355391E+02 -0.36779456228E+02  0.47787268095E+02  0.19999986551E+02 0.  0.
        -12    1    1    2    0    0  0.10506403668E+02 -0.20506355391E+02  0.36779456228E+02  0.43400731905E+02  0.00000000000E+00 0.  1.
         11    1    3    3    0    0 -0.10887915539E+02  0.21330026618E+02 -0.30359959051E+02  0.38668383133E+02  0.51100000000E-03 0. -1.
        -11    1    3    3    0    0 -0.26361296501E+01 -0.16811926298E+01 -0.20457564316E+01  0.37364030603E+01  0.51100000000E-03 0.  1.
        -12    1    3    3    0    0  0.30176415209E+01  0.85752140303E+00 -0.43737407457E+01  0.53824819011E+01  0.00000000000E+00 0.  1.
</event>
<event>
 7    1  0.2756432E-009  0.4778727E+02  0.7816164E-02  0.1312668E+00
        -11   -1    0    0    0    0  0.00000000000E+00  0.00000000000E+00  0.45593999997E+02  0.45594000000E+02  0.51100000000E-03 0.  1.
         11   -1    0    0    0    0 -0.00000000000E+00 -0.00000000000E+00 -0.45593999997E+02  0.45594000000E+02  0.51100000000E-03 0. -1.
    9900012    2    1    2    0    0 -0.26572654328E+01  0.71151989863E+01 -0.42730975358E+02  0.47787269923E+02  0.19999994885E+02 0.  0.
        -12    1    1    2    0    0  0.26572654328E+01 -0.71151989863E+01  0.42730975358E+02  0.43400730077E+02  0.00000000000E+00 0.  1.
         11    1    3    3    0    0  0.62984855252E+01  0.53756057633E-01 -0.97382702139E+01  0.11597746188E+02  0.51100000000E-03 0. -1.
        -11    1    3    3    0    0 -0.16649069841E+01 -0.10626697094E+01 -0.68987145059E+00  0.20921532106E+01  0.51100000000E-03 0.  1.
         12    1    3    3    0    0 -0.72908439738E+01  0.81241126381E+01 -0.32302833694E+02  0.34097370524E+02  0.00000000000E+00 0. -1.
</event>
<event>
 7    1  0.3722680E-009  0.4778727E+02  0.7816164E-02  0.1312668E+00
        -11   -1    0    0    0    0  0.00000000000E+00  0.00000000000E+00  0.45593999997E+02  0.45594000000E+02  0.51100000000E-03 0. -1.
         11   -1    0    0    0    0 -0.00000000000E+00 -0.00000000000E+00 -0.45593999997E+02  0.45594000000E+02  0.51100000000E-03 0.  1.
    9900012    2    1    2    0    0 -0.10948967547E+02 -0.28613626449E+02  0.30740915239E+02  0.47787269837E+02  0.19999994497E+02 0.  0.
        -12    1    1    2    0    0  0.10948967547E+02  0.28613626449E+02 -0.30740915239E+02  0.43400730163E+02  0.00000000000E+00 0.  1.
         11    1    3    3    0    0 -0.47372473460E+01 -0.13983020699E+02  0.14955626351E+02  0.21015164527E+02  0.51100000000E-03 0. -1.
        -11    1    3    3    0    0  0.68506517872E-01 -0.10902415208E+02  0.18772618487E+01  0.11063067514E+02  0.51100000000E-03 0.  1.
        -12    1    3    3    0    0 -0.62802267194E+01 -0.37281905418E+01  0.13908027039E+02  0.15709037796E+02  0.00000000000E+00 0.  1.
</event>
<event>
 7    1  0.2756432E-009  0.4778727E+02  0.7816164E-02  0.1312668E+00
        -11   -1    0    0    0    0  0.00000000000E+00  0.00000000000E+00  0.45593999997E+02  0.45594000000E+02  0.51100000000E-03 0.  1.
         11   -1    0    0    0    0 -0.00000000000E+00 -0.00000000000E+00 -0.45593999997E+02  0.45594000000E+02  0.51100000000E-03 0. -1.
    9900012    2    1    2    0    0 -0.34803425576E+02 -0.21149958512E+02 -0.15000812267E+02  0.47787267915E+02  0.19999985731E+02 0.  0.
        -12    1    1    2    0    0  0.34803425576E+02  0.21149958512E+02  0.15000812267E+02  0.43400732085E+02  0.00000000000E+00 0.  1.
         11    1    3    3    0    0 -0.25094073268E+02 -0.17935712074E+02 -0.20899678983E+01  0.30915534070E+02  0.51100000000E-03 0. -1.
        -11    1    3    3    0    0 -0.33192953605E+01 -0.21940619282E+01 -0.72685178694E+01  0.82863129143E+01  0.51100000000E-03 0.  1.
         12    1    3    3    0    0 -0.63900569474E+01 -0.10201845096E+01 -0.56423264989E+01  0.85854209300E+01  0.00000000000E+00 0. -1.
</event>
<event>
 7    1  0.2756432E-009  0.4778727E+02  0.7816164E-02  0.1312668E+00
        -11   -1    0    0    0    0  0.00000000000E+00  0.00000000000E+00  0.45593999997E+02  0.45594000000E+02  0.51100000000E-03 0. -1.
         11   -1    0    0    0    0 -0.00000000000E+00 -0.00000000000E+00 -0.45593999997E+02  0.45594000000E+02  0.51100000000E-03 0.  1.
    9900012    2    1    2    0    0 -0.25552974970E+02  0.16668365302E+02  0.30868012611E+02  0.47787272653E+02  0.20000007335E+02 0.  0.
        -12    1    1    2    0    0  0.25552974970E+02 -0.16668365302E+02 -0.30868012611E+02  0.43400727347E+02  0.00000000000E+00 0.  1.
         11    1    3    3    0    0 -0.81770158216E+01  0.13208888518E+02  0.18823704647E+02  0.24406355331E+02  0.51100000000E-03 0. -1.
        -11    1    3    3    0    0 -0.10092541830E+02 -0.27299335207E+01  0.68939386678E+01  0.12523511019E+02  0.51100000000E-03 0.  1.
        -12    1    3    3    0    0 -0.72834173180E+01  0.61894103043E+01  0.51503692968E+01  0.10857406303E+02  0.00000000000E+00 0.  1.
</event>
<event>
 7    1  0.2756432E-009  0.4778727E+02  0.7816164E-02  0.1312668E+00
        -11   -1    0    0    0    0  0.00000000000E+00  0.00000000000E+00  0.45593999997E+02  0.45594000000E+02  0.51100000000E-03 0. -1.
         11   -1    0    0    0    0 -0.00000000000E+00 -0.00000000000E+00 -0.45593999997E+02  0.45594000000E+02  0.51100000000E-03 0.  1.
    9900012    2    1    2    0    0  0.60391198605E+01 -0.35610458113E+02  0.24063414302E+02  0.47787267246E+02  0.19999982681E+02 0.  0.
        -12    1    1    2    0    0 -0.60391198605E+01  0.35610458113E+02 -0.24063414302E+02  0.43400732754E+02  0.00000000000E+00 0.  1.
         11    1    3    3    0    0 -0.14517310331E+01 -0.33687587634E+01  0.48386772222E+01  0.60719730006E+01  0.51100000000E-03 0. -1.
        -11    1    3    3    0    0 -0.11224560313E+01 -0.22911377906E+02  0.17601590844E+02  0.28913788158E+02  0.51100000000E-03 0.  1.
        -12    1    3    3    0    0  0.86133069248E+01 -0.93303214433E+01  0.16231462356E+01  0.12801506088E+02  0.00000000000E+00 0.  1.
</event>
<event>
 7    1  0.2756432E-009  0.4778728E+02  0.7816164E-02  0.1312668E+00
        -11   -1    0    0    0    0  0.00000000000E+00  0.00000000000E+00  0.45593999997E+02  0.45594000000E+02  0.51100000000E-03 0.  1.
         11   -1    0    0    0    0 -0.00000000000E+00 -0.00000000000E+00 -0.45593999997E+02  0.45594000000E+02  0.51100000000E-03 0. -1.
    9900012    2    1    2    0    0  0.41570682474E+02 -0.11050303084E+02 -0.57785673103E+01  0.47787277889E+02  0.20000031206E+02 0.  0.
        -12    1    1    2    0    0 -0.41570682474E+02  0.11050303084E+02  0.57785673103E+01  0.43400722111E+02  0.00000000000E+00 0.  1.
         11    1    3    3    0    0  0.17589020528E+02 -0.76908815103E+01  0.43160802136E+01  0.19676174684E+02  0.51100000000E-03 0. -1.
        -11    1    3    3    0    0  0.18376047694E+02 -0.57059508033E+01 -0.10678692736E+02  0.22006169186E+02  0.51100000000E-03 0.  1.
        -12    1    3    3    0    0  0.56056142519E+01  0.23465292292E+01  0.58404521161E+00  0.61049340188E+01  0.00000000000E+00 0.  1.
</event>
<event>
 7    1  0.2756432E-009  0.4778728E+02  0.7816164E-02  0.1312668E+00
        -11   -1    0    0    0    0  0.00000000000E+00  0.00000000000E+00  0.45593999997E+02  0.45594000000E+02  0.51100000000E-03 0.  1.
         11   -1    0    0    0    0 -0.00000000000E+00 -0.00000000000E+00 -0.45593999997E+02  0.45594000000E+02  0.51100000000E-03 0. -1.
    9900012    2    1    2    0    0  0.38503311863E+02 -0.19957248257E+02 -0.16810950401E+01  0.47787275778E+02  0.20000021584E+02 0.  0.
        -12    1    1    2    0    0 -0.38503311863E+02  0.19957248257E+02  0.16810950401E+01  0.43400724222E+02  0.00000000000E+00 0.  1.
         11    1    3    3    0    0  0.22488871470E+02 -0.15301458468E+02 -0.45738298954E+01  0.27582673754E+02  0.51100000000E-03 0. -1.
        -11    1    3    3    0    0  0.98810618873E+01 -0.48352220194E+00  0.66193680866E+01  0.11903159743E+02  0.51100000000E-03 0.  1.
        -12    1    3    3    0    0  0.61333785061E+01 -0.41722675870E+01 -0.37266332313E+01  0.83014422817E+01  0.00000000000E+00 0.  1.
</event>
<event>
 7    1  0.2756432E-009  0.4778727E+02  0.7816164E-02  0.1312668E+00
        -11   -1    0    0    0    0  0.00000000000E+00  0.00000000000E+00  0.45593999997E+02  0.45594000000E+02  0.51100000000E-03 0.  1.
         11   -1    0    0    0    0 -0.00000000000E+00 -0.00000000000E+00 -0.45593999997E+02  0.45594000000E+02  0.51100000000E-03 0. -1.
    9900012    2    1    2    0    0  0.80635551037E+01 -0.37897222740E+02 -0.19555127208E+02  0.47787269448E+02  0.19999992723E+02 0.  0.
        -12    1    1    2    0    0 -0.80635551037E+01  0.37897222740E+02  0.19555127208E+02  0.43400730552E+02  0.00000000000E+00 0.  1.
         11    1    3    3    0    0  0.46775392752E+01 -0.14511873130E+02 -0.63282245899E+01  0.16508187731E+02  0.51100000000E-03 0. -1.
        -11    1    3    3    0    0  0.41064901615E+01 -0.24120175627E+02 -0.15375135563E+02  0.28897074723E+02  0.51100000000E-03 0.  1.
        -12    1    3    3    0    0 -0.72047433302E+00  0.73482601707E+00  0.21482329447E+01  0.23820069951E+01  0.00000000000E+00 0.  1.
</event>
<event>
 7    1  0.2756432E-009  0.4778728E+02  0.7816164E-02  0.1312668E+00
        -11   -1    0    0    0    0  0.00000000000E+00  0.00000000000E+00  0.45593999997E+02  0.45594000000E+02  0.51100000000E-03 0. -1.
         11   -1    0    0    0    0 -0.00000000000E+00 -0.00000000000E+00 -0.45593999997E+02  0.45594000000E+02  0.51100000000E-03 0.  1.
    9900012    2    1    2    0    0 -0.18639759618E+02 -0.26364541954E+02  0.29001594832E+02  0.47787283256E+02  0.20000055678E+02 0.  0.
        -12    1    1    2    0    0  0.18639759618E+02  0.26364541954E+02 -0.29001594832E+02  0.43400716744E+02  0.00000000000E+00 0.  1.
         11    1    3    3    0    0 -0.41878952042E+01 -0.80768112810E+00  0.45388197640E+01  0.62282983356E+01  0.51100000000E-03 0. -1.
        -11    1    3    3    0    0 -0.13087380467E+02 -0.15097550969E+02  0.23678339164E+02  0.30981919221E+02  0.51100000000E-03 0.  1.
        -12    1    3    3    0    0 -0.13644839467E+01 -0.10459309857E+02  0.78443590364E+00  0.10577065700E+02  0.00000000000E+00 0.  1.
</event>
<event>
 7    1  0.2756432E-009  0.4778726E+02  0.7816164E-02  0.1312668E+00
        -11   -1    0    0    0    0  0.00000000000E+00  0.00000000000E+00  0.45593999997E+02  0.45594000000E+02  0.51100000000E-03 0. -1.
         11   -1    0    0    0    0 -0.00000000000E+00 -0.00000000000E+00 -0.45593999997E+02  0.45594000000E+02  0.51100000000E-03 0.  1.
    9900012    2    1    2    0    0 -0.67156483316E+01  0.78353704225E-01  0.42877945734E+02  0.47787259198E+02  0.19999945988E+02 0.  0.
        -12    1    1    2    0    0  0.67156483316E+01 -0.78353704225E-01 -0.42877945734E+02  0.43400740802E+02  0.00000000000E+00 0.  1.
         11    1    3    3    0    0  0.46860169957E+01 -0.55515905939E+00  0.16772507083E+02  0.17423660665E+02  0.51100000000E-03 0. -1.
        -11    1    3    3    0    0  0.68882771991E+00 -0.27486929615E+01  0.34745449129E+01  0.44835543085E+01  0.51100000000E-03 0.  1.
         12    1    3    3    0    0 -0.12090493047E+02  0.33822057251E+01  0.22630893738E+02  0.25880044225E+02  0.00000000000E+00 0. -1.
</event>
<event>
 7    1  0.2756432E-009  0.4778727E+02  0.7816164E-02  0.1312668E+00
        -11   -1    0    0    0    0  0.00000000000E+00  0.00000000000E+00  0.45593999997E+02  0.45594000000E+02  0.51100000000E-03 0.  1.
         11   -1    0    0    0    0 -0.00000000000E+00 -0.00000000000E+00 -0.45593999997E+02  0.45594000000E+02  0.51100000000E-03 0. -1.
    9900012    2    1    2    0    0 -0.14153609149E+02  0.25402129785E+02 -0.32218482131E+02  0.47787269126E+02  0.19999991255E+02 0.  0.
        -12    1    1    2    0    0  0.14153609149E+02 -0.25402129785E+02  0.32218482131E+02  0.43400730874E+02  0.00000000000E+00 0.  1.
         11    1    3    3    0    0 -0.24472216574E+01  0.87662500283E+01 -0.55632335420E+01  0.10667033379E+02  0.51100000000E-03 0. -1.
        -11    1    3    3    0    0  0.47530221907E+00  0.95061387251E+00  0.19945561007E+01  0.22600515999E+01  0.51100000000E-03 0.  1.
        -12    1    3    3    0    0 -0.12181689710E+02  0.15685265884E+02 -0.28649804690E+02  0.34860184148E+02  0.00000000000E+00 0.  1.
</event>
<event>
 7    1  0.2756432E-009  0.4778728E+02  0.7816164E-02  0.1312668E+00
        -11   -1    0    0    0    0  0.00000000000E+00  0.00000000000E+00  0.45593999997E+02  0.45594000000E+02  0.51100000000E-03 0. -1.
         11   -1    0    0    0    0 -0.00000000000E+00 -0.00000000000E+00 -0.45593999997E+02  0.45594000000E+02  0.51100000000E-03 0.  1.
    9900012    2    1    2    0    0 -0.24045367369E+01  0.37240236611E+02  0.22158649796E+02  0.47787276728E+02  0.20000025913E+02 0.  0.
        -12    1    1    2    0    0  0.24045367369E+01 -0.37240236611E+02 -0.22158649796E+02  0.43400723272E+02  0.00000000000E+00 0.  1.
         11    1    3    3    0    0 -0.76769889797E-01  0.64032464914E+01  0.47486334694E+01  0.79722631250E+01  0.51100000000E-03 0. -1.
        -11    1    3    3    0    0  0.32810426518E+01  0.16640187321E+02  0.17744900515E+02  0.24546742544E+02  0.51100000000E-03 0.  1.
        -12    1    3    3    0    0 -0.56088094989E+01  0.14196802799E+02 -0.33488418886E+00  0.15268271059E+02  0.00000000000E+00 0.  1.
</event>
<event>
 7    1  0.2756432E-009  0.4778727E+02  0.7816164E-02  0.1312668E+00
        -11   -1    0    0    0    0  0.00000000000E+00  0.00000000000E+00  0.45593999997E+02  0.45594000000E+02  0.51100000000E-03 0.  1.
         11   -1    0    0    0    0 -0.00000000000E+00 -0.00000000000E+00 -0.45593999997E+02  0.45594000000E+02  0.51100000000E-03 0. -1.
    9900012    2    1    2    0    0  0.29324247804E+02  0.34582416128E+00 -0.31993626526E+02  0.47787271413E+02  0.20000001679E+02 0.  0.
        -12    1    1    2    0    0 -0.29324247804E+02 -0.34582416128E+00  0.31993626526E+02  0.43400728587E+02  0.00000000000E+00 0.  1.
         11    1    3    3    0    0  0.17359950985E+02  0.55384499957E+01 -0.22499796600E+02  0.28953120278E+02  0.51100000000E-03 0. -1.
        -11    1    3    3    0    0  0.37865031131E+01 -0.68720139532E+01 -0.54837026130E+01  0.95725219356E+01  0.51100000000E-03 0.  1.
        -12    1    3    3    0    0  0.81777937059E+01  0.16793881188E+01 -0.40101273133E+01  0.92616291990E+01  0.00000000000E+00 0.  1.
</event>
<event>
 7    1  0.2756432E-009  0.4778727E+02  0.7816164E-02  0.1312668E+00
        -11   -1    0    0    0    0  0.00000000000E+00  0.00000000000E+00  0.45593999997E+02  0.45594000000E+02  0.51100000000E-03 0.  1.
         11   -1    0    0    0    0 -0.00000000000E+00 -0.00000000000E+00 -0.45593999997E+02  0.45594000000E+02  0.51100000000E-03 0. -1.
    9900012    2    1    2    0    0  0.30303910078E+02 -0.14704817139E+02 -0.27369047474E+02  0.47787269906E+02  0.19999994808E+02 0.  0.
        -12    1    1    2    0    0 -0.30303910078E+02  0.14704817139E+02  0.27369047474E+02  0.43400730094E+02  0.00000000000E+00 0.  1.
         11    1    3    3    0    0  0.11620708875E+02 -0.64847516953E+01 -0.21296537394E+02  0.25112454769E+02  0.51100000000E-03 0. -1.
        -11    1    3    3    0    0  0.15722178625E+02 -0.58744387117E+01 -0.16592113089E+01  0.16865613340E+02  0.51100000000E-03 0.  1.
        -12    1    3    3    0    0  0.29610225771E+01 -0.23456267320E+01 -0.44132987715E+01  0.58092017967E+01  0.00000000000E+00 0.  1.
</event>
<event>
 7    1  0.2756432E-009  0.4778727E+02  0.7816164E-02  0.1312668E+00
        -11   -1    0    0    0    0  0.00000000000E+00  0.00000000000E+00  0.45593999997E+02  0.45594000000E+02  0.51100000000E-03 0. -1.
         11   -1    0    0    0    0 -0.00000000000E+00 -0.00000000000E+00 -0.45593999997E+02  0.45594000000E+02  0.51100000000E-03 0.  1.
    9900012    2    1    2    0    0 -0.37038279320E+02 -0.44610239331E+01  0.22178557383E+02  0.47787271007E+02  0.19999999828E+02 0.  0.
        -12    1    1    2    0    0  0.37038279320E+02  0.44610239331E+01 -0.22178557383E+02  0.43400728993E+02  0.00000000000E+00 0.  1.
         11    1    3    3    0    0  0.56913241554E-01 -0.39658886007E+00  0.16313511130E+01  0.16798299188E+01  0.51100000000E-03 0. -1.
        -11    1    3    3    0    0 -0.15938205304E+02 -0.37081537597E+01 -0.35042077816E+00  0.16367638425E+02  0.51100000000E-03 0.  1.
        -12    1    3    3    0    0 -0.21156987258E+02 -0.35628131339E+00  0.20897627048E+02  0.29739802663E+02  0.00000000000E+00 0.  1.
</event>
<event>
 7    1  0.2756432E-009  0.4778726E+02  0.7816164E-02  0.1312668E+00
        -11   -1    0    0    0    0  0.00000000000E+00  0.00000000000E+00  0.45593999997E+02  0.45594000000E+02  0.51100000000E-03 0. -1.
         11   -1    0    0    0    0 -0.00000000000E+00 -0.00000000000E+00 -0.45593999997E+02  0.45594000000E+02  0.51100000000E-03 0.  1.
    9900012    2    1    2    0    0  0.37572957298E+02  0.21150662732E+02  0.49544302862E+01  0.47787262292E+02  0.19999960094E+02 0.  0.
        -12    1    1    2    0    0 -0.37572957298E+02 -0.21150662732E+02 -0.49544302862E+01  0.43400737708E+02  0.00000000000E+00 0.  1.
         11    1    3    3    0    0  0.28961313856E+02  0.83649904309E+01  0.47445009803E+01  0.30516242478E+02  0.51100000000E-03 0. -1.
        -11    1    3    3    0    0 -0.58258676213E+00  0.47228003403E+01  0.14624001888E+01  0.49782391428E+01  0.51100000000E-03 0.  1.
         12    1    3    3    0    0  0.91942302045E+01  0.80628719613E+01 -0.12524708828E+01  0.12292780671E+02  0.00000000000E+00 0. -1.
</event>
<event>
 7    1  0.2756432E-009  0.4778728E+02  0.7816164E-02  0.1312668E+00
        -11   -1    0    0    0    0  0.00000000000E+00  0.00000000000E+00  0.45593999997E+02  0.45594000000E+02  0.51100000000E-03 0. -1.
         11   -1    0    0    0    0 -0.00000000000E+00 -0.00000000000E+00 -0.45593999997E+02  0.45594000000E+02  0.51100000000E-03 0.  1.
    9900012    2    1    2    0    0 -0.41569036034E+02 -0.52527767831E+01 -0.11315761712E+02  0.47787275538E+02  0.20000020488E+02 0.  0.
        -12    1    1    2    0    0  0.41569036034E+02  0.52527767831E+01  0.11315761712E+02  0.43400724462E+02  0.00000000000E+00 0.  1.
         11    1    3    3    0    0 -0.11500109769E+02  0.16047560669E+01  0.33221595661E+01  0.12077438105E+02  0.51100000000E-03 0. -1.
        -11    1    3    3    0    0 -0.11157086468E+02 -0.39991847495E+01 -0.11140529517E+02  0.16266082973E+02  0.51100000000E-03 0.  1.
         12    1    3    3    0    0 -0.18911839797E+02 -0.28583481005E+01 -0.34973917612E+01  0.19443754460E+02  0.00000000000E+00 0. -1.
</event>
<event>
 7    1  0.2756432E-009  0.4778727E+02  0.7816164E-02  0.1312668E+00
        -11   -1    0    0    0    0  0.00000000000E+00  0.00000000000E+00  0.45593999997E+02  0.45594000000E+02  0.51100000000E-03 0.  1.
         11   -1    0    0    0    0 -0.00000000000E+00 -0.00000000000E+00 -0.45593999997E+02  0.45594000000E+02  0.51100000000E-03 0. -1.
    9900012    2    1    2    0    0 -0.11624001538E+02  0.31505020148E+02 -0.27494355310E+02  0.47787270972E+02  0.19999999670E+02 0.  0.
        -12    1    1    2    0    0  0.11624001538E+02 -0.31505020148E+02  0.27494355310E+02  0.43400729028E+02  0.00000000000E+00 0.  1.
         11    1    3    3    0    0 -0.82906238905E+01  0.92143299094E+01 -0.88298243429E+01  0.15218545212E+02  0.51100000000E-03 0. -1.
        -11    1    3    3    0    0 -0.57376943675E+01  0.35246012372E+01 -0.12382174135E+01  0.68466877511E+01  0.51100000000E-03 0.  1.
        -12    1    3    3    0    0  0.24043167204E+01  0.18766089001E+02 -0.17426313553E+02  0.25722038009E+02  0.00000000000E+00 0.  1.
</event>
<event>
 7    1  0.2756432E-009  0.4778727E+02  0.7816164E-02  0.1312668E+00
        -11   -1    0    0    0    0  0.00000000000E+00  0.00000000000E+00  0.45593999997E+02  0.45594000000E+02  0.51100000000E-03 0. -1.
         11   -1    0    0    0    0 -0.00000000000E+00 -0.00000000000E+00 -0.45593999997E+02  0.45594000000E+02  0.51100000000E-03 0.  1.
    9900012    2    1    2    0    0  0.18111817742E+02  0.32712644711E+02  0.22033339629E+02  0.47787272804E+02  0.20000008022E+02 0.  0.
        -12    1    1    2    0    0 -0.18111817742E+02 -0.32712644711E+02 -0.22033339629E+02  0.43400727196E+02  0.00000000000E+00 0.  1.
         11    1    3    3    0    0 -0.85913296537E+00 -0.16505333024E+01  0.19719221637E+01  0.27112445326E+01  0.51100000000E-03 0. -1.
        -11    1    3    3    0    0  0.18889546135E+02  0.28223912360E+02  0.15034375733E+02  0.37140767844E+02  0.51100000000E-03 0.  1.
         12    1    3    3    0    0  0.81404572797E-01  0.61392656538E+01  0.50270417325E+01  0.79352604276E+01  0.00000000000E+00 0. -1.
</event>
<event>
 7    1  0.2756432E-009  0.4778727E+02  0.7816164E-02  0.1312668E+00
        -11   -1    0    0    0    0  0.00000000000E+00  0.00000000000E+00  0.45593999997E+02  0.45594000000E+02  0.51100000000E-03 0.  1.
         11   -1    0    0    0    0 -0.00000000000E+00 -0.00000000000E+00 -0.45593999997E+02  0.45594000000E+02  0.51100000000E-03 0. -1.
    9900012    2    1    2    0    0 -0.22013801959E+02 -0.36943665660E+02 -0.58465000354E+01  0.47787268765E+02  0.19999989605E+02 0.  0.
        -12    1    1    2    0    0  0.22013801959E+02  0.36943665660E+02  0.58465000354E+01  0.43400731235E+02  0.00000000000E+00 0.  1.
         11    1    3    3    0    0 -0.13511355830E+02 -0.12953517832E+02  0.17044291135E+01  0.18795090834E+02  0.51100000000E-03 0.  1.
        -11    1    3    3    0    0 -0.66916649934E+01 -0.23103379327E+02 -0.32882200097E+01  0.24276674151E+02  0.51100000000E-03 0. -1.
        -12    1    3    3    0    0 -0.18107811360E+01 -0.88676850078E+00 -0.42627091392E+01  0.47155037803E+01  0.00000000000E+00 0.  1.
</event>
<event>
 7    1  0.2756432E-009  0.4778728E+02  0.7816164E-02  0.1312668E+00
        -11   -1    0    0    0    0  0.00000000000E+00  0.00000000000E+00  0.45593999997E+02  0.45594000000E+02  0.51100000000E-03 0.  1.
         11   -1    0    0    0    0 -0.00000000000E+00 -0.00000000000E+00 -0.45593999997E+02  0.45594000000E+02  0.51100000000E-03 0. -1.
    9900012    2    1    2    0    0 -0.13646700712E+02 -0.10758671633E+00 -0.41199258456E+02  0.47787275208E+02  0.20000018981E+02 0.  0.
        -12    1    1    2    0    0  0.13646700712E+02  0.10758671633E+00  0.41199258456E+02  0.43400724792E+02  0.00000000000E+00 0.  1.
         11    1    3    3    0    0 -0.68630872210E+01 -0.56034667801E+01 -0.45729198610E+01  0.99705768377E+01  0.51100000000E-03 0.  1.
        -11    1    3    3    0    0 -0.33883266836E+01  0.49075314564E+01 -0.22677550344E+02  0.23448580183E+02  0.51100000000E-03 0. -1.
        -12    1    3    3    0    0 -0.33952868070E+01  0.58834860743E+00 -0.13948788250E+02  0.14368118187E+02  0.00000000000E+00 0.  1.
</event>
<event>
 7    1  0.3162643E-009  0.4778727E+02  0.7816164E-02  0.1312668E+00
        -11   -1    0    0    0    0  0.00000000000E+00  0.00000000000E+00  0.45593999997E+02  0.45594000000E+02  0.51100000000E-03 0.  1.
         11   -1    0    0    0    0 -0.00000000000E+00 -0.00000000000E+00 -0.45593999997E+02  0.45594000000E+02  0.51100000000E-03 0. -1.
    9900012    2    1    2    0    0  0.34693619817E+02 -0.31624319726E+01 -0.25883876293E+02  0.47787270928E+02  0.19999999470E+02 0.  0.
        -12    1    1    2    0    0 -0.34693619817E+02  0.31624319726E+01  0.25883876293E+02  0.43400729072E+02  0.00000000000E+00 0.  1.
         11    1    3    3    0    0  0.30134462112E+02  0.33062707398E+01 -0.21340188092E+02  0.37073182504E+02  0.51100000000E-03 0. -1.
        -11    1    3    3    0    0  0.55200651378E+01 -0.64807787329E+01 -0.47246466206E+01  0.97362157978E+01  0.51100000000E-03 0.  1.
        -12    1    3    3    0    0 -0.96090743210E+00  0.12076020471E-01  0.18095841900E+00  0.97787262603E+00  0.00000000000E+00 0.  1.
</event>
<event>
 7    1  0.3737443E-009  0.4778727E+02  0.7816164E-02  0.1312668E+00
        -11   -1    0    0    0    0  0.00000000000E+00  0.00000000000E+00  0.45593999997E+02  0.45594000000E+02  0.51100000000E-03 0. -1.
         11   -1    0    0    0    0 -0.00000000000E+00 -0.00000000000E+00 -0.45593999997E+02  0.45594000000E+02  0.51100000000E-03 0.  1.
    9900012    2    1    2    0    0  0.33913492414E+02  0.16133076882E+02 -0.21753665413E+02  0.47787273090E+02  0.20000009326E+02 0.  0.
        -12    1    1    2    0    0 -0.33913492414E+02 -0.16133076882E+02  0.21753665413E+02  0.43400726910E+02  0.00000000000E+00 0.  1.
         11    1    3    3    0    0  0.25262552985E+02  0.10319370615E+02 -0.12114001288E+02  0.29856909095E+02  0.51100000000E-03 0. -1.
        -11    1    3    3    0    0 -0.18590933208E-01 -0.25509424854E+01 -0.81616835586E-01  0.25523155674E+01  0.51100000000E-03 0.  1.
        -12    1    3    3    0    0  0.86695303623E+01  0.83646487528E+01 -0.95580472896E+01  0.15378048428E+02  0.00000000000E+00 0.  1.
</event>
<event>
 7    1  0.2756432E-009  0.4778727E+02  0.7816164E-02  0.1312668E+00
        -11   -1    0    0    0    0  0.00000000000E+00  0.00000000000E+00  0.45593999997E+02  0.45594000000E+02  0.51100000000E-03 0.  1.
         11   -1    0    0    0    0 -0.00000000000E+00 -0.00000000000E+00 -0.45593999997E+02  0.45594000000E+02  0.51100000000E-03 0. -1.
    9900012    2    1    2    0    0 -0.29123871217E+02  0.60233379780E+01 -0.31609221515E+02  0.47787270054E+02  0.19999995485E+02 0.  0.
        -12    1    1    2    0    0  0.29123871217E+02 -0.60233379780E+01  0.31609221515E+02  0.43400729946E+02  0.00000000000E+00 0.  1.
         11    1    3    3    0    0 -0.20839242477E+02  0.66744516912E+01 -0.24787859049E+02  0.33064486823E+02  0.51100000000E-03 0. -1.
        -11    1    3    3    0    0 -0.15637499260E+01  0.28271304886E+01  0.14243370481E+01  0.35308238300E+01  0.51100000000E-03 0.  1.
        -12    1    3    3    0    0 -0.67208788135E+01 -0.34782442018E+01 -0.82456995142E+01  0.11191959401E+02  0.00000000000E+00 0.  1.
</event>
<event>
 7    1  0.2756432E-009  0.4778726E+02  0.7816164E-02  0.1312668E+00
        -11   -1    0    0    0    0  0.00000000000E+00  0.00000000000E+00  0.45593999997E+02  0.45594000000E+02  0.51100000000E-03 0.  1.
         11   -1    0    0    0    0 -0.00000000000E+00 -0.00000000000E+00 -0.45593999997E+02  0.45594000000E+02  0.51100000000E-03 0. -1.
    9900012    2    1    2    0    0  0.19056131647E+02 -0.30853752486E+02  0.23843947140E+02  0.47787262552E+02  0.19999961280E+02 0.  0.
        -12    1    1    2    0    0 -0.19056131647E+02  0.30853752486E+02 -0.23843947140E+02  0.43400737448E+02  0.00000000000E+00 0.  1.
         11    1    3    3    0    0  0.14989598775E+02 -0.20112692760E+02  0.22339744810E+02  0.33589770466E+02  0.51100000000E-03 0. -1.
        -11    1    3    3    0    0  0.32980661226E+01 -0.25493996260E+01 -0.26913730728E+01  0.49618714091E+01  0.51100000000E-03 0.  1.
        -12    1    3    3    0    0  0.76846674938E+00 -0.81916600992E+01  0.41955754026E+01  0.92356206767E+01  0.00000000000E+00 0.  1.
</event>
<event>
 7    1  0.2756432E-009  0.4778727E+02  0.7816164E-02  0.1312668E+00
        -11   -1    0    0    0    0  0.00000000000E+00  0.00000000000E+00  0.45593999997E+02  0.45594000000E+02  0.51100000000E-03 0.  1.
         11   -1    0    0    0    0 -0.00000000000E+00 -0.00000000000E+00 -0.45593999997E+02  0.45594000000E+02  0.51100000000E-03 0. -1.
    9900012    2    1    2    0    0  0.16964151440E+02 -0.17546667339E+02 -0.35888092094E+02  0.47787272783E+02  0.20000007928E+02 0.  0.
        -12    1    1    2    0    0 -0.16964151440E+02  0.17546667339E+02  0.35888092094E+02  0.43400727217E+02  0.00000000000E+00 0.  1.
         11    1    3    3    0    0  0.97191823599E+01 -0.68175016621E+01 -0.16436139268E+02  0.20275293067E+02  0.51100000000E-03 0. -1.
        -11    1    3    3    0    0 -0.26400480735E+01  0.15211295444E+01 -0.89015913382E+00  0.31742829845E+01  0.51100000000E-03 0.  1.
        -12    1    3    3    0    0  0.98850171533E+01 -0.12250295221E+02 -0.18561793692E+02  0.24337696732E+02  0.00000000000E+00 0.  1.
</event>
<event>
 7    1  0.2756432E-009  0.4778727E+02  0.7816164E-02  0.1312668E+00
        -11   -1    0    0    0    0  0.00000000000E+00  0.00000000000E+00  0.45593999997E+02  0.45594000000E+02  0.51100000000E-03 0.  1.
         11   -1    0    0    0    0 -0.00000000000E+00 -0.00000000000E+00 -0.45593999997E+02  0.45594000000E+02  0.51100000000E-03 0. -1.
    9900012    2    1    2    0    0 -0.34275184686E+02 -0.23175364842E+02 -0.13104859480E+02  0.47787272324E+02  0.20000005833E+02 0.  0.
        -12    1    1    2    0    0  0.34275184686E+02  0.23175364842E+02  0.13104859480E+02  0.43400727676E+02  0.00000000000E+00 0.  1.
         11    1    3    3    0    0 -0.30543324748E+02 -0.15017773959E+02 -0.36264093685E+01  0.34228337186E+02  0.51100000000E-03 0. -1.
        -11    1    3    3    0    0 -0.15955749411E+01 -0.70843335434E+01 -0.65580308431E+01  0.97847539543E+01  0.51100000000E-03 0.  1.
        -12    1    3    3    0    0 -0.21362849970E+01 -0.10732573398E+01 -0.29204192680E+01  0.37741811836E+01  0.00000000000E+00 0.  1.
</event>
<event>
 7    1  0.2756432E-009  0.4778727E+02  0.7816164E-02  0.1312668E+00
        -11   -1    0    0    0    0  0.00000000000E+00  0.00000000000E+00  0.45593999997E+02  0.45594000000E+02  0.51100000000E-03 0.  1.
         11   -1    0    0    0    0 -0.00000000000E+00 -0.00000000000E+00 -0.45593999997E+02  0.45594000000E+02  0.51100000000E-03 0. -1.
    9900012    2    1    2    0    0  0.14482735119E+02  0.33084940289E+01 -0.40779006568E+02  0.47787272749E+02  0.20000007772E+02 0.  0.
        -12    1    1    2    0    0 -0.14482735119E+02 -0.33084940289E+01  0.40779006568E+02  0.43400727251E+02  0.00000000000E+00 0.  1.
         11    1    3    3    0    0  0.16446997272E+02  0.92318387757E+00 -0.22017073829E+02  0.27497409478E+02  0.51100000000E-03 0. -1.
        -11    1    3    3    0    0 -0.41089893830E+01  0.29808865966E+01 -0.95785885867E+01  0.10840610602E+02  0.51100000000E-03 0.  1.
        -12    1    3    3    0    0  0.21447272305E+01 -0.59557644523E+00 -0.91833441518E+01  0.94492526692E+01  0.00000000000E+00 0.  1.
</event>
<event>
 7    1  0.2756432E-009  0.4778729E+02  0.7816164E-02  0.1312668E+00
        -11   -1    0    0    0    0  0.00000000000E+00  0.00000000000E+00  0.45593999997E+02  0.45594000000E+02  0.51100000000E-03 0. -1.
         11   -1    0    0    0    0 -0.00000000000E+00 -0.00000000000E+00 -0.45593999997E+02  0.45594000000E+02  0.51100000000E-03 0.  1.
    9900012    2    1    2    0    0  0.28016081340E+02  0.10674526710E+02  0.31381132129E+02  0.47787288164E+02  0.20000078056E+02 0.  0.
        -12    1    1    2    0    0 -0.28016081340E+02 -0.10674526710E+02 -0.31381132129E+02  0.43400711836E+02  0.00000000000E+00 0.  1.
         11    1    3    3    0    0  0.11383919898E+02 -0.25674869168E+00  0.34669703888E+01  0.11902917125E+02  0.51100000000E-03 0. -1.
        -11    1    3    3    0    0  0.43120477691E+01  0.90128559974E+01  0.14020059245E+02  0.17215905166E+02  0.51100000000E-03 0.  1.
         12    1    3    3    0    0  0.12320113673E+02  0.19184194043E+01  0.13894102496E+02  0.18668465874E+02  0.00000000000E+00 0. -1.
</event>
<event>
 7    1  0.2756432E-009  0.4778728E+02  0.7816164E-02  0.1312668E+00
        -11   -1    0    0    0    0  0.00000000000E+00  0.00000000000E+00  0.45593999997E+02  0.45594000000E+02  0.51100000000E-03 0. -1.
         11   -1    0    0    0    0 -0.00000000000E+00 -0.00000000000E+00 -0.45593999997E+02  0.45594000000E+02  0.51100000000E-03 0.  1.
    9900012    2    1    2    0    0  0.83214613213E+01  0.42089327356E+02 -0.65471146550E+01  0.47787275281E+02  0.20000019316E+02 0.  0.
        -12    1    1    2    0    0 -0.83214613213E+01 -0.42089327356E+02  0.65471146550E+01  0.43400724719E+02  0.00000000000E+00 0.  1.
         11    1    3    3    0    0  0.29303795250E+01  0.17419736417E+00  0.22865439299E+01  0.37209880794E+01  0.51100000000E-03 0. -1.
        -11    1    3    3    0    0 -0.17545064620E+01  0.13246316635E+02 -0.50262460739E+01  0.14276076042E+02  0.51100000000E-03 0.  1.
         12    1    3    3    0    0  0.71455882582E+01  0.28668813357E+02 -0.38074125111E+01  0.29790211159E+02  0.00000000000E+00 0. -1.
</event>
<event>
 7    1  0.2756432E-009  0.4778727E+02  0.7816164E-02  0.1312668E+00
        -11   -1    0    0    0    0  0.00000000000E+00  0.00000000000E+00  0.45593999997E+02  0.45594000000E+02  0.51100000000E-03 0. -1.
         11   -1    0    0    0    0 -0.00000000000E+00 -0.00000000000E+00 -0.45593999997E+02  0.45594000000E+02  0.51100000000E-03 0.  1.
    9900012    2    1    2    0    0  0.22144256676E+02 -0.12775261164E+02  0.35072036078E+02  0.47787272862E+02  0.20000008285E+02 0.  0.
        -12    1    1    2    0    0 -0.22144256676E+02  0.12775261164E+02 -0.35072036078E+02  0.43400727138E+02  0.00000000000E+00 0.  1.
         11    1    3    3    0    0  0.52249929635E+01 -0.11608566945E+02  0.16052919259E+02  0.20487937792E+02  0.51100000000E-03 0. -1.
        -11    1    3    3    0    0  0.15694276538E+02  0.22563746451E+01  0.14379628268E+02  0.21405028661E+02  0.51100000000E-03 0.  1.
        -12    1    3    3    0    0  0.12249871740E+01 -0.34230688639E+01  0.46394885507E+01  0.58943064084E+01  0.00000000000E+00 0.  1.
</event>
<event>
 7    1  0.2756432E-009  0.4778727E+02  0.7816164E-02  0.1312668E+00
        -11   -1    0    0    0    0  0.00000000000E+00  0.00000000000E+00  0.45593999997E+02  0.45594000000E+02  0.51100000000E-03 0.  1.
         11   -1    0    0    0    0 -0.00000000000E+00 -0.00000000000E+00 -0.45593999997E+02  0.45594000000E+02  0.51100000000E-03 0. -1.
    9900012    2    1    2    0    0 -0.22846400095E+02  0.34110692681E+02 -0.14075721835E+02  0.47787270770E+02  0.19999998749E+02 0.  0.
        -12    1    1    2    0    0  0.22846400095E+02 -0.34110692681E+02  0.14075721835E+02  0.43400729230E+02  0.00000000000E+00 0.  1.
         11    1    3    3    0    0 -0.43665944336E+01  0.17773553700E+02  0.16469097614E+01  0.18376035212E+02  0.51100000000E-03 0.  1.
        -11    1    3    3    0    0 -0.14730109299E+02  0.11743669879E+02 -0.12985307019E+02  0.22880299404E+02  0.51100000000E-03 0. -1.
         12    1    3    3    0    0 -0.37496963625E+01  0.45934691017E+01 -0.27373245779E+01  0.65309361537E+01  0.00000000000E+00 0. -1.
</event>
<event>
 7    1  0.2756432E-009  0.4778726E+02  0.7816164E-02  0.1312668E+00
        -11   -1    0    0    0    0  0.00000000000E+00  0.00000000000E+00  0.45593999997E+02  0.45594000000E+02  0.51100000000E-03 0.  1.
         11   -1    0    0    0    0 -0.00000000000E+00 -0.00000000000E+00 -0.45593999997E+02  0.45594000000E+02  0.51100000000E-03 0. -1.
    9900012    2    1    2    0    0 -0.28437845988E+02  0.28028624890E+02 -0.17009083837E+02  0.47787264630E+02  0.19999970754E+02 0.  0.
        -12    1    1    2    0    0  0.28437845988E+02 -0.28028624890E+02  0.17009083837E+02  0.43400735370E+02  0.00000000000E+00 0.  1.
         11    1    3    3    0    0 -0.29906239686E+01  0.71827903923E+01 -0.26317221070E+01  0.82135419309E+01  0.51100000000E-03 0. -1.
        -11    1    3    3    0    0 -0.10431514002E+02  0.14776879922E+02 -0.26159171060E+00  0.18089806386E+02  0.51100000000E-03 0.  1.
        -12    1    3    3    0    0 -0.15015708018E+02  0.60689545763E+01 -0.14115770019E+02  0.21483916313E+02  0.00000000000E+00 0.  1.
</event>
<event>
 7    1  0.2756432E-009  0.4778726E+02  0.7816164E-02  0.1312668E+00
        -11   -1    0    0    0    0  0.00000000000E+00  0.00000000000E+00  0.45593999997E+02  0.45594000000E+02  0.51100000000E-03 0.  1.
         11   -1    0    0    0    0 -0.00000000000E+00 -0.00000000000E+00 -0.45593999997E+02  0.45594000000E+02  0.51100000000E-03 0. -1.
    9900012    2    1    2    0    0  0.40478705043E+02 -0.13491644346E+02 -0.79419184615E+01  0.47787261550E+02  0.19999956713E+02 0.  0.
        -12    1    1    2    0    0 -0.40478705043E+02  0.13491644346E+02  0.79419184615E+01  0.43400738450E+02  0.00000000000E+00 0.  1.
         11    1    3    3    0    0  0.26256432465E+02 -0.61529354169E+01 -0.88812130297E+01  0.28392513189E+02  0.51100000000E-03 0. -1.
        -11    1    3    3    0    0  0.13231977914E+02 -0.96260795658E+01  0.23497388954E+01  0.16530817296E+02  0.51100000000E-03 0.  1.
         12    1    3    3    0    0  0.99029466409E+00  0.22873706365E+01 -0.14104443272E+01  0.28639310660E+01  0.00000000000E+00 0. -1.
</event>
<event>
 7    1  0.2756432E-009  0.4778727E+02  0.7816164E-02  0.1312668E+00
        -11   -1    0    0    0    0  0.00000000000E+00  0.00000000000E+00  0.45593999997E+02  0.45594000000E+02  0.51100000000E-03 0.  1.
         11   -1    0    0    0    0 -0.00000000000E+00 -0.00000000000E+00 -0.45593999997E+02  0.45594000000E+02  0.51100000000E-03 0. -1.
    9900012    2    1    2    0    0  0.11419509852E+02 -0.41066806755E+02 -0.81691774960E+01  0.47787270936E+02  0.19999999507E+02 0.  0.
        -12    1    1    2    0    0 -0.11419509852E+02  0.41066806755E+02  0.81691774960E+01  0.43400729064E+02  0.00000000000E+00 0.  1.
         11    1    3    3    0    0 -0.20569260412E+01 -0.75022031594E+00  0.80534381687E+00  0.23328853778E+01  0.51100000000E-03 0. -1.
        -11    1    3    3    0    0  0.14622003207E+02 -0.37291074269E+02 -0.11122787860E+02  0.41570946681E+02  0.51100000000E-03 0.  1.
        -12    1    3    3    0    0 -0.11455673134E+01 -0.30255121703E+01  0.21482665469E+01  0.38834388779E+01  0.00000000000E+00 0.  1.
</event>
<event>
 7    1  0.2756432E-009  0.4778727E+02  0.7816164E-02  0.1312668E+00
        -11   -1    0    0    0    0  0.00000000000E+00  0.00000000000E+00  0.45593999997E+02  0.45594000000E+02  0.51100000000E-03 0.  1.
         11   -1    0    0    0    0 -0.00000000000E+00 -0.00000000000E+00 -0.45593999997E+02  0.45594000000E+02  0.51100000000E-03 0. -1.
    9900012    2    1    2    0    0  0.26250260373E+02 -0.12630491471E+02 -0.32171694654E+02  0.47787269345E+02  0.19999992253E+02 0.  0.
        -12    1    1    2    0    0 -0.26250260373E+02  0.12630491471E+02  0.32171694654E+02  0.43400730655E+02  0.00000000000E+00 0.  1.
         11    1    3    3    0    0  0.19095141446E+02 -0.26526218811E+01 -0.13016620032E+02  0.23261410684E+02  0.51100000000E-03 0. -1.
        -11    1    3    3    0    0  0.36607936975E+01 -0.79627446700E+01 -0.56405996338E+01  0.10422239571E+02  0.51100000000E-03 0.  1.
         12    1    3    3    0    0  0.34943252293E+01 -0.20151249203E+01 -0.13514474988E+02  0.14103619091E+02  0.00000000000E+00 0. -1.
</event>
<event>
 7    1  0.2756432E-009  0.4778727E+02  0.7816164E-02  0.1312668E+00
        -11   -1    0    0    0    0  0.00000000000E+00  0.00000000000E+00  0.45593999997E+02  0.45594000000E+02  0.51100000000E-03 0. -1.
         11   -1    0    0    0    0 -0.00000000000E+00 -0.00000000000E+00 -0.45593999997E+02  0.45594000000E+02  0.51100000000E-03 0.  1.
    9900012    2    1    2    0    0  0.22433873852E+02  0.34603926223E+02  0.13524516370E+02  0.47787274786E+02  0.20000017061E+02 0.  0.
        -12    1    1    2    0    0 -0.22433873852E+02 -0.34603926223E+02 -0.13524516370E+02  0.43400725214E+02  0.00000000000E+00 0.  1.
         11    1    3    3    0    0  0.20074963970E+02  0.29749392119E+02  0.14463322648E+02  0.38693904069E+02  0.51100000000E-03 0. -1.
        -11    1    3    3    0    0 -0.19315001975E+01  0.25018396707E+01  0.16415598144E+01  0.35615465231E+01  0.51100000000E-03 0.  1.
         12    1    3    3    0    0  0.42904100790E+01  0.23526944333E+01 -0.25803660926E+01  0.55318241941E+01  0.00000000000E+00 0. -1.
</event>
<event>
 7    1  0.2756432E-009  0.4778727E+02  0.7816164E-02  0.1312668E+00
        -11   -1    0    0    0    0  0.00000000000E+00  0.00000000000E+00  0.45593999997E+02  0.45594000000E+02  0.51100000000E-03 0.  1.
         11   -1    0    0    0    0 -0.00000000000E+00 -0.00000000000E+00 -0.45593999997E+02  0.45594000000E+02  0.51100000000E-03 0. -1.
    9900012    2    1    2    0    0 -0.42247630347E+01 -0.58458449990E+00 -0.43190658123E+02  0.47787270619E+02  0.19999998059E+02 0.  0.
        -12    1    1    2    0    0  0.42247630347E+01  0.58458449990E+00  0.43190658123E+02  0.43400729381E+02  0.00000000000E+00 0.  1.
         11    1    3    3    0    0  0.22962301401E+01  0.51028784697E+01 -0.18118185091E+02  0.18962612499E+02  0.51100000000E-03 0.  1.
        -11    1    3    3    0    0  0.22932770029E+01  0.15666366928E+01 -0.56548267824E+01  0.63000425506E+01  0.51100000000E-03 0. -1.
         12    1    3    3    0    0 -0.88142701777E+01 -0.72540996623E+01 -0.19417646250E+02  0.22524615569E+02  0.00000000000E+00 0. -1.
</event>
<event>
 7    1  0.2756432E-009  0.4778727E+02  0.7816164E-02  0.1312668E+00
        -11   -1    0    0    0    0  0.00000000000E+00  0.00000000000E+00  0.45593999997E+02  0.45594000000E+02  0.51100000000E-03 0.  1.
         11   -1    0    0    0    0 -0.00000000000E+00 -0.00000000000E+00 -0.45593999997E+02  0.45594000000E+02  0.51100000000E-03 0. -1.
    9900012    2    1    2    0    0  0.16572453302E+02 -0.39477363616E+02 -0.71073806136E+01  0.47787270678E+02  0.19999998327E+02 0.  0.
        -12    1    1    2    0    0 -0.16572453302E+02  0.39477363616E+02  0.71073806136E+01  0.43400729322E+02  0.00000000000E+00 0.  1.
         11    1    3    3    0    0  0.17239422789E+02 -0.22882968840E+02  0.13172078484E+01  0.28680359094E+02  0.51100000000E-03 0. -1.
        -11    1    3    3    0    0 -0.68825034318E+00 -0.14467881941E+02 -0.55054185532E+01  0.15495255084E+02  0.51100000000E-03 0.  1.
         12    1    3    3    0    0  0.21280856243E-01 -0.21265128350E+01 -0.29191699088E+01  0.36116564993E+01  0.00000000000E+00 0. -1.
</event>
<event>
 7    1  0.2756432E-009  0.4778727E+02  0.7816164E-02  0.1312668E+00
        -11   -1    0    0    0    0  0.00000000000E+00  0.00000000000E+00  0.45593999997E+02  0.45594000000E+02  0.51100000000E-03 0. -1.
         11   -1    0    0    0    0 -0.00000000000E+00 -0.00000000000E+00 -0.45593999997E+02  0.45594000000E+02  0.51100000000E-03 0.  1.
    9900012    2    1    2    0    0 -0.36314631289E+02 -0.19069857691E+02 -0.14184895421E+02  0.47787272171E+02  0.20000005136E+02 0.  0.
        -12    1    1    2    0    0  0.36314631289E+02  0.19069857691E+02  0.14184895421E+02  0.43400727829E+02  0.00000000000E+00 0.  1.
         11    1    3    3    0    0 -0.11373319155E+02 -0.15379710110E+01 -0.37615546798E+01  0.12077542685E+02  0.51100000000E-03 0.  1.
        -11    1    3    3    0    0 -0.23052900601E+02 -0.11207970425E+02 -0.30497329944E+01  0.25813866405E+02  0.51100000000E-03 0. -1.
        -12    1    3    3    0    0 -0.18884115324E+01 -0.63239162548E+01 -0.73736077471E+01  0.98958630812E+01  0.00000000000E+00 0.  1.
</event>
<event>
 7    1  0.2756432E-009  0.4778727E+02  0.7816164E-02  0.1312668E+00
        -11   -1    0    0    0    0  0.00000000000E+00  0.00000000000E+00  0.45593999997E+02  0.45594000000E+02  0.51100000000E-03 0.  1.
         11   -1    0    0    0    0 -0.00000000000E+00 -0.00000000000E+00 -0.45593999997E+02  0.45594000000E+02  0.51100000000E-03 0. -1.
    9900012    2    1    2    0    0 -0.26273363231E+02  0.61628401119E+01 -0.33990485643E+02  0.47787270421E+02  0.19999997158E+02 0.  0.
        -12    1    1    2    0    0  0.26273363231E+02 -0.61628401119E+01  0.33990485643E+02  0.43400729579E+02  0.00000000000E+00 0.  1.
         11    1    3    3    0    0 -0.46255297342E+00  0.48697561648E+01 -0.14603062549E+02  0.15400581691E+02  0.51100000000E-03 0. -1.
        -11    1    3    3    0    0 -0.16670100945E+02 -0.44201695422E-01 -0.13267649892E+02  0.21305509927E+02  0.51100000000E-03 0.  1.
         12    1    3    3    0    0 -0.91407093129E+01  0.13372856425E+01 -0.61197732018E+01  0.11081178803E+02  0.00000000000E+00 0. -1.
</event>
<event>
 7    1  0.2756432E-009  0.4778727E+02  0.7816164E-02  0.1312668E+00
        -11   -1    0    0    0    0  0.00000000000E+00  0.00000000000E+00  0.45593999997E+02  0.45594000000E+02  0.51100000000E-03 0. -1.
         11   -1    0    0    0    0 -0.00000000000E+00 -0.00000000000E+00 -0.45593999997E+02  0.45594000000E+02  0.51100000000E-03 0.  1.
    9900012    2    1    2    0    0 -0.28629159641E+02  0.29336616263E+02  0.14260351038E+02  0.47787269047E+02  0.19999990892E+02 0.  0.
        -12    1    1    2    0    0  0.28629159641E+02 -0.29336616263E+02 -0.14260351038E+02  0.43400730953E+02  0.00000000000E+00 0.  1.
         11    1    3    3    0    0 -0.16710805613E+02  0.12119087363E+02  0.42695043087E+01  0.21079657731E+02  0.51100000000E-03 0. -1.
        -11    1    3    3    0    0 -0.84999441193E+01  0.18217981381E+02  0.52494415735E+01  0.20777404379E+02  0.51100000000E-03 0.  1.
        -12    1    3    3    0    0 -0.34184099088E+01 -0.10004524801E+01  0.47414051553E+01  0.59302069370E+01  0.00000000000E+00 0.  1.
</event>
<event>
 7    1  0.2756432E-009  0.4778727E+02  0.7816164E-02  0.1312668E+00
        -11   -1    0    0    0    0  0.00000000000E+00  0.00000000000E+00  0.45593999997E+02  0.45594000000E+02  0.51100000000E-03 0.  1.
         11   -1    0    0    0    0 -0.00000000000E+00 -0.00000000000E+00 -0.45593999997E+02  0.45594000000E+02  0.51100000000E-03 0. -1.
    9900012    2    1    2    0    0  0.67378876580E+01 -0.15742252783E+02 -0.39879895879E+02  0.47787265582E+02  0.19999975093E+02 0.  0.
        -12    1    1    2    0    0 -0.67378876580E+01  0.15742252783E+02  0.39879895879E+02  0.43400734418E+02  0.00000000000E+00 0.  1.
         11    1    3    3    0    0  0.83496759015E+01 -0.13552251109E+02 -0.23295950109E+02  0.28214923171E+02  0.51100000000E-03 0. -1.
        -11    1    3    3    0    0 -0.31596790456E+01  0.33712943615E+01 -0.75363490211E+01  0.88400087202E+01  0.51100000000E-03 0.  1.
        -12    1    3    3    0    0  0.15478908021E+01 -0.55612960354E+01 -0.90475967482E+01  0.10732333691E+02  0.00000000000E+00 0.  1.
</event>
<event>
 7    1  0.2756432E-009  0.4778727E+02  0.7816164E-02  0.1312668E+00
        -11   -1    0    0    0    0  0.00000000000E+00  0.00000000000E+00  0.45593999997E+02  0.45594000000E+02  0.51100000000E-03 0.  1.
         11   -1    0    0    0    0 -0.00000000000E+00 -0.00000000000E+00 -0.45593999997E+02  0.45594000000E+02  0.51100000000E-03 0. -1.
    9900012    2    1    2    0    0  0.10051009444E+02 -0.43182753001E+01 -0.41999439174E+02  0.47787272087E+02  0.20000004755E+02 0.  0.
        -12    1    1    2    0    0 -0.10051009444E+02  0.43182753001E+01  0.41999439174E+02  0.43400727913E+02  0.00000000000E+00 0.  1.
         11    1    3    3    0    0 -0.17871381416E+00  0.38343120966E+01 -0.81223808359E+01  0.89837051702E+01  0.51100000000E-03 0. -1.
        -11    1    3    3    0    0  0.10898304553E+02 -0.11186653947E+02 -0.30120266775E+02  0.33928523981E+02  0.51100000000E-03 0.  1.
        -12    1    3    3    0    0 -0.66858129490E+00  0.30340665506E+01 -0.37567915628E+01  0.48750429360E+01  0.00000000000E+00 0.  1.
</event>
<event>
 7    1  0.2756432E-009  0.4778727E+02  0.7816164E-02  0.1312668E+00
        -11   -1    0    0    0    0  0.00000000000E+00  0.00000000000E+00  0.45593999997E+02  0.45594000000E+02  0.51100000000E-03 0.  1.
         11   -1    0    0    0    0 -0.00000000000E+00 -0.00000000000E+00 -0.45593999997E+02  0.45594000000E+02  0.51100000000E-03 0. -1.
    9900012    2    1    2    0    0 -0.17184936657E+02 -0.33632430782E+02 -0.21381321176E+02  0.47787270243E+02  0.19999996344E+02 0.  0.
        -12    1    1    2    0    0  0.17184936657E+02  0.33632430782E+02  0.21381321176E+02  0.43400729757E+02  0.00000000000E+00 0.  1.
         11    1    3    3    0    0 -0.44808370509E+01 -0.23810399610E+01 -0.18793356416E+01  0.54110215937E+01  0.51100000000E-03 0. -1.
        -11    1    3    3    0    0  0.63673701391E+00 -0.38043420217E+01  0.26383800904E+01  0.46732752975E+01  0.51100000000E-03 0.  1.
        -12    1    3    3    0    0 -0.13340836620E+02 -0.27447048799E+02 -0.22140365625E+02  0.37702973351E+02  0.00000000000E+00 0.  1.
</event>
<event>
 7    1  0.2756432E-009  0.4778727E+02  0.7816164E-02  0.1312668E+00
        -11   -1    0    0    0    0  0.00000000000E+00  0.00000000000E+00  0.45593999997E+02  0.45594000000E+02  0.51100000000E-03 0.  1.
         11   -1    0    0    0    0 -0.00000000000E+00 -0.00000000000E+00 -0.45593999997E+02  0.45594000000E+02  0.51100000000E-03 0. -1.
    9900012    2    1    2    0    0 -0.36682628193E+02 -0.20725133282E+02 -0.10415217783E+02  0.47787272792E+02  0.20000007969E+02 0.  0.
        -12    1    1    2    0    0  0.36682628193E+02  0.20725133282E+02  0.10415217783E+02  0.43400727208E+02  0.00000000000E+00 0.  1.
         11    1    3    3    0    0 -0.75002321680E+01 -0.89246597146E+01 -0.21324948458E+01  0.11851184250E+02  0.51100000000E-03 0. -1.
        -11    1    3    3    0    0 -0.15387056689E+02 -0.88607302564E+01 -0.11899641926E+02  0.21374646956E+02  0.51100000000E-03 0.  1.
        -12    1    3    3    0    0 -0.13795339336E+02 -0.29397433107E+01  0.36169189891E+01  0.14561441587E+02  0.00000000000E+00 0.  1.
</event>
<event>
 7    1  0.2756432E-009  0.4778727E+02  0.7816164E-02  0.1312668E+00
        -11   -1    0    0    0    0  0.00000000000E+00  0.00000000000E+00  0.45593999997E+02  0.45594000000E+02  0.51100000000E-03 0. -1.
         11   -1    0    0    0    0 -0.00000000000E+00 -0.00000000000E+00 -0.45593999997E+02  0.45594000000E+02  0.51100000000E-03 0.  1.
    9900012    2    1    2    0    0  0.25713976413E+02 -0.12213866095E+02  0.32760289568E+02  0.47787266360E+02  0.19999978640E+02 0.  0.
        -12    1    1    2    0    0 -0.25713976413E+02  0.12213866095E+02 -0.32760289568E+02  0.43400733640E+02  0.00000000000E+00 0.  1.
         11    1    3    3    0    0  0.17944385120E+02 -0.14226571574E+02  0.19066420924E+02  0.29798065427E+02  0.51100000000E-03 0. -1.
        -11    1    3    3    0    0 -0.75889167934E-01  0.18421215043E+01 -0.37344865657E+00  0.18811259826E+01  0.51100000000E-03 0.  1.
         12    1    3    3    0    0  0.78454804608E+01  0.17058397503E+00  0.14067317301E+02  0.16108074950E+02  0.00000000000E+00 0. -1.
</event>
<event>
 7    1  0.2756432E-009  0.4778727E+02  0.7816164E-02  0.1312668E+00
        -11   -1    0    0    0    0  0.00000000000E+00  0.00000000000E+00  0.45593999997E+02  0.45594000000E+02  0.51100000000E-03 0.  1.
         11   -1    0    0    0    0 -0.00000000000E+00 -0.00000000000E+00 -0.45593999997E+02  0.45594000000E+02  0.51100000000E-03 0. -1.
    9900012    2    1    2    0    0 -0.77423277605E+01  0.16511146775E+02 -0.39383519282E+02  0.47787271918E+02  0.20000003984E+02 0.  0.
        -12    1    1    2    0    0  0.77423277605E+01 -0.16511146775E+02  0.39383519282E+02  0.43400728082E+02  0.00000000000E+00 0.  1.
         11    1    3    3    0    0  0.48679263308E+01  0.77301694702E+01 -0.13577994716E+02  0.16365028798E+02  0.51100000000E-03 0. -1.
        -11    1    3    3    0    0 -0.11057506201E+02  0.24513841003E+01 -0.17821593535E+02  0.21116034755E+02  0.51100000000E-03 0.  1.
        -12    1    3    3    0    0 -0.15527478899E+01  0.63295932041E+01 -0.79839310318E+01  0.10306208365E+02  0.00000000000E+00 0.  1.
</event>
<event>
 7    1  0.2756432E-009  0.4778725E+02  0.7816164E-02  0.1312668E+00
        -11   -1    0    0    0    0  0.00000000000E+00  0.00000000000E+00  0.45593999997E+02  0.45594000000E+02  0.51100000000E-03 0. -1.
         11   -1    0    0    0    0 -0.00000000000E+00 -0.00000000000E+00 -0.45593999997E+02  0.45594000000E+02  0.51100000000E-03 0.  1.
    9900012    2    1    2    0    0  0.39448335634E+02  0.18059727410E+02  0.11400916952E+01  0.47787254068E+02  0.19999922596E+02 0.  0.
        -12    1    1    2    0    0 -0.39448335634E+02 -0.18059727410E+02 -0.11400916952E+01  0.43400745932E+02  0.00000000000E+00 0.  1.
         11    1    3    3    0    0  0.63674122786E+01  0.85714251261E+01  0.22904330913E+01  0.10920593016E+02  0.51100000000E-03 0. -1.
        -11    1    3    3    0    0  0.23896660298E+02  0.55686287122E+00  0.75329854837E+00  0.23915014711E+02  0.51100000000E-03 0.  1.
        -12    1    3    3    0    0  0.91842630569E+01  0.89314394131E+01 -0.19036399444E+01  0.12951646340E+02  0.00000000000E+00 0.  1.
</event>
<event>
 7    1  0.2756432E-009  0.4778727E+02  0.7816164E-02  0.1312668E+00
        -11   -1    0    0    0    0  0.00000000000E+00  0.00000000000E+00  0.45593999997E+02  0.45594000000E+02  0.51100000000E-03 0.  1.
         11   -1    0    0    0    0 -0.00000000000E+00 -0.00000000000E+00 -0.45593999997E+02  0.45594000000E+02  0.51100000000E-03 0. -1.
    9900012    2    1    2    0    0  0.38832437020E+02 -0.12675859132E+02 -0.14662461083E+02  0.47787270344E+02  0.19999996808E+02 0.  0.
        -12    1    1    2    0    0 -0.38832437020E+02  0.12675859132E+02  0.14662461083E+02  0.43400729656E+02  0.00000000000E+00 0.  1.
         11    1    3    3    0    0  0.10339937709E+02  0.48873442912E+00 -0.12191270910E+02  0.15993131646E+02  0.51100000000E-03 0. -1.
        -11    1    3    3    0    0  0.20572172247E+02 -0.75264314878E+01 -0.73429536664E+00  0.21918043522E+02  0.51100000000E-03 0.  1.
         12    1    3    3    0    0  0.79203270635E+01 -0.56381620738E+01 -0.17368948060E+01  0.98760951762E+01  0.00000000000E+00 0. -1.
</event>
<event>
 7    1  0.2756432E-009  0.4778727E+02  0.7816164E-02  0.1312668E+00
        -11   -1    0    0    0    0  0.00000000000E+00  0.00000000000E+00  0.45593999997E+02  0.45594000000E+02  0.51100000000E-03 0.  1.
         11   -1    0    0    0    0 -0.00000000000E+00 -0.00000000000E+00 -0.45593999997E+02  0.45594000000E+02  0.51100000000E-03 0. -1.
    9900012    2    1    2    0    0  0.28433415830E+02 -0.58318977281E+01 -0.32266904124E+02  0.47787271105E+02  0.20000000275E+02 0.  0.
        -12    1    1    2    0    0 -0.28433415830E+02  0.58318977281E+01  0.32266904124E+02  0.43400728895E+02  0.00000000000E+00 0.  1.
         11    1    3    3    0    0  0.57012991755E+01 -0.13364769525E+01 -0.55815767065E+01  0.80898072736E+01  0.51100000000E-03 0. -1.
        -11    1    3    3    0    0  0.98941036242E+01 -0.11057418818E+02 -0.15429235088E+02  0.21406099437E+02  0.51100000000E-03 0.  1.
        -12    1    3    3    0    0  0.12838013030E+02  0.65619980419E+01 -0.11256092330E+02  0.18291364394E+02  0.00000000000E+00 0.  1.
</event>
<event>
 7    1  0.2756432E-009  0.4778727E+02  0.7816164E-02  0.1312668E+00
        -11   -1    0    0    0    0  0.00000000000E+00  0.00000000000E+00  0.45593999997E+02  0.45594000000E+02  0.51100000000E-03 0.  1.
         11   -1    0    0    0    0 -0.00000000000E+00 -0.00000000000E+00 -0.45593999997E+02  0.45594000000E+02  0.51100000000E-03 0. -1.
    9900012    2    1    2    0    0 -0.18832155917E+02  0.38009842896E+02 -0.91774095257E+01  0.47787273058E+02  0.20000009183E+02 0.  0.
        -12    1    1    2    0    0  0.18832155917E+02 -0.38009842896E+02  0.91774095257E+01  0.43400726942E+02  0.00000000000E+00 0.  1.
         11    1    3    3    0    0 -0.14808480162E+00  0.16990838052E+02 -0.35200541981E+01  0.17352270418E+02  0.51100000000E-03 0. -1.
        -11    1    3    3    0    0 -0.19547901540E+02  0.20890140786E+02 -0.44636076715E+01  0.28955866942E+02  0.51100000000E-03 0.  1.
        -12    1    3    3    0    0  0.86383042484E+00  0.12886405764E+00 -0.11937476561E+01  0.14791356985E+01  0.00000000000E+00 0.  1.
</event>
<event>
 7    1  0.2756432E-009  0.4778728E+02  0.7816164E-02  0.1312668E+00
        -11   -1    0    0    0    0  0.00000000000E+00  0.00000000000E+00  0.45593999997E+02  0.45594000000E+02  0.51100000000E-03 0. -1.
         11   -1    0    0    0    0 -0.00000000000E+00 -0.00000000000E+00 -0.45593999997E+02  0.45594000000E+02  0.51100000000E-03 0.  1.
    9900012    2    1    2    0    0 -0.42635909407E+02 -0.60616402283E+01 -0.53905563099E+01  0.47787281682E+02  0.20000048500E+02 0.  0.
        -12    1    1    2    0    0  0.42635909407E+02  0.60616402283E+01  0.53905563099E+01  0.43400718318E+02  0.00000000000E+00 0.  1.
         11    1    3    3    0    0 -0.32814216579E+02 -0.11997481050E+01 -0.18510165829E+01  0.32888272498E+02  0.51100000000E-03 0. -1.
        -11    1    3    3    0    0 -0.97338114857E+01 -0.65929856362E+01 -0.96587008292E+00  0.11796077777E+02  0.51100000000E-03 0.  1.
         12    1    3    3    0    0 -0.87881341856E-01  0.17310935130E+01 -0.25736696440E+01  0.31029314072E+01  0.00000000000E+00 0. -1.
</event>
<event>
 7    1  0.2864411E-009  0.4778727E+02  0.7816164E-02  0.1312668E+00
        -11   -1    0    0    0    0  0.00000000000E+00  0.00000000000E+00  0.45593999997E+02  0.45594000000E+02  0.51100000000E-03 0. -1.
         11   -1    0    0    0    0 -0.00000000000E+00 -0.00000000000E+00 -0.45593999997E+02  0.45594000000E+02  0.51100000000E-03 0.  1.
    9900012    2    1    2    0    0 -0.88217714792E+00 -0.27224454492E+02  0.33788665557E+02  0.47787273289E+02  0.20000010234E+02 0.  0.
        -12    1    1    2    0    0  0.88217714792E+00  0.27224454492E+02 -0.33788665557E+02  0.43400726711E+02  0.00000000000E+00 0.  1.
         11    1    3    3    0    0  0.25872779800E+01 -0.12860532664E+02  0.75804815921E+01  0.15150940868E+02  0.51100000000E-03 0. -1.
        -11    1    3    3    0    0  0.29573582041E+01 -0.34177814486E+01  0.15123036797E+02  0.15783961474E+02  0.51100000000E-03 0.  1.
        -12    1    3    3    0    0 -0.64268133321E+01 -0.10946140380E+02  0.11085147168E+02  0.16852370947E+02  0.00000000000E+00 0.  1.
</event>
<event>
 7    1  0.2756432E-009  0.4778730E+02  0.7816164E-02  0.1312668E+00
        -11   -1    0    0    0    0  0.00000000000E+00  0.00000000000E+00  0.45593999997E+02  0.45594000000E+02  0.51100000000E-03 0. -1.
         11   -1    0    0    0    0 -0.00000000000E+00 -0.00000000000E+00 -0.45593999997E+02  0.45594000000E+02  0.51100000000E-03 0.  1.
    9900012    2    1    2    0    0 -0.40668879434E+02  0.35699273602E+00  0.15150444933E+02  0.47787295168E+02  0.20000109991E+02 0.  0.
        -12    1    1    2    0    0  0.40668879434E+02 -0.35699273602E+00 -0.15150444933E+02  0.43400704832E+02  0.00000000000E+00 0.  1.
         11    1    3    3    0    0 -0.24182973501E+02  0.15658950607E+01  0.19029195192E+01  0.24308215436E+02  0.51100000000E-03 0. -1.
        -11    1    3    3    0    0 -0.33316926790E+01 -0.45579664111E+01  0.25425422478E+01  0.61919104689E+01  0.51100000000E-03 0.  1.
         12    1    3    3    0    0 -0.13154213253E+02  0.33490640864E+01  0.10704983166E+02  0.17287169264E+02  0.00000000000E+00 0. -1.
</event>
<event>
 7    1  0.2756432E-009  0.4778727E+02  0.7816164E-02  0.1312668E+00
        -11   -1    0    0    0    0  0.00000000000E+00  0.00000000000E+00  0.45593999997E+02  0.45594000000E+02  0.51100000000E-03 0. -1.
         11   -1    0    0    0    0 -0.00000000000E+00 -0.00000000000E+00 -0.45593999997E+02  0.45594000000E+02  0.51100000000E-03 0.  1.
    9900012    2    1    2    0    0  0.32962334173E+02  0.18718551910E+02 -0.21135830479E+02  0.47787274317E+02  0.20000014922E+02 0.  0.
        -12    1    1    2    0    0 -0.32962334173E+02 -0.18718551910E+02  0.21135830479E+02  0.43400725683E+02  0.00000000000E+00 0.  1.
         11    1    3    3    0    0  0.43702883896E+01  0.85185886836E+01 -0.11085797201E+01  0.96381908586E+01  0.51100000000E-03 0. -1.
        -11    1    3    3    0    0  0.24357111329E+02  0.67788565071E+01 -0.10923509888E+02  0.27541692692E+02  0.51100000000E-03 0.  1.
        -12    1    3    3    0    0  0.42349344546E+01  0.34211067193E+01 -0.91037408710E+01  0.10607390766E+02  0.00000000000E+00 0.  1.
</event>
<event>
 7    1  0.2756432E-009  0.4778727E+02  0.7816164E-02  0.1312668E+00
        -11   -1    0    0    0    0  0.00000000000E+00  0.00000000000E+00  0.45593999997E+02  0.45594000000E+02  0.51100000000E-03 0. -1.
         11   -1    0    0    0    0 -0.00000000000E+00 -0.00000000000E+00 -0.45593999997E+02  0.45594000000E+02  0.51100000000E-03 0.  1.
    9900012    2    1    2    0    0 -0.31827404932E+02  0.85120663634E+01  0.28252154392E+02  0.47787271823E+02  0.20000003551E+02 0.  0.
        -12    1    1    2    0    0  0.31827404932E+02 -0.85120663634E+01 -0.28252154392E+02  0.43400728177E+02  0.00000000000E+00 0.  1.
         11    1    3    3    0    0 -0.15315584385E+02  0.89690084532E+01  0.19261296344E+02  0.26191750129E+02  0.51100000000E-03 0. -1.
        -11    1    3    3    0    0 -0.79296775467E+00 -0.21993307511E+01  0.46354067614E+01  0.51916134022E+01  0.51100000000E-03 0.  1.
         12    1    3    3    0    0 -0.15718852792E+02  0.17423886614E+01  0.43554512867E+01  0.16403908292E+02  0.00000000000E+00 0. -1.
</event>
<event>
 7    1  0.2756432E-009  0.4778727E+02  0.7816164E-02  0.1312668E+00
        -11   -1    0    0    0    0  0.00000000000E+00  0.00000000000E+00  0.45593999997E+02  0.45594000000E+02  0.51100000000E-03 0. -1.
         11   -1    0    0    0    0 -0.00000000000E+00 -0.00000000000E+00 -0.45593999997E+02  0.45594000000E+02  0.51100000000E-03 0.  1.
    9900012    2    1    2    0    0 -0.13514994502E+02  0.36928554447E+02  0.18364371422E+02  0.47787270195E+02  0.19999996125E+02 0.  0.
        -12    1    1    2    0    0  0.13514994502E+02 -0.36928554447E+02 -0.18364371422E+02  0.43400729805E+02  0.00000000000E+00 0.  1.
         11    1    3    3    0    0 -0.14223805173E+02  0.12184353430E+02  0.97892763082E+01  0.21133031799E+02  0.51100000000E-03 0. -1.
        -11    1    3    3    0    0 -0.33086250230E+00  0.23076132795E+02  0.69454077995E+01  0.24100955677E+02  0.51100000000E-03 0.  1.
        -12    1    3    3    0    0  0.10396731734E+01  0.16680682214E+01  0.16296873146E+01  0.25532827188E+01  0.00000000000E+00 0.  1.
</event>
<event>
 7    1  0.2756432E-009  0.4778728E+02  0.7816164E-02  0.1312668E+00
        -11   -1    0    0    0    0  0.00000000000E+00  0.00000000000E+00  0.45593999997E+02  0.45594000000E+02  0.51100000000E-03 0. -1.
         11   -1    0    0    0    0 -0.00000000000E+00 -0.00000000000E+00 -0.45593999997E+02  0.45594000000E+02  0.51100000000E-03 0.  1.
    9900012    2    1    2    0    0 -0.14665571748E+02 -0.36822938281E+02  0.17680903040E+02  0.47787284446E+02  0.20000061101E+02 0.  0.
        -12    1    1    2    0    0  0.14665571748E+02  0.36822938281E+02 -0.17680903040E+02  0.43400715554E+02  0.00000000000E+00 0.  1.
         11    1    3    3    0    0 -0.31031602886E+01 -0.17972774609E+02  0.11547565198E+01  0.18275220760E+02  0.51100000000E-03 0. -1.
        -11    1    3    3    0    0 -0.12381643127E+02 -0.11331156959E+02  0.12622061814E+02  0.21000396407E+02  0.51100000000E-03 0.  1.
        -12    1    3    3    0    0  0.81923166804E+00 -0.75190067129E+01  0.39040847061E+01  0.85116672789E+01  0.00000000000E+00 0.  1.
</event>
<event>
 7    1  0.2776174E-009  0.4778727E+02  0.7816164E-02  0.1312668E+00
        -11   -1    0    0    0    0  0.00000000000E+00  0.00000000000E+00  0.45593999997E+02  0.45594000000E+02  0.51100000000E-03 0.  1.
         11   -1    0    0    0    0 -0.00000000000E+00 -0.00000000000E+00 -0.45593999997E+02  0.45594000000E+02  0.51100000000E-03 0. -1.
    9900012    2    1    2    0    0 -0.36720628228E+02  0.13982530986E+02 -0.18431155144E+02  0.47787272009E+02  0.20000004398E+02 0.  0.
        -12    1    1    2    0    0  0.36720628228E+02 -0.13982530986E+02  0.18431155144E+02  0.43400727991E+02  0.00000000000E+00 0.  1.
         11    1    3    3    0    0 -0.17176605471E+02  0.93652243530E+01 -0.13875432182E+02  0.23984803964E+02  0.51100000000E-03 0. -1.
        -11    1    3    3    0    0 -0.58748160181E+01 -0.39371466226E+01 -0.99735026795E-01  0.70728024227E+01  0.51100000000E-03 0.  1.
        -12    1    3    3    0    0 -0.13669206738E+02  0.85544532556E+01 -0.44559879350E+01  0.16729665622E+02  0.00000000000E+00 0.  1.
</event>
<event>
 7    1  0.2756432E-009  0.4778727E+02  0.7816164E-02  0.1312668E+00
        -11   -1    0    0    0    0  0.00000000000E+00  0.00000000000E+00  0.45593999997E+02  0.45594000000E+02  0.51100000000E-03 0.  1.
         11   -1    0    0    0    0 -0.00000000000E+00 -0.00000000000E+00 -0.45593999997E+02  0.45594000000E+02  0.51100000000E-03 0. -1.
    9900012    2    1    2    0    0 -0.27494516473E+02  0.30308163697E+02 -0.14459946663E+02  0.47787270971E+02  0.19999999664E+02 0.  0.
        -12    1    1    2    0    0  0.27494516473E+02 -0.30308163697E+02  0.14459946663E+02  0.43400729029E+02  0.00000000000E+00 0.  1.
         11    1    3    3    0    0 -0.21987347417E+02  0.32009911274E+02 -0.10219848919E+02  0.40156234614E+02  0.51100000000E-03 0. -1.
        -11    1    3    3    0    0 -0.45374214692E+01 -0.52206257074E+00 -0.21647720783E+01  0.50544021732E+01  0.51100000000E-03 0.  1.
         12    1    3    3    0    0 -0.96974758653E+00 -0.11796850061E+01 -0.20753256659E+01  0.25766341833E+01  0.00000000000E+00 0. -1.
</event>
<event>
 7    1  0.2756432E-009  0.4778727E+02  0.7816164E-02  0.1312668E+00
        -11   -1    0    0    0    0  0.00000000000E+00  0.00000000000E+00  0.45593999997E+02  0.45594000000E+02  0.51100000000E-03 0. -1.
         11   -1    0    0    0    0 -0.00000000000E+00 -0.00000000000E+00 -0.45593999997E+02  0.45594000000E+02  0.51100000000E-03 0.  1.
    9900012    2    1    2    0    0  0.25495512447E+02  0.77694857325E+00  0.35114078441E+02  0.47787270643E+02  0.19999998168E+02 0.  0.
        -12    1    1    2    0    0 -0.25495512447E+02 -0.77694857325E+00 -0.35114078441E+02  0.43400729357E+02  0.00000000000E+00 0.  1.
         11    1    3    3    0    0  0.10529846929E+02  0.56312696892E+01  0.25414056254E+02  0.28079585649E+02  0.51100000000E-03 0. -1.
        -11    1    3    3    0    0  0.14954406775E+02 -0.57820105356E+01  0.83713581212E+01  0.18087165750E+02  0.51100000000E-03 0.  1.
        -12    1    3    3    0    0  0.11258742151E-01  0.92768941961E+00  0.13286640654E+01  0.16205192431E+01  0.00000000000E+00 0.  1.
</event>
<event>
 7    1  0.2756432E-009  0.4778725E+02  0.7816164E-02  0.1312668E+00
        -11   -1    0    0    0    0  0.00000000000E+00  0.00000000000E+00  0.45593999997E+02  0.45594000000E+02  0.51100000000E-03 0. -1.
         11   -1    0    0    0    0 -0.00000000000E+00 -0.00000000000E+00 -0.45593999997E+02  0.45594000000E+02  0.51100000000E-03 0.  1.
    9900012    2    1    2    0    0 -0.14819706575E+02  0.40518173807E+02 -0.47200442509E+01  0.47787251973E+02  0.19999913043E+02 0.  0.
        -12    1    1    2    0    0  0.14819706575E+02 -0.40518173807E+02  0.47200442509E+01  0.43400748027E+02  0.00000000000E+00 0.  1.
         11    1    3    3    0    0 -0.25886322670E+00  0.13174698092E+02 -0.69914858847E+01  0.14917122884E+02  0.51100000000E-03 0. -1.
        -11    1    3    3    0    0 -0.30287740953E+01  0.33725227528E+01  0.42266106587E+01  0.61977108806E+01  0.51100000000E-03 0.  1.
        -12    1    3    3    0    0 -0.11532069253E+02  0.23970952962E+02 -0.19551690249E+01  0.26672418208E+02  0.00000000000E+00 0.  1.
</event>
<event>
 7    1  0.2756432E-009  0.4778727E+02  0.7816164E-02  0.1312668E+00
        -11   -1    0    0    0    0  0.00000000000E+00  0.00000000000E+00  0.45593999997E+02  0.45594000000E+02  0.51100000000E-03 0.  1.
         11   -1    0    0    0    0 -0.00000000000E+00 -0.00000000000E+00 -0.45593999997E+02  0.45594000000E+02  0.51100000000E-03 0. -1.
    9900012    2    1    2    0    0  0.25967160488E+01 -0.56699375707E+01 -0.42950343701E+02  0.47787272468E+02  0.20000006491E+02 0.  0.
        -12    1    1    2    0    0 -0.25967160488E+01  0.56699375707E+01  0.42950343701E+02  0.43400727532E+02  0.00000000000E+00 0.  1.
         11    1    3    3    0    0  0.43141196945E+01 -0.61135002241E+01 -0.50242423891E+01  0.90127424003E+01  0.51100000000E-03 0.  1.
        -11    1    3    3    0    0 -0.43399880991E+01 -0.12444462061E+01 -0.28241412057E+02  0.28600026194E+02  0.51100000000E-03 0. -1.
         12    1    3    3    0    0  0.26225844534E+01  0.16880088595E+01 -0.96846892541E+01  0.10174503874E+02  0.00000000000E+00 0. -1.
</event>
<event>
 7    1  0.2756432E-009  0.4778727E+02  0.7816164E-02  0.1312668E+00
        -11   -1    0    0    0    0  0.00000000000E+00  0.00000000000E+00  0.45593999997E+02  0.45594000000E+02  0.51100000000E-03 0.  1.
         11   -1    0    0    0    0 -0.00000000000E+00 -0.00000000000E+00 -0.45593999997E+02  0.45594000000E+02  0.51100000000E-03 0. -1.
    9900012    2    1    2    0    0 -0.13016129430E+02 -0.41386300029E+02  0.11736978323E+01  0.47787273945E+02  0.20000013226E+02 0.  0.
        -12    1    1    2    0    0  0.13016129430E+02  0.41386300029E+02 -0.11736978323E+01  0.43400726055E+02  0.00000000000E+00 0.  1.
         11    1    3    3    0    0 -0.62601017174E+01 -0.64715683306E+01  0.52898098269E+01  0.10442804146E+02  0.51100000000E-03 0. -1.
        -11    1    3    3    0    0 -0.12340299649E+01 -0.28043213653E+02 -0.13399234524E+01  0.28102314087E+02  0.51100000000E-03 0.  1.
         12    1    3    3    0    0 -0.55219977479E+01 -0.68715180462E+01 -0.27761885422E+01  0.92421557122E+01  0.00000000000E+00 0. -1.
</event>
<event>
 7    1  0.2756432E-009  0.4778727E+02  0.7816164E-02  0.1312668E+00
        -11   -1    0    0    0    0  0.00000000000E+00  0.00000000000E+00  0.45593999997E+02  0.45594000000E+02  0.51100000000E-03 0.  1.
         11   -1    0    0    0    0 -0.00000000000E+00 -0.00000000000E+00 -0.45593999997E+02  0.45594000000E+02  0.51100000000E-03 0. -1.
    9900012    2    1    2    0    0  0.31658664342E+02 -0.25151080770E+02 -0.15772617486E+02  0.47787270119E+02  0.19999995779E+02 0.  0.
        -12    1    1    2    0    0 -0.31658664342E+02  0.25151080770E+02  0.15772617486E+02  0.43400729881E+02  0.00000000000E+00 0.  1.
         11    1    3    3    0    0  0.24832927485E+02 -0.10070143681E+02 -0.82506160097E+01  0.28038451206E+02  0.51100000000E-03 0. -1.
        -11    1    3    3    0    0  0.71318920276E+01 -0.10753759511E+02 -0.82985375406E+01  0.15341869283E+02  0.51100000000E-03 0.  1.
        -12    1    3    3    0    0 -0.30615517021E+00 -0.43271775788E+01  0.77653606379E+00  0.44069496304E+01  0.00000000000E+00 0.  1.
</event>
<event>
 7    1  0.2756432E-009  0.4778727E+02  0.7816164E-02  0.1312668E+00
        -11   -1    0    0    0    0  0.00000000000E+00  0.00000000000E+00  0.45593999997E+02  0.45594000000E+02  0.51100000000E-03 0.  1.
         11   -1    0    0    0    0 -0.00000000000E+00 -0.00000000000E+00 -0.45593999997E+02  0.45594000000E+02  0.51100000000E-03 0. -1.
    9900012    2    1    2    0    0 -0.31594501576E+02 -0.24847199418E+01 -0.29651929112E+02  0.47787271169E+02  0.20000000566E+02 0.  0.
        -12    1    1    2    0    0  0.31594501576E+02  0.24847199418E+01  0.29651929112E+02  0.43400728831E+02  0.00000000000E+00 0.  1.
         11    1    3    3    0    0 -0.44517925722E+01 -0.23400427656E+01 -0.69655166834E+01  0.85914306247E+01  0.51100000000E-03 0. -1.
        -11    1    3    3    0    0 -0.28600548511E+02 -0.23474825846E+01 -0.22642648347E+02  0.36553954288E+02  0.51100000000E-03 0.  1.
        -12    1    3    3    0    0  0.14578395074E+01  0.22028054084E+01 -0.43764081596E-01  0.26418862563E+01  0.00000000000E+00 0.  1.
</event>
<event>
 7    1  0.2756432E-009  0.4778727E+02  0.7816164E-02  0.1312668E+00
        -11   -1    0    0    0    0  0.00000000000E+00  0.00000000000E+00  0.45593999997E+02  0.45594000000E+02  0.51100000000E-03 0. -1.
         11   -1    0    0    0    0 -0.00000000000E+00 -0.00000000000E+00 -0.45593999997E+02  0.45594000000E+02  0.51100000000E-03 0.  1.
    9900012    2    1    2    0    0  0.23105108013E+02  0.23790737775E+02  0.27996032169E+02  0.47787273769E+02  0.20000012424E+02 0.  0.
        -12    1    1    2    0    0 -0.23105108013E+02 -0.23790737775E+02 -0.27996032169E+02  0.43400726231E+02  0.00000000000E+00 0.  1.
         11    1    3    3    0    0  0.11060976758E+02  0.10599459465E+01  0.40600690151E+01  0.11830167070E+02  0.51100000000E-03 0. -1.
        -11    1    3    3    0    0  0.87131824982E+01  0.16273995231E+02  0.12109342701E+02  0.22077106942E+02  0.51100000000E-03 0.  1.
         12    1    3    3    0    0  0.33309487574E+01  0.64567965971E+01  0.11826620452E+02  0.13879999757E+02  0.00000000000E+00 0. -1.
</event>
<event>
 7    1  0.2756432E-009  0.4778731E+02  0.7816164E-02  0.1312668E+00
        -11   -1    0    0    0    0  0.00000000000E+00  0.00000000000E+00  0.45593999997E+02  0.45594000000E+02  0.51100000000E-03 0.  1.
         11   -1    0    0    0    0 -0.00000000000E+00 -0.00000000000E+00 -0.45593999997E+02  0.45594000000E+02  0.51100000000E-03 0. -1.
    9900012    2    1    2    0    0 -0.66179408520E+01 -0.21193754783E+02 -0.37291388785E+02  0.47787308065E+02  0.20000168793E+02 0.  0.
        -12    1    1    2    0    0  0.66179408520E+01  0.21193754783E+02  0.37291388785E+02  0.43400691935E+02  0.00000000000E+00 0.  1.
         11    1    3    3    0    0 -0.54831128663E+01 -0.30861074037E+01 -0.14664227679E+02  0.15957072391E+02  0.51100000000E-03 0. -1.
        -11    1    3    3    0    0  0.15368064767E+01  0.39051478132E+00  0.86815473134E+00  0.18077524278E+01  0.51100000000E-03 0.  1.
         12    1    3    3    0    0 -0.26716344625E+01 -0.18498162160E+02 -0.23495315838E+02  0.30022483247E+02  0.00000000000E+00 0. -1.
</event>
<event>
 7    1  0.2756432E-009  0.4778727E+02  0.7816164E-02  0.1312668E+00
        -11   -1    0    0    0    0  0.00000000000E+00  0.00000000000E+00  0.45593999997E+02  0.45594000000E+02  0.51100000000E-03 0.  1.
         11   -1    0    0    0    0 -0.00000000000E+00 -0.00000000000E+00 -0.45593999997E+02  0.45594000000E+02  0.51100000000E-03 0. -1.
    9900012    2    1    2    0    0 -0.41519808483E+02 -0.95636726283E+01  0.82622553734E+01  0.47787271959E+02  0.20000004171E+02 0.  0.
        -12    1    1    2    0    0  0.41519808483E+02  0.95636726283E+01 -0.82622553734E+01  0.43400728041E+02  0.00000000000E+00 0.  1.
         11    1    3    3    0    0 -0.33626900218E+01  0.43523785210E+01  0.27953627324E+01  0.61696787630E+01  0.51100000000E-03 0.  1.
        -11    1    3    3    0    0 -0.32439275443E+02 -0.14333758470E+02  0.54712824299E+01  0.35884511350E+02  0.51100000000E-03 0. -1.
         12    1    3    3    0    0 -0.57178430178E+01  0.41770732061E+00 -0.43897888420E-02  0.57330818459E+01  0.00000000000E+00 0. -1.
</event>
<event>
 7    1  0.2756432E-009  0.4778727E+02  0.7816164E-02  0.1312668E+00
        -11   -1    0    0    0    0  0.00000000000E+00  0.00000000000E+00  0.45593999997E+02  0.45594000000E+02  0.51100000000E-03 0.  1.
         11   -1    0    0    0    0 -0.00000000000E+00 -0.00000000000E+00 -0.45593999997E+02  0.45594000000E+02  0.51100000000E-03 0. -1.
    9900012    2    1    2    0    0 -0.24296760013E+02  0.34121513828E+02  0.11358386715E+02  0.47787271874E+02  0.20000003783E+02 0.  0.
        -12    1    1    2    0    0  0.24296760013E+02 -0.34121513828E+02 -0.11358386715E+02  0.43400728126E+02  0.00000000000E+00 0.  1.
         11    1    3    3    0    0 -0.28900166101E+01  0.84684311945E+01  0.10414505434E+02  0.13730566143E+02  0.51100000000E-03 0. -1.
        -11    1    3    3    0    0 -0.78348875650E+01  0.74585728259E+01 -0.24883215963E+01  0.11099888125E+02  0.51100000000E-03 0.  1.
         12    1    3    3    0    0 -0.13571855838E+02  0.18194509808E+02  0.34322028778E+01  0.22956817607E+02  0.00000000000E+00 0. -1.
</event>
<event>
 7    1  0.2756432E-009  0.4778727E+02  0.7816164E-02  0.1312668E+00
        -11   -1    0    0    0    0  0.00000000000E+00  0.00000000000E+00  0.45593999997E+02  0.45594000000E+02  0.51100000000E-03 0. -1.
         11   -1    0    0    0    0 -0.00000000000E+00 -0.00000000000E+00 -0.45593999997E+02  0.45594000000E+02  0.51100000000E-03 0.  1.
    9900012    2    1    2    0    0  0.85250179791E+01 -0.14513250458E+02  0.40003908250E+02  0.47787273673E+02  0.20000011985E+02 0.  0.
        -12    1    1    2    0    0 -0.85250179791E+01  0.14513250458E+02 -0.40003908250E+02  0.43400726327E+02  0.00000000000E+00 0.  1.
         11    1    3    3    0    0  0.86939917759E+00  0.33956296752E+01  0.12902191546E+02  0.13369843034E+02  0.51100000000E-03 0. -1.
        -11    1    3    3    0    0  0.28452485856E+01 -0.55279342540E+01  0.30117426667E+01  0.69082625010E+01  0.51100000000E-03 0.  1.
         12    1    3    3    0    0  0.48103702158E+01 -0.12380945879E+02  0.24089974038E+02  0.27509168138E+02  0.00000000000E+00 0. -1.
</event>
<event>
 7    1  0.2756432E-009  0.4778727E+02  0.7816164E-02  0.1312668E+00
        -11   -1    0    0    0    0  0.00000000000E+00  0.00000000000E+00  0.45593999997E+02  0.45594000000E+02  0.51100000000E-03 0.  1.
         11   -1    0    0    0    0 -0.00000000000E+00 -0.00000000000E+00 -0.45593999997E+02  0.45594000000E+02  0.51100000000E-03 0. -1.
    9900012    2    1    2    0    0  0.40507330164E+02 -0.80912907044E+01 -0.13315799779E+02  0.47787270674E+02  0.19999998311E+02 0.  0.
        -12    1    1    2    0    0 -0.40507330164E+02  0.80912907044E+01  0.13315799779E+02  0.43400729326E+02  0.00000000000E+00 0.  1.
         11    1    3    3    0    0  0.75041285639E+01 -0.18366681506E+01  0.31096076754E+00  0.77318815472E+01  0.51100000000E-03 0. -1.
        -11    1    3    3    0    0  0.18555624111E+02 -0.11771557144E+02 -0.10144316272E+02  0.24203055522E+02  0.51100000000E-03 0.  1.
        -12    1    3    3    0    0  0.14447577489E+02  0.55169345902E+01 -0.34824442749E+01  0.15852333605E+02  0.00000000000E+00 0.  1.
</event>
<event>
 7    1  0.2756432E-009  0.4778724E+02  0.7816164E-02  0.1312668E+00
        -11   -1    0    0    0    0  0.00000000000E+00  0.00000000000E+00  0.45593999997E+02  0.45594000000E+02  0.51100000000E-03 0. -1.
         11   -1    0    0    0    0 -0.00000000000E+00 -0.00000000000E+00 -0.45593999997E+02  0.45594000000E+02  0.51100000000E-03 0.  1.
    9900012    2    1    2    0    0  0.23850522636E+02  0.18425521248E+02  0.31229449870E+02  0.47787241914E+02  0.19999867181E+02 0.  0.
        -12    1    1    2    0    0 -0.23850522636E+02 -0.18425521248E+02 -0.31229449870E+02  0.43400758086E+02  0.00000000000E+00 0.  1.
         11    1    3    3    0    0  0.83134332106E+01 -0.22940225329E+01  0.12817642295E+02  0.15448872625E+02  0.51100000000E-03 0.  1.
        -11    1    3    3    0    0  0.61754786820E+01  0.12804154863E+02  0.84134235377E+01  0.16518735260E+02  0.51100000000E-03 0. -1.
        -12    1    3    3    0    0  0.93616107435E+01  0.79153889181E+01  0.99983840373E+01  0.15819634028E+02  0.00000000000E+00 0.  1.
</event>
<event>
 7    1  0.2756432E-009  0.4778728E+02  0.7816164E-02  0.1312668E+00
        -11   -1    0    0    0    0  0.00000000000E+00  0.00000000000E+00  0.45593999997E+02  0.45594000000E+02  0.51100000000E-03 0.  1.
         11   -1    0    0    0    0 -0.00000000000E+00 -0.00000000000E+00 -0.45593999997E+02  0.45594000000E+02  0.51100000000E-03 0. -1.
    9900012    2    1    2    0    0 -0.19331549964E+02  0.71568818903E+01 -0.38192839411E+02  0.47787276911E+02  0.20000026746E+02 0.  0.
        -12    1    1    2    0    0  0.19331549964E+02 -0.71568818903E+01  0.38192839411E+02  0.43400723089E+02  0.00000000000E+00 0.  1.
         11    1    3    3    0    0 -0.11051520886E+02  0.48306419662E+01 -0.32321848049E+02  0.34498885159E+02  0.51100000000E-03 0. -1.
        -11    1    3    3    0    0  0.80298156528E+00 -0.54135869987E+00  0.11145074764E+01  0.14764741150E+01  0.51100000000E-03 0.  1.
         12    1    3    3    0    0 -0.90830106436E+01  0.28675986239E+01 -0.69854988387E+01  0.11811917636E+02  0.00000000000E+00 0. -1.
</event>
<event>
 7    1  0.2756432E-009  0.4778728E+02  0.7816164E-02  0.1312668E+00
        -11   -1    0    0    0    0  0.00000000000E+00  0.00000000000E+00  0.45593999997E+02  0.45594000000E+02  0.51100000000E-03 0. -1.
         11   -1    0    0    0    0 -0.00000000000E+00 -0.00000000000E+00 -0.45593999997E+02  0.45594000000E+02  0.51100000000E-03 0.  1.
    9900012    2    1    2    0    0  0.56615543035E+01 -0.30899103989E+02  0.29946865575E+02  0.47787279013E+02  0.20000036331E+02 0.  0.
        -12    1    1    2    0    0 -0.56615543035E+01  0.30899103989E+02 -0.29946865575E+02  0.43400720987E+02  0.00000000000E+00 0.  1.
         11    1    3    3    0    0  0.32152690202E+01 -0.24492564633E+02  0.26479736776E+02  0.36213259134E+02  0.51100000000E-03 0. -1.
        -11    1    3    3    0    0  0.25742758233E+01 -0.68748325416E+01 -0.70405467238E+00  0.73746804495E+01  0.51100000000E-03 0.  1.
         12    1    3    3    0    0 -0.12799053994E+00  0.46829318569E+00  0.41711834715E+01  0.41993394289E+01  0.00000000000E+00 0. -1.
</event>
<event>
 7    1  0.2756432E-009  0.4778727E+02  0.7816164E-02  0.1312668E+00
        -11   -1    0    0    0    0  0.00000000000E+00  0.00000000000E+00  0.45593999997E+02  0.45594000000E+02  0.51100000000E-03 0.  1.
         11   -1    0    0    0    0 -0.00000000000E+00 -0.00000000000E+00 -0.45593999997E+02  0.45594000000E+02  0.51100000000E-03 0. -1.
    9900012    2    1    2    0    0 -0.25912155221E+02  0.16062909081E+02 -0.30889589280E+02  0.47787267723E+02  0.19999984854E+02 0.  0.
        -12    1    1    2    0    0  0.25912155221E+02 -0.16062909081E+02  0.30889589280E+02  0.43400732277E+02  0.00000000000E+00 0.  1.
         11    1    3    3    0    0 -0.83711942544E+01  0.14446355154E+02 -0.21633772870E+02  0.27327535552E+02  0.51100000000E-03 0.  1.
        -11    1    3    3    0    0 -0.82094448981E+01  0.10694534661E+00 -0.17626027650E+01  0.83972133241E+01  0.51100000000E-03 0. -1.
        -12    1    3    3    0    0 -0.93315160684E+01  0.15096085807E+01 -0.74932136443E+01  0.12062518846E+02  0.00000000000E+00 0.  1.
</event>
<event>
 7    1  0.2756432E-009  0.4778727E+02  0.7816164E-02  0.1312668E+00
        -11   -1    0    0    0    0  0.00000000000E+00  0.00000000000E+00  0.45593999997E+02  0.45594000000E+02  0.51100000000E-03 0. -1.
         11   -1    0    0    0    0 -0.00000000000E+00 -0.00000000000E+00 -0.45593999997E+02  0.45594000000E+02  0.51100000000E-03 0.  1.
    9900012    2    1    2    0    0  0.22097814089E+02  0.60011476308E+01  0.36868633478E+02  0.47787270802E+02  0.19999998893E+02 0.  0.
        -12    1    1    2    0    0 -0.22097814089E+02 -0.60011476308E+01 -0.36868633478E+02  0.43400729198E+02  0.00000000000E+00 0.  1.
         11    1    3    3    0    0  0.17040225844E+02 -0.39772992028E+01  0.18698407901E+02  0.25608956715E+02  0.51100000000E-03 0. -1.
        -11    1    3    3    0    0  0.13212842239E+01  0.84966729400E+01  0.13617934352E+02  0.16105507732E+02  0.51100000000E-03 0.  1.
        -12    1    3    3    0    0  0.37363040208E+01  0.14817738936E+01  0.45522912257E+01  0.60728063538E+01  0.00000000000E+00 0.  1.
</event>
<event>
 7    1  0.2756432E-009  0.4778727E+02  0.7816164E-02  0.1312668E+00
        -11   -1    0    0    0    0  0.00000000000E+00  0.00000000000E+00  0.45593999997E+02  0.45594000000E+02  0.51100000000E-03 0. -1.
         11   -1    0    0    0    0 -0.00000000000E+00 -0.00000000000E+00 -0.45593999997E+02  0.45594000000E+02  0.51100000000E-03 0.  1.
    9900012    2    1    2    0    0  0.25109212171E+02  0.33775358965E+02  0.10600751867E+02  0.47787270177E+02  0.19999996044E+02 0.  0.
        -12    1    1    2    0    0 -0.25109212171E+02 -0.33775358965E+02 -0.10600751867E+02  0.43400729823E+02  0.00000000000E+00 0.  1.
         11    1    3    3    0    0  0.21290606509E+02  0.25655231169E+02 -0.52903898138E+00  0.33343075658E+02  0.51100000000E-03 0. -1.
        -11    1    3    3    0    0  0.25341445113E+01  0.69729932353E+01  0.96586136753E+01  0.12179217604E+02  0.51100000000E-03 0.  1.
         12    1    3    3    0    0  0.12844611503E+01  0.11471345611E+01  0.14711771728E+01  0.22649769142E+01  0.00000000000E+00 0. -1.
</event>
<event>
 7    1  0.2756432E-009  0.4778727E+02  0.7816164E-02  0.1312668E+00
        -11   -1    0    0    0    0  0.00000000000E+00  0.00000000000E+00  0.45593999997E+02  0.45594000000E+02  0.51100000000E-03 0.  1.
         11   -1    0    0    0    0 -0.00000000000E+00 -0.00000000000E+00 -0.45593999997E+02  0.45594000000E+02  0.51100000000E-03 0. -1.
    9900012    2    1    2    0    0 -0.40923864667E+02  0.14343026275E+02 -0.17714612217E+01  0.47787272162E+02  0.20000005094E+02 0.  0.
        -12    1    1    2    0    0  0.40923864667E+02 -0.14343026275E+02  0.17714612217E+01  0.43400727838E+02  0.00000000000E+00 0.  1.
         11    1    3    3    0    0 -0.49703642675E+01 -0.37704787848E+01 -0.13657620562E+01  0.63864182038E+01  0.51100000000E-03 0. -1.
        -11    1    3    3    0    0 -0.35124152061E+02  0.15038015103E+02 -0.19355481620E+00  0.38208446971E+02  0.51100000000E-03 0.  1.
        -12    1    3    3    0    0 -0.82934833883E+00  0.30754899572E+01 -0.21214434934E+00  0.31924069867E+01  0.00000000000E+00 0.  1.
</event>
<event>
 7    1  0.2756432E-009  0.4778727E+02  0.7816164E-02  0.1312668E+00
        -11   -1    0    0    0    0  0.00000000000E+00  0.00000000000E+00  0.45593999997E+02  0.45594000000E+02  0.51100000000E-03 0. -1.
         11   -1    0    0    0    0 -0.00000000000E+00 -0.00000000000E+00 -0.45593999997E+02  0.45594000000E+02  0.51100000000E-03 0.  1.
    9900012    2    1    2    0    0  0.35483277698E+02  0.13649178716E+02  0.20934671004E+02  0.47787268141E+02  0.19999986763E+02 0.  0.
        -12    1    1    2    0    0 -0.35483277698E+02 -0.13649178716E+02 -0.20934671004E+02  0.43400731859E+02  0.00000000000E+00 0.  1.
         11    1    3    3    0    0  0.13412470450E+02  0.13399594611E+02  0.91823604185E+01  0.21065593807E+02  0.51100000000E-03 0. -1.
        -11    1    3    3    0    0  0.89153871336E+01 -0.45307355204E+01  0.50155271044E+01  0.11187815001E+02  0.51100000000E-03 0.  1.
        -12    1    3    3    0    0  0.13155420115E+02  0.47803196256E+01  0.67367834807E+01  0.15533859334E+02  0.00000000000E+00 0.  1.
</event>
<event>
 7    1  0.2756432E-009  0.4778727E+02  0.7816164E-02  0.1312668E+00
        -11   -1    0    0    0    0  0.00000000000E+00  0.00000000000E+00  0.45593999997E+02  0.45594000000E+02  0.51100000000E-03 0.  1.
         11   -1    0    0    0    0 -0.00000000000E+00 -0.00000000000E+00 -0.45593999997E+02  0.45594000000E+02  0.51100000000E-03 0. -1.
    9900012    2    1    2    0    0 -0.21875666907E+02 -0.32747916750E+01 -0.37341056277E+02  0.47787267898E+02  0.19999985652E+02 0.  0.
        -12    1    1    2    0    0  0.21875666907E+02  0.32747916750E+01  0.37341056277E+02  0.43400732102E+02  0.00000000000E+00 0.  1.
         11    1    3    3    0    0 -0.20351857562E+02  0.12407893046E+01 -0.20665255284E+02  0.29030853251E+02  0.51100000000E-03 0. -1.
        -11    1    3    3    0    0 -0.63167017630E+00 -0.59326148514E+01 -0.83411982606E+01  0.10255267664E+02  0.51100000000E-03 0.  1.
         12    1    3    3    0    0 -0.89213916908E+00  0.14170338719E+01 -0.83346027328E+01  0.85011469817E+01  0.00000000000E+00 0. -1.
</event>
<event>
 7    1  0.2756432E-009  0.4778727E+02  0.7816164E-02  0.1312668E+00
        -11   -1    0    0    0    0  0.00000000000E+00  0.00000000000E+00  0.45593999997E+02  0.45594000000E+02  0.51100000000E-03 0. -1.
         11   -1    0    0    0    0 -0.00000000000E+00 -0.00000000000E+00 -0.45593999997E+02  0.45594000000E+02  0.51100000000E-03 0.  1.
    9900012    2    1    2    0    0  0.10415020029E+02 -0.41939214731E+02 -0.40314882059E+01  0.47787271070E+02  0.20000000117E+02 0.  0.
        -12    1    1    2    0    0 -0.10415020029E+02  0.41939214731E+02  0.40314882059E+01  0.43400728930E+02  0.00000000000E+00 0.  1.
         11    1    3    3    0    0  0.74498613584E+00 -0.10975816578E+02 -0.53839249743E+01  0.12247865213E+02  0.51100000000E-03 0. -1.
        -11    1    3    3    0    0 -0.12683935718E+01 -0.77359563400E+01 -0.47285017152E+01  0.91549206157E+01  0.51100000000E-03 0.  1.
        -12    1    3    3    0    0  0.10938427465E+02 -0.23227441813E+02  0.60809384836E+01  0.26384485241E+02  0.00000000000E+00 0.  1.
</event>
<event>
 7    1  0.2756432E-009  0.4778727E+02  0.7816164E-02  0.1312668E+00
        -11   -1    0    0    0    0  0.00000000000E+00  0.00000000000E+00  0.45593999997E+02  0.45594000000E+02  0.51100000000E-03 0. -1.
         11   -1    0    0    0    0 -0.00000000000E+00 -0.00000000000E+00 -0.45593999997E+02  0.45594000000E+02  0.51100000000E-03 0.  1.
    9900012    2    1    2    0    0  0.17917495631E+02  0.38053325893E+02  0.10701910121E+02  0.47787272570E+02  0.20000006957E+02 0.  0.
        -12    1    1    2    0    0 -0.17917495631E+02 -0.38053325893E+02 -0.10701910121E+02  0.43400727430E+02  0.00000000000E+00 0.  1.
         11    1    3    3    0    0  0.78670500548E+01  0.14854634686E+02  0.12112563814E+02  0.20718707746E+02  0.51100000000E-03 0. -1.
        -11    1    3    3    0    0  0.21745078676E+01  0.15983107627E+02  0.84112957891E+00  0.16152266501E+02  0.51100000000E-03 0.  1.
         12    1    3    3    0    0  0.78759377090E+01  0.72155835790E+01 -0.22517832726E+01  0.10916298324E+02  0.00000000000E+00 0. -1.
</event>
<event>
 7    1  0.2756432E-009  0.4778728E+02  0.7816164E-02  0.1312668E+00
        -11   -1    0    0    0    0  0.00000000000E+00  0.00000000000E+00  0.45593999997E+02  0.45594000000E+02  0.51100000000E-03 0.  1.
         11   -1    0    0    0    0 -0.00000000000E+00 -0.00000000000E+00 -0.45593999997E+02  0.45594000000E+02  0.51100000000E-03 0. -1.
    9900012    2    1    2    0    0 -0.53173393911E+00  0.42392180636E+02 -0.92867182149E+01  0.47787275867E+02  0.20000021989E+02 0.  0.
        -12    1    1    2    0    0  0.53173393911E+00 -0.42392180636E+02  0.92867182149E+01  0.43400724133E+02  0.00000000000E+00 0.  1.
         11    1    3    3    0    0  0.57373678042E+01  0.73988659514E+01 -0.42375260611E+01  0.10277024573E+02  0.51100000000E-03 0. -1.
        -11    1    3    3    0    0 -0.53105915967E+01  0.22369075048E+02 -0.82929094670E+01  0.24440749770E+02  0.51100000000E-03 0.  1.
        -12    1    3    3    0    0 -0.95851014667E+00  0.12624239636E+02  0.32437173132E+01  0.13069501525E+02  0.00000000000E+00 0.  1.
</event>
<event>
 7    1  0.2756432E-009  0.4778727E+02  0.7816164E-02  0.1312668E+00
        -11   -1    0    0    0    0  0.00000000000E+00  0.00000000000E+00  0.45593999997E+02  0.45594000000E+02  0.51100000000E-03 0.  1.
         11   -1    0    0    0    0 -0.00000000000E+00 -0.00000000000E+00 -0.45593999997E+02  0.45594000000E+02  0.51100000000E-03 0. -1.
    9900012    2    1    2    0    0 -0.40397721984E+01  0.48872910081E+01 -0.42935042745E+02  0.47787271108E+02  0.20000000291E+02 0.  0.
        -12    1    1    2    0    0  0.40397721984E+01 -0.48872910081E+01  0.42935042745E+02  0.43400728892E+02  0.00000000000E+00 0.  1.
         11    1    3    3    0    0 -0.10511063470E+00  0.25127613371E+01 -0.17209520376E+02  0.17392314671E+02  0.51100000000E-03 0. -1.
        -11    1    3    3    0    0 -0.24922721979E+01 -0.46071368781E+01 -0.21453849568E+02  0.22084039316E+02  0.51100000000E-03 0.  1.
        -12    1    3    3    0    0 -0.14423893658E+01  0.69816665491E+01 -0.42716728006E+01  0.83109171216E+01  0.00000000000E+00 0.  1.
</event>
<event>
 7    1  0.2756432E-009  0.4778726E+02  0.7816164E-02  0.1312668E+00
        -11   -1    0    0    0    0  0.00000000000E+00  0.00000000000E+00  0.45593999997E+02  0.45594000000E+02  0.51100000000E-03 0.  1.
         11   -1    0    0    0    0 -0.00000000000E+00 -0.00000000000E+00 -0.45593999997E+02  0.45594000000E+02  0.51100000000E-03 0. -1.
    9900012    2    1    2    0    0  0.70793446257E+01 -0.35465845314E+02 -0.23993352454E+02  0.47787259613E+02  0.19999947881E+02 0.  0.
        -12    1    1    2    0    0 -0.70793446257E+01  0.35465845314E+02  0.23993352454E+02  0.43400740387E+02  0.00000000000E+00 0.  1.
         11    1    3    3    0    0 -0.38203482067E+00 -0.79548208892E+01 -0.38256502407E+01  0.88351981307E+01  0.51100000000E-03 0. -1.
        -11    1    3    3    0    0  0.10935841887E+02 -0.20074110380E+02 -0.78896405705E+01  0.24182823944E+02  0.51100000000E-03 0.  1.
        -12    1    3    3    0    0 -0.34744624410E+01 -0.74369140443E+01 -0.12278061643E+02  0.14769237538E+02  0.00000000000E+00 0.  1.
</event>
<event>
 7    1  0.2756432E-009  0.4778727E+02  0.7816164E-02  0.1312668E+00
        -11   -1    0    0    0    0  0.00000000000E+00  0.00000000000E+00  0.45593999997E+02  0.45594000000E+02  0.51100000000E-03 0.  1.
         11   -1    0    0    0    0 -0.00000000000E+00 -0.00000000000E+00 -0.45593999997E+02  0.45594000000E+02  0.51100000000E-03 0. -1.
    9900012    2    1    2    0    0 -0.12479238740E+01 -0.39447482210E+02 -0.18054421676E+02  0.47787270642E+02  0.19999998167E+02 0.  0.
        -12    1    1    2    0    0  0.12479238740E+01  0.39447482210E+02  0.18054421676E+02  0.43400729358E+02  0.00000000000E+00 0.  1.
         11    1    3    3    0    0  0.34767723068E+01 -0.20778801080E+02 -0.81721186384E+01  0.22597124669E+02  0.51100000000E-03 0. -1.
        -11    1    3    3    0    0 -0.89814901285E+01 -0.14683264692E+02 -0.85024070415E+01  0.19197821561E+02  0.51100000000E-03 0.  1.
        -12    1    3    3    0    0  0.42567939477E+01 -0.39854164382E+01 -0.13798959961E+01  0.59923244120E+01  0.00000000000E+00 0.  1.
</event>
<event>
 7    1  0.2756432E-009  0.4778727E+02  0.7816164E-02  0.1312668E+00
        -11   -1    0    0    0    0  0.00000000000E+00  0.00000000000E+00  0.45593999997E+02  0.45594000000E+02  0.51100000000E-03 0.  1.
         11   -1    0    0    0    0 -0.00000000000E+00 -0.00000000000E+00 -0.45593999997E+02  0.45594000000E+02  0.51100000000E-03 0. -1.
    9900012    2    1    2    0    0 -0.24050336069E+02  0.29434714078E+02 -0.20947613985E+02  0.47787267408E+02  0.19999983418E+02 0.  0.
        -12    1    1    2    0    0  0.24050336069E+02 -0.29434714078E+02  0.20947613985E+02  0.43400732592E+02  0.00000000000E+00 0.  1.
         11    1    3    3    0    0 -0.72207191298E+01  0.79802990281E+01 -0.29662695601E+01  0.11163454335E+02  0.51100000000E-03 0. -1.
        -11    1    3    3    0    0 -0.12768888875E+02  0.12004510504E+02 -0.20286362747E+01  0.17642793457E+02  0.51100000000E-03 0.  1.
        -12    1    3    3    0    0 -0.40607280635E+01  0.94499045460E+01 -0.15952708150E+02  0.18981019616E+02  0.00000000000E+00 0.  1.
</event>
<event>
 7    1  0.2756432E-009  0.4778727E+02  0.7816164E-02  0.1312668E+00
        -11   -1    0    0    0    0  0.00000000000E+00  0.00000000000E+00  0.45593999997E+02  0.45594000000E+02  0.51100000000E-03 0.  1.
         11   -1    0    0    0    0 -0.00000000000E+00 -0.00000000000E+00 -0.45593999997E+02  0.45594000000E+02  0.51100000000E-03 0. -1.
    9900012    2    1    2    0    0  0.39909741223E+01  0.77117997303E+01 -0.42523214265E+02  0.47787268659E+02  0.19999989122E+02 0.  0.
        -12    1    1    2    0    0 -0.39909741223E+01 -0.77117997303E+01  0.42523214265E+02  0.43400731341E+02  0.00000000000E+00 0.  1.
         11    1    3    3    0    0 -0.71302115388E+00 -0.82921612428E+00 -0.34514292751E+02  0.34531614542E+02  0.51100000000E-03 0. -1.
        -11    1    3    3    0    0  0.12838359592E+01  0.33472777632E+01 -0.68877275193E+00  0.36506042458E+01  0.51100000000E-03 0.  1.
         12    1    3    3    0    0  0.34201593170E+01  0.51937380914E+01 -0.73201487625E+01  0.96050498708E+01  0.00000000000E+00 0. -1.
</event>
<event>
 7    1  0.2756432E-009  0.4778727E+02  0.7816164E-02  0.1312668E+00
        -11   -1    0    0    0    0  0.00000000000E+00  0.00000000000E+00  0.45593999997E+02  0.45594000000E+02  0.51100000000E-03 0.  1.
         11   -1    0    0    0    0 -0.00000000000E+00 -0.00000000000E+00 -0.45593999997E+02  0.45594000000E+02  0.51100000000E-03 0. -1.
    9900012    2    1    2    0    0 -0.27982445647E+02  0.29947080857E+02 -0.14275093675E+02  0.47787271715E+02  0.20000003058E+02 0.  0.
        -12    1    1    2    0    0  0.27982445647E+02 -0.29947080857E+02  0.14275093675E+02  0.43400728285E+02  0.00000000000E+00 0.  1.
         11    1    3    3    0    0 -0.23303195109E+02  0.15142564732E+02 -0.88020532834E+01  0.29151540460E+02  0.51100000000E-03 0. -1.
        -11    1    3    3    0    0 -0.29278255767E+01  0.53539951876E+01  0.20422648410E+01  0.64349260306E+01  0.51100000000E-03 0.  1.
         12    1    3    3    0    0 -0.17514249616E+01  0.94505209376E+01 -0.75153052326E+01  0.12200805225E+02  0.00000000000E+00 0. -1.
</event>
<event>
 7    1  0.2756432E-009  0.4778726E+02  0.7816164E-02  0.1312668E+00
        -11   -1    0    0    0    0  0.00000000000E+00  0.00000000000E+00  0.45593999997E+02  0.45594000000E+02  0.51100000000E-03 0.  1.
         11   -1    0    0    0    0 -0.00000000000E+00 -0.00000000000E+00 -0.45593999997E+02  0.45594000000E+02  0.51100000000E-03 0. -1.
    9900012    2    1    2    0    0  0.33056888993E+02 -0.20747051581E+01 -0.28045703945E+02  0.47787264740E+02  0.19999971253E+02 0.  0.
        -12    1    1    2    0    0 -0.33056888993E+02  0.20747051581E+01  0.28045703945E+02  0.43400735260E+02  0.00000000000E+00 0.  1.
         11    1    3    3    0    0  0.20419956024E+02 -0.45683347868E+00 -0.22768717988E+02  0.30587543542E+02  0.51100000000E-03 0. -1.
        -11    1    3    3    0    0  0.64480494229E+01 -0.44427953362E+01 -0.66336975177E+01  0.10262636834E+02  0.51100000000E-03 0.  1.
         12    1    3    3    0    0  0.61888835460E+01  0.28249236568E+01  0.13567115608E+01  0.69370843639E+01  0.00000000000E+00 0. -1.
</event>
<event>
 7    1  0.2756432E-009  0.4778727E+02  0.7816164E-02  0.1312668E+00
        -11   -1    0    0    0    0  0.00000000000E+00  0.00000000000E+00  0.45593999997E+02  0.45594000000E+02  0.51100000000E-03 0.  1.
         11   -1    0    0    0    0 -0.00000000000E+00 -0.00000000000E+00 -0.45593999997E+02  0.45594000000E+02  0.51100000000E-03 0. -1.
    9900012    2    1    2    0    0 -0.31215600166E+01 -0.54496109138E+01 -0.42943927128E+02  0.47787271052E+02  0.20000000034E+02 0.  0.
        -12    1    1    2    0    0  0.31215600166E+01  0.54496109138E+01  0.42943927128E+02  0.43400728948E+02  0.00000000000E+00 0.  1.
         11    1    3    3    0    0  0.61972640961E+00 -0.30120942124E+00 -0.14255823279E+02  0.14272465994E+02  0.51100000000E-03 0. -1.
        -11    1    3    3    0    0 -0.30139672726E+01 -0.10835535847E+02 -0.15653773064E+02  0.19275202909E+02  0.51100000000E-03 0.  1.
        -12    1    3    3    0    0 -0.72731915358E+00  0.56871343543E+01 -0.13034330786E+02  0.14239602148E+02  0.00000000000E+00 0.  1.
</event>
<event>
 7    1  0.2756432E-009  0.4778728E+02  0.7816164E-02  0.1312668E+00
        -11   -1    0    0    0    0  0.00000000000E+00  0.00000000000E+00  0.45593999997E+02  0.45594000000E+02  0.51100000000E-03 0.  1.
         11   -1    0    0    0    0 -0.00000000000E+00 -0.00000000000E+00 -0.45593999997E+02  0.45594000000E+02  0.51100000000E-03 0. -1.
    9900012    2    1    2    0    0 -0.12076393091E+02 -0.30340470398E+02 -0.28587400697E+02  0.47787275437E+02  0.20000020026E+02 0.  0.
        -12    1    1    2    0    0  0.12076393091E+02  0.30340470398E+02  0.28587400697E+02  0.43400724563E+02  0.00000000000E+00 0.  1.
         11    1    3    3    0    0 -0.13873849060E+02 -0.26459425555E+02 -0.15675869544E+02  0.33738965229E+02  0.51100000000E-03 0. -1.
        -11    1    3    3    0    0  0.17669818262E+00 -0.22975052098E+01 -0.10456582758E+02  0.10707468219E+02  0.51100000000E-03 0.  1.
         12    1    3    3    0    0  0.16207577872E+01 -0.15835396328E+01 -0.24549483948E+01  0.33408419889E+01  0.00000000000E+00 0. -1.
</event>
<event>
 7    1  0.2756432E-009  0.4778729E+02  0.7816164E-02  0.1312668E+00
        -11   -1    0    0    0    0  0.00000000000E+00  0.00000000000E+00  0.45593999997E+02  0.45594000000E+02  0.51100000000E-03 0.  1.
         11   -1    0    0    0    0 -0.00000000000E+00 -0.00000000000E+00 -0.45593999997E+02  0.45594000000E+02  0.51100000000E-03 0. -1.
    9900012    2    1    2    0    0 -0.17795031973E+02 -0.26165987169E+02 -0.29703534325E+02  0.47787285733E+02  0.20000066972E+02 0.  0.
        -12    1    1    2    0    0  0.17795031973E+02  0.26165987169E+02  0.29703534325E+02  0.43400714267E+02  0.00000000000E+00 0.  1.
         11    1    3    3    0    0 -0.12392958885E+02 -0.22188230256E+02 -0.22476708794E+02  0.33927944681E+02  0.51100000000E-03 0. -1.
        -11    1    3    3    0    0  0.45164197550E+00 -0.56808734676E+01 -0.39914551603E+01  0.69575871096E+01  0.51100000000E-03 0.  1.
         12    1    3    3    0    0 -0.58537150641E+01  0.17031165546E+01 -0.32353703716E+01  0.69017539431E+01  0.00000000000E+00 0. -1.
</event>
<event>
 7    1  0.3825734E-009  0.4778727E+02  0.7816164E-02  0.1312668E+00
        -11   -1    0    0    0    0  0.00000000000E+00  0.00000000000E+00  0.45593999997E+02  0.45594000000E+02  0.51100000000E-03 0.  1.
         11   -1    0    0    0    0 -0.00000000000E+00 -0.00000000000E+00 -0.45593999997E+02  0.45594000000E+02  0.51100000000E-03 0. -1.
    9900012    2    1    2    0    0 -0.16289443716E+02 -0.40136039281E+02 -0.27158047683E+01  0.47787271650E+02  0.20000002762E+02 0.  0.
        -12    1    1    2    0    0  0.16289443716E+02  0.40136039281E+02  0.27158047683E+01  0.43400728350E+02  0.00000000000E+00 0.  1.
         11    1    3    3    0    0 -0.91030002429E+01 -0.23899869365E+02 -0.15911665964E+01  0.25624210826E+02  0.51100000000E-03 0. -1.
        -11    1    3    3    0    0 -0.50413228135E+00  0.50503022790E+00  0.34850933023E+01  0.35573979922E+01  0.51100000000E-03 0.  1.
        -12    1    3    3    0    0 -0.66823111914E+01 -0.16741200144E+02 -0.46097314742E+01  0.18605662832E+02  0.00000000000E+00 0.  1.
</event>
<event>
 7    1  0.2756432E-009  0.4778726E+02  0.7816164E-02  0.1312668E+00
        -11   -1    0    0    0    0  0.00000000000E+00  0.00000000000E+00  0.45593999997E+02  0.45594000000E+02  0.51100000000E-03 0. -1.
         11   -1    0    0    0    0 -0.00000000000E+00 -0.00000000000E+00 -0.45593999997E+02  0.45594000000E+02  0.51100000000E-03 0.  1.
    9900012    2    1    2    0    0  0.30897086846E+02  0.26072663408E+02 -0.15786396631E+02  0.47787261857E+02  0.19999958112E+02 0.  0.
        -12    1    1    2    0    0 -0.30897086846E+02 -0.26072663408E+02  0.15786396631E+02  0.43400738143E+02  0.00000000000E+00 0.  1.
         11    1    3    3    0    0  0.90944200617E+00  0.39170895029E+00 -0.19448756448E+00  0.10091314772E+01  0.51100000000E-03 0. -1.
        -11    1    3    3    0    0  0.19305889643E+02  0.24631883782E+02 -0.49895502211E+01  0.31691366099E+02  0.51100000000E-03 0.  1.
        -12    1    3    3    0    0  0.10681755197E+02  0.10490706751E+01 -0.10602358846E+02  0.15086764281E+02  0.00000000000E+00 0.  1.
</event>
<event>
 7    1  0.2756432E-009  0.4778727E+02  0.7816164E-02  0.1312668E+00
        -11   -1    0    0    0    0  0.00000000000E+00  0.00000000000E+00  0.45593999997E+02  0.45594000000E+02  0.51100000000E-03 0. -1.
         11   -1    0    0    0    0 -0.00000000000E+00 -0.00000000000E+00 -0.45593999997E+02  0.45594000000E+02  0.51100000000E-03 0.  1.
    9900012    2    1    2    0    0  0.40590828512E+02  0.89536904724E+01  0.12483575461E+02  0.47787267418E+02  0.19999983465E+02 0.  0.
        -12    1    1    2    0    0 -0.40590828512E+02 -0.89536904724E+01 -0.12483575461E+02  0.43400732582E+02  0.00000000000E+00 0.  1.
         11    1    3    3    0    0  0.44762482743E+01  0.90887960817E+00  0.28913193307E+01  0.54057921240E+01  0.51100000000E-03 0. -1.
        -11    1    3    3    0    0  0.68067180508E+01  0.38594956485E+01 -0.50908874015E+01  0.93351085736E+01  0.51100000000E-03 0.  1.
        -12    1    3    3    0    0  0.29307862187E+02  0.41853152157E+01  0.14683143532E+02  0.33046366720E+02  0.00000000000E+00 0.  1.
</event>
<event>
 7    1  0.2756432E-009  0.4778727E+02  0.7816164E-02  0.1312668E+00
        -11   -1    0    0    0    0  0.00000000000E+00  0.00000000000E+00  0.45593999997E+02  0.45594000000E+02  0.51100000000E-03 0.  1.
         11   -1    0    0    0    0 -0.00000000000E+00 -0.00000000000E+00 -0.45593999997E+02  0.45594000000E+02  0.51100000000E-03 0. -1.
    9900012    2    1    2    0    0  0.41826419286E+02 -0.50859756288E+01 -0.10407049869E+02  0.47787272064E+02  0.20000004650E+02 0.  0.
        -12    1    1    2    0    0 -0.41826419286E+02  0.50859756288E+01  0.10407049869E+02  0.43400727936E+02  0.00000000000E+00 0.  1.
         11    1    3    3    0    0  0.24030263885E+02 -0.70389134782E+01 -0.99072744073E+01  0.26928683068E+02  0.51100000000E-03 0. -1.
        -11    1    3    3    0    0  0.14752670972E+02  0.36590603279E+01  0.34522204574E+01  0.15586784454E+02  0.51100000000E-03 0.  1.
        -12    1    3    3    0    0  0.30434844295E+01 -0.17061224785E+01 -0.39519959191E+01  0.52718045420E+01  0.00000000000E+00 0.  1.
</event>
<event>
 7    1  0.2756432E-009  0.4778727E+02  0.7816164E-02  0.1312668E+00
        -11   -1    0    0    0    0  0.00000000000E+00  0.00000000000E+00  0.45593999997E+02  0.45594000000E+02  0.51100000000E-03 0. -1.
         11   -1    0    0    0    0 -0.00000000000E+00 -0.00000000000E+00 -0.45593999997E+02  0.45594000000E+02  0.51100000000E-03 0.  1.
    9900012    2    1    2    0    0 -0.13330389710E+01  0.43370082314E+02 -0.93909650839E+00  0.47787274948E+02  0.20000017798E+02 0.  0.
        -12    1    1    2    0    0  0.13330389710E+01 -0.43370082314E+02  0.93909650839E+00  0.43400725052E+02  0.00000000000E+00 0.  1.
         11    1    3    3    0    0 -0.15163193817E+01  0.33130042793E+02 -0.80040913249E+01  0.34116923046E+02  0.51100000000E-03 0. -1.
        -11    1    3    3    0    0 -0.16365944135E+01  0.43621815890E+01  0.57103067465E+01  0.73698489055E+01  0.51100000000E-03 0.  1.
         12    1    3    3    0    0  0.18198748242E+01  0.58778579317E+01  0.13546880700E+01  0.63005029964E+01  0.00000000000E+00 0. -1.
</event>
<event>
 7    1  0.2756432E-009  0.4778727E+02  0.7816164E-02  0.1312668E+00
        -11   -1    0    0    0    0  0.00000000000E+00  0.00000000000E+00  0.45593999997E+02  0.45594000000E+02  0.51100000000E-03 0. -1.
         11   -1    0    0    0    0 -0.00000000000E+00 -0.00000000000E+00 -0.45593999997E+02  0.45594000000E+02  0.51100000000E-03 0.  1.
    9900012    2    1    2    0    0  0.29460674403E+02  0.31750288001E+02  0.27588504687E+01  0.47787269818E+02  0.19999994407E+02 0.  0.
        -12    1    1    2    0    0 -0.29460674403E+02 -0.31750288001E+02 -0.27588504687E+01  0.43400730182E+02  0.00000000000E+00 0.  1.
         11    1    3    3    0    0  0.66886241242E+01  0.12472555447E+02 -0.20210777361E+01  0.14296401209E+02  0.51100000000E-03 0. -1.
        -11    1    3    3    0    0 -0.16254110041E-01 -0.61188233495E+00  0.31399654659E+01  0.31990697986E+01  0.51100000000E-03 0.  1.
        -12    1    3    3    0    0  0.22788304389E+02  0.19889614889E+02  0.16399627389E+01  0.30291798810E+02  0.00000000000E+00 0.  1.
</event>
<event>
 7    1  0.2756432E-009  0.4778727E+02  0.7816164E-02  0.1312668E+00
        -11   -1    0    0    0    0  0.00000000000E+00  0.00000000000E+00  0.45593999997E+02  0.45594000000E+02  0.51100000000E-03 0. -1.
         11   -1    0    0    0    0 -0.00000000000E+00 -0.00000000000E+00 -0.45593999997E+02  0.45594000000E+02  0.51100000000E-03 0.  1.
    9900012    2    1    2    0    0  0.21307097859E+02  0.37363956984E+02  0.57935784986E+01  0.47787271291E+02  0.20000001123E+02 0.  0.
        -12    1    1    2    0    0 -0.21307097859E+02 -0.37363956984E+02 -0.57935784986E+01  0.43400728709E+02  0.00000000000E+00 0.  1.
         11    1    3    3    0    0  0.12377456218E+02  0.33572609410E+02 -0.64770808590E+00  0.35787442645E+02  0.51100000000E-03 0. -1.
        -11    1    3    3    0    0  0.50620523229E+01  0.13307547831E+01  0.48832653305E+01  0.71583212111E+01  0.51100000000E-03 0.  1.
         12    1    3    3    0    0  0.38675893172E+01  0.24605927907E+01  0.15580212540E+01  0.48415074343E+01  0.00000000000E+00 0. -1.
</event>
<event>
 7    1  0.2756432E-009  0.4778726E+02  0.7816164E-02  0.1312668E+00
        -11   -1    0    0    0    0  0.00000000000E+00  0.00000000000E+00  0.45593999997E+02  0.45594000000E+02  0.51100000000E-03 0.  1.
         11   -1    0    0    0    0 -0.00000000000E+00 -0.00000000000E+00 -0.45593999997E+02  0.45594000000E+02  0.51100000000E-03 0. -1.
    9900012    2    1    2    0    0 -0.28857878887E+02  0.22444896029E+02 -0.23389598689E+02  0.47787264310E+02  0.19999969295E+02 0.  0.
        -12    1    1    2    0    0  0.28857878887E+02 -0.22444896029E+02  0.23389598689E+02  0.43400735690E+02  0.00000000000E+00 0.  1.
         11    1    3    3    0    0 -0.78570778715E+01  0.17979641239E+02 -0.86683532075E+01  0.21450909523E+02  0.51100000000E-03 0. -1.
        -11    1    3    3    0    0 -0.18768778768E+02  0.28338923763E+01 -0.11996761735E+02  0.22454850141E+02  0.51100000000E-03 0.  1.
         12    1    3    3    0    0 -0.22320222474E+01  0.16313624131E+01 -0.27244837463E+01  0.38815046464E+01  0.00000000000E+00 0. -1.
</event>
<event>
 7    1  0.2756432E-009  0.4778727E+02  0.7816164E-02  0.1312668E+00
        -11   -1    0    0    0    0  0.00000000000E+00  0.00000000000E+00  0.45593999997E+02  0.45594000000E+02  0.51100000000E-03 0.  1.
         11   -1    0    0    0    0 -0.00000000000E+00 -0.00000000000E+00 -0.45593999997E+02  0.45594000000E+02  0.51100000000E-03 0. -1.
    9900012    2    1    2    0    0  0.37383358978E+02 -0.67300695590E+00 -0.22037576467E+02  0.47787271396E+02  0.20000001602E+02 0.  0.
        -12    1    1    2    0    0 -0.37383358978E+02  0.67300695590E+00  0.22037576467E+02  0.43400728604E+02  0.00000000000E+00 0.  1.
         11    1    3    3    0    0  0.16066055693E+01 -0.47142792060E+01 -0.11492322338E+01  0.51113936334E+01  0.51100000000E-03 0. -1.
        -11    1    3    3    0    0  0.35071987853E+02  0.53105697043E+01 -0.20996311687E+02  0.41220038662E+02  0.51100000000E-03 0.  1.
        -12    1    3    3    0    0  0.70476555528E+00 -0.12692974543E+01  0.10796745359E+00  0.14558391004E+01  0.00000000000E+00 0.  1.
</event>
<event>
 7    1  0.2756432E-009  0.4778727E+02  0.7816164E-02  0.1312668E+00
        -11   -1    0    0    0    0  0.00000000000E+00  0.00000000000E+00  0.45593999997E+02  0.45594000000E+02  0.51100000000E-03 0. -1.
         11   -1    0    0    0    0 -0.00000000000E+00 -0.00000000000E+00 -0.45593999997E+02  0.45594000000E+02  0.51100000000E-03 0.  1.
    9900012    2    1    2    0    0  0.33088844361E+02 -0.28025840239E+02 -0.18177896148E+01  0.47787266120E+02  0.19999977548E+02 0.  0.
        -12    1    1    2    0    0 -0.33088844361E+02  0.28025840239E+02  0.18177896148E+01  0.43400733880E+02  0.00000000000E+00 0.  1.
         11    1    3    3    0    0  0.22535333750E+02 -0.11121627230E+02 -0.67868378103E+01  0.26030617111E+02  0.51100000000E-03 0. -1.
        -11    1    3    3    0    0  0.20920328361E+00 -0.63575317276E+01  0.21702551514E+01  0.67210105910E+01  0.51100000000E-03 0.  1.
         12    1    3    3    0    0  0.10344307327E+02 -0.10546681281E+02  0.27987930441E+01  0.15035638418E+02  0.00000000000E+00 0. -1.
</event>
<event>
 7    1  0.2756432E-009  0.4778727E+02  0.7816164E-02  0.1312668E+00
        -11   -1    0    0    0    0  0.00000000000E+00  0.00000000000E+00  0.45593999997E+02  0.45594000000E+02  0.51100000000E-03 0.  1.
         11   -1    0    0    0    0 -0.00000000000E+00 -0.00000000000E+00 -0.45593999997E+02  0.45594000000E+02  0.51100000000E-03 0. -1.
    9900012    2    1    2    0    0  0.32777884063E+02 -0.18364886920E+02 -0.21724746145E+02  0.47787270164E+02  0.19999995987E+02 0.  0.
        -12    1    1    2    0    0 -0.32777884063E+02  0.18364886920E+02  0.21724746145E+02  0.43400729836E+02  0.00000000000E+00 0.  1.
         11    1    3    3    0    0  0.69072185109E+01 -0.93064745991E+00 -0.13134189372E+02  0.14868850089E+02  0.51100000000E-03 0. -1.
        -11    1    3    3    0    0  0.78010940861E+01 -0.62515773150E+01  0.19862999835E-02  0.99969641428E+01  0.51100000000E-03 0.  1.
         12    1    3    3    0    0  0.18069571466E+02 -0.11182662145E+02 -0.85925430732E+01  0.22921455933E+02  0.00000000000E+00 0. -1.
</event>
<event>
 7    1  0.2756432E-009  0.4778727E+02  0.7816164E-02  0.1312668E+00
        -11   -1    0    0    0    0  0.00000000000E+00  0.00000000000E+00  0.45593999997E+02  0.45594000000E+02  0.51100000000E-03 0. -1.
         11   -1    0    0    0    0 -0.00000000000E+00 -0.00000000000E+00 -0.45593999997E+02  0.45594000000E+02  0.51100000000E-03 0.  1.
    9900012    2    1    2    0    0 -0.35864186028E+02 -0.12820647303E+01  0.24407782874E+02  0.47787269658E+02  0.19999993678E+02 0.  0.
        -12    1    1    2    0    0  0.35864186028E+02  0.12820647303E+01 -0.24407782874E+02  0.43400730342E+02  0.00000000000E+00 0.  1.
         11    1    3    3    0    0 -0.11093619843E+02 -0.13855269509E+01  0.11982231297E+02  0.16387859936E+02  0.51100000000E-03 0. -1.
        -11    1    3    3    0    0 -0.78863586398E+01  0.44271749926E+01 -0.14012048784E+01  0.91519345705E+01  0.51100000000E-03 0.  1.
        -12    1    3    3    0    0 -0.16884207546E+02 -0.43237127719E+01  0.13826756455E+02  0.22247475152E+02  0.00000000000E+00 0.  1.
</event>
<event>
 7    1  0.3108676E-009  0.4778727E+02  0.7816164E-02  0.1312668E+00
        -11   -1    0    0    0    0  0.00000000000E+00  0.00000000000E+00  0.45593999997E+02  0.45594000000E+02  0.51100000000E-03 0.  1.
         11   -1    0    0    0    0 -0.00000000000E+00 -0.00000000000E+00 -0.45593999997E+02  0.45594000000E+02  0.51100000000E-03 0. -1.
    9900012    2    1    2    0    0  0.16144111406E+02 -0.16995927329E+02 -0.36525734115E+02  0.47787272685E+02  0.20000007478E+02 0.  0.
        -12    1    1    2    0    0 -0.16144111406E+02  0.16995927329E+02  0.36525734115E+02  0.43400727315E+02  0.00000000000E+00 0.  1.
         11    1    3    3    0    0  0.11912443347E+01 -0.63405303961E+01 -0.31379543472E+01  0.71741303664E+01  0.51100000000E-03 0. -1.
        -11    1    3    3    0    0  0.12322134106E+01  0.18385125903E+01 -0.12409166888E+02  0.12604995103E+02  0.51100000000E-03 0.  1.
        -12    1    3    3    0    0  0.13720653660E+02 -0.12493909523E+02 -0.20978612880E+02  0.28008147215E+02  0.00000000000E+00 0.  1.
</event>
<event>
 7    1  0.2756432E-009  0.4778727E+02  0.7816164E-02  0.1312668E+00
        -11   -1    0    0    0    0  0.00000000000E+00  0.00000000000E+00  0.45593999997E+02  0.45594000000E+02  0.51100000000E-03 0.  1.
         11   -1    0    0    0    0 -0.00000000000E+00 -0.00000000000E+00 -0.45593999997E+02  0.45594000000E+02  0.51100000000E-03 0. -1.
    9900012    2    1    2    0    0 -0.39488738465E+01 -0.23950149971E+02 -0.35978051486E+02  0.47787268704E+02  0.19999989328E+02 0.  0.
        -12    1    1    2    0    0  0.39488738465E+01  0.23950149971E+02  0.35978051486E+02  0.43400731296E+02  0.00000000000E+00 0.  1.
         11    1    3    3    0    0 -0.61216781830E+01 -0.21046128014E+02 -0.25596851062E+02  0.33698861000E+02  0.51100000000E-03 0. -1.
        -11    1    3    3    0    0  0.10421559674E+01  0.31574965605E+01 -0.42092893403E+01  0.53641393160E+01  0.51100000000E-03 0.  1.
        -12    1    3    3    0    0  0.11306483691E+01 -0.60615185170E+01 -0.61719110840E+01  0.87242683874E+01  0.00000000000E+00 0.  1.
</event>
<event>
 7    1  0.2756432E-009  0.4778727E+02  0.7816164E-02  0.1312668E+00
        -11   -1    0    0    0    0  0.00000000000E+00  0.00000000000E+00  0.45593999997E+02  0.45594000000E+02  0.51100000000E-03 0. -1.
         11   -1    0    0    0    0 -0.00000000000E+00 -0.00000000000E+00 -0.45593999997E+02  0.45594000000E+02  0.51100000000E-03 0.  1.
    9900012    2    1    2    0    0 -0.41436399408E+02 -0.11024097321E+02  0.67169392348E+01  0.47787272007E+02  0.20000004388E+02 0.  0.
        -12    1    1    2    0    0  0.41436399408E+02  0.11024097321E+02 -0.67169392348E+01  0.43400727993E+02  0.00000000000E+00 0.  1.
         11    1    3    3    0    0  0.10539123900E+01 -0.18191583515E+01  0.22381077189E+01  0.30706994083E+01  0.51100000000E-03 0. -1.
        -11    1    3    3    0    0 -0.37218473855E+02 -0.59630994459E+01  0.64081253847E+01  0.38233982559E+02  0.51100000000E-03 0.  1.
        -12    1    3    3    0    0 -0.52718379430E+01 -0.32418395231E+01 -0.19292938688E+01  0.64825900397E+01  0.00000000000E+00 0.  1.
</event>
<event>
 7    1  0.2756432E-009  0.4778727E+02  0.7816164E-02  0.1312668E+00
        -11   -1    0    0    0    0  0.00000000000E+00  0.00000000000E+00  0.45593999997E+02  0.45594000000E+02  0.51100000000E-03 0.  1.
         11   -1    0    0    0    0 -0.00000000000E+00 -0.00000000000E+00 -0.45593999997E+02  0.45594000000E+02  0.51100000000E-03 0. -1.
    9900012    2    1    2    0    0  0.11891930424E+02  0.13330532622E+02 -0.39553784551E+02  0.47787274413E+02  0.20000015358E+02 0.  0.
        -12    1    1    2    0    0 -0.11891930424E+02 -0.13330532622E+02  0.39553784551E+02  0.43400725587E+02  0.00000000000E+00 0.  1.
         11    1    3    3    0    0  0.40041295492E+01  0.14017127799E+02 -0.24803917468E+02  0.28770596921E+02  0.51100000000E-03 0. -1.
        -11    1    3    3    0    0  0.15049115581E+00 -0.35900163249E+01 -0.31786369758E+01  0.47973532376E+01  0.51100000000E-03 0.  1.
         12    1    3    3    0    0  0.77373097186E+01  0.29034211474E+01 -0.11571230108E+02  0.14219324254E+02  0.00000000000E+00 0. -1.
</event>
<event>
 7    1  0.5397288E-009  0.4778727E+02  0.7816164E-02  0.1312668E+00
        -11   -1    0    0    0    0  0.00000000000E+00  0.00000000000E+00  0.45593999997E+02  0.45594000000E+02  0.51100000000E-03 0.  1.
         11   -1    0    0    0    0 -0.00000000000E+00 -0.00000000000E+00 -0.45593999997E+02  0.45594000000E+02  0.51100000000E-03 0. -1.
    9900012    2    1    2    0    0 -0.39265012899E+02  0.69377209480E+01 -0.17139132982E+02  0.47787273170E+02  0.20000009693E+02 0.  0.
        -12    1    1    2    0    0  0.39265012899E+02 -0.69377209480E+01  0.17139132982E+02  0.43400726830E+02  0.00000000000E+00 0.  1.
         11    1    3    3    0    0 -0.19806108147E+02  0.25213027511E+01 -0.11239063496E+02  0.22911905989E+02  0.51100000000E-03 0. -1.
        -11    1    3    3    0    0 -0.11887179777E+02  0.28344025112E+01  0.34905107647E+01  0.12709152069E+02  0.51100000000E-03 0.  1.
        -12    1    3    3    0    0 -0.75717249751E+01  0.15820156857E+01 -0.93905802505E+01  0.12166215113E+02  0.00000000000E+00 0.  1.
</event>
<event>
 7    1  0.2756432E-009  0.4778727E+02  0.7816164E-02  0.1312668E+00
        -11   -1    0    0    0    0  0.00000000000E+00  0.00000000000E+00  0.45593999997E+02  0.45594000000E+02  0.51100000000E-03 0.  1.
         11   -1    0    0    0    0 -0.00000000000E+00 -0.00000000000E+00 -0.45593999997E+02  0.45594000000E+02  0.51100000000E-03 0. -1.
    9900012    2    1    2    0    0  0.35131764652E+02  0.27296813210E+01 -0.25336360890E+02  0.47787271540E+02  0.20000002260E+02 0.  0.
        -12    1    1    2    0    0 -0.35131764652E+02 -0.27296813210E+01  0.25336360890E+02  0.43400728460E+02  0.00000000000E+00 0.  1.
         11    1    3    3    0    0  0.80738463286E+01 -0.24378079442E+01  0.10212616630E+01  0.84954621862E+01  0.51100000000E-03 0. -1.
        -11    1    3    3    0    0  0.68721890276E+01  0.53364563814E+01 -0.56579526341E+01  0.10378688598E+02  0.51100000000E-03 0.  1.
         12    1    3    3    0    0  0.20185729296E+02 -0.16896711620E+00 -0.20699669919E+02  0.28913120756E+02  0.00000000000E+00 0. -1.
</event>
<event>
 7    1  0.2756432E-009  0.4778728E+02  0.7816164E-02  0.1312668E+00
        -11   -1    0    0    0    0  0.00000000000E+00  0.00000000000E+00  0.45593999997E+02  0.45594000000E+02  0.51100000000E-03 0.  1.
         11   -1    0    0    0    0 -0.00000000000E+00 -0.00000000000E+00 -0.45593999997E+02  0.45594000000E+02  0.51100000000E-03 0. -1.
    9900012    2    1    2    0    0 -0.37734999831E+02 -0.48991299601E+01  0.20873198771E+02  0.47787284412E+02  0.20000060947E+02 0.  0.
        -12    1    1    2    0    0  0.37734999831E+02  0.48991299601E+01 -0.20873198771E+02  0.43400715588E+02  0.00000000000E+00 0.  1.
         11    1    3    3    0    0 -0.21489718097E+02  0.63920300245E+01  0.13971005727E+02  0.26416945944E+02  0.51100000000E-03 0. -1.
        -11    1    3    3    0    0 -0.89671310249E+01 -0.45826393803E+01  0.17838247081E+01  0.10227025636E+02  0.51100000000E-03 0.  1.
         12    1    3    3    0    0 -0.72781507095E+01 -0.67085206042E+01  0.51183683362E+01  0.11143312832E+02  0.00000000000E+00 0. -1.
</event>
<event>
 7    1  0.2756432E-009  0.4778727E+02  0.7816164E-02  0.1312668E+00
        -11   -1    0    0    0    0  0.00000000000E+00  0.00000000000E+00  0.45593999997E+02  0.45594000000E+02  0.51100000000E-03 0.  1.
         11   -1    0    0    0    0 -0.00000000000E+00 -0.00000000000E+00 -0.45593999997E+02  0.45594000000E+02  0.51100000000E-03 0. -1.
    9900012    2    1    2    0    0 -0.11385431467E+01  0.15506973833E+02 -0.40519878630E+02  0.47787273254E+02  0.20000010072E+02 0.  0.
        -12    1    1    2    0    0  0.11385431467E+01 -0.15506973833E+02  0.40519878630E+02  0.43400726746E+02  0.00000000000E+00 0.  1.
         11    1    3    3    0    0 -0.24199710362E+01  0.11963365302E+02 -0.18491839792E+02  0.22156861427E+02  0.51100000000E-03 0. -1.
        -11    1    3    3    0    0 -0.53304621094E+01  0.33495469759E+01 -0.85612343490E+01  0.10626759858E+02  0.51100000000E-03 0.  1.
        -12    1    3    3    0    0  0.66118899990E+01  0.19406155592E+00 -0.13466804489E+02  0.15003651968E+02  0.00000000000E+00 0.  1.
</event>
<event>
 7    1  0.2756432E-009  0.4778727E+02  0.7816164E-02  0.1312668E+00
        -11   -1    0    0    0    0  0.00000000000E+00  0.00000000000E+00  0.45593999997E+02  0.45594000000E+02  0.51100000000E-03 0.  1.
         11   -1    0    0    0    0 -0.00000000000E+00 -0.00000000000E+00 -0.45593999997E+02  0.45594000000E+02  0.51100000000E-03 0. -1.
    9900012    2    1    2    0    0  0.37414753742E+02 -0.19679361793E+02 -0.98225453451E+01  0.47787268724E+02  0.19999989422E+02 0.  0.
        -12    1    1    2    0    0 -0.37414753742E+02  0.19679361793E+02  0.98225453451E+01  0.43400731276E+02  0.00000000000E+00 0.  1.
         11    1    3    3    0    0  0.20925930425E+02 -0.88342901532E+01  0.29024009692E+01  0.22898977670E+02  0.51100000000E-03 0.  1.
        -11    1    3    3    0    0  0.27321974349E+01  0.85139769118E+00 -0.37690571457E+01  0.47323961035E+01  0.51100000000E-03 0. -1.
         12    1    3    3    0    0  0.13756625882E+02 -0.11696469331E+02 -0.89558891687E+01  0.20155894951E+02  0.00000000000E+00 0. -1.
</event>
<event>
 7    1  0.2812861E-009  0.4778727E+02  0.7816164E-02  0.1312668E+00
        -11   -1    0    0    0    0  0.00000000000E+00  0.00000000000E+00  0.45593999997E+02  0.45594000000E+02  0.51100000000E-03 0.  1.
         11   -1    0    0    0    0 -0.00000000000E+00 -0.00000000000E+00 -0.45593999997E+02  0.45594000000E+02  0.51100000000E-03 0. -1.
    9900012    2    1    2    0    0 -0.39846734824E+02 -0.10481062632E+02 -0.13638490154E+02  0.47787270009E+02  0.19999995278E+02 0.  0.
        -12    1    1    2    0    0  0.39846734824E+02  0.10481062632E+02  0.13638490154E+02  0.43400729991E+02  0.00000000000E+00 0.  1.
         11    1    3    3    0    0 -0.13367203794E+02 -0.20581999648E-02 -0.48350558227E+01  0.14214777753E+02  0.51100000000E-03 0. -1.
        -11    1    3    3    0    0 -0.26693551701E+02 -0.13015474497E+02 -0.89667342510E+01  0.31021776258E+02  0.51100000000E-03 0.  1.
        -12    1    3    3    0    0  0.21402067030E+00  0.25364700650E+01  0.16329991936E+00  0.25507159978E+01  0.00000000000E+00 0.  1.
</event>
<event>
 7    1  0.2756432E-009  0.4778727E+02  0.7816164E-02  0.1312668E+00
        -11   -1    0    0    0    0  0.00000000000E+00  0.00000000000E+00  0.45593999997E+02  0.45594000000E+02  0.51100000000E-03 0.  1.
         11   -1    0    0    0    0 -0.00000000000E+00 -0.00000000000E+00 -0.45593999997E+02  0.45594000000E+02  0.51100000000E-03 0. -1.
    9900012    2    1    2    0    0 -0.13151652460E+02  0.20555057694E+02 -0.35890760329E+02  0.47787273782E+02  0.20000012481E+02 0.  0.
        -12    1    1    2    0    0  0.13151652460E+02 -0.20555057694E+02  0.35890760329E+02  0.43400726218E+02  0.00000000000E+00 0.  1.
         11    1    3    3    0    0 -0.13711172506E+02  0.16751900932E+02 -0.15163723105E+02  0.26430303347E+02  0.51100000000E-03 0. -1.
        -11    1    3    3    0    0 -0.37278098576E+00  0.38348543016E+01 -0.19070636556E+02  0.19455956725E+02  0.51100000000E-03 0.  1.
         12    1    3    3    0    0  0.93230103263E+00 -0.31697539699E-01 -0.16564006692E+01  0.19010137102E+01  0.00000000000E+00 0. -1.
</event>
<event>
 7    1  0.2756432E-009  0.4778728E+02  0.7816164E-02  0.1312668E+00
        -11   -1    0    0    0    0  0.00000000000E+00  0.00000000000E+00  0.45593999997E+02  0.45594000000E+02  0.51100000000E-03 0.  1.
         11   -1    0    0    0    0 -0.00000000000E+00 -0.00000000000E+00 -0.45593999997E+02  0.45594000000E+02  0.51100000000E-03 0. -1.
    9900012    2    1    2    0    0  0.66014558007E+00  0.27422171718E+02 -0.33633484351E+02  0.47787279229E+02  0.20000037315E+02 0.  0.
        -12    1    1    2    0    0 -0.66014558007E+00 -0.27422171718E+02  0.33633484351E+02  0.43400720771E+02  0.00000000000E+00 0.  1.
         11    1    3    3    0    0  0.31919761367E+00  0.25091617472E+02 -0.17481777890E+02  0.30582735538E+02  0.51100000000E-03 0. -1.
        -11    1    3    3    0    0  0.59153440518E+00 -0.15700117686E+01 -0.78696546526E+01  0.80465094618E+01  0.51100000000E-03 0.  1.
         12    1    3    3    0    0 -0.25058643877E+00  0.39005660138E+01 -0.82820518079E+01  0.91580342290E+01  0.00000000000E+00 0. -1.
</event>
<event>
 7    1  0.2756432E-009  0.4778727E+02  0.7816164E-02  0.1312668E+00
        -11   -1    0    0    0    0  0.00000000000E+00  0.00000000000E+00  0.45593999997E+02  0.45594000000E+02  0.51100000000E-03 0. -1.
         11   -1    0    0    0    0 -0.00000000000E+00 -0.00000000000E+00 -0.45593999997E+02  0.45594000000E+02  0.51100000000E-03 0.  1.
    9900012    2    1    2    0    0 -0.23404101119E+01  0.23869639261E+02  0.36171616900E+02  0.47787273427E+02  0.20000010861E+02 0.  0.
        -12    1    1    2    0    0  0.23404101119E+01 -0.23869639261E+02 -0.36171616900E+02  0.43400726573E+02  0.00000000000E+00 0.  1.
         11    1    3    3    0    0 -0.26298671136E+01 -0.10743020352E+01  0.82394619326E+01  0.87154494490E+01  0.51100000000E-03 0.  1.
        -11    1    3    3    0    0 -0.36614441433E+01  0.22802151920E+01  0.45566219578E+01  0.62744209664E+01  0.51100000000E-03 0. -1.
         12    1    3    3    0    0  0.39509011450E+01  0.22663726105E+02  0.23375533009E+02  0.32797403011E+02  0.00000000000E+00 0. -1.
</event>
<event>
 7    1  0.2756432E-009  0.4778727E+02  0.7816164E-02  0.1312668E+00
        -11   -1    0    0    0    0  0.00000000000E+00  0.00000000000E+00  0.45593999997E+02  0.45594000000E+02  0.51100000000E-03 0.  1.
         11   -1    0    0    0    0 -0.00000000000E+00 -0.00000000000E+00 -0.45593999997E+02  0.45594000000E+02  0.51100000000E-03 0. -1.
    9900012    2    1    2    0    0  0.25208260750E+02 -0.23285727531E+02 -0.26569563680E+02  0.47787271540E+02  0.20000002261E+02 0.  0.
        -12    1    1    2    0    0 -0.25208260750E+02  0.23285727531E+02  0.26569563680E+02  0.43400728460E+02  0.00000000000E+00 0.  1.
         11    1    3    3    0    0  0.21001384731E+02 -0.16583717133E+02 -0.21526053490E+02  0.34343104311E+02  0.51100000000E-03 0. -1.
        -11    1    3    3    0    0 -0.90147687995E+00  0.20955851779E+01 -0.74083501554E+00  0.23985359252E+01  0.51100000000E-03 0.  1.
        -12    1    3    3    0    0  0.51083528989E+01 -0.87975955757E+01 -0.43026751742E+01  0.11045631304E+02  0.00000000000E+00 0.  1.
</event>
<event>
 7    1  0.2756432E-009  0.4778727E+02  0.7816164E-02  0.1312668E+00
        -11   -1    0    0    0    0  0.00000000000E+00  0.00000000000E+00  0.45593999997E+02  0.45594000000E+02  0.51100000000E-03 0.  1.
         11   -1    0    0    0    0 -0.00000000000E+00 -0.00000000000E+00 -0.45593999997E+02  0.45594000000E+02  0.51100000000E-03 0. -1.
    9900012    2    1    2    0    0 -0.90361013277E-02  0.41979610419E+02 -0.11015247089E+02  0.47787269119E+02  0.19999991220E+02 0.  0.
        -12    1    1    2    0    0  0.90361013277E-02 -0.41979610419E+02  0.11015247089E+02  0.43400730881E+02  0.00000000000E+00 0.  1.
         11    1    3    3    0    0  0.67422593409E+00  0.92977597354E+01 -0.10990809076E+02  0.14411828514E+02  0.51100000000E-03 0. -1.
        -11    1    3    3    0    0  0.29681535865E+01  0.15845759484E+02  0.65365353236E+00  0.16134599237E+02  0.51100000000E-03 0.  1.
         12    1    3    3    0    0 -0.36514156219E+01  0.16836091200E+02 -0.67809154540E+00  0.17240841368E+02  0.00000000000E+00 0. -1.
</event>
<event>
 7    1  0.2756432E-009  0.4778727E+02  0.7816164E-02  0.1312668E+00
        -11   -1    0    0    0    0  0.00000000000E+00  0.00000000000E+00  0.45593999997E+02  0.45594000000E+02  0.51100000000E-03 0.  1.
         11   -1    0    0    0    0 -0.00000000000E+00 -0.00000000000E+00 -0.45593999997E+02  0.45594000000E+02  0.51100000000E-03 0. -1.
    9900012    2    1    2    0    0  0.17787578618E+02  0.11513684669E+02 -0.37876910043E+02  0.47787271871E+02  0.20000003768E+02 0.  0.
        -12    1    1    2    0    0 -0.17787578618E+02 -0.11513684669E+02  0.37876910043E+02  0.43400728129E+02  0.00000000000E+00 0.  1.
         11    1    3    3    0    0  0.86060002375E+01  0.12733195145E+02 -0.28909278660E+02  0.32740554235E+02  0.51100000000E-03 0. -1.
        -11    1    3    3    0    0  0.90133698362E+01 -0.35095356875E+01 -0.63798147360E+01  0.11587049360E+02  0.51100000000E-03 0.  1.
        -12    1    3    3    0    0  0.16820854392E+00  0.22900252111E+01 -0.25878166466E+01  0.34596682757E+01  0.00000000000E+00 0.  1.
</event>
<event>
 7    1  0.2756432E-009  0.4778727E+02  0.7816164E-02  0.1312668E+00
        -11   -1    0    0    0    0  0.00000000000E+00  0.00000000000E+00  0.45593999997E+02  0.45594000000E+02  0.51100000000E-03 0.  1.
         11   -1    0    0    0    0 -0.00000000000E+00 -0.00000000000E+00 -0.45593999997E+02  0.45594000000E+02  0.51100000000E-03 0. -1.
    9900012    2    1    2    0    0 -0.83202951477E+01 -0.29429881787E+02 -0.30794121225E+02  0.47787272410E+02  0.20000006226E+02 0.  0.
        -12    1    1    2    0    0  0.83202951477E+01  0.29429881787E+02  0.30794121225E+02  0.43400727590E+02  0.00000000000E+00 0.  1.
         11    1    3    3    0    0 -0.20157783999E+01 -0.11824129100E+02 -0.65923848725E+01  0.13686962048E+02  0.51100000000E-03 0. -1.
        -11    1    3    3    0    0 -0.82672016895E+01 -0.18834362114E+02 -0.17487475144E+02  0.26997992651E+02  0.51100000000E-03 0.  1.
        -12    1    3    3    0    0  0.19626849418E+01  0.12286094265E+01 -0.67142612078E+01  0.71023177112E+01  0.00000000000E+00 0.  1.
</event>
<event>
 7    1  0.2756432E-009  0.4778727E+02  0.7816164E-02  0.1312668E+00
        -11   -1    0    0    0    0  0.00000000000E+00  0.00000000000E+00  0.45593999997E+02  0.45594000000E+02  0.51100000000E-03 0.  1.
         11   -1    0    0    0    0 -0.00000000000E+00 -0.00000000000E+00 -0.45593999997E+02  0.45594000000E+02  0.51100000000E-03 0. -1.
    9900012    2    1    2    0    0  0.19096226453E+02 -0.57675782200E+01 -0.38544687479E+02  0.47787265488E+02  0.19999974667E+02 0.  0.
        -12    1    1    2    0    0 -0.19096226453E+02  0.57675782200E+01  0.38544687479E+02  0.43400734512E+02  0.00000000000E+00 0.  1.
         11    1    3    3    0    0  0.15966842254E+02 -0.14561403987E+01 -0.33255927242E+02  0.36919061383E+02  0.51100000000E-03 0. -1.
        -11    1    3    3    0    0 -0.12917058191E+01  0.86954396791E+00  0.78380092275E+00  0.17432598150E+01  0.51100000000E-03 0.  1.
         12    1    3    3    0    0  0.44210900187E+01 -0.51809817892E+01 -0.60725611599E+01  0.91249442899E+01  0.00000000000E+00 0. -1.
</event>
<event>
 7    1  0.2756432E-009  0.4778727E+02  0.7816164E-02  0.1312668E+00
        -11   -1    0    0    0    0  0.00000000000E+00  0.00000000000E+00  0.45593999997E+02  0.45594000000E+02  0.51100000000E-03 0. -1.
         11   -1    0    0    0    0 -0.00000000000E+00 -0.00000000000E+00 -0.45593999997E+02  0.45594000000E+02  0.51100000000E-03 0.  1.
    9900012    2    1    2    0    0  0.34916912465E+02  0.15586947071E+02 -0.20529973168E+02  0.47787268515E+02  0.19999988468E+02 0.  0.
        -12    1    1    2    0    0 -0.34916912465E+02 -0.15586947071E+02  0.20529973168E+02  0.43400731485E+02  0.00000000000E+00 0.  1.
         11    1    3    3    0    0  0.34449711025E+01  0.32810295638E+00 -0.99010889860E+01  0.10488424134E+02  0.51100000000E-03 0. -1.
        -11    1    3    3    0    0  0.11451754548E+02  0.64697374908E+01 -0.39767959719E+00  0.13158964046E+02  0.51100000000E-03 0.  1.
         12    1    3    3    0    0  0.20020186815E+02  0.87891066242E+01 -0.10231204585E+02  0.24139880335E+02  0.00000000000E+00 0. -1.
</event>
<event>
 7    1  0.2756432E-009  0.4778725E+02  0.7816164E-02  0.1312668E+00
        -11   -1    0    0    0    0  0.00000000000E+00  0.00000000000E+00  0.45593999997E+02  0.45594000000E+02  0.51100000000E-03 0.  1.
         11   -1    0    0    0    0 -0.00000000000E+00 -0.00000000000E+00 -0.45593999997E+02  0.45594000000E+02  0.51100000000E-03 0. -1.
    9900012    2    1    2    0    0  0.36901790378E+02  0.18165111634E+02 -0.13853204580E+02  0.47787254719E+02  0.19999925568E+02 0.  0.
        -12    1    1    2    0    0 -0.36901790378E+02 -0.18165111634E+02  0.13853204580E+02  0.43400745281E+02  0.00000000000E+00 0.  1.
         11    1    3    3    0    0  0.19017433939E+02  0.19761583601E+02 -0.69573935662E+01  0.28294669207E+02  0.51100000000E-03 0. -1.
        -11    1    3    3    0    0  0.10544063612E+02 -0.10005892745E+00 -0.26130109717E+01  0.10863476232E+02  0.51100000000E-03 0.  1.
         12    1    3    3    0    0  0.73402928275E+01 -0.14964130396E+01 -0.42828000416E+01  0.86291092805E+01  0.00000000000E+00 0. -1.
</event>
<event>
 7    1  0.2756432E-009  0.4778727E+02  0.7816164E-02  0.1312668E+00
        -11   -1    0    0    0    0  0.00000000000E+00  0.00000000000E+00  0.45593999997E+02  0.45594000000E+02  0.51100000000E-03 0.  1.
         11   -1    0    0    0    0 -0.00000000000E+00 -0.00000000000E+00 -0.45593999997E+02  0.45594000000E+02  0.51100000000E-03 0. -1.
    9900012    2    1    2    0    0  0.11693944043E+02  0.11744329341E+02 -0.40111668640E+02  0.47787267747E+02  0.19999984968E+02 0.  0.
        -12    1    1    2    0    0 -0.11693944043E+02 -0.11744329341E+02  0.40111668640E+02  0.43400732253E+02  0.00000000000E+00 0.  1.
         11    1    3    3    0    0  0.75318913676E+01  0.13265241864E+02 -0.15427600785E+02  0.21695780593E+02  0.51100000000E-03 0. -1.
        -11    1    3    3    0    0 -0.70832395033E+00 -0.31896588650E+01 -0.10810539119E+02  0.11293511535E+02  0.51100000000E-03 0.  1.
         12    1    3    3    0    0  0.48703766257E+01  0.16687463419E+01 -0.13873528737E+02  0.14797975619E+02  0.00000000000E+00 0. -1.
</event>
<event>
 7    1  0.2756432E-009  0.4778727E+02  0.7816164E-02  0.1312668E+00
        -11   -1    0    0    0    0  0.00000000000E+00  0.00000000000E+00  0.45593999997E+02  0.45594000000E+02  0.51100000000E-03 0.  1.
         11   -1    0    0    0    0 -0.00000000000E+00 -0.00000000000E+00 -0.45593999997E+02  0.45594000000E+02  0.51100000000E-03 0. -1.
    9900012    2    1    2    0    0 -0.42883368346E+01  0.11581876472E+02 -0.41606415329E+02  0.47787268532E+02  0.19999988543E+02 0.  0.
        -12    1    1    2    0    0  0.42883368346E+01 -0.11581876472E+02  0.41606415329E+02  0.43400731468E+02  0.00000000000E+00 0.  1.
         11    1    3    3    0    0 -0.81061764353E+01  0.25060172952E+01 -0.88875365494E+01  0.12287331902E+02  0.51100000000E-03 0. -1.
        -11    1    3    3    0    0  0.53397427510E+01  0.91625599501E+00 -0.14510471395E+02  0.15488904353E+02  0.51100000000E-03 0.  1.
        -12    1    3    3    0    0 -0.15219031504E+01  0.81596031819E+01 -0.18208407385E+02  0.20011032277E+02  0.00000000000E+00 0.  1.
</event>
<event>
 7    1  0.2756432E-009  0.4778727E+02  0.7816164E-02  0.1312668E+00
        -11   -1    0    0    0    0  0.00000000000E+00  0.00000000000E+00  0.45593999997E+02  0.45594000000E+02  0.51100000000E-03 0. -1.
         11   -1    0    0    0    0 -0.00000000000E+00 -0.00000000000E+00 -0.45593999997E+02  0.45594000000E+02  0.51100000000E-03 0.  1.
    9900012    2    1    2    0    0 -0.68177018582E+01  0.21862327882E+00  0.42861340584E+02  0.47787269921E+02  0.19999994876E+02 0.  0.
        -12    1    1    2    0    0  0.68177018582E+01 -0.21862327882E+00 -0.42861340584E+02  0.43400730079E+02  0.00000000000E+00 0.  1.
         11    1    3    3    0    0 -0.52585391239E+01 -0.14121731575E+01  0.15279607418E+02  0.16220754294E+02  0.51100000000E-03 0. -1.
        -11    1    3    3    0    0  0.60804816868E+01  0.15866093497E+01  0.60640084499E+01  0.87327994087E+01  0.51100000000E-03 0.  1.
        -12    1    3    3    0    0 -0.76396444211E+01  0.44187086643E-01  0.21517724716E+02  0.22833716218E+02  0.00000000000E+00 0.  1.
</event>
<event>
 7    1  0.2756432E-009  0.4778727E+02  0.7816164E-02  0.1312668E+00
        -11   -1    0    0    0    0  0.00000000000E+00  0.00000000000E+00  0.45593999997E+02  0.45594000000E+02  0.51100000000E-03 0. -1.
         11   -1    0    0    0    0 -0.00000000000E+00 -0.00000000000E+00 -0.45593999997E+02  0.45594000000E+02  0.51100000000E-03 0.  1.
    9900012    2    1    2    0    0  0.22294715321E+02 -0.24508563030E+02  0.28033896769E+02  0.47787270039E+02  0.19999995416E+02 0.  0.
        -12    1    1    2    0    0 -0.22294715321E+02  0.24508563030E+02 -0.28033896769E+02  0.43400729961E+02  0.00000000000E+00 0.  1.
         11    1    3    3    0    0  0.80330533375E+01 -0.63881177941E+01  0.28194570533E+01  0.10643652250E+02  0.51100000000E-03 0. -1.
        -11    1    3    3    0    0  0.68500036952E+01 -0.15778761171E+02  0.23602172671E+02  0.29205383233E+02  0.51100000000E-03 0.  1.
        -12    1    3    3    0    0  0.74116582888E+01 -0.23416840647E+01  0.16122670451E+01  0.79382345564E+01  0.00000000000E+00 0.  1.
</event>
<event>
 7    1  0.2756432E-009  0.4778726E+02  0.7816164E-02  0.1312668E+00
        -11   -1    0    0    0    0  0.00000000000E+00  0.00000000000E+00  0.45593999997E+02  0.45594000000E+02  0.51100000000E-03 0. -1.
         11   -1    0    0    0    0 -0.00000000000E+00 -0.00000000000E+00 -0.45593999997E+02  0.45594000000E+02  0.51100000000E-03 0.  1.
    9900012    2    1    2    0    0 -0.33098594570E+02  0.24785099039E+02  0.13183547278E+02  0.47787262498E+02  0.19999961033E+02 0.  0.
        -12    1    1    2    0    0  0.33098594570E+02 -0.24785099039E+02 -0.13183547278E+02  0.43400737502E+02  0.00000000000E+00 0.  1.
         11    1    3    3    0    0 -0.10103739906E+02  0.21967769332E+01 -0.32287364735E+01  0.10832180226E+02  0.51100000000E-03 0. -1.
        -11    1    3    3    0    0 -0.10730440153E+01  0.28972405552E+01  0.38128220647E+01  0.49074472643E+01  0.51100000000E-03 0.  1.
         12    1    3    3    0    0 -0.21921810649E+02  0.19691081551E+02  0.12599461687E+02  0.32047635007E+02  0.00000000000E+00 0. -1.
</event>
<event>
 7    1  0.2756432E-009  0.4778728E+02  0.7816164E-02  0.1312668E+00
        -11   -1    0    0    0    0  0.00000000000E+00  0.00000000000E+00  0.45593999997E+02  0.45594000000E+02  0.51100000000E-03 0.  1.
         11   -1    0    0    0    0 -0.00000000000E+00 -0.00000000000E+00 -0.45593999997E+02  0.45594000000E+02  0.51100000000E-03 0. -1.
    9900012    2    1    2    0    0 -0.39353451983E+02 -0.12010022857E+02 -0.13808983139E+02  0.47787275959E+02  0.20000022406E+02 0.  0.
        -12    1    1    2    0    0  0.39353451983E+02  0.12010022857E+02  0.13808983139E+02  0.43400724041E+02  0.00000000000E+00 0.  1.
         11    1    3    3    0    0 -0.35668718547E+02 -0.13205449918E+02 -0.70883810222E+01  0.38689617937E+02  0.51100000000E-03 0. -1.
        -11    1    3    3    0    0 -0.16676664141E+01 -0.12607211535E+01 -0.51383183263E+01  0.55473276971E+01  0.51100000000E-03 0.  1.
         12    1    3    3    0    0 -0.20170670211E+01  0.24561482143E+01 -0.15822837908E+01  0.35503303244E+01  0.00000000000E+00 0. -1.
</event>
<event>
 7    1  0.2756432E-009  0.4778725E+02  0.7816164E-02  0.1312668E+00
        -11   -1    0    0    0    0  0.00000000000E+00  0.00000000000E+00  0.45593999997E+02  0.45594000000E+02  0.51100000000E-03 0.  1.
         11   -1    0    0    0    0 -0.00000000000E+00 -0.00000000000E+00 -0.45593999997E+02  0.45594000000E+02  0.51100000000E-03 0. -1.
    9900012    2    1    2    0    0  0.26951129269E+02 -0.32269833556E+02 -0.10766595554E+02  0.47787249933E+02  0.19999903743E+02 0.  0.
        -12    1    1    2    0    0 -0.26951129269E+02  0.32269833556E+02  0.10766595554E+02  0.43400750067E+02  0.00000000000E+00 0.  1.
         11    1    3    3    0    0  0.28770398797E+02 -0.23621598478E+02 -0.68249343590E+01  0.37845679950E+02  0.51100000000E-03 0. -1.
        -11    1    3    3    0    0 -0.74246642746E+00 -0.69960807185E+01 -0.23833178925E+01  0.74280957354E+01  0.51100000000E-03 0.  1.
         12    1    3    3    0    0 -0.10768031007E+01 -0.16521543592E+01 -0.15583433026E+01  0.25134742475E+01  0.00000000000E+00 0. -1.
</event>
<event>
 7    1  0.2756432E-009  0.4778727E+02  0.7816164E-02  0.1312668E+00
        -11   -1    0    0    0    0  0.00000000000E+00  0.00000000000E+00  0.45593999997E+02  0.45594000000E+02  0.51100000000E-03 0.  1.
         11   -1    0    0    0    0 -0.00000000000E+00 -0.00000000000E+00 -0.45593999997E+02  0.45594000000E+02  0.51100000000E-03 0. -1.
    9900012    2    1    2    0    0  0.42384153678E+02 -0.21451386043E+01 -0.90887563263E+01  0.47787267354E+02  0.19999983173E+02 0.  0.
        -12    1    1    2    0    0 -0.42384153678E+02  0.21451386043E+01  0.90887563263E+01  0.43400732646E+02  0.00000000000E+00 0.  1.
         11    1    3    3    0    0  0.24522745860E+02  0.42375918631E+01 -0.93354834417E+01  0.26579569234E+02  0.51100000000E-03 0. -1.
        -11    1    3    3    0    0 -0.14642506438E+00 -0.25259921596E+01 -0.10641459482E+01  0.27449013735E+01  0.51100000000E-03 0.  1.
         12    1    3    3    0    0  0.18007832882E+02 -0.38567383078E+01  0.13108730636E+01  0.18462796746E+02  0.00000000000E+00 0. -1.
</event>
<event>
 7    1  0.2756432E-009  0.4778727E+02  0.7816164E-02  0.1312668E+00
        -11   -1    0    0    0    0  0.00000000000E+00  0.00000000000E+00  0.45593999997E+02  0.45594000000E+02  0.51100000000E-03 0.  1.
         11   -1    0    0    0    0 -0.00000000000E+00 -0.00000000000E+00 -0.45593999997E+02  0.45594000000E+02  0.51100000000E-03 0. -1.
    9900012    2    1    2    0    0  0.20880052704E+02 -0.11306792989E+02 -0.36329091442E+02  0.47787273581E+02  0.20000011567E+02 0.  0.
        -12    1    1    2    0    0 -0.20880052704E+02  0.11306792989E+02  0.36329091442E+02  0.43400726419E+02  0.00000000000E+00 0.  1.
         11    1    3    3    0    0  0.10048500627E+01 -0.16105989907E+01 -0.15396542549E+02  0.15513132355E+02  0.51100000000E-03 0. -1.
        -11    1    3    3    0    0  0.82148146392E+01 -0.29650279894E+01 -0.18620549775E+01  0.89298275199E+01  0.51100000000E-03 0.  1.
         12    1    3    3    0    0  0.11660388003E+02 -0.67311660094E+01 -0.19070493916E+02  0.23344313706E+02  0.00000000000E+00 0. -1.
</event>
<event>
 7    1  0.2756432E-009  0.4778727E+02  0.7816164E-02  0.1312668E+00
        -11   -1    0    0    0    0  0.00000000000E+00  0.00000000000E+00  0.45593999997E+02  0.45594000000E+02  0.51100000000E-03 0. -1.
         11   -1    0    0    0    0 -0.00000000000E+00 -0.00000000000E+00 -0.45593999997E+02  0.45594000000E+02  0.51100000000E-03 0.  1.
    9900012    2    1    2    0    0  0.28440016506E+02  0.18646141699E+02  0.26964981798E+02  0.47787269792E+02  0.19999994292E+02 0.  0.
        -12    1    1    2    0    0 -0.28440016506E+02 -0.18646141699E+02 -0.26964981798E+02  0.43400730208E+02  0.00000000000E+00 0.  1.
         11    1    3    3    0    0  0.23456821754E+02  0.17891485980E+02  0.24901057106E+02  0.38605574761E+02  0.51100000000E-03 0. -1.
        -11    1    3    3    0    0  0.63309564430E+01 -0.12894537918E+01  0.11183462071E+01  0.65570114431E+01  0.51100000000E-03 0.  1.
         12    1    3    3    0    0 -0.13477616903E+01  0.20441095115E+01  0.94557848503E+00  0.26246835886E+01  0.00000000000E+00 0. -1.
</event>
<event>
 7    1  0.2756432E-009  0.4778727E+02  0.7816164E-02  0.1312668E+00
        -11   -1    0    0    0    0  0.00000000000E+00  0.00000000000E+00  0.45593999997E+02  0.45594000000E+02  0.51100000000E-03 0. -1.
         11   -1    0    0    0    0 -0.00000000000E+00 -0.00000000000E+00 -0.45593999997E+02  0.45594000000E+02  0.51100000000E-03 0.  1.
    9900012    2    1    2    0    0  0.33767532674E+02  0.74076798073E+01  0.26239342520E+02  0.47787273290E+02  0.20000010240E+02 0.  0.
        -12    1    1    2    0    0 -0.33767532674E+02 -0.74076798073E+01 -0.26239342520E+02  0.43400726710E+02  0.00000000000E+00 0.  1.
         11    1    3    3    0    0  0.27912372665E+02  0.56686813029E+01  0.12943756308E+02  0.31285385136E+02  0.51100000000E-03 0. -1.
        -11    1    3    3    0    0  0.48663853949E+01  0.38460268947E+01  0.52495414428E+01  0.81259655000E+01  0.51100000000E-03 0.  1.
         12    1    3    3    0    0  0.98877461464E+00 -0.21070283903E+01  0.80460447699E+01  0.83759226546E+01  0.00000000000E+00 0. -1.
</event>
<event>
 7    1  0.2756432E-009  0.4778727E+02  0.7816164E-02  0.1312668E+00
        -11   -1    0    0    0    0  0.00000000000E+00  0.00000000000E+00  0.45593999997E+02  0.45594000000E+02  0.51100000000E-03 0.  1.
         11   -1    0    0    0    0 -0.00000000000E+00 -0.00000000000E+00 -0.45593999997E+02  0.45594000000E+02  0.51100000000E-03 0. -1.
    9900012    2    1    2    0    0  0.21843327668E+02  0.34175088464E+02 -0.15445236679E+02  0.47787274531E+02  0.20000015896E+02 0.  0.
        -12    1    1    2    0    0 -0.21843327668E+02 -0.34175088464E+02  0.15445236679E+02  0.43400725469E+02  0.00000000000E+00 0.  1.
         11    1    3    3    0    0  0.94731855650E+01  0.10937771526E+02 -0.11486667766E+02  0.18474837680E+02  0.51100000000E-03 0. -1.
        -11    1    3    3    0    0  0.10544523917E+02  0.22162132478E+02  0.31248891566E+00  0.24544749951E+02  0.51100000000E-03 0.  1.
        -12    1    3    3    0    0  0.18256181869E+01  0.10751844610E+01 -0.42710578289E+01  0.47676868991E+01  0.00000000000E+00 0.  1.
</event>
<event>
 7    1  0.2756432E-009  0.4778727E+02  0.7816164E-02  0.1312668E+00
        -11   -1    0    0    0    0  0.00000000000E+00  0.00000000000E+00  0.45593999997E+02  0.45594000000E+02  0.51100000000E-03 0.  1.
         11   -1    0    0    0    0 -0.00000000000E+00 -0.00000000000E+00 -0.45593999997E+02  0.45594000000E+02  0.51100000000E-03 0. -1.
    9900012    2    1    2    0    0  0.34439200343E+02  0.40490377211E+01 -0.26099232712E+02  0.47787272185E+02  0.20000005201E+02 0.  0.
        -12    1    1    2    0    0 -0.34439200343E+02 -0.40490377211E+01  0.26099232712E+02  0.43400727815E+02  0.00000000000E+00 0.  1.
         11    1    3    3    0    0  0.20750776315E+02 -0.46124031078E+01 -0.14185427576E+02  0.25555730001E+02  0.51100000000E-03 0. -1.
        -11    1    3    3    0    0  0.92880897214E+00  0.11693182562E+01 -0.61881249318E+01  0.63657585348E+01  0.51100000000E-03 0.  1.
         12    1    3    3    0    0  0.12759615056E+02  0.74921225727E+01 -0.57256802040E+01  0.15865783650E+02  0.00000000000E+00 0. -1.
</event>
<event>
 7    1  0.2756432E-009  0.4778727E+02  0.7816164E-02  0.1312668E+00
        -11   -1    0    0    0    0  0.00000000000E+00  0.00000000000E+00  0.45593999997E+02  0.45594000000E+02  0.51100000000E-03 0. -1.
         11   -1    0    0    0    0 -0.00000000000E+00 -0.00000000000E+00 -0.45593999997E+02  0.45594000000E+02  0.51100000000E-03 0.  1.
    9900012    2    1    2    0    0 -0.28246127686E+02 -0.60842894791E+01  0.32384575028E+02  0.47787274113E+02  0.20000013992E+02 0.  0.
        -12    1    1    2    0    0  0.28246127686E+02  0.60842894791E+01 -0.32384575028E+02  0.43400725887E+02  0.00000000000E+00 0.  1.
         11    1    3    3    0    0 -0.19881742165E+02  0.35728199782E+01  0.25214976373E+02  0.32308570811E+02  0.51100000000E-03 0. -1.
        -11    1    3    3    0    0 -0.76691325780E+01 -0.84059382960E+01  0.41054124311E+01  0.12096685688E+02  0.51100000000E-03 0.  1.
         12    1    3    3    0    0 -0.69525294373E+00 -0.12511711613E+01  0.30641862243E+01  0.33820176150E+01  0.00000000000E+00 0. -1.
</event>
<event>
 7    1  0.2756432E-009  0.4778728E+02  0.7816164E-02  0.1312668E+00
        -11   -1    0    0    0    0  0.00000000000E+00  0.00000000000E+00  0.45593999997E+02  0.45594000000E+02  0.51100000000E-03 0.  1.
         11   -1    0    0    0    0 -0.00000000000E+00 -0.00000000000E+00 -0.45593999997E+02  0.45594000000E+02  0.51100000000E-03 0. -1.
    9900012    2    1    2    0    0 -0.11725804785E+01  0.39217482521E+02 -0.18553619008E+02  0.47787278133E+02  0.20000032319E+02 0.  0.
        -12    1    1    2    0    0  0.11725804785E+01 -0.39217482521E+02  0.18553619008E+02  0.43400721867E+02  0.00000000000E+00 0.  1.
         11    1    3    3    0    0 -0.40044191028E+01  0.11204149179E+02 -0.10856175627E+02  0.16106671931E+02  0.51100000000E-03 0. -1.
        -11    1    3    3    0    0  0.53630320704E+01  0.26889012715E+02 -0.86515970505E+01  0.28751195620E+02  0.51100000000E-03 0.  1.
        -12    1    3    3    0    0 -0.25311934461E+01  0.11243206275E+01  0.95415366962E+00  0.29294105824E+01  0.00000000000E+00 0.  1.
</event>
<event>
 7    1  0.2756432E-009  0.4778727E+02  0.7816164E-02  0.1312668E+00
        -11   -1    0    0    0    0  0.00000000000E+00  0.00000000000E+00  0.45593999997E+02  0.45594000000E+02  0.51100000000E-03 0.  1.
         11   -1    0    0    0    0 -0.00000000000E+00 -0.00000000000E+00 -0.45593999997E+02  0.45594000000E+02  0.51100000000E-03 0. -1.
    9900012    2    1    2    0    0 -0.21461719153E+02  0.20073329102E+02 -0.31938682087E+02  0.47787270240E+02  0.19999996332E+02 0.  0.
        -12    1    1    2    0    0  0.21461719153E+02 -0.20073329102E+02  0.31938682087E+02  0.43400729760E+02  0.00000000000E+00 0.  1.
         11    1    3    3    0    0 -0.13424992029E+02  0.12308294677E+02 -0.78065377917E+01  0.19815815940E+02  0.51100000000E-03 0. -1.
        -11    1    3    3    0    0 -0.29812738119E+01  0.68180190852E+01 -0.75122852497E+01  0.10573921114E+02  0.51100000000E-03 0.  1.
         12    1    3    3    0    0 -0.50554533126E+01  0.94701533972E+00 -0.16619859046E+02  0.17397533186E+02  0.00000000000E+00 0. -1.
</event>
<event>
 7    1  0.2756432E-009  0.4778727E+02  0.7816164E-02  0.1312668E+00
        -11   -1    0    0    0    0  0.00000000000E+00  0.00000000000E+00  0.45593999997E+02  0.45594000000E+02  0.51100000000E-03 0. -1.
         11   -1    0    0    0    0 -0.00000000000E+00 -0.00000000000E+00 -0.45593999997E+02  0.45594000000E+02  0.51100000000E-03 0.  1.
    9900012    2    1    2    0    0  0.16290638508E+02  0.19532450394E+02  0.35167057490E+02  0.47787268970E+02  0.19999990544E+02 0.  0.
        -12    1    1    2    0    0 -0.16290638508E+02 -0.19532450394E+02 -0.35167057490E+02  0.43400731030E+02  0.00000000000E+00 0.  1.
         11    1    3    3    0    0  0.34994814911E+01  0.10294660238E+02  0.19478330722E+02  0.22307661645E+02  0.51100000000E-03 0. -1.
        -11    1    3    3    0    0  0.14779465541E+02  0.86970400702E+01  0.11040628513E+02  0.20395258907E+02  0.51100000000E-03 0.  1.
        -12    1    3    3    0    0 -0.19883085243E+01  0.54075008634E+00  0.46480982559E+01  0.50843484184E+01  0.00000000000E+00 0.  1.
</event>
<event>
 7    1  0.2756432E-009  0.4778728E+02  0.7816164E-02  0.1312668E+00
        -11   -1    0    0    0    0  0.00000000000E+00  0.00000000000E+00  0.45593999997E+02  0.45594000000E+02  0.51100000000E-03 0.  1.
         11   -1    0    0    0    0 -0.00000000000E+00 -0.00000000000E+00 -0.45593999997E+02  0.45594000000E+02  0.51100000000E-03 0. -1.
    9900012    2    1    2    0    0  0.77463209409E+01 -0.66371622147E+01 -0.42184896567E+02  0.47787275251E+02  0.20000019178E+02 0.  0.
        -12    1    1    2    0    0 -0.77463209409E+01  0.66371622147E+01  0.42184896567E+02  0.43400724749E+02  0.00000000000E+00 0.  1.
         11    1    3    3    0    0  0.43293678923E+01 -0.20866091146E+01 -0.37054779411E+02  0.37365144740E+02  0.51100000000E-03 0. -1.
        -11    1    3    3    0    0  0.32787950583E+01  0.85715721590E+00 -0.77273276174E+00  0.34759648602E+01  0.51100000000E-03 0.  1.
         12    1    3    3    0    0  0.13815799018E+00 -0.54077103160E+01 -0.43573843943E+01  0.69461656510E+01  0.00000000000E+00 0. -1.
</event>
<event>
 7    1  0.2756432E-009  0.4778727E+02  0.7816164E-02  0.1312668E+00
        -11   -1    0    0    0    0  0.00000000000E+00  0.00000000000E+00  0.45593999997E+02  0.45594000000E+02  0.51100000000E-03 0.  1.
         11   -1    0    0    0    0 -0.00000000000E+00 -0.00000000000E+00 -0.45593999997E+02  0.45594000000E+02  0.51100000000E-03 0. -1.
    9900012    2    1    2    0    0 -0.10634184652E+02 -0.77920599612E+01 -0.41349986677E+02  0.47787268671E+02  0.19999989180E+02 0.  0.
        -12    1    1    2    0    0  0.10634184652E+02  0.77920599612E+01  0.41349986677E+02  0.43400731329E+02  0.00000000000E+00 0.  1.
         11    1    3    3    0    0 -0.82322883445E+01 -0.99398960254E+01 -0.36282661132E+02  0.38509785814E+02  0.51100000000E-03 0. -1.
        -11    1    3    3    0    0 -0.42729683215E+01  0.25130350898E+01 -0.54131253496E+01  0.73399952282E+01  0.51100000000E-03 0.  1.
         12    1    3    3    0    0  0.18710720136E+01 -0.36519902559E+00  0.34579980422E+00  0.19374876291E+01  0.00000000000E+00 0. -1.
</event>
<event>
 7    1  0.2756432E-009  0.4778727E+02  0.7816164E-02  0.1312668E+00
        -11   -1    0    0    0    0  0.00000000000E+00  0.00000000000E+00  0.45593999997E+02  0.45594000000E+02  0.51100000000E-03 0.  1.
         11   -1    0    0    0    0 -0.00000000000E+00 -0.00000000000E+00 -0.45593999997E+02  0.45594000000E+02  0.51100000000E-03 0. -1.
    9900012    2    1    2    0    0  0.24695378997E+02  0.34051524452E+02 -0.10689027880E+02  0.47787269841E+02  0.19999994513E+02 0.  0.
        -12    1    1    2    0    0 -0.24695378997E+02 -0.34051524452E+02  0.10689027880E+02  0.43400730159E+02  0.00000000000E+00 0.  1.
         11    1    3    3    0    0  0.21768287791E+02  0.15101903272E+02 -0.68380902861E+01  0.27362114589E+02  0.51100000000E-03 0. -1.
        -11    1    3    3    0    0 -0.16164735713E+01  0.55549755885E+01 -0.21801590060E+01  0.61825426928E+01  0.51100000000E-03 0.  1.
         12    1    3    3    0    0  0.45435647772E+01  0.13394645592E+02 -0.16707785883E+01  0.14242612559E+02  0.00000000000E+00 0. -1.
</event>
<event>
 7    1  0.2756432E-009  0.4778727E+02  0.7816164E-02  0.1312668E+00
        -11   -1    0    0    0    0  0.00000000000E+00  0.00000000000E+00  0.45593999997E+02  0.45594000000E+02  0.51100000000E-03 0.  1.
         11   -1    0    0    0    0 -0.00000000000E+00 -0.00000000000E+00 -0.45593999997E+02  0.45594000000E+02  0.51100000000E-03 0. -1.
    9900012    2    1    2    0    0 -0.81135597949E+01  0.25371054263E+01 -0.42560032915E+02  0.47787272376E+02  0.20000006073E+02 0.  0.
        -12    1    1    2    0    0  0.81135597949E+01 -0.25371054263E+01  0.42560032915E+02  0.43400727624E+02  0.00000000000E+00 0.  1.
         11    1    3    3    0    0  0.13674915923E+01  0.53222297568E+00 -0.81117284726E+01  0.82433872665E+01  0.51100000000E-03 0. -1.
        -11    1    3    3    0    0 -0.93579500993E+01  0.79080512303E+01 -0.29112984296E+02  0.31585983588E+02  0.51100000000E-03 0.  1.
        -12    1    3    3    0    0 -0.12310128790E+00 -0.59031687797E+01 -0.53353201468E+01  0.79579015223E+01  0.00000000000E+00 0.  1.
</event>
<event>
 7    1  0.2756432E-009  0.4778729E+02  0.7816164E-02  0.1312668E+00
        -11   -1    0    0    0    0  0.00000000000E+00  0.00000000000E+00  0.45593999997E+02  0.45594000000E+02  0.51100000000E-03 0. -1.
         11   -1    0    0    0    0 -0.00000000000E+00 -0.00000000000E+00 -0.45593999997E+02  0.45594000000E+02  0.51100000000E-03 0.  1.
    9900012    2    1    2    0    0  0.23020279871E+02  0.24637758964E+02 -0.27325249640E+02  0.47787288946E+02  0.20000081621E+02 0.  0.
        -12    1    1    2    0    0 -0.23020279871E+02 -0.24637758964E+02  0.27325249640E+02  0.43400711054E+02  0.00000000000E+00 0.  1.
         11    1    3    3    0    0  0.32225222743E+01  0.35153761847E+01 -0.62379518026E+01  0.78520419307E+01  0.51100000000E-03 0. -1.
        -11    1    3    3    0    0  0.17461678833E+02  0.97743478830E+01 -0.20010029862E+02  0.28299282668E+02  0.51100000000E-03 0.  1.
        -12    1    3    3    0    0  0.23360787637E+01  0.11348034896E+02 -0.10772679751E+01  0.11635964347E+02  0.00000000000E+00 0.  1.
</event>
<event>
 7    1  0.2756432E-009  0.4778727E+02  0.7816164E-02  0.1312668E+00
        -11   -1    0    0    0    0  0.00000000000E+00  0.00000000000E+00  0.45593999997E+02  0.45594000000E+02  0.51100000000E-03 0.  1.
         11   -1    0    0    0    0 -0.00000000000E+00 -0.00000000000E+00 -0.45593999997E+02  0.45594000000E+02  0.51100000000E-03 0. -1.
    9900012    2    1    2    0    0 -0.13411688921E+02 -0.39801523445E+02  0.10935655155E+02  0.47787271643E+02  0.20000002728E+02 0.  0.
        -12    1    1    2    0    0  0.13411688921E+02  0.39801523445E+02 -0.10935655155E+02  0.43400728357E+02  0.00000000000E+00 0.  1.
         11    1    3    3    0    0  0.11111563414E+01  0.29049724085E+00  0.33464268242E+01  0.35380262595E+01  0.51100000000E-03 0.  1.
        -11    1    3    3    0    0 -0.59827552036E+01 -0.12542322739E+02 -0.15755821464E+01  0.13985194989E+02  0.51100000000E-03 0. -1.
         12    1    3    3    0    0 -0.85400900593E+01 -0.27549697947E+02  0.91648104777E+01  0.30264050395E+02  0.00000000000E+00 0. -1.
</event>
<event>
 7    1  0.2756432E-009  0.4778727E+02  0.7816164E-02  0.1312668E+00
        -11   -1    0    0    0    0  0.00000000000E+00  0.00000000000E+00  0.45593999997E+02  0.45594000000E+02  0.51100000000E-03 0.  1.
         11   -1    0    0    0    0 -0.00000000000E+00 -0.00000000000E+00 -0.45593999997E+02  0.45594000000E+02  0.51100000000E-03 0. -1.
    9900012    2    1    2    0    0 -0.24473563067E+02 -0.13009987927E+02 -0.33397726868E+02  0.47787271492E+02  0.20000002040E+02 0.  0.
        -12    1    1    2    0    0  0.24473563067E+02  0.13009987927E+02  0.33397726868E+02  0.43400728508E+02  0.00000000000E+00 0.  1.
         11    1    3    3    0    0 -0.18741165326E+02 -0.12957839274E+02 -0.29365540623E+02  0.37168156435E+02  0.51100000000E-03 0. -1.
        -11    1    3    3    0    0  0.16879408179E+01 -0.14073780983E+01 -0.35040972241E+00  0.22254537855E+01  0.51100000000E-03 0.  1.
        -12    1    3    3    0    0 -0.74203385590E+01  0.13552294450E+01 -0.36817765231E+01  0.83936612717E+01  0.00000000000E+00 0.  1.
</event>
<event>
 7    1  0.2756432E-009  0.4778728E+02  0.7816164E-02  0.1312668E+00
        -11   -1    0    0    0    0  0.00000000000E+00  0.00000000000E+00  0.45593999997E+02  0.45594000000E+02  0.51100000000E-03 0. -1.
         11   -1    0    0    0    0 -0.00000000000E+00 -0.00000000000E+00 -0.45593999997E+02  0.45594000000E+02  0.51100000000E-03 0.  1.
    9900012    2    1    2    0    0  0.14890133492E+02 -0.19757616074E+01  0.40718578695E+02  0.47787281569E+02  0.20000047988E+02 0.  0.
        -12    1    1    2    0    0 -0.14890133492E+02  0.19757616074E+01 -0.40718578695E+02  0.43400718431E+02  0.00000000000E+00 0.  1.
         11    1    3    3    0    0 -0.29520826662E+01 -0.13000747432E+01  0.14539561580E+02  0.14893080192E+02  0.51100000000E-03 0. -1.
        -11    1    3    3    0    0  0.15314548073E+02  0.27014716135E+01  0.18838055114E+02  0.24427559278E+02  0.51100000000E-03 0.  1.
        -12    1    3    3    0    0  0.25276680850E+01 -0.33771584777E+01  0.73409620017E+01  0.84666420995E+01  0.00000000000E+00 0.  1.
</event>
<event>
 7    1  0.2756432E-009  0.4778727E+02  0.7816164E-02  0.1312668E+00
        -11   -1    0    0    0    0  0.00000000000E+00  0.00000000000E+00  0.45593999997E+02  0.45594000000E+02  0.51100000000E-03 0.  1.
         11   -1    0    0    0    0 -0.00000000000E+00 -0.00000000000E+00 -0.45593999997E+02  0.45594000000E+02  0.51100000000E-03 0. -1.
    9900012    2    1    2    0    0 -0.10786177902E+01  0.37776434374E+02 -0.21340119480E+02  0.47787272935E+02  0.20000008618E+02 0.  0.
        -12    1    1    2    0    0  0.10786177902E+01 -0.37776434374E+02  0.21340119480E+02  0.43400727065E+02  0.00000000000E+00 0.  1.
         11    1    3    3    0    0  0.21518250081E+01  0.22615299682E+02 -0.11429156896E+02  0.25430449429E+02  0.51100000000E-03 0. -1.
        -11    1    3    3    0    0 -0.10678877627E+01  0.14336419818E+02 -0.24987673351E+01  0.14591681052E+02  0.51100000000E-03 0.  1.
         12    1    3    3    0    0 -0.21625550356E+01  0.82471487439E+00 -0.74121952491E+01  0.77651424531E+01  0.00000000000E+00 0. -1.
</event>
<event>
 7    1  0.2756432E-009  0.4778727E+02  0.7816164E-02  0.1312668E+00
        -11   -1    0    0    0    0  0.00000000000E+00  0.00000000000E+00  0.45593999997E+02  0.45594000000E+02  0.51100000000E-03 0.  1.
         11   -1    0    0    0    0 -0.00000000000E+00 -0.00000000000E+00 -0.45593999997E+02  0.45594000000E+02  0.51100000000E-03 0. -1.
    9900012    2    1    2    0    0 -0.11239131068E+02  0.97771744035E+01 -0.40764102593E+02  0.47787271127E+02  0.20000000376E+02 0.  0.
        -12    1    1    2    0    0  0.11239131068E+02 -0.97771744035E+01  0.40764102593E+02  0.43400728873E+02  0.00000000000E+00 0.  1.
         11    1    3    3    0    0 -0.12906229284E+02  0.81432197524E+01 -0.20653232105E+02  0.25679540084E+02  0.51100000000E-03 0. -1.
        -11    1    3    3    0    0 -0.14025984500E+01 -0.28922416245E+01 -0.42379782838E+01  0.53190980646E+01  0.51100000000E-03 0.  1.
         12    1    3    3    0    0  0.30696966661E+01  0.45261962756E+01 -0.15872892205E+02  0.16788632978E+02  0.00000000000E+00 0. -1.
</event>
<event>
 7    1  0.2756432E-009  0.4778727E+02  0.7816164E-02  0.1312668E+00
        -11   -1    0    0    0    0  0.00000000000E+00  0.00000000000E+00  0.45593999997E+02  0.45594000000E+02  0.51100000000E-03 0. -1.
         11   -1    0    0    0    0 -0.00000000000E+00 -0.00000000000E+00 -0.45593999997E+02  0.45594000000E+02  0.51100000000E-03 0.  1.
    9900012    2    1    2    0    0 -0.88020567792E+01 -0.29765587434E+02  0.30334084670E+02  0.47787273144E+02  0.20000009573E+02 0.  0.
        -12    1    1    2    0    0  0.88020567792E+01  0.29765587434E+02 -0.30334084670E+02  0.43400726856E+02  0.00000000000E+00 0.  1.
         11    1    3    3    0    0  0.35021475011E+01 -0.81724732223E+01  0.62043447447E+01  0.10841967057E+02  0.51100000000E-03 0. -1.
        -11    1    3    3    0    0 -0.10113359717E+02 -0.18668735548E+02  0.12241725151E+02  0.24508397880E+02  0.51100000000E-03 0.  1.
        -12    1    3    3    0    0 -0.21908445629E+01 -0.29243786642E+01  0.11888014775E+02  0.12436908207E+02  0.00000000000E+00 0.  1.
</event>
<event>
 7    1  0.2756432E-009  0.4778729E+02  0.7816164E-02  0.1312668E+00
        -11   -1    0    0    0    0  0.00000000000E+00  0.00000000000E+00  0.45593999997E+02  0.45594000000E+02  0.51100000000E-03 0.  1.
         11   -1    0    0    0    0 -0.00000000000E+00 -0.00000000000E+00 -0.45593999997E+02  0.45594000000E+02  0.51100000000E-03 0. -1.
    9900012    2    1    2    0    0 -0.36524455725E+01  0.25483099649E+02 -0.34941281812E+02  0.47787286860E+02  0.20000072108E+02 0.  0.
        -12    1    1    2    0    0  0.36524455725E+01 -0.25483099649E+02  0.34941281812E+02  0.43400713140E+02  0.00000000000E+00 0.  1.
         11    1    3    3    0    0 -0.74457163744E+01  0.76024434726E+01 -0.82806480445E+01  0.13483507384E+02  0.51100000000E-03 0. -1.
        -11    1    3    3    0    0  0.77558045387E+01  0.10030717758E+02 -0.17444017550E+02  0.21565285792E+02  0.51100000000E-03 0.  1.
        -12    1    3    3    0    0 -0.39625337367E+01  0.78499384193E+01 -0.92166162181E+01  0.12738493683E+02  0.00000000000E+00 0.  1.
</event>
<event>
 7    1  0.2756432E-009  0.4778727E+02  0.7816164E-02  0.1312668E+00
        -11   -1    0    0    0    0  0.00000000000E+00  0.00000000000E+00  0.45593999997E+02  0.45594000000E+02  0.51100000000E-03 0.  1.
         11   -1    0    0    0    0 -0.00000000000E+00 -0.00000000000E+00 -0.45593999997E+02  0.45594000000E+02  0.51100000000E-03 0. -1.
    9900012    2    1    2    0    0 -0.56865525830E+01  0.22656693512E+02 -0.36578141452E+02  0.47787273356E+02  0.20000010537E+02 0.  0.
        -12    1    1    2    0    0  0.56865525830E+01 -0.22656693512E+02  0.36578141452E+02  0.43400726644E+02  0.00000000000E+00 0.  1.
         11    1    3    3    0    0  0.41085948463E+01  0.80431468900E+01 -0.46027435192E+01  0.10136962645E+02  0.51100000000E-03 0. -1.
        -11    1    3    3    0    0 -0.93445349421E+01  0.15928246639E+02 -0.29267316237E+02  0.34606432556E+02  0.51100000000E-03 0.  1.
         12    1    3    3    0    0 -0.45061248714E+00 -0.13147000168E+01 -0.27080816956E+01  0.30438781543E+01  0.00000000000E+00 0. -1.
</event>
<event>
 7    1  0.2756432E-009  0.4778727E+02  0.7816164E-02  0.1312668E+00
        -11   -1    0    0    0    0  0.00000000000E+00  0.00000000000E+00  0.45593999997E+02  0.45594000000E+02  0.51100000000E-03 0. -1.
         11   -1    0    0    0    0 -0.00000000000E+00 -0.00000000000E+00 -0.45593999997E+02  0.45594000000E+02  0.51100000000E-03 0.  1.
    9900012    2    1    2    0    0  0.42021871944E-01 -0.37815487270E+02  0.21298127021E+02  0.47787273533E+02  0.20000011345E+02 0.  0.
        -12    1    1    2    0    0 -0.42021871944E-01  0.37815487270E+02 -0.21298127021E+02  0.43400726467E+02  0.00000000000E+00 0.  1.
         11    1    3    3    0    0  0.51478466510E+01 -0.16761682615E+02  0.43876361859E+01  0.18075001543E+02  0.51100000000E-03 0. -1.
        -11    1    3    3    0    0  0.36204609039E+01 -0.64800096436E+01  0.57177443280E+01  0.93696778279E+01  0.51100000000E-03 0.  1.
        -12    1    3    3    0    0 -0.87262856829E+01 -0.14573795011E+02  0.11192746507E+02  0.20342594161E+02  0.00000000000E+00 0.  1.
</event>
<event>
 7    1  0.2756432E-009  0.4778727E+02  0.7816164E-02  0.1312668E+00
        -11   -1    0    0    0    0  0.00000000000E+00  0.00000000000E+00  0.45593999997E+02  0.45594000000E+02  0.51100000000E-03 0. -1.
         11   -1    0    0    0    0 -0.00000000000E+00 -0.00000000000E+00 -0.45593999997E+02  0.45594000000E+02  0.51100000000E-03 0.  1.
    9900012    2    1    2    0    0  0.21273168144E+02  0.34178580868E+02  0.16214206033E+02  0.47787267860E+02  0.19999985479E+02 0.  0.
        -12    1    1    2    0    0 -0.21273168144E+02 -0.34178580868E+02 -0.16214206033E+02  0.43400732140E+02  0.00000000000E+00 0.  1.
         11    1    3    3    0    0  0.16307331234E+02  0.16481515386E+02  0.13161918745E+02  0.26660935968E+02  0.51100000000E-03 0.  1.
        -11    1    3    3    0    0  0.49551636283E+01  0.18975573572E+02  0.30509464157E+01  0.19847778548E+02  0.51100000000E-03 0. -1.
        -12    1    3    3    0    0  0.10673281893E-01 -0.12785080902E+01  0.13408725169E-02  0.12785533440E+01  0.00000000000E+00 0.  1.
</event>
<event>
 7    1  0.2756432E-009  0.4778727E+02  0.7816164E-02  0.1312668E+00
        -11   -1    0    0    0    0  0.00000000000E+00  0.00000000000E+00  0.45593999997E+02  0.45594000000E+02  0.51100000000E-03 0. -1.
         11   -1    0    0    0    0 -0.00000000000E+00 -0.00000000000E+00 -0.45593999997E+02  0.45594000000E+02  0.51100000000E-03 0.  1.
    9900012    2    1    2    0    0  0.17403246014E+02 -0.11585140937E+02  0.38033340007E+02  0.47787269425E+02  0.19999992617E+02 0.  0.
        -12    1    1    2    0    0 -0.17403246014E+02  0.11585140937E+02 -0.38033340007E+02  0.43400730575E+02  0.00000000000E+00 0.  1.
         11    1    3    3    0    0  0.63869928520E+01  0.16248072250E+00  0.27551534688E+02  0.28282629679E+02  0.51100000000E-03 0.  1.
        -11    1    3    3    0    0  0.64282774065E+01 -0.87758573506E+01  0.79888260427E+01  0.13496657529E+02  0.51100000000E-03 0. -1.
        -12    1    3    3    0    0  0.45879757559E+01 -0.29717643092E+01  0.24929792764E+01  0.60079822169E+01  0.00000000000E+00 0.  1.
</event>
<event>
 7    1  0.2756432E-009  0.4778729E+02  0.7816164E-02  0.1312668E+00
        -11   -1    0    0    0    0  0.00000000000E+00  0.00000000000E+00  0.45593999997E+02  0.45594000000E+02  0.51100000000E-03 0.  1.
         11   -1    0    0    0    0 -0.00000000000E+00 -0.00000000000E+00 -0.45593999997E+02  0.45594000000E+02  0.51100000000E-03 0. -1.
    9900012    2    1    2    0    0  0.96572799699E+01  0.38437647821E+01 -0.42137682741E+02  0.47787286977E+02  0.20000072642E+02 0.  0.
        -12    1    1    2    0    0 -0.96572799699E+01 -0.38437647821E+01  0.42137682741E+02  0.43400713023E+02  0.00000000000E+00 0.  1.
         11    1    3    3    0    0  0.30341717549E+01 -0.50606480150E+00  0.11341465648E+01  0.32785040054E+01  0.51100000000E-03 0. -1.
        -11    1    3    3    0    0  0.54922570866E+01  0.41768615066E+01 -0.19070156807E+02  0.20280087299E+02  0.51100000000E-03 0.  1.
         12    1    3    3    0    0  0.11308511284E+01  0.17296807703E+00 -0.24201672499E+02  0.24228695672E+02  0.00000000000E+00 0. -1.
</event>
<event>
 7    1  0.2756432E-009  0.4778727E+02  0.7816164E-02  0.1312668E+00
        -11   -1    0    0    0    0  0.00000000000E+00  0.00000000000E+00  0.45593999997E+02  0.45594000000E+02  0.51100000000E-03 0.  1.
         11   -1    0    0    0    0 -0.00000000000E+00 -0.00000000000E+00 -0.45593999997E+02  0.45594000000E+02  0.51100000000E-03 0. -1.
    9900012    2    1    2    0    0 -0.11391647556E+02  0.40831117646E+02  0.93098644162E+01  0.47787269848E+02  0.19999994547E+02 0.  0.
        -12    1    1    2    0    0  0.11391647556E+02 -0.40831117646E+02 -0.93098644162E+01  0.43400730152E+02  0.00000000000E+00 0.  1.
         11    1    3    3    0    0  0.65648461798E+00  0.13592994386E+02 -0.47752607095E-01  0.13608921669E+02  0.51100000000E-03 0. -1.
        -11    1    3    3    0    0 -0.93928316744E+01  0.56021342075E+01  0.46129083229E+01  0.11869630070E+02  0.51100000000E-03 0.  1.
        -12    1    3    3    0    0 -0.26553004993E+01  0.21635989053E+02  0.47447087004E+01  0.22308718109E+02  0.00000000000E+00 0.  1.
</event>
<event>
 7    1  0.2756432E-009  0.4778727E+02  0.7816164E-02  0.1312668E+00
        -11   -1    0    0    0    0  0.00000000000E+00  0.00000000000E+00  0.45593999997E+02  0.45594000000E+02  0.51100000000E-03 0. -1.
         11   -1    0    0    0    0 -0.00000000000E+00 -0.00000000000E+00 -0.45593999997E+02  0.45594000000E+02  0.51100000000E-03 0.  1.
    9900012    2    1    2    0    0 -0.16115683328E+02 -0.37425559110E+02  0.14941070245E+02  0.47787270699E+02  0.19999998423E+02 0.  0.
        -12    1    1    2    0    0  0.16115683328E+02  0.37425559110E+02 -0.14941070245E+02  0.43400729301E+02  0.00000000000E+00 0.  1.
         11    1    3    3    0    0 -0.44363446416E+01 -0.28934571861E+01  0.30745863006E+01  0.61242411324E+01  0.51100000000E-03 0. -1.
        -11    1    3    3    0    0 -0.91114230944E+00 -0.11793169288E+02  0.11504930276E+02  0.16500680080E+02  0.51100000000E-03 0.  1.
        -12    1    3    3    0    0 -0.10768196376E+02 -0.22738932636E+02  0.36155366800E+00  0.25162349486E+02  0.00000000000E+00 0.  1.
</event>
<event>
 7    1  0.2756432E-009  0.4778727E+02  0.7816164E-02  0.1312668E+00
        -11   -1    0    0    0    0  0.00000000000E+00  0.00000000000E+00  0.45593999997E+02  0.45594000000E+02  0.51100000000E-03 0.  1.
         11   -1    0    0    0    0 -0.00000000000E+00 -0.00000000000E+00 -0.45593999997E+02  0.45594000000E+02  0.51100000000E-03 0. -1.
    9900012    2    1    2    0    0  0.32036017228E+01  0.38770556457E+02  0.19240692679E+02  0.47787269974E+02  0.19999995121E+02 0.  0.
        -12    1    1    2    0    0 -0.32036017228E+01 -0.38770556457E+02 -0.19240692679E+02  0.43400730026E+02  0.00000000000E+00 0.  1.
         11    1    3    3    0    0 -0.47690550422E+01  0.10429479776E+02  0.63817725038E+01  0.13124212546E+02  0.51100000000E-03 0. -1.
        -11    1    3    3    0    0  0.88997539005E+01  0.11188992047E+02  0.22470443697E+01  0.14472331228E+02  0.51100000000E-03 0.  1.
        -12    1    3    3    0    0 -0.92709713550E+00  0.17152084635E+02  0.10611875806E+02  0.20190726201E+02  0.00000000000E+00 0.  1.
</event>
<event>
 7    1  0.2756432E-009  0.4778730E+02  0.7816164E-02  0.1312668E+00
        -11   -1    0    0    0    0  0.00000000000E+00  0.00000000000E+00  0.45593999997E+02  0.45594000000E+02  0.51100000000E-03 0.  1.
         11   -1    0    0    0    0 -0.00000000000E+00 -0.00000000000E+00 -0.45593999997E+02  0.45594000000E+02  0.51100000000E-03 0. -1.
    9900012    2    1    2    0    0  0.38260751227E+02 -0.50830428474E+01 -0.19846864752E+02  0.47787303582E+02  0.20000148352E+02 0.  0.
        -12    1    1    2    0    0 -0.38260751227E+02  0.50830428474E+01  0.19846864752E+02  0.43400696418E+02  0.00000000000E+00 0.  1.
         11    1    3    3    0    0  0.35631418093E+02 -0.77042602272E+01 -0.17344475741E+02  0.40370588551E+02  0.51100000000E-03 0. -1.
        -11    1    3    3    0    0  0.97408214280E+00  0.32041425455E+01  0.10035739581E+01  0.34960730003E+01  0.51100000000E-03 0.  1.
        -12    1    3    3    0    0  0.16552509916E+01 -0.58292516571E+00 -0.35059629690E+01  0.39206420308E+01  0.00000000000E+00 0.  1.
</event>
<event>
 7    1  0.2756432E-009  0.4778727E+02  0.7816164E-02  0.1312668E+00
        -11   -1    0    0    0    0  0.00000000000E+00  0.00000000000E+00  0.45593999997E+02  0.45594000000E+02  0.51100000000E-03 0.  1.
         11   -1    0    0    0    0 -0.00000000000E+00 -0.00000000000E+00 -0.45593999997E+02  0.45594000000E+02  0.51100000000E-03 0. -1.
    9900012    2    1    2    0    0  0.13287160797E+02 -0.72695779252E+01 -0.40672199706E+02  0.47787271501E+02  0.20000002084E+02 0.  0.
        -12    1    1    2    0    0 -0.13287160797E+02  0.72695779252E+01  0.40672199706E+02  0.43400728499E+02  0.00000000000E+00 0.  1.
         11    1    3    3    0    0  0.44282618088E+01  0.36038992387E+01 -0.11083725996E+02  0.12467821565E+02  0.51100000000E-03 0. -1.
        -11    1    3    3    0    0  0.10897172379E+02 -0.99315934103E+01 -0.29605829874E+02  0.33074009076E+02  0.51100000000E-03 0.  1.
        -12    1    3    3    0    0 -0.20382733908E+01 -0.94188375352E+00  0.17356164241E-01  0.22454408603E+01  0.00000000000E+00 0.  1.
</event>
<event>
 7    1  0.2756432E-009  0.4778727E+02  0.7816164E-02  0.1312668E+00
        -11   -1    0    0    0    0  0.00000000000E+00  0.00000000000E+00  0.45593999997E+02  0.45594000000E+02  0.51100000000E-03 0.  1.
         11   -1    0    0    0    0 -0.00000000000E+00 -0.00000000000E+00 -0.45593999997E+02  0.45594000000E+02  0.51100000000E-03 0. -1.
    9900012    2    1    2    0    0  0.31628406355E+02 -0.13880076625E+02 -0.26279467224E+02  0.47787274047E+02  0.20000013689E+02 0.  0.
        -12    1    1    2    0    0 -0.31628406355E+02  0.13880076625E+02  0.26279467224E+02  0.43400725953E+02  0.00000000000E+00 0.  1.
         11    1    3    3    0    0  0.28488863709E+02 -0.10364920361E+02 -0.14805162069E+02  0.33737808963E+02  0.51100000000E-03 0. -1.
        -11    1    3    3    0    0 -0.80934015103E+00 -0.40372117008E+01 -0.61130703025E+01  0.73704639326E+01  0.51100000000E-03 0.  1.
        -12    1    3    3    0    0  0.39488827974E+01  0.52205543641E+00 -0.53612348527E+01  0.66790011508E+01  0.00000000000E+00 0.  1.
</event>
<event>
 7    1  0.2756432E-009  0.4778727E+02  0.7816164E-02  0.1312668E+00
        -11   -1    0    0    0    0  0.00000000000E+00  0.00000000000E+00  0.45593999997E+02  0.45594000000E+02  0.51100000000E-03 0.  1.
         11   -1    0    0    0    0 -0.00000000000E+00 -0.00000000000E+00 -0.45593999997E+02  0.45594000000E+02  0.51100000000E-03 0. -1.
    9900012    2    1    2    0    0 -0.29807588792E+02  0.60956653107E+01 -0.30951147562E+02  0.47787273963E+02  0.20000013305E+02 0.  0.
        -12    1    1    2    0    0  0.29807588792E+02 -0.60956653107E+01  0.30951147562E+02  0.43400726037E+02  0.00000000000E+00 0.  1.
         11    1    3    3    0    0 -0.10836679084E+02  0.75109001156E+01 -0.12796119239E+02  0.18373565304E+02  0.51100000000E-03 0. -1.
        -11    1    3    3    0    0 -0.11489959367E+02 -0.72534896880E+01 -0.11762978854E+02  0.17972199384E+02  0.51100000000E-03 0.  1.
        -12    1    3    3    0    0 -0.74809503408E+01  0.58382548831E+01 -0.63920494690E+01  0.11441509275E+02  0.00000000000E+00 0.  1.
</event>
<event>
 7    1  0.2756432E-009  0.4778727E+02  0.7816164E-02  0.1312668E+00
        -11   -1    0    0    0    0  0.00000000000E+00  0.00000000000E+00  0.45593999997E+02  0.45594000000E+02  0.51100000000E-03 0.  1.
         11   -1    0    0    0    0 -0.00000000000E+00 -0.00000000000E+00 -0.45593999997E+02  0.45594000000E+02  0.51100000000E-03 0. -1.
    9900012    2    1    2    0    0 -0.24719061929E+02 -0.11699832253E+02 -0.33700223284E+02  0.47787272509E+02  0.20000006677E+02 0.  0.
        -12    1    1    2    0    0  0.24719061929E+02  0.11699832253E+02  0.33700223284E+02  0.43400727491E+02  0.00000000000E+00 0.  1.
         11    1    3    3    0    0  0.13279456938E+00 -0.69137210833E+01 -0.14194433618E+02  0.15789208961E+02  0.51100000000E-03 0. -1.
        -11    1    3    3    0    0 -0.13957523712E+02 -0.23246077202E+01 -0.11859582481E+02  0.18462555785E+02  0.51100000000E-03 0.  1.
         12    1    3    3    0    0 -0.10894332786E+02 -0.24615034493E+01 -0.76462071846E+01  0.13535507763E+02  0.00000000000E+00 0. -1.
</event>
<event>
 7    1  0.2756432E-009  0.4778729E+02  0.7816164E-02  0.1312668E+00
        -11   -1    0    0    0    0  0.00000000000E+00  0.00000000000E+00  0.45593999997E+02  0.45594000000E+02  0.51100000000E-03 0.  1.
         11   -1    0    0    0    0 -0.00000000000E+00 -0.00000000000E+00 -0.45593999997E+02  0.45594000000E+02  0.51100000000E-03 0. -1.
    9900012    2    1    2    0    0  0.38700858456E+02  0.13469379218E+02 -0.14298282095E+02  0.47787291566E+02  0.20000093564E+02 0.  0.
        -12    1    1    2    0    0 -0.38700858456E+02 -0.13469379218E+02  0.14298282095E+02  0.43400708434E+02  0.00000000000E+00 0.  1.
         11    1    3    3    0    0  0.57657826779E+01  0.93532494246E+01 -0.26375790987E+01  0.11299749929E+02  0.51100000000E-03 0. -1.
        -11    1    3    3    0    0  0.21849556640E+02  0.36597332794E+01 -0.28839334951E+01  0.22340855975E+02  0.51100000000E-03 0.  1.
         12    1    3    3    0    0  0.11085519138E+02  0.45639651454E+00 -0.87767695014E+01  0.14146685662E+02  0.00000000000E+00 0. -1.
</event>
<event>
 7    1  0.2756432E-009  0.4778727E+02  0.7816164E-02  0.1312668E+00
        -11   -1    0    0    0    0  0.00000000000E+00  0.00000000000E+00  0.45593999997E+02  0.45594000000E+02  0.51100000000E-03 0.  1.
         11   -1    0    0    0    0 -0.00000000000E+00 -0.00000000000E+00 -0.45593999997E+02  0.45594000000E+02  0.51100000000E-03 0. -1.
    9900012    2    1    2    0    0 -0.27291350705E+02 -0.16302246046E+02 -0.29547286557E+02  0.47787271984E+02  0.20000004284E+02 0.  0.
        -12    1    1    2    0    0  0.27291350705E+02  0.16302246046E+02  0.29547286557E+02  0.43400728016E+02  0.00000000000E+00 0.  1.
         11    1    3    3    0    0 -0.12774818820E+02 -0.89893629189E+01 -0.81654436480E+01  0.17626091790E+02  0.51100000000E-03 0. -1.
        -11    1    3    3    0    0 -0.88407050099E+01  0.25783927412E+01 -0.13327461298E+02  0.16199611079E+02  0.51100000000E-03 0.  1.
        -12    1    3    3    0    0 -0.56758268747E+01 -0.98912758679E+01 -0.80543816116E+01  0.13961569115E+02  0.00000000000E+00 0.  1.
</event>
<event>
 7    1  0.2756432E-009  0.4778727E+02  0.7816164E-02  0.1312668E+00
        -11   -1    0    0    0    0  0.00000000000E+00  0.00000000000E+00  0.45593999997E+02  0.45594000000E+02  0.51100000000E-03 0. -1.
         11   -1    0    0    0    0 -0.00000000000E+00 -0.00000000000E+00 -0.45593999997E+02  0.45594000000E+02  0.51100000000E-03 0.  1.
    9900012    2    1    2    0    0 -0.35476700784E+01 -0.14105406619E+02  0.40891010257E+02  0.47787272141E+02  0.20000004999E+02 0.  0.
        -12    1    1    2    0    0  0.35476700784E+01  0.14105406619E+02 -0.40891010257E+02  0.43400727859E+02  0.00000000000E+00 0.  1.
         11    1    3    3    0    0  0.13626334268E+01  0.88210495476E+00  0.21443834930E+02  0.21505183928E+02  0.51100000000E-03 0.  1.
        -11    1    3    3    0    0 -0.29669209889E+01 -0.12130868574E+02  0.19085402037E+02  0.22808181946E+02  0.51100000000E-03 0. -1.
        -12    1    3    3    0    0 -0.19433825163E+01 -0.28566430003E+01  0.36177328962E+00  0.34739062666E+01  0.00000000000E+00 0.  1.
</event>
<event>
 7    1  0.2756432E-009  0.4778727E+02  0.7816164E-02  0.1312668E+00
        -11   -1    0    0    0    0  0.00000000000E+00  0.00000000000E+00  0.45593999997E+02  0.45594000000E+02  0.51100000000E-03 0.  1.
         11   -1    0    0    0    0 -0.00000000000E+00 -0.00000000000E+00 -0.45593999997E+02  0.45594000000E+02  0.51100000000E-03 0. -1.
    9900012    2    1    2    0    0  0.96033764722E+01  0.31510803490E+02 -0.28257173629E+02  0.47787269156E+02  0.19999991391E+02 0.  0.
        -12    1    1    2    0    0 -0.96033764722E+01 -0.31510803490E+02  0.28257173629E+02  0.43400730844E+02  0.00000000000E+00 0.  1.
         11    1    3    3    0    0  0.59707123852E+01  0.16671533782E+00 -0.22807731976E+01  0.63936786775E+01  0.51100000000E-03 0. -1.
        -11    1    3    3    0    0 -0.18963790754E+01  0.99100720091E+01 -0.83798783597E+01  0.13115949924E+02  0.51100000000E-03 0.  1.
         12    1    3    3    0    0  0.55290431624E+01  0.21434016143E+02 -0.17596522072E+02  0.28277640555E+02  0.00000000000E+00 0. -1.
</event>
<event>
 7    1  0.2756432E-009  0.4778727E+02  0.7816164E-02  0.1312668E+00
        -11   -1    0    0    0    0  0.00000000000E+00  0.00000000000E+00  0.45593999997E+02  0.45594000000E+02  0.51100000000E-03 0.  1.
         11   -1    0    0    0    0 -0.00000000000E+00 -0.00000000000E+00 -0.45593999997E+02  0.45594000000E+02  0.51100000000E-03 0. -1.
    9900012    2    1    2    0    0 -0.36840974540E+02  0.73049527537E+01 -0.21748640352E+02  0.47787273082E+02  0.20000009292E+02 0.  0.
        -12    1    1    2    0    0  0.36840974540E+02 -0.73049527537E+01  0.21748640352E+02  0.43400726918E+02  0.00000000000E+00 0.  1.
         11    1    3    3    0    0 -0.21016789827E+02  0.94522313852E+01 -0.10002988702E+02  0.25121901123E+02  0.51100000000E-03 0. -1.
        -11    1    3    3    0    0 -0.29374801313E+01  0.31681022042E+01  0.17446635871E+00  0.43238986887E+01  0.51100000000E-03 0.  1.
         12    1    3    3    0    0 -0.12886704582E+02 -0.53153808357E+01 -0.11920118008E+02  0.18341473271E+02  0.00000000000E+00 0. -1.
</event>
<event>
 7    1  0.2756432E-009  0.4778727E+02  0.7816164E-02  0.1312668E+00
        -11   -1    0    0    0    0  0.00000000000E+00  0.00000000000E+00  0.45593999997E+02  0.45594000000E+02  0.51100000000E-03 0. -1.
         11   -1    0    0    0    0 -0.00000000000E+00 -0.00000000000E+00 -0.45593999997E+02  0.45594000000E+02  0.51100000000E-03 0.  1.
    9900012    2    1    2    0    0 -0.59811248736E+01 -0.16714507743E+02  0.39603974966E+02  0.47787268935E+02  0.19999990384E+02 0.  0.
        -12    1    1    2    0    0  0.59811248736E+01  0.16714507743E+02 -0.39603974966E+02  0.43400731065E+02  0.00000000000E+00 0.  1.
         11    1    3    3    0    0 -0.11432305779E+02 -0.56646122503E+01  0.23256835026E+02  0.26526700192E+02  0.51100000000E-03 0. -1.
        -11    1    3    3    0    0  0.57560866839E+01 -0.53234029553E+01  0.88899065630E+01  0.11853336741E+02  0.51100000000E-03 0.  1.
         12    1    3    3    0    0 -0.30490577878E+00 -0.57264925371E+01  0.74572333769E+01  0.94072320025E+01  0.00000000000E+00 0. -1.
</event>
<event>
 7    1  0.2756432E-009  0.4778730E+02  0.7816164E-02  0.1312668E+00
        -11   -1    0    0    0    0  0.00000000000E+00  0.00000000000E+00  0.45593999997E+02  0.45594000000E+02  0.51100000000E-03 0.  1.
         11   -1    0    0    0    0 -0.00000000000E+00 -0.00000000000E+00 -0.45593999997E+02  0.45594000000E+02  0.51100000000E-03 0. -1.
    9900012    2    1    2    0    0 -0.41892963814E+02 -0.79994331599E+01 -0.80379988649E+01  0.47787299847E+02  0.20000131323E+02 0.  0.
        -12    1    1    2    0    0  0.41892963814E+02  0.79994331599E+01  0.80379988649E+01  0.43400700153E+02  0.00000000000E+00 0.  1.
         11    1    3    3    0    0 -0.32488249940E+02 -0.10673381191E+02 -0.80988063486E+01  0.35142539958E+02  0.51100000000E-03 0. -1.
        -11    1    3    3    0    0 -0.87243853058E+00  0.58463969693E+00 -0.31279441572E+01  0.32995435255E+01  0.51100000000E-03 0.  1.
         12    1    3    3    0    0 -0.85322753434E+01  0.20893083337E+01  0.31887516409E+01  0.93452163633E+01  0.00000000000E+00 0. -1.
</event>
<event>
 7    1  0.2756432E-009  0.4778727E+02  0.7816164E-02  0.1312668E+00
        -11   -1    0    0    0    0  0.00000000000E+00  0.00000000000E+00  0.45593999997E+02  0.45594000000E+02  0.51100000000E-03 0.  1.
         11   -1    0    0    0    0 -0.00000000000E+00 -0.00000000000E+00 -0.45593999997E+02  0.45594000000E+02  0.51100000000E-03 0. -1.
    9900012    2    1    2    0    0 -0.18977863317E+02  0.10846234034E+02 -0.37494306485E+02  0.47787272960E+02  0.20000008734E+02 0.  0.
        -12    1    1    2    0    0  0.18977863317E+02 -0.10846234034E+02  0.37494306485E+02  0.43400727040E+02  0.00000000000E+00 0.  1.
         11    1    3    3    0    0 -0.13109251452E+02  0.44575147459E+01 -0.10346358213E+02  0.17284936791E+02  0.51100000000E-03 0.  1.
        -11    1    3    3    0    0  0.25869673748E+01  0.29197005303E+01 -0.13685726343E+02  0.14230817165E+02  0.51100000000E-03 0. -1.
         12    1    3    3    0    0 -0.84555792401E+01  0.34690187577E+01 -0.13462221929E+02  0.16271519003E+02  0.00000000000E+00 0. -1.
</event>
<event>
 7    1  0.2756432E-009  0.4778727E+02  0.7816164E-02  0.1312668E+00
        -11   -1    0    0    0    0  0.00000000000E+00  0.00000000000E+00  0.45593999997E+02  0.45594000000E+02  0.51100000000E-03 0.  1.
         11   -1    0    0    0    0 -0.00000000000E+00 -0.00000000000E+00 -0.45593999997E+02  0.45594000000E+02  0.51100000000E-03 0. -1.
    9900012    2    1    2    0    0 -0.50569303608E+01 -0.33644884534E+02 -0.26945733995E+02  0.47787269816E+02  0.19999994399E+02 0.  0.
        -12    1    1    2    0    0  0.50569303608E+01  0.33644884534E+02  0.26945733995E+02  0.43400730184E+02  0.00000000000E+00 0.  1.
         11    1    3    3    0    0  0.14946139800E+01 -0.21033946959E+02 -0.23097773178E+02  0.31275676199E+02  0.51100000000E-03 0. -1.
        -11    1    3    3    0    0 -0.64131168973E+01 -0.70542686835E+01  0.35933335639E+00  0.95404347763E+01  0.51100000000E-03 0.  1.
        -12    1    3    3    0    0 -0.13842744348E+00 -0.55566688917E+01 -0.42072941725E+01  0.69711588408E+01  0.00000000000E+00 0.  1.
</event>
<event>
 7    1  0.2756432E-009  0.4778727E+02  0.7816164E-02  0.1312668E+00
        -11   -1    0    0    0    0  0.00000000000E+00  0.00000000000E+00  0.45593999997E+02  0.45594000000E+02  0.51100000000E-03 0.  1.
         11   -1    0    0    0    0 -0.00000000000E+00 -0.00000000000E+00 -0.45593999997E+02  0.45594000000E+02  0.51100000000E-03 0. -1.
    9900012    2    1    2    0    0 -0.41273965505E+01 -0.71011718422E+01 -0.42616444145E+02  0.47787270105E+02  0.19999995717E+02 0.  0.
        -12    1    1    2    0    0  0.41273965505E+01  0.71011718422E+01  0.42616444145E+02  0.43400729895E+02  0.00000000000E+00 0.  1.
         11    1    3    3    0    0 -0.81341910465E+01 -0.10898997185E+02 -0.34443852022E+02  0.37031502076E+02  0.51100000000E-03 0. -1.
        -11    1    3    3    0    0  0.31232785101E+01  0.27068795673E+01 -0.83731745230E+01  0.93376719528E+01  0.51100000000E-03 0.  1.
         12    1    3    3    0    0  0.88351598591E+00  0.10909457757E+01  0.20058239970E+00  0.14180960764E+01  0.00000000000E+00 0. -1.
</event>
<event>
 7    1  0.2756432E-009  0.4778727E+02  0.7816164E-02  0.1312668E+00
        -11   -1    0    0    0    0  0.00000000000E+00  0.00000000000E+00  0.45593999997E+02  0.45594000000E+02  0.51100000000E-03 0.  1.
         11   -1    0    0    0    0 -0.00000000000E+00 -0.00000000000E+00 -0.45593999997E+02  0.45594000000E+02  0.51100000000E-03 0. -1.
    9900012    2    1    2    0    0  0.36111743071E+02  0.20153836291E+02 -0.13167701202E+02  0.47787268902E+02  0.19999990233E+02 0.  0.
        -12    1    1    2    0    0 -0.36111743071E+02 -0.20153836291E+02  0.13167701202E+02  0.43400731098E+02  0.00000000000E+00 0.  1.
         11    1    3    3    0    0  0.16137806621E+02  0.56910894620E+01  0.96335781680E+00  0.17139001148E+02  0.51100000000E-03 0. -1.
        -11    1    3    3    0    0  0.16469838560E+02  0.16357373665E+02 -0.12096475306E+02  0.26175254927E+02  0.51100000000E-03 0.  1.
        -12    1    3    3    0    0  0.35040978903E+01 -0.18946268357E+01 -0.20345837128E+01  0.44730128276E+01  0.00000000000E+00 0.  1.
</event>
<event>
 7    1  0.2756432E-009  0.4778729E+02  0.7816164E-02  0.1312668E+00
        -11   -1    0    0    0    0  0.00000000000E+00  0.00000000000E+00  0.45593999997E+02  0.45594000000E+02  0.51100000000E-03 0. -1.
         11   -1    0    0    0    0 -0.00000000000E+00 -0.00000000000E+00 -0.45593999997E+02  0.45594000000E+02  0.51100000000E-03 0.  1.
    9900012    2    1    2    0    0 -0.28224767843E+02 -0.17940442985E+01  0.32920595694E+02  0.47787288766E+02  0.20000080800E+02 0.  0.
        -12    1    1    2    0    0  0.28224767843E+02  0.17940442985E+01 -0.32920595694E+02  0.43400711234E+02  0.00000000000E+00 0.  1.
         11    1    3    3    0    0 -0.17452548294E+01 -0.15354545141E+01  0.15659893407E+02  0.15831481193E+02  0.51100000000E-03 0. -1.
        -11    1    3    3    0    0 -0.11482257147E+02  0.62687058590E+00  0.48950159838E+01  0.12497854922E+02  0.51100000000E-03 0.  1.
         12    1    3    3    0    0 -0.14997255867E+02 -0.88546037033E+00  0.12365686303E+02  0.19457952651E+02  0.00000000000E+00 0. -1.
</event>
<event>
 7    1  0.2756432E-009  0.4778727E+02  0.7816164E-02  0.1312668E+00
        -11   -1    0    0    0    0  0.00000000000E+00  0.00000000000E+00  0.45593999997E+02  0.45594000000E+02  0.51100000000E-03 0.  1.
         11   -1    0    0    0    0 -0.00000000000E+00 -0.00000000000E+00 -0.45593999997E+02  0.45594000000E+02  0.51100000000E-03 0. -1.
    9900012    2    1    2    0    0  0.34637742703E+02 -0.25096965912E+02 -0.73479487429E+01  0.47787271109E+02  0.20000000294E+02 0.  0.
        -12    1    1    2    0    0 -0.34637742703E+02  0.25096965912E+02  0.73479487429E+01  0.43400728891E+02  0.00000000000E+00 0.  1.
         11    1    3    3    0    0  0.69020878132E+01 -0.74402056086E+01 -0.29789486325E+01  0.10576843144E+02  0.51100000000E-03 0. -1.
        -11    1    3    3    0    0  0.24495453669E+02 -0.10797188234E+02 -0.90951053082E+01  0.28272379897E+02  0.51100000000E-03 0.  1.
        -12    1    3    3    0    0  0.32402012211E+01 -0.68595720694E+01  0.47261051979E+01  0.89380480682E+01  0.00000000000E+00 0.  1.
</event>
<event>
 7    1  0.3547965E-009  0.4778727E+02  0.7816164E-02  0.1312668E+00
        -11   -1    0    0    0    0  0.00000000000E+00  0.00000000000E+00  0.45593999997E+02  0.45594000000E+02  0.51100000000E-03 0. -1.
         11   -1    0    0    0    0 -0.00000000000E+00 -0.00000000000E+00 -0.45593999997E+02  0.45594000000E+02  0.51100000000E-03 0.  1.
    9900012    2    1    2    0    0 -0.10069075141E+02  0.90470620181E+01  0.41235758255E+02  0.47787270003E+02  0.19999995253E+02 0.  0.
        -12    1    1    2    0    0  0.10069075141E+02 -0.90470620181E+01 -0.41235758255E+02  0.43400729997E+02  0.00000000000E+00 0.  1.
         11    1    3    3    0    0 -0.93930944991E+01  0.14135106085E+01  0.18301951549E+02  0.20620127722E+02  0.51100000000E-03 0. -1.
        -11    1    3    3    0    0  0.89263777719E+00  0.10196985695E+02  0.21552302863E+02  0.23859528043E+02  0.51100000000E-03 0.  1.
        -12    1    3    3    0    0 -0.15686184192E+01 -0.25634342859E+01  0.13815038442E+01  0.33076142391E+01  0.00000000000E+00 0.  1.
</event>
<event>
 7    1  0.2756432E-009  0.4778727E+02  0.7816164E-02  0.1312668E+00
        -11   -1    0    0    0    0  0.00000000000E+00  0.00000000000E+00  0.45593999997E+02  0.45594000000E+02  0.51100000000E-03 0. -1.
         11   -1    0    0    0    0 -0.00000000000E+00 -0.00000000000E+00 -0.45593999997E+02  0.45594000000E+02  0.51100000000E-03 0.  1.
    9900012    2    1    2    0    0 -0.49841128577E+01  0.11572786841E+02  0.41531347410E+02  0.47787267357E+02  0.19999983189E+02 0.  0.
        -12    1    1    2    0    0  0.49841128577E+01 -0.11572786841E+02 -0.41531347410E+02  0.43400732643E+02  0.00000000000E+00 0.  1.
         11    1    3    3    0    0 -0.52535734473E+00 -0.31707224710E+01  0.86875619155E+01  0.92630024088E+01  0.51100000000E-03 0. -1.
        -11    1    3    3    0    0 -0.73122504397E+01  0.98025736309E+01  0.12879561686E+02  0.17760702851E+02  0.51100000000E-03 0.  1.
        -12    1    3    3    0    0  0.28534949267E+01  0.49409356806E+01  0.19964223808E+02  0.20763562097E+02  0.00000000000E+00 0.  1.
</event>
<event>
 7    1  0.2756432E-009  0.4778727E+02  0.7816164E-02  0.1312668E+00
        -11   -1    0    0    0    0  0.00000000000E+00  0.00000000000E+00  0.45593999997E+02  0.45594000000E+02  0.51100000000E-03 0.  1.
         11   -1    0    0    0    0 -0.00000000000E+00 -0.00000000000E+00 -0.45593999997E+02  0.45594000000E+02  0.51100000000E-03 0. -1.
    9900012    2    1    2    0    0 -0.27015654543E+02 -0.33362626735E+02 -0.63806965730E+01  0.47787265653E+02  0.19999975419E+02 0.  0.
        -12    1    1    2    0    0  0.27015654543E+02  0.33362626735E+02  0.63806965730E+01  0.43400734347E+02  0.00000000000E+00 0.  1.
         11    1    3    3    0    0 -0.20143281683E+02 -0.15095725979E+02 -0.77377486103E+01  0.26334492469E+02  0.51100000000E-03 0. -1.
        -11    1    3    3    0    0 -0.10724519838E+01 -0.64804614003E+01  0.44794563147E+01  0.79506013832E+01  0.51100000000E-03 0.  1.
        -12    1    3    3    0    0 -0.57999208768E+01 -0.11786439357E+02 -0.31224042774E+01  0.13502171801E+02  0.00000000000E+00 0.  1.
</event>
<event>
 7    1  0.2756432E-009  0.4778728E+02  0.7816164E-02  0.1312668E+00
        -11   -1    0    0    0    0  0.00000000000E+00  0.00000000000E+00  0.45593999997E+02  0.45594000000E+02  0.51100000000E-03 0.  1.
         11   -1    0    0    0    0 -0.00000000000E+00 -0.00000000000E+00 -0.45593999997E+02  0.45594000000E+02  0.51100000000E-03 0. -1.
    9900012    2    1    2    0    0 -0.31153828811E+02 -0.18587996819E+02 -0.23823260174E+02  0.47787281105E+02  0.20000045868E+02 0.  0.
        -12    1    1    2    0    0  0.31153828811E+02  0.18587996819E+02  0.23823260174E+02  0.43400718895E+02  0.00000000000E+00 0.  1.
         11    1    3    3    0    0 -0.16942598899E+02 -0.11211743405E+02 -0.49773972051E+01  0.20917201793E+02  0.51100000000E-03 0. -1.
        -11    1    3    3    0    0  0.50857187459E+00 -0.22728560502E+01 -0.67674131340E+01  0.71569826578E+01  0.51100000000E-03 0.  1.
        -12    1    3    3    0    0 -0.14719801786E+02 -0.51033973647E+01 -0.12078449835E+02  0.19713096654E+02  0.00000000000E+00 0.  1.
</event>
<event>
 7    1  0.2756432E-009  0.4778725E+02  0.7816164E-02  0.1312668E+00
        -11   -1    0    0    0    0  0.00000000000E+00  0.00000000000E+00  0.45593999997E+02  0.45594000000E+02  0.51100000000E-03 0.  1.
         11   -1    0    0    0    0 -0.00000000000E+00 -0.00000000000E+00 -0.45593999997E+02  0.45594000000E+02  0.51100000000E-03 0. -1.
    9900012    2    1    2    0    0  0.36054687911E+02  0.22427720945E+02 -0.89823124126E+01  0.47787249736E+02  0.19999902847E+02 0.  0.
        -12    1    1    2    0    0 -0.36054687911E+02 -0.22427720945E+02  0.89823124126E+01  0.43400750264E+02  0.00000000000E+00 0.  1.
         11    1    3    3    0    0  0.20990168236E+02  0.97596315938E+01  0.54432558893E+00  0.23154564604E+02  0.51100000000E-03 0. -1.
        -11    1    3    3    0    0  0.93553583799E+01  0.66916387817E+01 -0.11360346818E+02  0.16166577872E+02  0.51100000000E-03 0.  1.
        -12    1    3    3    0    0  0.57091612960E+01  0.59764505696E+01  0.18337088165E+01  0.84661072600E+01  0.00000000000E+00 0.  1.
</event>
<event>
 7    1  0.2756432E-009  0.4778727E+02  0.7816164E-02  0.1312668E+00
        -11   -1    0    0    0    0  0.00000000000E+00  0.00000000000E+00  0.45593999997E+02  0.45594000000E+02  0.51100000000E-03 0. -1.
         11   -1    0    0    0    0 -0.00000000000E+00 -0.00000000000E+00 -0.45593999997E+02  0.45594000000E+02  0.51100000000E-03 0.  1.
    9900012    2    1    2    0    0  0.17672492729E+02 -0.63842837869E+01  0.39122206786E+02  0.47787272557E+02  0.20000006897E+02 0.  0.
        -12    1    1    2    0    0 -0.17672492729E+02  0.63842837869E+01 -0.39122206786E+02  0.43400727443E+02  0.00000000000E+00 0.  1.
         11    1    3    3    0    0  0.17491927360E+02  0.80585077800E+00  0.33094545876E+02  0.37441499506E+02  0.51100000000E-03 0. -1.
        -11    1    3    3    0    0  0.14266662727E+01 -0.27716646191E+01  0.45645447473E+01  0.55274379621E+01  0.51100000000E-03 0.  1.
         12    1    3    3    0    0 -0.12461009037E+01 -0.44184699457E+01  0.14631161629E+01  0.48183350890E+01  0.00000000000E+00 0. -1.
</event>
<event>
 7    1  0.2756432E-009  0.4778727E+02  0.7816164E-02  0.1312668E+00
        -11   -1    0    0    0    0  0.00000000000E+00  0.00000000000E+00  0.45593999997E+02  0.45594000000E+02  0.51100000000E-03 0.  1.
         11   -1    0    0    0    0 -0.00000000000E+00 -0.00000000000E+00 -0.45593999997E+02  0.45594000000E+02  0.51100000000E-03 0. -1.
    9900012    2    1    2    0    0  0.26459499184E+02 -0.30686916022E+02 -0.15550928045E+02  0.47787271030E+02  0.19999999936E+02 0.  0.
        -12    1    1    2    0    0 -0.26459499184E+02  0.30686916022E+02  0.15550928045E+02  0.43400728970E+02  0.00000000000E+00 0.  1.
         11    1    3    3    0    0  0.87420586438E+01 -0.20306012295E+01 -0.31130958438E+01  0.94993840158E+01  0.51100000000E-03 0. -1.
        -11    1    3    3    0    0  0.36283225428E+01 -0.16767948976E+02 -0.95302201599E+01  0.19625339077E+02  0.51100000000E-03 0.  1.
        -12    1    3    3    0    0  0.14089117997E+02 -0.11888365816E+02 -0.29076120412E+01  0.18662547937E+02  0.00000000000E+00 0.  1.
</event>
<event>
 7    1  0.2756432E-009  0.4778727E+02  0.7816164E-02  0.1312668E+00
        -11   -1    0    0    0    0  0.00000000000E+00  0.00000000000E+00  0.45593999997E+02  0.45594000000E+02  0.51100000000E-03 0.  1.
         11   -1    0    0    0    0 -0.00000000000E+00 -0.00000000000E+00 -0.45593999997E+02  0.45594000000E+02  0.51100000000E-03 0. -1.
    9900012    2    1    2    0    0 -0.35520303061E+02 -0.12490652449E+02 -0.21585062552E+02  0.47787271279E+02  0.20000001070E+02 0.  0.
        -12    1    1    2    0    0  0.35520303061E+02  0.12490652449E+02  0.21585062552E+02  0.43400728721E+02  0.00000000000E+00 0.  1.
         11    1    3    3    0    0 -0.30316970903E+01 -0.22498900970E+01 -0.11203374998E+01  0.39380641273E+01  0.51100000000E-03 0. -1.
        -11    1    3    3    0    0 -0.13428449251E+02 -0.44841196281E+01  0.14606243428E+01  0.14232498089E+02  0.51100000000E-03 0.  1.
        -12    1    3    3    0    0 -0.19060156720E+02 -0.57566427236E+01 -0.21925349395E+02  0.29616709063E+02  0.00000000000E+00 0.  1.
</event>
<event>
 7    1  0.2756432E-009  0.4778727E+02  0.7816164E-02  0.1312668E+00
        -11   -1    0    0    0    0  0.00000000000E+00  0.00000000000E+00  0.45593999997E+02  0.45594000000E+02  0.51100000000E-03 0.  1.
         11   -1    0    0    0    0 -0.00000000000E+00 -0.00000000000E+00 -0.45593999997E+02  0.45594000000E+02  0.51100000000E-03 0. -1.
    9900012    2    1    2    0    0 -0.13143925115E+02 -0.23726869971E+02 -0.33880618392E+02  0.47787269261E+02  0.19999991870E+02 0.  0.
        -12    1    1    2    0    0  0.13143925115E+02  0.23726869971E+02  0.33880618392E+02  0.43400730739E+02  0.00000000000E+00 0.  1.
         11    1    3    3    0    0 -0.38455626083E+01 -0.74031428605E+00 -0.15546289985E+02  0.16031954016E+02  0.51100000000E-03 0. -1.
        -11    1    3    3    0    0 -0.54241952242E+01 -0.45262152656E+01 -0.48884013964E+01  0.85909828853E+01  0.51100000000E-03 0.  1.
         12    1    3    3    0    0 -0.38741672820E+01 -0.18460340419E+02 -0.13445927011E+02  0.23164332360E+02  0.00000000000E+00 0. -1.
</event>
<event>
 7    1  0.2756432E-009  0.4778727E+02  0.7816164E-02  0.1312668E+00
        -11   -1    0    0    0    0  0.00000000000E+00  0.00000000000E+00  0.45593999997E+02  0.45594000000E+02  0.51100000000E-03 0.  1.
         11   -1    0    0    0    0 -0.00000000000E+00 -0.00000000000E+00 -0.45593999997E+02  0.45594000000E+02  0.51100000000E-03 0. -1.
    9900012    2    1    2    0    0 -0.33737294919E+02 -0.27222664514E+02  0.20843782733E+01  0.47787272305E+02  0.20000005747E+02 0.  0.
        -12    1    1    2    0    0  0.33737294919E+02  0.27222664514E+02 -0.20843782733E+01  0.43400727695E+02  0.00000000000E+00 0.  1.
         11    1    3    3    0    0 -0.31680284321E+02 -0.27105156601E+02 -0.12385410369E+01  0.41711675982E+02  0.51100000000E-03 0. -1.
        -11    1    3    3    0    0 -0.25615257021E+00  0.18959645093E+01  0.16554642539E+00  0.19203388867E+01  0.51100000000E-03 0.  1.
         12    1    3    3    0    0 -0.18008580280E+01 -0.20134724217E+01  0.31573728849E+01  0.41552574366E+01  0.00000000000E+00 0. -1.
</event>
<event>
 7    1  0.2756432E-009  0.4778726E+02  0.7816164E-02  0.1312668E+00
        -11   -1    0    0    0    0  0.00000000000E+00  0.00000000000E+00  0.45593999997E+02  0.45594000000E+02  0.51100000000E-03 0. -1.
         11   -1    0    0    0    0 -0.00000000000E+00 -0.00000000000E+00 -0.45593999997E+02  0.45594000000E+02  0.51100000000E-03 0.  1.
    9900012    2    1    2    0    0 -0.40657767184E+02  0.11061334720E+02  0.10402740920E+02  0.47787260641E+02  0.19999952569E+02 0.  0.
        -12    1    1    2    0    0  0.40657767184E+02 -0.11061334720E+02 -0.10402740920E+02  0.43400739359E+02  0.00000000000E+00 0.  1.
         11    1    3    3    0    0 -0.89390983106E+01 -0.36616992790E+01  0.31214569757E+01  0.10151798566E+02  0.51100000000E-03 0. -1.
        -11    1    3    3    0    0 -0.82149714916E+01  0.99389972061E+01  0.16703724836E+01  0.13002290820E+02  0.51100000000E-03 0.  1.
        -12    1    3    3    0    0 -0.23503697382E+02  0.47840367926E+01  0.56109114612E+01  0.24633171255E+02  0.00000000000E+00 0.  1.
</event>
<event>
 7    1  0.2756432E-009  0.4778728E+02  0.7816164E-02  0.1312668E+00
        -11   -1    0    0    0    0  0.00000000000E+00  0.00000000000E+00  0.45593999997E+02  0.45594000000E+02  0.51100000000E-03 0.  1.
         11   -1    0    0    0    0 -0.00000000000E+00 -0.00000000000E+00 -0.45593999997E+02  0.45594000000E+02  0.51100000000E-03 0. -1.
    9900012    2    1    2    0    0 -0.18721357560E+02  0.19364345417E+01 -0.39107336004E+02  0.47787277230E+02  0.20000028203E+02 0.  0.
        -12    1    1    2    0    0  0.18721357560E+02 -0.19364345417E+01  0.39107336004E+02  0.43400722770E+02  0.00000000000E+00 0.  1.
         11    1    3    3    0    0 -0.64215672709E+01 -0.76742322655E+01 -0.23184417956E+02  0.25251685158E+02  0.51100000000E-03 0. -1.
        -11    1    3    3    0    0 -0.79154686612E+01  0.65235036712E+01 -0.12518210959E+02  0.16183829897E+02  0.51100000000E-03 0.  1.
        -12    1    3    3    0    0 -0.43843216280E+01  0.30871631360E+01 -0.34047070884E+01  0.63517621747E+01  0.00000000000E+00 0.  1.
</event>
<event>
 7    1  0.2756432E-009  0.4778726E+02  0.7816164E-02  0.1312668E+00
        -11   -1    0    0    0    0  0.00000000000E+00  0.00000000000E+00  0.45593999997E+02  0.45594000000E+02  0.51100000000E-03 0.  1.
         11   -1    0    0    0    0 -0.00000000000E+00 -0.00000000000E+00 -0.45593999997E+02  0.45594000000E+02  0.51100000000E-03 0. -1.
    9900012    2    1    2    0    0  0.15151868987E+02  0.85566157538E+01 -0.39759642884E+02  0.47787262572E+02  0.19999961373E+02 0.  0.
        -12    1    1    2    0    0 -0.15151868987E+02 -0.85566157538E+01  0.39759642884E+02  0.43400737428E+02  0.00000000000E+00 0.  1.
         11    1    3    3    0    0  0.62553858894E+01  0.13078641624E+02 -0.20139385436E+02  0.24814825516E+02  0.51100000000E-03 0.  1.
        -11    1    3    3    0    0  0.26976057602E+01 -0.37741484137E+01 -0.13309729964E+02  0.14095041152E+02  0.51100000000E-03 0. -1.
        -12    1    3    3    0    0  0.61988773374E+01 -0.74787745643E+00 -0.63105274840E+01  0.88773959053E+01  0.00000000000E+00 0.  1.
</event>
<event>
 7    1  0.3682954E-009  0.4778727E+02  0.7816164E-02  0.1312668E+00
        -11   -1    0    0    0    0  0.00000000000E+00  0.00000000000E+00  0.45593999997E+02  0.45594000000E+02  0.51100000000E-03 0.  1.
         11   -1    0    0    0    0 -0.00000000000E+00 -0.00000000000E+00 -0.45593999997E+02  0.45594000000E+02  0.51100000000E-03 0. -1.
    9900012    2    1    2    0    0  0.41781031832E+02 -0.94693994622E+01 -0.69497595308E+01  0.47787270690E+02  0.19999998383E+02 0.  0.
        -12    1    1    2    0    0 -0.41781031832E+02  0.94693994622E+01  0.69497595308E+01  0.43400729310E+02  0.00000000000E+00 0.  1.
         11    1    3    3    0    0  0.14133681243E+02 -0.24232667293E+01 -0.42686852297E+01  0.14961779339E+02  0.51100000000E-03 0. -1.
        -11    1    3    3    0    0  0.91398075518E+01 -0.92847793760E+01 -0.51715652835E+01  0.14017428362E+02  0.51100000000E-03 0.  1.
        -12    1    3    3    0    0  0.18507543037E+02  0.22386466431E+01  0.24904909824E+01  0.18808062989E+02  0.00000000000E+00 0.  1.
</event>
<event>
 7    1  0.2756432E-009  0.4778727E+02  0.7816164E-02  0.1312668E+00
        -11   -1    0    0    0    0  0.00000000000E+00  0.00000000000E+00  0.45593999997E+02  0.45594000000E+02  0.51100000000E-03 0.  1.
         11   -1    0    0    0    0 -0.00000000000E+00 -0.00000000000E+00 -0.45593999997E+02  0.45594000000E+02  0.51100000000E-03 0. -1.
    9900012    2    1    2    0    0  0.40395043822E+01 -0.33736870829E+02 -0.27002395535E+02  0.47787269435E+02  0.19999992660E+02 0.  0.
        -12    1    1    2    0    0 -0.40395043822E+01  0.33736870829E+02  0.27002395535E+02  0.43400730565E+02  0.00000000000E+00 0.  1.
         11    1    3    3    0    0 -0.15389644094E+01 -0.11397736610E+02 -0.28274407382E+00  0.11504640619E+02  0.51100000000E-03 0. -1.
        -11    1    3    3    0    0  0.93533314717E+00 -0.16501493686E+02 -0.21759754380E+02  0.27325099321E+02  0.51100000000E-03 0.  1.
         12    1    3    3    0    0  0.46431356444E+01 -0.58376405324E+01 -0.49598970816E+01  0.89575294953E+01  0.00000000000E+00 0. -1.
</event>
<event>
 7    1  0.2756432E-009  0.4778728E+02  0.7816164E-02  0.1312668E+00
        -11   -1    0    0    0    0  0.00000000000E+00  0.00000000000E+00  0.45593999997E+02  0.45594000000E+02  0.51100000000E-03 0.  1.
         11   -1    0    0    0    0 -0.00000000000E+00 -0.00000000000E+00 -0.45593999997E+02  0.45594000000E+02  0.51100000000E-03 0. -1.
    9900012    2    1    2    0    0 -0.32533035777E+02 -0.12567841787E+02 -0.25831643849E+02  0.47787275490E+02  0.20000020268E+02 0.  0.
        -12    1    1    2    0    0  0.32533035777E+02  0.12567841787E+02  0.25831643849E+02  0.43400724510E+02  0.00000000000E+00 0.  1.
         11    1    3    3    0    0 -0.38831369795E+01 -0.19271788958E+00 -0.17895507627E+01  0.42799982687E+01  0.51100000000E-03 0.  1.
        -11    1    3    3    0    0 -0.30113501793E+02 -0.11008497986E+02 -0.25552331274E+02  0.40999166479E+02  0.51100000000E-03 0. -1.
        -12    1    3    3    0    0  0.14636029956E+01 -0.13666259119E+01  0.15102381877E+01  0.25081107422E+01  0.00000000000E+00 0.  1.
</event>
<event>
 7    1  0.2756432E-009  0.4778727E+02  0.7816164E-02  0.1312668E+00
        -11   -1    0    0    0    0  0.00000000000E+00  0.00000000000E+00  0.45593999997E+02  0.45594000000E+02  0.51100000000E-03 0.  1.
         11   -1    0    0    0    0 -0.00000000000E+00 -0.00000000000E+00 -0.45593999997E+02  0.45594000000E+02  0.51100000000E-03 0. -1.
    9900012    2    1    2    0    0  0.26789061562E+02  0.29171948513E+02 -0.17747309266E+02  0.47787269757E+02  0.19999994130E+02 0.  0.
        -12    1    1    2    0    0 -0.26789061562E+02 -0.29171948513E+02  0.17747309266E+02  0.43400730243E+02  0.00000000000E+00 0.  1.
         11    1    3    3    0    0  0.10193990982E+02  0.17914387908E+02 -0.64212216319E+01  0.21588766379E+02  0.51100000000E-03 0. -1.
        -11    1    3    3    0    0  0.13856457330E+01  0.77612285195E+01 -0.51374741999E+01  0.94101181525E+01  0.51100000000E-03 0.  1.
         12    1    3    3    0    0  0.15209424847E+02  0.34963320859E+01 -0.61886134345E+01  0.16788385226E+02  0.00000000000E+00 0. -1.
</event>
<event>
 7    1  0.2756432E-009  0.4778727E+02  0.7816164E-02  0.1312668E+00
        -11   -1    0    0    0    0  0.00000000000E+00  0.00000000000E+00  0.45593999997E+02  0.45594000000E+02  0.51100000000E-03 0.  1.
         11   -1    0    0    0    0 -0.00000000000E+00 -0.00000000000E+00 -0.45593999997E+02  0.45594000000E+02  0.51100000000E-03 0. -1.
    9900012    2    1    2    0    0 -0.23529015573E+02  0.11938351560E+02 -0.34459897144E+02  0.47787270479E+02  0.19999997421E+02 0.  0.
        -12    1    1    2    0    0  0.23529015573E+02 -0.11938351560E+02  0.34459897144E+02  0.43400729521E+02  0.00000000000E+00 0.  1.
         11    1    3    3    0    0 -0.81086454662E+01  0.67724270351E+01 -0.24643252588E+02  0.26812418720E+02  0.51100000000E-03 0. -1.
        -11    1    3    3    0    0 -0.11839749324E+02 -0.23491564246E+00 -0.47914335489E+01  0.12774689238E+02  0.51100000000E-03 0.  1.
        -12    1    3    3    0    0 -0.35806207835E+01  0.54008401670E+01 -0.50252110066E+01  0.82001625207E+01  0.00000000000E+00 0.  1.
</event>
<event>
 7    1  0.2756432E-009  0.4778727E+02  0.7816164E-02  0.1312668E+00
        -11   -1    0    0    0    0  0.00000000000E+00  0.00000000000E+00  0.45593999997E+02  0.45594000000E+02  0.51100000000E-03 0. -1.
         11   -1    0    0    0    0 -0.00000000000E+00 -0.00000000000E+00 -0.45593999997E+02  0.45594000000E+02  0.51100000000E-03 0.  1.
    9900012    2    1    2    0    0 -0.13795570872E+02 -0.87465339877E+01  0.40209493981E+02  0.47787273754E+02  0.20000012353E+02 0.  0.
        -12    1    1    2    0    0  0.13795570872E+02  0.87465339877E+01 -0.40209493981E+02  0.43400726246E+02  0.00000000000E+00 0.  1.
         11    1    3    3    0    0 -0.17698294267E+02 -0.10259217430E+02  0.34113836107E+02  0.39777317361E+02  0.51100000000E-03 0. -1.
        -11    1    3    3    0    0  0.65713720235E+00 -0.73921520460E-01  0.34989910212E+01  0.35609313559E+01  0.51100000000E-03 0.  1.
         12    1    3    3    0    0  0.32455861922E+01  0.15866049623E+01  0.25966668529E+01  0.44490250373E+01  0.00000000000E+00 0. -1.
</event>
<event>
 7    1  0.2756432E-009  0.4778728E+02  0.7816164E-02  0.1312668E+00
        -11   -1    0    0    0    0  0.00000000000E+00  0.00000000000E+00  0.45593999997E+02  0.45594000000E+02  0.51100000000E-03 0.  1.
         11   -1    0    0    0    0 -0.00000000000E+00 -0.00000000000E+00 -0.45593999997E+02  0.45594000000E+02  0.51100000000E-03 0. -1.
    9900012    2    1    2    0    0  0.23593093396E+02  0.23246489185E+02 -0.28046199279E+02  0.47787278699E+02  0.20000034902E+02 0.  0.
        -12    1    1    2    0    0 -0.23593093396E+02 -0.23246489185E+02  0.28046199279E+02  0.43400721301E+02  0.00000000000E+00 0.  1.
         11    1    3    3    0    0  0.95441762305E+01  0.18285790238E+02 -0.21582212529E+02  0.29853866122E+02  0.51100000000E-03 0. -1.
        -11    1    3    3    0    0  0.84315754906E+00  0.11113242068E+01 -0.36304651635E+01  0.38892459050E+01  0.51100000000E-03 0.  1.
         12    1    3    3    0    0  0.13205759616E+02  0.38493747403E+01 -0.28335215867E+01  0.14044166672E+02  0.00000000000E+00 0. -1.
</event>
<event>
 7    1  0.2756432E-009  0.4778727E+02  0.7816164E-02  0.1312668E+00
        -11   -1    0    0    0    0  0.00000000000E+00  0.00000000000E+00  0.45593999997E+02  0.45594000000E+02  0.51100000000E-03 0.  1.
         11   -1    0    0    0    0 -0.00000000000E+00 -0.00000000000E+00 -0.45593999997E+02  0.45594000000E+02  0.51100000000E-03 0. -1.
    9900012    2    1    2    0    0 -0.38359477850E+01  0.26109301249E+02 -0.34455958926E+02  0.47787271750E+02  0.20000003216E+02 0.  0.
        -12    1    1    2    0    0  0.38359477850E+01 -0.26109301249E+02  0.34455958926E+02  0.43400728250E+02  0.00000000000E+00 0.  1.
         11    1    3    3    0    0 -0.13109710536E+01  0.93686809355E+01 -0.30108156515E+01  0.99275293363E+01  0.51100000000E-03 0.  1.
        -11    1    3    3    0    0 -0.16358009422E+01  0.34510119934E+00 -0.13234703977E+02  0.13339877405E+02  0.51100000000E-03 0. -1.
         12    1    3    3    0    0 -0.88917578924E+00  0.16395519115E+02 -0.18210439297E+02  0.24519865008E+02  0.00000000000E+00 0. -1.
</event>
<event>
 7    1  0.2756432E-009  0.4778728E+02  0.7816164E-02  0.1312668E+00
        -11   -1    0    0    0    0  0.00000000000E+00  0.00000000000E+00  0.45593999997E+02  0.45594000000E+02  0.51100000000E-03 0. -1.
         11   -1    0    0    0    0 -0.00000000000E+00 -0.00000000000E+00 -0.45593999997E+02  0.45594000000E+02  0.51100000000E-03 0.  1.
    9900012    2    1    2    0    0 -0.42521836066E+02 -0.49803273926E+01  0.71212449079E+01  0.47787281890E+02  0.20000049450E+02 0.  0.
        -12    1    1    2    0    0  0.42521836066E+02  0.49803273926E+01 -0.71212449079E+01  0.43400718110E+02  0.00000000000E+00 0.  1.
         11    1    3    3    0    0 -0.18238356691E+02  0.21696921394E+01  0.84138066571E+01  0.20202409794E+02  0.51100000000E-03 0. -1.
        -11    1    3    3    0    0 -0.77022711104E+01 -0.62669097909E+01 -0.41029852511E+01  0.10744004226E+02  0.51100000000E-03 0.  1.
        -12    1    3    3    0    0 -0.16581208265E+02 -0.88310974101E+00  0.28104235019E+01  0.16840867870E+02  0.00000000000E+00 0.  1.
</event>
<event>
 7    1  0.2756432E-009  0.4778727E+02  0.7816164E-02  0.1312668E+00
        -11   -1    0    0    0    0  0.00000000000E+00  0.00000000000E+00  0.45593999997E+02  0.45594000000E+02  0.51100000000E-03 0. -1.
         11   -1    0    0    0    0 -0.00000000000E+00 -0.00000000000E+00 -0.45593999997E+02  0.45594000000E+02  0.51100000000E-03 0.  1.
    9900012    2    1    2    0    0  0.34502855599E+02 -0.65182890531E+01  0.25508586989E+02  0.47787272508E+02  0.20000006673E+02 0.  0.
        -12    1    1    2    0    0 -0.34502855599E+02  0.65182890531E+01 -0.25508586989E+02  0.43400727492E+02  0.00000000000E+00 0.  1.
         11    1    3    3    0    0  0.23250890872E+02 -0.32452782321E+01  0.14016640789E+02  0.27342311103E+02  0.51100000000E-03 0. -1.
        -11    1    3    3    0    0 -0.12600142909E+01 -0.40710704093E+01  0.19346859062E+01  0.46801987252E+01  0.51100000000E-03 0.  1.
        -12    1    3    3    0    0  0.12511979018E+02  0.79805958824E+00  0.95572602929E+01  0.15764762680E+02  0.00000000000E+00 0.  1.
</event>
<event>
 7    1  0.2756432E-009  0.4778727E+02  0.7816164E-02  0.1312668E+00
        -11   -1    0    0    0    0  0.00000000000E+00  0.00000000000E+00  0.45593999997E+02  0.45594000000E+02  0.51100000000E-03 0.  1.
         11   -1    0    0    0    0 -0.00000000000E+00 -0.00000000000E+00 -0.45593999997E+02  0.45594000000E+02  0.51100000000E-03 0. -1.
    9900012    2    1    2    0    0  0.34261876431E+02 -0.25034352493E+02 -0.91119907839E+01  0.47787270082E+02  0.19999995614E+02 0.  0.
        -12    1    1    2    0    0 -0.34261876431E+02  0.25034352493E+02  0.91119907839E+01  0.43400729918E+02  0.00000000000E+00 0.  1.
         11    1    3    3    0    0  0.43106123747E+01 -0.14142079251E+01 -0.45581792616E+00  0.45595102087E+01  0.51100000000E-03 0. -1.
        -11    1    3    3    0    0  0.23087900471E+02 -0.76297325222E+01 -0.87033310224E+01  0.25826574253E+02  0.51100000000E-03 0.  1.
        -12    1    3    3    0    0  0.68633635853E+01 -0.15990412046E+02  0.47158164635E-01  0.17401185621E+02  0.00000000000E+00 0.  1.
</event>
<event>
 7    1  0.2756432E-009  0.4778727E+02  0.7816164E-02  0.1312668E+00
        -11   -1    0    0    0    0  0.00000000000E+00  0.00000000000E+00  0.45593999997E+02  0.45594000000E+02  0.51100000000E-03 0.  1.
         11   -1    0    0    0    0 -0.00000000000E+00 -0.00000000000E+00 -0.45593999997E+02  0.45594000000E+02  0.51100000000E-03 0. -1.
    9900012    2    1    2    0    0 -0.23348426930E+02  0.14217385714E+02 -0.33709645436E+02  0.47787270835E+02  0.19999999045E+02 0.  0.
        -12    1    1    2    0    0  0.23348426930E+02 -0.14217385714E+02  0.33709645436E+02  0.43400729165E+02  0.00000000000E+00 0.  1.
         11    1    3    3    0    0 -0.98137443733E+01  0.88029190538E+01 -0.26867245271E+02  0.29927409363E+02  0.51100000000E-03 0. -1.
        -11    1    3    3    0    0 -0.13917430204E+02  0.33164844644E+01 -0.64395213646E+01  0.15689530533E+02  0.51100000000E-03 0.  1.
         12    1    3    3    0    0  0.38274764762E+00  0.20979821954E+01 -0.40287880072E+00  0.21703309384E+01  0.00000000000E+00 0. -1.
</event>
<event>
 7    1  0.2756432E-009  0.4778728E+02  0.7816164E-02  0.1312668E+00
        -11   -1    0    0    0    0  0.00000000000E+00  0.00000000000E+00  0.45593999997E+02  0.45594000000E+02  0.51100000000E-03 0.  1.
         11   -1    0    0    0    0 -0.00000000000E+00 -0.00000000000E+00 -0.45593999997E+02  0.45594000000E+02  0.51100000000E-03 0. -1.
    9900012    2    1    2    0    0  0.76115787873E-02  0.93943593915E+01 -0.42371791030E+02  0.47787277409E+02  0.20000029021E+02 0.  0.
        -12    1    1    2    0    0 -0.76115787873E-02 -0.93943593915E+01  0.42371791030E+02  0.43400722591E+02  0.00000000000E+00 0.  1.
         11    1    3    3    0    0 -0.35357571821E+01  0.12061466983E+02 -0.26593336447E+02  0.29414046105E+02  0.51100000000E-03 0. -1.
        -11    1    3    3    0    0  0.45669403684E+01 -0.31460786200E+01 -0.47933207579E+01  0.73301213606E+01  0.51100000000E-03 0.  1.
        -12    1    3    3    0    0 -0.10235716076E+01  0.47897102895E+00 -0.10985133825E+02  0.11043109944E+02  0.00000000000E+00 0.  1.
</event>
<event>
 7    1  0.2756432E-009  0.4778727E+02  0.7816164E-02  0.1312668E+00
        -11   -1    0    0    0    0  0.00000000000E+00  0.00000000000E+00  0.45593999997E+02  0.45594000000E+02  0.51100000000E-03 0.  1.
         11   -1    0    0    0    0 -0.00000000000E+00 -0.00000000000E+00 -0.45593999997E+02  0.45594000000E+02  0.51100000000E-03 0. -1.
    9900012    2    1    2    0    0 -0.66429766013E+01 -0.27164605757E+02 -0.33190033246E+02  0.47787271309E+02  0.20000001204E+02 0.  0.
        -12    1    1    2    0    0  0.66429766013E+01  0.27164605757E+02  0.33190033246E+02  0.43400728691E+02  0.00000000000E+00 0.  1.
         11    1    3    3    0    0  0.29577811775E+01 -0.15813958539E+02 -0.93354103482E+01  0.18600527971E+02  0.51100000000E-03 0.  1.
        -11    1    3    3    0    0 -0.17197218313E+01 -0.13124575388E+01 -0.35015859628E-01  0.21636114115E+01  0.51100000000E-03 0. -1.
         12    1    3    3    0    0 -0.78810359475E+01 -0.10038189679E+02 -0.23819607038E+02  0.27023131926E+02  0.00000000000E+00 0. -1.
</event>
<event>
 7    1  0.2756432E-009  0.4778727E+02  0.7816164E-02  0.1312668E+00
        -11   -1    0    0    0    0  0.00000000000E+00  0.00000000000E+00  0.45593999997E+02  0.45594000000E+02  0.51100000000E-03 0.  1.
         11   -1    0    0    0    0 -0.00000000000E+00 -0.00000000000E+00 -0.45593999997E+02  0.45594000000E+02  0.51100000000E-03 0. -1.
    9900012    2    1    2    0    0  0.33588345218E+02  0.10936856150E+02 -0.25215694273E+02  0.47787274262E+02  0.20000014671E+02 0.  0.
        -12    1    1    2    0    0 -0.33588345218E+02 -0.10936856150E+02  0.25215694273E+02  0.43400725738E+02  0.00000000000E+00 0.  1.
         11    1    3    3    0    0  0.35918314565E+02  0.10100236564E+02 -0.21813145560E+02  0.43219826692E+02  0.51100000000E-03 0. -1.
        -11    1    3    3    0    0 -0.20334802163E+01  0.68347413787E+00 -0.14564775845E+01  0.25929724068E+01  0.51100000000E-03 0.  1.
         12    1    3    3    0    0 -0.29648913075E+00  0.15314544826E+00 -0.19460711288E+01  0.19744751635E+01  0.00000000000E+00 0. -1.
</event>
<event>
 7    1  0.2756432E-009  0.4778727E+02  0.7816164E-02  0.1312668E+00
        -11   -1    0    0    0    0  0.00000000000E+00  0.00000000000E+00  0.45593999997E+02  0.45594000000E+02  0.51100000000E-03 0.  1.
         11   -1    0    0    0    0 -0.00000000000E+00 -0.00000000000E+00 -0.45593999997E+02  0.45594000000E+02  0.51100000000E-03 0. -1.
    9900012    2    1    2    0    0  0.25102203854E+02 -0.11227340249E+02 -0.33577516549E+02  0.47787269303E+02  0.19999992061E+02 0.  0.
        -12    1    1    2    0    0 -0.25102203854E+02  0.11227340249E+02  0.33577516549E+02  0.43400730697E+02  0.00000000000E+00 0.  1.
         11    1    3    3    0    0 -0.14350743035E+01 -0.35601506489E+01 -0.14594641400E+01  0.41065979516E+01  0.51100000000E-03 0. -1.
        -11    1    3    3    0    0 -0.14138810273E+00  0.11612432008E+01 -0.25738911351E+00  0.11978003940E+01  0.51100000000E-03 0.  1.
         12    1    3    3    0    0  0.26678666260E+02 -0.88284328012E+01 -0.31860663296E+02  0.42482870958E+02  0.00000000000E+00 0. -1.
</event>
<event>
 7    1  0.2756432E-009  0.4778727E+02  0.7816164E-02  0.1312668E+00
        -11   -1    0    0    0    0  0.00000000000E+00  0.00000000000E+00  0.45593999997E+02  0.45594000000E+02  0.51100000000E-03 0.  1.
         11   -1    0    0    0    0 -0.00000000000E+00 -0.00000000000E+00 -0.45593999997E+02  0.45594000000E+02  0.51100000000E-03 0. -1.
    9900012    2    1    2    0    0  0.42209265850E+01  0.15879830344E+02 -0.40170117918E+02  0.47787267212E+02  0.19999982527E+02 0.  0.
        -12    1    1    2    0    0 -0.42209265850E+01 -0.15879830344E+02  0.40170117918E+02  0.43400732788E+02  0.00000000000E+00 0.  1.
         11    1    3    3    0    0  0.28738504099E+00  0.63399034327E+01 -0.43989309418E+01  0.77218883305E+01  0.51100000000E-03 0. -1.
        -11    1    3    3    0    0  0.32528182710E+01 -0.25777801719E+01 -0.30061477007E+01  0.51247147802E+01  0.51100000000E-03 0.  1.
        -12    1    3    3    0    0  0.68072327297E+00  0.12117707084E+02 -0.32765039275E+02  0.34940664101E+02  0.00000000000E+00 0.  1.
</event>
<event>
 7    1  0.2756432E-009  0.4778726E+02  0.7816164E-02  0.1312668E+00
        -11   -1    0    0    0    0  0.00000000000E+00  0.00000000000E+00  0.45593999997E+02  0.45594000000E+02  0.51100000000E-03 0. -1.
         11   -1    0    0    0    0 -0.00000000000E+00 -0.00000000000E+00 -0.45593999997E+02  0.45594000000E+02  0.51100000000E-03 0.  1.
    9900012    2    1    2    0    0 -0.15502818218E+02 -0.18814075515E+02  0.35907061537E+02  0.47787264080E+02  0.19999968247E+02 0.  0.
        -12    1    1    2    0    0  0.15502818218E+02  0.18814075515E+02 -0.35907061537E+02  0.43400735920E+02  0.00000000000E+00 0.  1.
         11    1    3    3    0    0 -0.79795288079E+01 -0.13408526771E+02  0.31515273633E+02  0.35166375170E+02  0.51100000000E-03 0. -1.
        -11    1    3    3    0    0 -0.73190030090E+01 -0.70551019861E+01  0.36562546673E+01  0.10803261893E+02  0.51100000000E-03 0.  1.
         12    1    3    3    0    0 -0.20428640076E+00  0.16495532420E+01  0.73553323664E+00  0.18176270173E+01  0.00000000000E+00 0. -1.
</event>
<event>
 7    1  0.2756432E-009  0.4778727E+02  0.7816164E-02  0.1312668E+00
        -11   -1    0    0    0    0  0.00000000000E+00  0.00000000000E+00  0.45593999997E+02  0.45594000000E+02  0.51100000000E-03 0. -1.
         11   -1    0    0    0    0 -0.00000000000E+00 -0.00000000000E+00 -0.45593999997E+02  0.45594000000E+02  0.51100000000E-03 0.  1.
    9900012    2    1    2    0    0 -0.40844452030E+01 -0.40161521577E+02  0.15937160536E+02  0.47787267357E+02  0.19999983187E+02 0.  0.
        -12    1    1    2    0    0  0.40844452030E+01  0.40161521577E+02 -0.15937160536E+02  0.43400732643E+02  0.00000000000E+00 0.  1.
         11    1    3    3    0    0 -0.99241574526E+01 -0.26748245247E+02  0.14326108208E+02  0.31924832053E+02  0.51100000000E-03 0. -1.
        -11    1    3    3    0    0  0.56541076408E+01 -0.56184277115E+01  0.11290678303E+01  0.80504942451E+01  0.51100000000E-03 0.  1.
         12    1    3    3    0    0  0.18560460880E+00 -0.77948486184E+01  0.48198449739E+00  0.78119410591E+01  0.00000000000E+00 0. -1.
</event>
<event>
 7    1  0.2756432E-009  0.4778727E+02  0.7816164E-02  0.1312668E+00
        -11   -1    0    0    0    0  0.00000000000E+00  0.00000000000E+00  0.45593999997E+02  0.45594000000E+02  0.51100000000E-03 0.  1.
         11   -1    0    0    0    0 -0.00000000000E+00 -0.00000000000E+00 -0.45593999997E+02  0.45594000000E+02  0.51100000000E-03 0. -1.
    9900012    2    1    2    0    0  0.12592235840E+02  0.26863485222E+02 -0.31676680213E+02  0.47787270616E+02  0.19999998048E+02 0.  0.
        -12    1    1    2    0    0 -0.12592235840E+02 -0.26863485222E+02  0.31676680213E+02  0.43400729384E+02  0.00000000000E+00 0.  1.
         11    1    3    3    0    0  0.17479555343E+01  0.17419766200E+02 -0.21144554922E+02  0.27451699512E+02  0.51100000000E-03 0. -1.
        -11    1    3    3    0    0  0.11489006878E+02  0.10698696722E+02 -0.84734221379E+01  0.17839794662E+02  0.51100000000E-03 0.  1.
        -12    1    3    3    0    0 -0.64472657180E+00 -0.12549776994E+01 -0.20587031528E+01  0.24957764422E+01  0.00000000000E+00 0.  1.
</event>
<event>
 7    1  0.2756432E-009  0.4778727E+02  0.7816164E-02  0.1312668E+00
        -11   -1    0    0    0    0  0.00000000000E+00  0.00000000000E+00  0.45593999997E+02  0.45594000000E+02  0.51100000000E-03 0. -1.
         11   -1    0    0    0    0 -0.00000000000E+00 -0.00000000000E+00 -0.45593999997E+02  0.45594000000E+02  0.51100000000E-03 0.  1.
    9900012    2    1    2    0    0 -0.22689357855E+02 -0.57576095947E+01  0.36546765797E+02  0.47787272836E+02  0.20000008171E+02 0.  0.
        -12    1    1    2    0    0  0.22689357855E+02  0.57576095947E+01 -0.36546765797E+02  0.43400727164E+02  0.00000000000E+00 0.  1.
         11    1    3    3    0    0 -0.52061812902E+01  0.44542412157E+01  0.20682619683E+01  0.71569753572E+01  0.51100000000E-03 0.  1.
        -11    1    3    3    0    0 -0.14925447305E+02 -0.10930512309E+02  0.27317020618E+02  0.32991888280E+02  0.51100000000E-03 0. -1.
         12    1    3    3    0    0 -0.25577292605E+01  0.71866149902E+00  0.71614832104E+01  0.76384091991E+01  0.00000000000E+00 0. -1.
</event>
<event>
 7    1  0.4185014E-009  0.4778727E+02  0.7816164E-02  0.1312668E+00
        -11   -1    0    0    0    0  0.00000000000E+00  0.00000000000E+00  0.45593999997E+02  0.45594000000E+02  0.51100000000E-03 0. -1.
         11   -1    0    0    0    0 -0.00000000000E+00 -0.00000000000E+00 -0.45593999997E+02  0.45594000000E+02  0.51100000000E-03 0.  1.
    9900012    2    1    2    0    0 -0.15476444869E+02  0.15659746335E+02  0.37401537657E+02  0.47787273967E+02  0.20000013325E+02 0.  0.
        -12    1    1    2    0    0  0.15476444869E+02 -0.15659746335E+02 -0.37401537657E+02  0.43400726033E+02  0.00000000000E+00 0.  1.
         11    1    3    3    0    0 -0.54090495682E+01  0.61662227096E+01  0.26015022411E+02  0.27277490922E+02  0.51100000000E-03 0. -1.
        -11    1    3    3    0    0 -0.94519830615E+01  0.22354076560E+01  0.56376643581E+01  0.11230329063E+02  0.51100000000E-03 0.  1.
        -12    1    3    3    0    0 -0.61541223879E+00  0.72581159699E+01  0.57488508888E+01  0.92794539816E+01  0.00000000000E+00 0.  1.
</event>
<event>
 7    1  0.2756432E-009  0.4778727E+02  0.7816164E-02  0.1312668E+00
        -11   -1    0    0    0    0  0.00000000000E+00  0.00000000000E+00  0.45593999997E+02  0.45594000000E+02  0.51100000000E-03 0.  1.
         11   -1    0    0    0    0 -0.00000000000E+00 -0.00000000000E+00 -0.45593999997E+02  0.45594000000E+02  0.51100000000E-03 0. -1.
    9900012    2    1    2    0    0  0.41244277646E+02 -0.79501188952E+01 -0.10923749564E+02  0.47787272661E+02  0.20000007371E+02 0.  0.
        -12    1    1    2    0    0 -0.41244277646E+02  0.79501188952E+01  0.10923749564E+02  0.43400727339E+02  0.00000000000E+00 0.  1.
         11    1    3    3    0    0  0.29319630439E+02 -0.13547452212E+02 -0.89018451788E+01  0.33502493018E+02  0.51100000000E-03 0. -1.
        -11    1    3    3    0    0  0.70421968357E+01  0.36247298635E+01  0.13461948440E+01  0.80338934319E+01  0.51100000000E-03 0.  1.
         12    1    3    3    0    0  0.48824503710E+01  0.19726034538E+01 -0.33680992296E+01  0.62508862117E+01  0.00000000000E+00 0. -1.
</event>
<event>
 7    1  0.2756432E-009  0.4778727E+02  0.7816164E-02  0.1312668E+00
        -11   -1    0    0    0    0  0.00000000000E+00  0.00000000000E+00  0.45593999997E+02  0.45594000000E+02  0.51100000000E-03 0.  1.
         11   -1    0    0    0    0 -0.00000000000E+00 -0.00000000000E+00 -0.45593999997E+02  0.45594000000E+02  0.51100000000E-03 0. -1.
    9900012    2    1    2    0    0 -0.22401315443E+02 -0.11242033724E+02 -0.35431920832E+02  0.47787271093E+02  0.20000000220E+02 0.  0.
        -12    1    1    2    0    0  0.22401315443E+02  0.11242033724E+02  0.35431920832E+02  0.43400728907E+02  0.00000000000E+00 0.  1.
         11    1    3    3    0    0 -0.11760116125E+01  0.13230703495E+01 -0.59912552137E+01  0.62472920341E+01  0.51100000000E-03 0. -1.
        -11    1    3    3    0    0 -0.19561942299E+02 -0.15409494443E+02 -0.21341030671E+02  0.32795757284E+02  0.51100000000E-03 0.  1.
        -12    1    3    3    0    0 -0.16633615317E+01  0.28443903690E+01 -0.80996349473E+01  0.87442217742E+01  0.00000000000E+00 0.  1.
</event>
<event>
 7    1  0.2756432E-009  0.4778728E+02  0.7816164E-02  0.1312668E+00
        -11   -1    0    0    0    0  0.00000000000E+00  0.00000000000E+00  0.45593999997E+02  0.45594000000E+02  0.51100000000E-03 0.  1.
         11   -1    0    0    0    0 -0.00000000000E+00 -0.00000000000E+00 -0.45593999997E+02  0.45594000000E+02  0.51100000000E-03 0. -1.
    9900012    2    1    2    0    0 -0.15134155314E+01 -0.37208658582E+02 -0.22290090665E+02  0.47787276022E+02  0.20000022693E+02 0.  0.
        -12    1    1    2    0    0  0.15134155314E+01  0.37208658582E+02  0.22290090665E+02  0.43400723978E+02  0.00000000000E+00 0.  1.
         11    1    3    3    0    0 -0.71178492947E+01 -0.10975627078E+02 -0.84056816328E+01  0.15549393953E+02  0.51100000000E-03 0. -1.
        -11    1    3    3    0    0 -0.11650939759E+01  0.67607676362E+00 -0.62103485429E+00  0.14833099185E+01  0.51100000000E-03 0.  1.
         12    1    3    3    0    0  0.67695277393E+01 -0.26909108267E+02 -0.13263374178E+02  0.30754572150E+02  0.00000000000E+00 0. -1.
</event>
<event>
 7    1  0.2756432E-009  0.4778727E+02  0.7816164E-02  0.1312668E+00
        -11   -1    0    0    0    0  0.00000000000E+00  0.00000000000E+00  0.45593999997E+02  0.45594000000E+02  0.51100000000E-03 0.  1.
         11   -1    0    0    0    0 -0.00000000000E+00 -0.00000000000E+00 -0.45593999997E+02  0.45594000000E+02  0.51100000000E-03 0. -1.
    9900012    2    1    2    0    0  0.12063777457E+02 -0.41476631032E+02  0.42163536236E+01  0.47787270902E+02  0.19999999352E+02 0.  0.
        -12    1    1    2    0    0 -0.12063777457E+02  0.41476631032E+02 -0.42163536236E+01  0.43400729098E+02  0.00000000000E+00 0.  1.
         11    1    3    3    0    0  0.28245322855E+01 -0.20814390506E+02 -0.41066455759E+01  0.21402835628E+02  0.51100000000E-03 0. -1.
        -11    1    3    3    0    0  0.70035801488E+01 -0.16866043926E+02  0.10912362594E+02  0.21274238653E+02  0.51100000000E-03 0.  1.
         12    1    3    3    0    0  0.22356650230E+01 -0.37961966006E+01 -0.25893633946E+01  0.51101966220E+01  0.00000000000E+00 0. -1.
</event>
<event>
 7    1  0.2756432E-009  0.4778727E+02  0.7816164E-02  0.1312668E+00
        -11   -1    0    0    0    0  0.00000000000E+00  0.00000000000E+00  0.45593999997E+02  0.45594000000E+02  0.51100000000E-03 0.  1.
         11   -1    0    0    0    0 -0.00000000000E+00 -0.00000000000E+00 -0.45593999997E+02  0.45594000000E+02  0.51100000000E-03 0. -1.
    9900012    2    1    2    0    0  0.42680504114E+02  0.26782582873E+01 -0.74043803333E+01  0.47787270202E+02  0.19999996160E+02 0.  0.
        -12    1    1    2    0    0 -0.42680504114E+02 -0.26782582873E+01  0.74043803333E+01  0.43400729798E+02  0.00000000000E+00 0.  1.
         11    1    3    3    0    0  0.13594554005E+02 -0.46092581672E+01  0.30977348258E+01  0.14685132644E+02  0.51100000000E-03 0. -1.
        -11    1    3    3    0    0  0.23928946222E+02  0.70029955646E+01 -0.47671828903E+01  0.25384295285E+02  0.51100000000E-03 0.  1.
         12    1    3    3    0    0  0.51570038872E+01  0.28452088990E+00 -0.57349322688E+01  0.77178422734E+01  0.00000000000E+00 0. -1.
</event>
<event>
 7    1  0.2756432E-009  0.4778727E+02  0.7816164E-02  0.1312668E+00
        -11   -1    0    0    0    0  0.00000000000E+00  0.00000000000E+00  0.45593999997E+02  0.45594000000E+02  0.51100000000E-03 0. -1.
         11   -1    0    0    0    0 -0.00000000000E+00 -0.00000000000E+00 -0.45593999997E+02  0.45594000000E+02  0.51100000000E-03 0.  1.
    9900012    2    1    2    0    0 -0.40379423719E+02  0.11591415096E+02  0.10897913597E+02  0.47787270921E+02  0.19999999438E+02 0.  0.
        -12    1    1    2    0    0  0.40379423719E+02 -0.11591415096E+02 -0.10897913597E+02  0.43400729079E+02  0.00000000000E+00 0.  1.
         11    1    3    3    0    0 -0.85662210474E+01  0.91301035300E+01  0.85020151734E+00  0.12548377440E+02  0.51100000000E-03 0.  1.
        -11    1    3    3    0    0 -0.25257064050E+02 -0.23502626565E+01  0.95049595847E+01  0.27088508190E+02  0.51100000000E-03 0. -1.
         12    1    3    3    0    0 -0.65561386218E+01  0.48115742222E+01  0.54275249515E+00  0.81503852912E+01  0.00000000000E+00 0. -1.
</event>
<event>
 7    1  0.2756432E-009  0.4778727E+02  0.7816164E-02  0.1312668E+00
        -11   -1    0    0    0    0  0.00000000000E+00  0.00000000000E+00  0.45593999997E+02  0.45594000000E+02  0.51100000000E-03 0.  1.
         11   -1    0    0    0    0 -0.00000000000E+00 -0.00000000000E+00 -0.45593999997E+02  0.45594000000E+02  0.51100000000E-03 0. -1.
    9900012    2    1    2    0    0  0.21743150734E+02  0.27228669303E+02 -0.25873893241E+02  0.47787269738E+02  0.19999994041E+02 0.  0.
        -12    1    1    2    0    0 -0.21743150734E+02 -0.27228669303E+02  0.25873893241E+02  0.43400730262E+02  0.00000000000E+00 0.  1.
         11    1    3    3    0    0  0.76430355933E+01  0.20311863011E+02 -0.20285571238E+02  0.29706769814E+02  0.51100000000E-03 0. -1.
        -11    1    3    3    0    0  0.12876588284E+02  0.33795784023E+01 -0.33813301536E+01  0.13735409345E+02  0.51100000000E-03 0.  1.
        -12    1    3    3    0    0  0.12235268569E+01  0.35372278894E+01 -0.22069918501E+01  0.43450905787E+01  0.00000000000E+00 0.  1.
</event>
<event>
 7    1  0.2756432E-009  0.4778726E+02  0.7816164E-02  0.1312668E+00
        -11   -1    0    0    0    0  0.00000000000E+00  0.00000000000E+00  0.45593999997E+02  0.45594000000E+02  0.51100000000E-03 0.  1.
         11   -1    0    0    0    0 -0.00000000000E+00 -0.00000000000E+00 -0.45593999997E+02  0.45594000000E+02  0.51100000000E-03 0. -1.
    9900012    2    1    2    0    0 -0.43104161745E+01 -0.37752138026E+02 -0.20971896881E+02  0.47787261850E+02  0.19999958079E+02 0.  0.
        -12    1    1    2    0    0  0.43104161745E+01  0.37752138026E+02  0.20971896881E+02  0.43400738150E+02  0.00000000000E+00 0.  1.
         11    1    3    3    0    0 -0.57196098842E+01 -0.31159792902E+02 -0.13338640582E+02  0.34373914002E+02  0.51100000000E-03 0. -1.
        -11    1    3    3    0    0  0.46665700016E+01 -0.46408047205E+01 -0.69196605915E+01  0.95496411972E+01  0.51100000000E-03 0.  1.
        -12    1    3    3    0    0 -0.32573762919E+01 -0.19515404035E+01 -0.71359570727E+00  0.38637066512E+01  0.00000000000E+00 0.  1.
</event>
<event>
 7    1  0.2756432E-009  0.4778725E+02  0.7816164E-02  0.1312668E+00
        -11   -1    0    0    0    0  0.00000000000E+00  0.00000000000E+00  0.45593999997E+02  0.45594000000E+02  0.51100000000E-03 0.  1.
         11   -1    0    0    0    0 -0.00000000000E+00 -0.00000000000E+00 -0.45593999997E+02  0.45594000000E+02  0.51100000000E-03 0. -1.
    9900012    2    1    2    0    0 -0.18921727550E+02  0.38605621577E+02 -0.59329339489E+01  0.47787245443E+02  0.19999883274E+02 0.  0.
        -12    1    1    2    0    0  0.18921727550E+02 -0.38605621577E+02  0.59329339489E+01  0.43400754557E+02  0.00000000000E+00 0.  1.
         11    1    3    3    0    0 -0.69829527108E+01  0.18721139699E+01 -0.37335996443E+01  0.81367195996E+01  0.51100000000E-03 0. -1.
        -11    1    3    3    0    0 -0.11575054755E+02  0.28709348376E+02  0.10817417048E+01  0.30973839642E+02  0.51100000000E-03 0.  1.
         12    1    3    3    0    0 -0.36372008344E+00  0.80241592312E+01 -0.32810760094E+01  0.86766862019E+01  0.00000000000E+00 0. -1.
</event>
<event>
 7    1  0.2756432E-009  0.4778727E+02  0.7816164E-02  0.1312668E+00
        -11   -1    0    0    0    0  0.00000000000E+00  0.00000000000E+00  0.45593999997E+02  0.45594000000E+02  0.51100000000E-03 0.  1.
         11   -1    0    0    0    0 -0.00000000000E+00 -0.00000000000E+00 -0.45593999997E+02  0.45594000000E+02  0.51100000000E-03 0. -1.
    9900012    2    1    2    0    0  0.77658198395E+01 -0.19828803166E+02 -0.37817115175E+02  0.47787267368E+02  0.19999983240E+02 0.  0.
        -12    1    1    2    0    0 -0.77658198395E+01  0.19828803166E+02  0.37817115175E+02  0.43400732632E+02  0.00000000000E+00 0.  1.
         11    1    3    3    0    0  0.10547296704E+02 -0.11127775028E+02 -0.19327072346E+02  0.24669993323E+02  0.51100000000E-03 0. -1.
        -11    1    3    3    0    0 -0.28783823485E+01 -0.11055327790E+02 -0.16268376782E+02  0.19878768595E+02  0.51100000000E-03 0.  1.
        -12    1    3    3    0    0  0.96905483506E-01  0.23542996518E+01 -0.22216660476E+01  0.32385054501E+01  0.00000000000E+00 0.  1.
</event>
<event>
 7    1  0.2756432E-009  0.4778726E+02  0.7816164E-02  0.1312668E+00
        -11   -1    0    0    0    0  0.00000000000E+00  0.00000000000E+00  0.45593999997E+02  0.45594000000E+02  0.51100000000E-03 0.  1.
         11   -1    0    0    0    0 -0.00000000000E+00 -0.00000000000E+00 -0.45593999997E+02  0.45594000000E+02  0.51100000000E-03 0. -1.
    9900012    2    1    2    0    0 -0.35482900178E+02 -0.19071627129E+02 -0.16151180830E+02  0.47787264884E+02  0.19999971913E+02 0.  0.
        -12    1    1    2    0    0  0.35482900178E+02  0.19071627129E+02  0.16151180830E+02  0.43400735116E+02  0.00000000000E+00 0.  1.
         11    1    3    3    0    0 -0.13925045138E+02 -0.45824148936E+01 -0.26735486511E+01  0.14901451977E+02  0.51100000000E-03 0. -1.
        -11    1    3    3    0    0 -0.38773592013E+01 -0.56447790079E+01  0.26797166085E+01  0.73537966920E+01  0.51100000000E-03 0.  1.
        -12    1    3    3    0    0 -0.17680495838E+02 -0.88444332280E+01 -0.16157348787E+02  0.25532016216E+02  0.00000000000E+00 0.  1.
</event>
<event>
 7    1  0.2756432E-009  0.4778727E+02  0.7816164E-02  0.1312668E+00
        -11   -1    0    0    0    0  0.00000000000E+00  0.00000000000E+00  0.45593999997E+02  0.45594000000E+02  0.51100000000E-03 0. -1.
         11   -1    0    0    0    0 -0.00000000000E+00 -0.00000000000E+00 -0.45593999997E+02  0.45594000000E+02  0.51100000000E-03 0.  1.
    9900012    2    1    2    0    0 -0.32117107486E+02 -0.28576161452E+02 -0.59596731881E+01  0.47787270731E+02  0.19999998572E+02 0.  0.
        -12    1    1    2    0    0  0.32117107486E+02  0.28576161452E+02  0.59596731881E+01  0.43400729269E+02  0.00000000000E+00 0.  1.
         11    1    3    3    0    0 -0.27929678058E+02 -0.16953078336E+02 -0.48166386332E+01  0.33025350709E+02  0.51100000000E-03 0. -1.
        -11    1    3    3    0    0 -0.51995970419E+01 -0.10673230256E+02  0.13089291990E+01  0.11944327081E+02  0.51100000000E-03 0.  1.
         12    1    3    3    0    0  0.10121676140E+01 -0.94985285910E+00 -0.24519637538E+01  0.28175929413E+01  0.00000000000E+00 0. -1.
</event>
<event>
 7    1  0.2756432E-009  0.4778726E+02  0.7816164E-02  0.1312668E+00
        -11   -1    0    0    0    0  0.00000000000E+00  0.00000000000E+00  0.45593999997E+02  0.45594000000E+02  0.51100000000E-03 0. -1.
         11   -1    0    0    0    0 -0.00000000000E+00 -0.00000000000E+00 -0.45593999997E+02  0.45594000000E+02  0.51100000000E-03 0.  1.
    9900012    2    1    2    0    0 -0.31985488970E+02 -0.15692744013E+02  0.24784880184E+02  0.47787262621E+02  0.19999961595E+02 0.  0.
        -12    1    1    2    0    0  0.31985488970E+02  0.15692744013E+02 -0.24784880184E+02  0.43400737379E+02  0.00000000000E+00 0.  1.
         11    1    3    3    0    0 -0.19900463594E+01 -0.88522065646E+00 -0.25489020491E+01  0.33527305350E+01  0.51100000000E-03 0.  1.
        -11    1    3    3    0    0 -0.20322069447E+02 -0.13915496136E+02  0.23337250876E+02  0.33930146154E+02  0.51100000000E-03 0. -1.
        -12    1    3    3    0    0 -0.96733731639E+01 -0.89202722049E+00  0.39965313561E+01  0.10504385932E+02  0.00000000000E+00 0.  1.
</event>
<event>
 7    1  0.2756432E-009  0.4778727E+02  0.7816164E-02  0.1312668E+00
        -11   -1    0    0    0    0  0.00000000000E+00  0.00000000000E+00  0.45593999997E+02  0.45594000000E+02  0.51100000000E-03 0.  1.
         11   -1    0    0    0    0 -0.00000000000E+00 -0.00000000000E+00 -0.45593999997E+02  0.45594000000E+02  0.51100000000E-03 0. -1.
    9900012    2    1    2    0    0 -0.29585130510E+02  0.42988377734E+01 -0.31462092895E+02  0.47787271403E+02  0.20000001633E+02 0.  0.
        -12    1    1    2    0    0  0.29585130510E+02 -0.42988377734E+01  0.31462092895E+02  0.43400728597E+02  0.00000000000E+00 0.  1.
         11    1    3    3    0    0 -0.22733015344E+02  0.57803771453E+01 -0.26590889609E+02  0.35458118351E+02  0.51100000000E-03 0. -1.
        -11    1    3    3    0    0  0.89973209694E+00  0.24045824930E+01 -0.17764115031E+01  0.31220462683E+01  0.51100000000E-03 0.  1.
         12    1    3    3    0    0 -0.77518472626E+01 -0.38861218648E+01 -0.30947917828E+01  0.92071067828E+01  0.00000000000E+00 0. -1.
</event>
<event>
 7    1  0.2756432E-009  0.4778727E+02  0.7816164E-02  0.1312668E+00
        -11   -1    0    0    0    0  0.00000000000E+00  0.00000000000E+00  0.45593999997E+02  0.45594000000E+02  0.51100000000E-03 0. -1.
         11   -1    0    0    0    0 -0.00000000000E+00 -0.00000000000E+00 -0.45593999997E+02  0.45594000000E+02  0.51100000000E-03 0.  1.
    9900012    2    1    2    0    0  0.38967608462E+02  0.16599561661E+02 -0.94658918988E+01  0.47787273439E+02  0.20000010916E+02 0.  0.
        -12    1    1    2    0    0 -0.38967608462E+02 -0.16599561661E+02  0.94658918988E+01  0.43400726561E+02  0.00000000000E+00 0.  1.
         11    1    3    3    0    0  0.32268434252E+01  0.38387314371E+01 -0.15653567519E+01  0.52534483493E+01  0.51100000000E-03 0. -1.
        -11    1    3    3    0    0  0.24287806335E+02  0.16747280257E+02 -0.73015348587E+01  0.30392126351E+02  0.51100000000E-03 0.  1.
        -12    1    3    3    0    0  0.11452958702E+02 -0.39864500335E+01 -0.59900028815E+00  0.12141698738E+02  0.00000000000E+00 0.  1.
</event>
<event>
 7    1  0.2756432E-009  0.4778727E+02  0.7816164E-02  0.1312668E+00
        -11   -1    0    0    0    0  0.00000000000E+00  0.00000000000E+00  0.45593999997E+02  0.45594000000E+02  0.51100000000E-03 0.  1.
         11   -1    0    0    0    0 -0.00000000000E+00 -0.00000000000E+00 -0.45593999997E+02  0.45594000000E+02  0.51100000000E-03 0. -1.
    9900012    2    1    2    0    0 -0.15688415393E+02 -0.26837747870E+02 -0.30285841841E+02  0.47787270694E+02  0.19999998403E+02 0.  0.
        -12    1    1    2    0    0  0.15688415393E+02  0.26837747870E+02  0.30285841841E+02  0.43400729306E+02  0.00000000000E+00 0.  1.
         11    1    3    3    0    0 -0.13457561805E+02 -0.13259376630E+02 -0.14596660636E+02  0.23874244288E+02  0.51100000000E-03 0. -1.
        -11    1    3    3    0    0  0.38457386225E+01 -0.10047088838E+02 -0.74617474473E+01  0.13092416694E+02  0.51100000000E-03 0.  1.
        -12    1    3    3    0    0 -0.60765922101E+01 -0.35312824024E+01 -0.82274337575E+01  0.10820609711E+02  0.00000000000E+00 0.  1.
</event>
<event>
 7    1  0.3368052E-009  0.4778727E+02  0.7816164E-02  0.1312668E+00
        -11   -1    0    0    0    0  0.00000000000E+00  0.00000000000E+00  0.45593999997E+02  0.45594000000E+02  0.51100000000E-03 0.  1.
         11   -1    0    0    0    0 -0.00000000000E+00 -0.00000000000E+00 -0.45593999997E+02  0.45594000000E+02  0.51100000000E-03 0. -1.
    9900012    2    1    2    0    0  0.24577608060E+02  0.34861697376E+02 -0.80141392145E+01  0.47787272020E+02  0.20000004446E+02 0.  0.
        -12    1    1    2    0    0 -0.24577608060E+02 -0.34861697376E+02  0.80141392145E+01  0.43400727980E+02  0.00000000000E+00 0.  1.
         11    1    3    3    0    0  0.15723551948E+02  0.26464730539E+02 -0.46361655365E+01  0.31130468668E+02  0.51100000000E-03 0. -1.
        -11    1    3    3    0    0 -0.16627293914E+01  0.82406372107E+00 -0.31962520951E+01  0.36959136572E+01  0.51100000000E-03 0.  1.
        -12    1    3    3    0    0  0.10516785503E+02  0.75729031159E+01 -0.18172158288E+00  0.12960889694E+02  0.00000000000E+00 0.  1.
</event>
<event>
 7    1  0.2756432E-009  0.4778727E+02  0.7816164E-02  0.1312668E+00
        -11   -1    0    0    0    0  0.00000000000E+00  0.00000000000E+00  0.45593999997E+02  0.45594000000E+02  0.51100000000E-03 0.  1.
         11   -1    0    0    0    0 -0.00000000000E+00 -0.00000000000E+00 -0.45593999997E+02  0.45594000000E+02  0.51100000000E-03 0. -1.
    9900012    2    1    2    0    0 -0.27042049852E+01  0.14601507083E+02 -0.40781203232E+02  0.47787271081E+02  0.20000000165E+02 0.  0.
        -12    1    1    2    0    0  0.27042049852E+01 -0.14601507083E+02  0.40781203232E+02  0.43400728919E+02  0.00000000000E+00 0.  1.
         11    1    3    3    0    0 -0.26677837683E+00  0.15283428329E+01 -0.35975011866E+01  0.39177822254E+01  0.51100000000E-03 0. -1.
        -11    1    3    3    0    0 -0.23968083512E+00  0.73640244545E+01 -0.37023847138E+02  0.37749855102E+02  0.51100000000E-03 0.  1.
        -12    1    3    3    0    0 -0.21977457733E+01  0.57091397952E+01 -0.15985490780E+00  0.61196337535E+01  0.00000000000E+00 0.  1.
</event>
<event>
 7    1  0.2756432E-009  0.4778726E+02  0.7816164E-02  0.1312668E+00
        -11   -1    0    0    0    0  0.00000000000E+00  0.00000000000E+00  0.45593999997E+02  0.45594000000E+02  0.51100000000E-03 0.  1.
         11   -1    0    0    0    0 -0.00000000000E+00 -0.00000000000E+00 -0.45593999997E+02  0.45594000000E+02  0.51100000000E-03 0. -1.
    9900012    2    1    2    0    0 -0.25594458181E+02 -0.86871247577E+01 -0.33957052081E+02  0.47787264843E+02  0.19999971725E+02 0.  0.
        -12    1    1    2    0    0  0.25594458181E+02  0.86871247577E+01  0.33957052081E+02  0.43400735157E+02  0.00000000000E+00 0.  1.
         11    1    3    3    0    0 -0.24330233823E+00  0.12023073024E+01  0.14530843997E+01  0.19016291465E+01  0.51100000000E-03 0. -1.
        -11    1    3    3    0    0 -0.19108269647E+02 -0.73582412636E+01 -0.18167793499E+02  0.27374046180E+02  0.51100000000E-03 0.  1.
         12    1    3    3    0    0 -0.62428861953E+01 -0.25311907965E+01 -0.17242342982E+02  0.18511589516E+02  0.00000000000E+00 0. -1.
</event>
<event>
 7    1  0.2828351E-009  0.4778725E+02  0.7816164E-02  0.1312668E+00
        -11   -1    0    0    0    0  0.00000000000E+00  0.00000000000E+00  0.45593999997E+02  0.45594000000E+02  0.51100000000E-03 0. -1.
         11   -1    0    0    0    0 -0.00000000000E+00 -0.00000000000E+00 -0.45593999997E+02  0.45594000000E+02  0.51100000000E-03 0.  1.
    9900012    2    1    2    0    0  0.21925903043E+02  0.37224131830E+02 -0.41525276122E+01  0.47787254611E+02  0.19999925073E+02 0.  0.
        -12    1    1    2    0    0 -0.21925903043E+02 -0.37224131830E+02  0.41525276122E+01  0.43400745389E+02  0.00000000000E+00 0.  1.
         11    1    3    3    0    0  0.62801593540E+01  0.80183192577E+01  0.17164063670E+00  0.10186427539E+02  0.51100000000E-03 0. -1.
        -11    1    3    3    0    0  0.15734828127E+02  0.14664890736E+02  0.22810111669E+01  0.21629767652E+02  0.51100000000E-03 0.  1.
        -12    1    3    3    0    0 -0.89084437971E-01  0.14540921836E+02 -0.66051794158E+01  0.15971059420E+02  0.00000000000E+00 0.  1.
</event>
<event>
 7    1  0.2756432E-009  0.4778727E+02  0.7816164E-02  0.1312668E+00
        -11   -1    0    0    0    0  0.00000000000E+00  0.00000000000E+00  0.45593999997E+02  0.45594000000E+02  0.51100000000E-03 0. -1.
         11   -1    0    0    0    0 -0.00000000000E+00 -0.00000000000E+00 -0.45593999997E+02  0.45594000000E+02  0.51100000000E-03 0.  1.
    9900012    2    1    2    0    0 -0.26384692043E+02 -0.96545058028E+01  0.33079628482E+02  0.47787271008E+02  0.19999999835E+02 0.  0.
        -12    1    1    2    0    0  0.26384692043E+02  0.96545058028E+01 -0.33079628482E+02  0.43400728992E+02  0.00000000000E+00 0.  1.
         11    1    3    3    0    0 -0.98111823384E+01 -0.17512052178E+01  0.59271370562E+01  0.11595558311E+02  0.51100000000E-03 0. -1.
        -11    1    3    3    0    0 -0.48994121500E+00 -0.12168143496E+01  0.14752359303E+02  0.14810563285E+02  0.51100000000E-03 0.  1.
        -12    1    3    3    0    0 -0.16083568490E+02 -0.66864862354E+01  0.12400132123E+02  0.21381149413E+02  0.00000000000E+00 0.  1.
</event>
<event>
 7    1  0.2756432E-009  0.4778727E+02  0.7816164E-02  0.1312668E+00
        -11   -1    0    0    0    0  0.00000000000E+00  0.00000000000E+00  0.45593999997E+02  0.45594000000E+02  0.51100000000E-03 0.  1.
         11   -1    0    0    0    0 -0.00000000000E+00 -0.00000000000E+00 -0.45593999997E+02  0.45594000000E+02  0.51100000000E-03 0. -1.
    9900012    2    1    2    0    0  0.98570725461E+01 -0.35141363778E+02 -0.23485014379E+02  0.47787271576E+02  0.20000002424E+02 0.  0.
        -12    1    1    2    0    0 -0.98570725461E+01  0.35141363778E+02  0.23485014379E+02  0.43400728424E+02  0.00000000000E+00 0.  1.
         11    1    3    3    0    0  0.74267515485E+00 -0.13148959692E+02 -0.16284448203E+01  0.13270212514E+02  0.51100000000E-03 0.  1.
        -11    1    3    3    0    0  0.83302344282E+01 -0.13717155319E+02 -0.20595042318E+02  0.26109556182E+02  0.51100000000E-03 0. -1.
         12    1    3    3    0    0  0.78416296306E+00 -0.82752487670E+01 -0.12615272409E+01  0.84075028806E+01  0.00000000000E+00 0. -1.
</event>
<event>
 7    1  0.2756432E-009  0.4778727E+02  0.7816164E-02  0.1312668E+00
        -11   -1    0    0    0    0  0.00000000000E+00  0.00000000000E+00  0.45593999997E+02  0.45594000000E+02  0.51100000000E-03 0.  1.
         11   -1    0    0    0    0 -0.00000000000E+00 -0.00000000000E+00 -0.45593999997E+02  0.45594000000E+02  0.51100000000E-03 0. -1.
    9900012    2    1    2    0    0  0.24851732961E+02 -0.10854615784E+02 -0.33884978964E+02  0.47787272882E+02  0.20000008379E+02 0.  0.
        -12    1    1    2    0    0 -0.24851732961E+02  0.10854615784E+02  0.33884978964E+02  0.43400727118E+02  0.00000000000E+00 0.  1.
         11    1    3    3    0    0  0.12818715120E+02 -0.10336967990E+02 -0.23785657550E+02  0.28929740232E+02  0.51100000000E-03 0. -1.
        -11    1    3    3    0    0 -0.13784622648E+01  0.52479175500E+00  0.67555308859E+00  0.16223245169E+01  0.51100000000E-03 0.  1.
        -12    1    3    3    0    0  0.13411480106E+02 -0.10424395486E+01 -0.10774874502E+02  0.17235208133E+02  0.00000000000E+00 0.  1.
</event>
<event>
 7    1  0.2756432E-009  0.4778727E+02  0.7816164E-02  0.1312668E+00
        -11   -1    0    0    0    0  0.00000000000E+00  0.00000000000E+00  0.45593999997E+02  0.45594000000E+02  0.51100000000E-03 0.  1.
         11   -1    0    0    0    0 -0.00000000000E+00 -0.00000000000E+00 -0.45593999997E+02  0.45594000000E+02  0.51100000000E-03 0. -1.
    9900012    2    1    2    0    0 -0.25028197518E+02  0.83105815676E+01 -0.34469503406E+02  0.47787273024E+02  0.20000009028E+02 0.  0.
        -12    1    1    2    0    0  0.25028197518E+02 -0.83105815676E+01  0.34469503406E+02  0.43400726976E+02  0.00000000000E+00 0.  1.
         11    1    3    3    0    0 -0.11429152678E+00  0.31423558818E+01  0.77132374461E+00  0.32376540305E+01  0.51100000000E-03 0. -1.
        -11    1    3    3    0    0 -0.11877310030E+01  0.14371527154E+01 -0.80817853450E+01  0.82940561540E+01  0.51100000000E-03 0.  1.
         12    1    3    3    0    0 -0.23726174988E+02  0.37310729704E+01 -0.27159041805E+02  0.36255562840E+02  0.00000000000E+00 0. -1.
</event>
<event>
 7    1  0.2756432E-009  0.4778727E+02  0.7816164E-02  0.1312668E+00
        -11   -1    0    0    0    0  0.00000000000E+00  0.00000000000E+00  0.45593999997E+02  0.45594000000E+02  0.51100000000E-03 0. -1.
         11   -1    0    0    0    0 -0.00000000000E+00 -0.00000000000E+00 -0.45593999997E+02  0.45594000000E+02  0.51100000000E-03 0.  1.
    9900012    2    1    2    0    0 -0.39756317776E+02 -0.13650961399E+02  0.10803225480E+02  0.47787271538E+02  0.20000002251E+02 0.  0.
        -12    1    1    2    0    0  0.39756317776E+02  0.13650961399E+02 -0.10803225480E+02  0.43400728462E+02  0.00000000000E+00 0.  1.
         11    1    3    3    0    0 -0.23514189247E+01 -0.54998465454E+01 -0.19003861557E+01  0.62760617257E+01  0.51100000000E-03 0. -1.
        -11    1    3    3    0    0 -0.16909459982E+02 -0.85083776838E-01  0.90680018611E+01  0.19187645352E+02  0.51100000000E-03 0.  1.
         12    1    3    3    0    0 -0.20495438870E+02 -0.80660310769E+01  0.36356097742E+01  0.22323564461E+02  0.00000000000E+00 0. -1.
</event>
<event>
 7    1  0.2756432E-009  0.4778728E+02  0.7816164E-02  0.1312668E+00
        -11   -1    0    0    0    0  0.00000000000E+00  0.00000000000E+00  0.45593999997E+02  0.45594000000E+02  0.51100000000E-03 0.  1.
         11   -1    0    0    0    0 -0.00000000000E+00 -0.00000000000E+00 -0.45593999997E+02  0.45594000000E+02  0.51100000000E-03 0. -1.
    9900012    2    1    2    0    0  0.80341308197E+01  0.21068214866E+02 -0.37083766846E+02  0.47787277666E+02  0.20000030189E+02 0.  0.
        -12    1    1    2    0    0 -0.80341308197E+01 -0.21068214866E+02  0.37083766846E+02  0.43400722334E+02  0.00000000000E+00 0.  1.
         11    1    3    3    0    0  0.22323457283E+01  0.50008008587E+01 -0.33215361595E+00  0.54865018878E+01  0.51100000000E-03 0. -1.
        -11    1    3    3    0    0  0.22924759564E+01  0.17108869192E+02 -0.29555878408E+02  0.34227456812E+02  0.51100000000E-03 0.  1.
        -12    1    3    3    0    0  0.35093091350E+01 -0.10414551852E+01 -0.71957348218E+01  0.80733189664E+01  0.00000000000E+00 0.  1.
</event>
<event>
 7    1  0.2756432E-009  0.4778728E+02  0.7816164E-02  0.1312668E+00
        -11   -1    0    0    0    0  0.00000000000E+00  0.00000000000E+00  0.45593999997E+02  0.45594000000E+02  0.51100000000E-03 0. -1.
         11   -1    0    0    0    0 -0.00000000000E+00 -0.00000000000E+00 -0.45593999997E+02  0.45594000000E+02  0.51100000000E-03 0.  1.
    9900012    2    1    2    0    0 -0.77578184155E+01  0.37212179258E+02  0.20944992174E+02  0.47787277324E+02  0.20000028630E+02 0.  0.
        -12    1    1    2    0    0  0.77578184155E+01 -0.37212179258E+02 -0.20944992174E+02  0.43400722676E+02  0.00000000000E+00 0.  1.
         11    1    3    3    0    0  0.73544508912E+00  0.15016563163E+02  0.29483641969E+01  0.15320930142E+02  0.51100000000E-03 0. -1.
        -11    1    3    3    0    0 -0.63774620064E+01  0.10592578114E+02  0.18972542063E+01  0.12508969044E+02  0.51100000000E-03 0.  1.
         12    1    3    3    0    0 -0.21158014982E+01  0.11603037980E+02  0.16099373770E+02  0.19957378138E+02  0.00000000000E+00 0. -1.
</event>
<event>
 7    1  0.2756432E-009  0.4778727E+02  0.7816164E-02  0.1312668E+00
        -11   -1    0    0    0    0  0.00000000000E+00  0.00000000000E+00  0.45593999997E+02  0.45594000000E+02  0.51100000000E-03 0.  1.
         11   -1    0    0    0    0 -0.00000000000E+00 -0.00000000000E+00 -0.45593999997E+02  0.45594000000E+02  0.51100000000E-03 0. -1.
    9900012    2    1    2    0    0 -0.33145777552E+02 -0.49086992385E+01 -0.27584146488E+02  0.47787273795E+02  0.20000012539E+02 0.  0.
        -12    1    1    2    0    0  0.33145777552E+02  0.49086992385E+01  0.27584146488E+02  0.43400726205E+02  0.00000000000E+00 0.  1.
         11    1    3    3    0    0 -0.14880289409E+02 -0.98186914781E+01 -0.70525444775E+01  0.19172065593E+02  0.51100000000E-03 0. -1.
        -11    1    3    3    0    0 -0.70921599052E+01  0.51273542473E+01 -0.86982297821E+01  0.12338869288E+02  0.51100000000E-03 0.  1.
         12    1    3    3    0    0 -0.11173328237E+02 -0.21736200765E+00 -0.11833372228E+02  0.16276338913E+02  0.00000000000E+00 0. -1.
</event>
<event>
 7    1  0.2756432E-009  0.4778727E+02  0.7816164E-02  0.1312668E+00
        -11   -1    0    0    0    0  0.00000000000E+00  0.00000000000E+00  0.45593999997E+02  0.45594000000E+02  0.51100000000E-03 0. -1.
         11   -1    0    0    0    0 -0.00000000000E+00 -0.00000000000E+00 -0.45593999997E+02  0.45594000000E+02  0.51100000000E-03 0.  1.
    9900012    2    1    2    0    0 -0.83978405666E+01 -0.17011212395E+02  0.39034838846E+02  0.47787265939E+02  0.19999976721E+02 0.  0.
        -12    1    1    2    0    0  0.83978405666E+01  0.17011212395E+02 -0.39034838846E+02  0.43400734061E+02  0.00000000000E+00 0.  1.
         11    1    3    3    0    0 -0.32330563503E+01 -0.18569682553E+02  0.34075410653E+02  0.38941229756E+02  0.51100000000E-03 0. -1.
        -11    1    3    3    0    0 -0.12097263920E+01  0.12293270178E+01  0.45383524393E+01  0.48550309973E+01  0.51100000000E-03 0.  1.
         12    1    3    3    0    0 -0.39550578243E+01  0.32914314054E+00  0.42107575396E+00  0.39910051856E+01  0.00000000000E+00 0. -1.
</event>
<event>
 7    1  0.2756432E-009  0.4778727E+02  0.7816164E-02  0.1312668E+00
        -11   -1    0    0    0    0  0.00000000000E+00  0.00000000000E+00  0.45593999997E+02  0.45594000000E+02  0.51100000000E-03 0.  1.
         11   -1    0    0    0    0 -0.00000000000E+00 -0.00000000000E+00 -0.45593999997E+02  0.45594000000E+02  0.51100000000E-03 0. -1.
    9900012    2    1    2    0    0  0.27704482631E+02  0.22093080636E+01 -0.33334725735E+02  0.47787270285E+02  0.19999996536E+02 0.  0.
        -12    1    1    2    0    0 -0.27704482631E+02 -0.22093080636E+01  0.33334725735E+02  0.43400729715E+02  0.00000000000E+00 0.  1.
         11    1    3    3    0    0  0.22242809407E+02 -0.21087438586E+01 -0.27887939986E+02  0.35734109306E+02  0.51100000000E-03 0. -1.
        -11    1    3    3    0    0  0.70045406167E+01  0.98052211324E+00 -0.34591519414E+01  0.78734201768E+01  0.51100000000E-03 0.  1.
         12    1    3    3    0    0 -0.15428673924E+01  0.33375298089E+01 -0.19876338080E+01  0.41797408019E+01  0.00000000000E+00 0. -1.
</event>
<event>
 7    1  0.2756432E-009  0.4778727E+02  0.7816164E-02  0.1312668E+00
        -11   -1    0    0    0    0  0.00000000000E+00  0.00000000000E+00  0.45593999997E+02  0.45594000000E+02  0.51100000000E-03 0.  1.
         11   -1    0    0    0    0 -0.00000000000E+00 -0.00000000000E+00 -0.45593999997E+02  0.45594000000E+02  0.51100000000E-03 0. -1.
    9900012    2    1    2    0    0 -0.26237968165E+02  0.22308438616E+02 -0.26410721897E+02  0.47787266849E+02  0.19999980873E+02 0.  0.
        -12    1    1    2    0    0  0.26237968165E+02 -0.22308438616E+02  0.26410721897E+02  0.43400733151E+02  0.00000000000E+00 0.  1.
         11    1    3    3    0    0  0.28835288665E+01  0.10147949607E+01 -0.20933500786E+01  0.37049510588E+01  0.51100000000E-03 0. -1.
        -11    1    3    3    0    0 -0.11158863864E+02  0.47411945793E+01 -0.58569158298E+01  0.13464866582E+02  0.51100000000E-03 0.  1.
         12    1    3    3    0    0 -0.17962633167E+02  0.16552449076E+02 -0.18460455988E+02  0.30617449208E+02  0.00000000000E+00 0. -1.
</event>
<event>
 7    1  0.2756432E-009  0.4778727E+02  0.7816164E-02  0.1312668E+00
        -11   -1    0    0    0    0  0.00000000000E+00  0.00000000000E+00  0.45593999997E+02  0.45594000000E+02  0.51100000000E-03 0. -1.
         11   -1    0    0    0    0 -0.00000000000E+00 -0.00000000000E+00 -0.45593999997E+02  0.45594000000E+02  0.51100000000E-03 0.  1.
    9900012    2    1    2    0    0  0.37688202982E+02 -0.21445336157E+02  0.18222366670E+01  0.47787266902E+02  0.19999981115E+02 0.  0.
        -12    1    1    2    0    0 -0.37688202982E+02  0.21445336157E+02 -0.18222366670E+01  0.43400733098E+02  0.00000000000E+00 0.  1.
         11    1    3    3    0    0  0.10756293262E+02 -0.94604955282E+01  0.93384661306E+01  0.17099876324E+02  0.51100000000E-03 0. -1.
        -11    1    3    3    0    0  0.18592459195E+02 -0.90787339525E+01 -0.69936065161E+01  0.21840638302E+02  0.51100000000E-03 0.  1.
         12    1    3    3    0    0  0.83394505254E+01 -0.29061066765E+01 -0.52262294754E+00  0.88467522756E+01  0.00000000000E+00 0. -1.
</event>
<event>
 7    1  0.3400844E-009  0.4778727E+02  0.7816164E-02  0.1312668E+00
        -11   -1    0    0    0    0  0.00000000000E+00  0.00000000000E+00  0.45593999997E+02  0.45594000000E+02  0.51100000000E-03 0. -1.
         11   -1    0    0    0    0 -0.00000000000E+00 -0.00000000000E+00 -0.45593999997E+02  0.45594000000E+02  0.51100000000E-03 0.  1.
    9900012    2    1    2    0    0 -0.23336513745E+01  0.28370422436E+02 -0.32761206531E+02  0.47787269000E+02  0.19999990681E+02 0.  0.
        -12    1    1    2    0    0  0.23336513745E+01 -0.28370422436E+02  0.32761206531E+02  0.43400731000E+02  0.00000000000E+00 0.  1.
         11    1    3    3    0    0 -0.20191714949E+01  0.10759783664E+02 -0.18205157146E+02  0.21243298826E+02  0.51100000000E-03 0. -1.
        -11    1    3    3    0    0 -0.47652532996E+01  0.25646204245E+01 -0.42514370040E+00  0.54282284733E+01  0.51100000000E-03 0.  1.
        -12    1    3    3    0    0  0.44507734199E+01  0.15046018347E+02 -0.14130905685E+02  0.21115741702E+02  0.00000000000E+00 0.  1.
</event>
<event>
 7    1  0.2756432E-009  0.4778727E+02  0.7816164E-02  0.1312668E+00
        -11   -1    0    0    0    0  0.00000000000E+00  0.00000000000E+00  0.45593999997E+02  0.45594000000E+02  0.51100000000E-03 0.  1.
         11   -1    0    0    0    0 -0.00000000000E+00 -0.00000000000E+00 -0.45593999997E+02  0.45594000000E+02  0.51100000000E-03 0. -1.
    9900012    2    1    2    0    0 -0.21050796230E+01  0.29808206483E+02 -0.31474796358E+02  0.47787270286E+02  0.19999996540E+02 0.  0.
        -12    1    1    2    0    0  0.21050796230E+01 -0.29808206483E+02  0.31474796358E+02  0.43400729714E+02  0.00000000000E+00 0.  1.
         11    1    3    3    0    0  0.26585965154E+01  0.51177986146E+01 -0.10985797201E+02  0.12407567792E+02  0.51100000000E-03 0. -1.
        -11    1    3    3    0    0 -0.35870756859E+01  0.22269675550E+02 -0.10220237289E+02  0.24764062905E+02  0.51100000000E-03 0.  1.
        -12    1    3    3    0    0 -0.11766004524E+01  0.24207323185E+01 -0.10268761868E+02  0.10615639589E+02  0.00000000000E+00 0.  1.
</event>
<event>
 7    1  0.2756432E-009  0.4778727E+02  0.7816164E-02  0.1312668E+00
        -11   -1    0    0    0    0  0.00000000000E+00  0.00000000000E+00  0.45593999997E+02  0.45594000000E+02  0.51100000000E-03 0.  1.
         11   -1    0    0    0    0 -0.00000000000E+00 -0.00000000000E+00 -0.45593999997E+02  0.45594000000E+02  0.51100000000E-03 0. -1.
    9900012    2    1    2    0    0 -0.28184325128E+02 -0.31723376397E+02 -0.91046557523E+01  0.47787267871E+02  0.19999985531E+02 0.  0.
        -12    1    1    2    0    0  0.28184325128E+02  0.31723376397E+02  0.91046557523E+01  0.43400732129E+02  0.00000000000E+00 0.  1.
         11    1    3    3    0    0 -0.10486236460E+02 -0.21124373900E+02 -0.42104895559E+01  0.23956805929E+02  0.51100000000E-03 0. -1.
        -11    1    3    3    0    0 -0.32328138704E+01 -0.76068652478E+01  0.12598625243E-01  0.82653277857E+01  0.51100000000E-03 0.  1.
         12    1    3    3    0    0 -0.14465274797E+02 -0.29921372496E+01 -0.49067648217E+01  0.15565134156E+02  0.00000000000E+00 0. -1.
</event>
<event>
 7    1  0.2756432E-009  0.4778727E+02  0.7816164E-02  0.1312668E+00
        -11   -1    0    0    0    0  0.00000000000E+00  0.00000000000E+00  0.45593999997E+02  0.45594000000E+02  0.51100000000E-03 0.  1.
         11   -1    0    0    0    0 -0.00000000000E+00 -0.00000000000E+00 -0.45593999997E+02  0.45594000000E+02  0.51100000000E-03 0. -1.
    9900012    2    1    2    0    0 -0.63493604521E+01  0.31648272177E+02 -0.29011991918E+02  0.47787272068E+02  0.20000004668E+02 0.  0.
        -12    1    1    2    0    0  0.63493604521E+01 -0.31648272177E+02  0.29011991918E+02  0.43400727932E+02  0.00000000000E+00 0.  1.
         11    1    3    3    0    0 -0.10322901781E+02  0.10951889360E+02 -0.15118003032E+02  0.21332140017E+02  0.51100000000E-03 0. -1.
        -11    1    3    3    0    0  0.17452027607E+01  0.11131403351E+02 -0.27442306184E+01  0.11596752787E+02  0.51100000000E-03 0.  1.
        -12    1    3    3    0    0  0.22283385688E+01  0.95649794657E+01 -0.11149758267E+02  0.14858379265E+02  0.00000000000E+00 0.  1.
</event>
<event>
 7    1  0.2756432E-009  0.4778727E+02  0.7816164E-02  0.1312668E+00
        -11   -1    0    0    0    0  0.00000000000E+00  0.00000000000E+00  0.45593999997E+02  0.45594000000E+02  0.51100000000E-03 0. -1.
         11   -1    0    0    0    0 -0.00000000000E+00 -0.00000000000E+00 -0.45593999997E+02  0.45594000000E+02  0.51100000000E-03 0.  1.
    9900012    2    1    2    0    0 -0.54702548969E+01 -0.37629261721E+02  0.20922196414E+02  0.47787270408E+02  0.19999997097E+02 0.  0.
        -12    1    1    2    0    0  0.54702548969E+01  0.37629261721E+02 -0.20922196414E+02  0.43400729592E+02  0.00000000000E+00 0.  1.
         11    1    3    3    0    0 -0.96272555113E+01 -0.19812568117E+02  0.67303385221E+01  0.23033005903E+02  0.51100000000E-03 0. -1.
        -11    1    3    3    0    0  0.38346921736E+01 -0.23387030103E+01  0.15001586646E+01  0.47354906944E+01  0.51100000000E-03 0.  1.
        -12    1    3    3    0    0  0.32230844081E+00 -0.15477990594E+02  0.12691699228E+02  0.20018773810E+02  0.00000000000E+00 0.  1.
</event>
<event>
 7    1  0.2756432E-009  0.4778727E+02  0.7816164E-02  0.1312668E+00
        -11   -1    0    0    0    0  0.00000000000E+00  0.00000000000E+00  0.45593999997E+02  0.45594000000E+02  0.51100000000E-03 0.  1.
         11   -1    0    0    0    0 -0.00000000000E+00 -0.00000000000E+00 -0.45593999997E+02  0.45594000000E+02  0.51100000000E-03 0. -1.
    9900012    2    1    2    0    0  0.11770025971E+02 -0.28900086199E+02 -0.30164127592E+02  0.47787273197E+02  0.20000009814E+02 0.  0.
        -12    1    1    2    0    0 -0.11770025971E+02  0.28900086199E+02  0.30164127592E+02  0.43400726803E+02  0.00000000000E+00 0.  1.
         11    1    3    3    0    0  0.33620900710E+01 -0.96546167427E+01 -0.61254947134E+01  0.11917925987E+02  0.51100000000E-03 0. -1.
        -11    1    3    3    0    0 -0.31219619990E+01 -0.13241287919E+02 -0.12960855799E+02  0.18789947732E+02  0.51100000000E-03 0.  1.
        -12    1    3    3    0    0  0.11529897899E+02 -0.60041815379E+01 -0.11077777079E+02  0.17079399477E+02  0.00000000000E+00 0.  1.
</event>
<event>
 7    1  0.2756432E-009  0.4778726E+02  0.7816164E-02  0.1312668E+00
        -11   -1    0    0    0    0  0.00000000000E+00  0.00000000000E+00  0.45593999997E+02  0.45594000000E+02  0.51100000000E-03 0. -1.
         11   -1    0    0    0    0 -0.00000000000E+00 -0.00000000000E+00 -0.45593999997E+02  0.45594000000E+02  0.51100000000E-03 0.  1.
    9900012    2    1    2    0    0 -0.42351036078E+01 -0.54722265468E+01  0.42845573542E+02  0.47787256480E+02  0.19999933596E+02 0.  0.
        -12    1    1    2    0    0  0.42351036078E+01  0.54722265468E+01 -0.42845573542E+02  0.43400743520E+02  0.00000000000E+00 0.  1.
         11    1    3    3    0    0 -0.60796687738E+01  0.24828785841E+01  0.58048195123E+01  0.87648724060E+01  0.51100000000E-03 0. -1.
        -11    1    3    3    0    0  0.21824087761E+01 -0.89673468846E+01  0.20907534807E+02  0.22853910610E+02  0.51100000000E-03 0.  1.
        -12    1    3    3    0    0 -0.33784361006E+00  0.10122417536E+01  0.16133219222E+02  0.16168473464E+02  0.00000000000E+00 0.  1.
</event>
<event>
 7    1  0.2756432E-009  0.4778727E+02  0.7816164E-02  0.1312668E+00
        -11   -1    0    0    0    0  0.00000000000E+00  0.00000000000E+00  0.45593999997E+02  0.45594000000E+02  0.51100000000E-03 0.  1.
         11   -1    0    0    0    0 -0.00000000000E+00 -0.00000000000E+00 -0.45593999997E+02  0.45594000000E+02  0.51100000000E-03 0. -1.
    9900012    2    1    2    0    0 -0.29018359379E+02  0.23326655773E+01 -0.32188765756E+02  0.47787272464E+02  0.20000006473E+02 0.  0.
        -12    1    1    2    0    0  0.29018359379E+02 -0.23326655773E+01  0.32188765756E+02  0.43400727536E+02  0.00000000000E+00 0.  1.
         11    1    3    3    0    0  0.14403514235E+01 -0.30032288277E+01 -0.54186502850E+01  0.63604847918E+01  0.51100000000E-03 0. -1.
        -11    1    3    3    0    0 -0.27322463528E+02  0.31358637521E+01 -0.21484821630E+02  0.34899114823E+02  0.51100000000E-03 0.  1.
        -12    1    3    3    0    0 -0.31362472754E+01  0.22000306529E+01 -0.52852938405E+01  0.65276728493E+01  0.00000000000E+00 0.  1.
</event>
<event>
 7    1  0.2756432E-009  0.4778727E+02  0.7816164E-02  0.1312668E+00
        -11   -1    0    0    0    0  0.00000000000E+00  0.00000000000E+00  0.45593999997E+02  0.45594000000E+02  0.51100000000E-03 0.  1.
         11   -1    0    0    0    0 -0.00000000000E+00 -0.00000000000E+00 -0.45593999997E+02  0.45594000000E+02  0.51100000000E-03 0. -1.
    9900012    2    1    2    0    0 -0.17725129804E+02  0.19739288205E+02 -0.34348273462E+02  0.47787267112E+02  0.19999982069E+02 0.  0.
        -12    1    1    2    0    0  0.17725129804E+02 -0.19739288205E+02  0.34348273462E+02  0.43400732888E+02  0.00000000000E+00 0.  1.
         11    1    3    3    0    0 -0.35897996850E+01 -0.23317195359E+00 -0.16524535191E+02  0.16911572798E+02  0.51100000000E-03 0. -1.
        -11    1    3    3    0    0  0.25513552981E+00  0.27586858837E+01 -0.17782375455E+01  0.32920466238E+01  0.51100000000E-03 0.  1.
         12    1    3    3    0    0 -0.14390465649E+02  0.17213774275E+02 -0.16045500725E+02  0.27583647690E+02  0.00000000000E+00 0. -1.
</event>
<event>
 7    1  0.3288037E-009  0.4778727E+02  0.7816164E-02  0.1312668E+00
        -11   -1    0    0    0    0  0.00000000000E+00  0.00000000000E+00  0.45593999997E+02  0.45594000000E+02  0.51100000000E-03 0.  1.
         11   -1    0    0    0    0 -0.00000000000E+00 -0.00000000000E+00 -0.45593999997E+02  0.45594000000E+02  0.51100000000E-03 0. -1.
    9900012    2    1    2    0    0  0.39467890736E+02 -0.59705983953E+01  0.17037035491E+02  0.47787273938E+02  0.20000013195E+02 0.  0.
        -12    1    1    2    0    0 -0.39467890736E+02  0.59705983953E+01 -0.17037035491E+02  0.43400726062E+02  0.00000000000E+00 0.  1.
         11    1    3    3    0    0  0.23499872987E+02 -0.78235174243E+01  0.11107405382E+02  0.27144537386E+02  0.51100000000E-03 0. -1.
        -11    1    3    3    0    0  0.86106623354E+01  0.30403751183E+01 -0.24240038209E+01  0.94479194270E+01  0.51100000000E-03 0.  1.
        -12    1    3    3    0    0  0.73573554131E+01 -0.11874560893E+01  0.83536339299E+01  0.11194817126E+02  0.00000000000E+00 0.  1.
</event>
<event>
 7    1  0.2756432E-009  0.4778727E+02  0.7816164E-02  0.1312668E+00
        -11   -1    0    0    0    0  0.00000000000E+00  0.00000000000E+00  0.45593999997E+02  0.45594000000E+02  0.51100000000E-03 0.  1.
         11   -1    0    0    0    0 -0.00000000000E+00 -0.00000000000E+00 -0.45593999997E+02  0.45594000000E+02  0.51100000000E-03 0. -1.
    9900012    2    1    2    0    0 -0.15029236759E+02 -0.16841124757E+02 -0.37069145518E+02  0.47787274313E+02  0.20000014905E+02 0.  0.
        -12    1    1    2    0    0  0.15029236759E+02  0.16841124757E+02  0.37069145518E+02  0.43400725687E+02  0.00000000000E+00 0.  1.
         11    1    3    3    0    0  0.29364540198E-04 -0.18645160356E+01  0.35680444572E+00  0.18983492096E+01  0.51100000000E-03 0.  1.
        -11    1    3    3    0    0 -0.38699572441E+00 -0.85600853690E+01 -0.22263588619E+02  0.23855653537E+02  0.51100000000E-03 0. -1.
        -12    1    3    3    0    0 -0.14642270399E+02 -0.64165233527E+01 -0.15162361345E+02  0.22033271567E+02  0.00000000000E+00 0.  1.
</event>
<event>
 7    1  0.2756432E-009  0.4778727E+02  0.7816164E-02  0.1312668E+00
        -11   -1    0    0    0    0  0.00000000000E+00  0.00000000000E+00  0.45593999997E+02  0.45594000000E+02  0.51100000000E-03 0. -1.
         11   -1    0    0    0    0 -0.00000000000E+00 -0.00000000000E+00 -0.45593999997E+02  0.45594000000E+02  0.51100000000E-03 0.  1.
    9900012    2    1    2    0    0  0.14336015082E+02  0.71674782331E+01  0.40332733929E+02  0.47787268453E+02  0.19999988185E+02 0.  0.
        -12    1    1    2    0    0 -0.14336015082E+02 -0.71674782331E+01 -0.40332733929E+02  0.43400731547E+02  0.00000000000E+00 0.  1.
         11    1    3    3    0    0  0.35461645201E+01 -0.21848656285E+01  0.55557574872E+01  0.69437282591E+01  0.51100000000E-03 0. -1.
        -11    1    3    3    0    0  0.42974673402E+00  0.68469580126E+01  0.26428722609E+02  0.27304631389E+02  0.51100000000E-03 0.  1.
        -12    1    3    3    0    0  0.10360103828E+02  0.25053858490E+01  0.83482538320E+01  0.13538908805E+02  0.00000000000E+00 0.  1.
</event>
<event>
 7    1  0.2756432E-009  0.4778728E+02  0.7816164E-02  0.1312668E+00
        -11   -1    0    0    0    0  0.00000000000E+00  0.00000000000E+00  0.45593999997E+02  0.45594000000E+02  0.51100000000E-03 0.  1.
         11   -1    0    0    0    0 -0.00000000000E+00 -0.00000000000E+00 -0.45593999997E+02  0.45594000000E+02  0.51100000000E-03 0. -1.
    9900012    2    1    2    0    0  0.19897229369E+02 -0.10535782017E+02 -0.37104182017E+02  0.47787276937E+02  0.20000026865E+02 0.  0.
        -12    1    1    2    0    0 -0.19897229369E+02  0.10535782017E+02  0.37104182017E+02  0.43400723063E+02  0.00000000000E+00 0.  1.
         11    1    3    3    0    0  0.17275220722E+02 -0.67559084512E+01 -0.18671814451E+02  0.26319426384E+02  0.51100000000E-03 0. -1.
        -11    1    3    3    0    0  0.28510350761E+00  0.29882030892E+01 -0.98160795611E+01  0.10264797120E+02  0.51100000000E-03 0.  1.
        -12    1    3    3    0    0  0.23369051393E+01 -0.67680766553E+01 -0.86162880045E+01  0.11203053433E+02  0.00000000000E+00 0.  1.
</event>
<event>
 7    1  0.2756432E-009  0.4778727E+02  0.7816164E-02  0.1312668E+00
        -11   -1    0    0    0    0  0.00000000000E+00  0.00000000000E+00  0.45593999997E+02  0.45594000000E+02  0.51100000000E-03 0.  1.
         11   -1    0    0    0    0 -0.00000000000E+00 -0.00000000000E+00 -0.45593999997E+02  0.45594000000E+02  0.51100000000E-03 0. -1.
    9900012    2    1    2    0    0  0.28085631993E+01 -0.38275713443E+02 -0.20265854170E+02  0.47787272909E+02  0.20000008500E+02 0.  0.
        -12    1    1    2    0    0 -0.28085631993E+01  0.38275713443E+02  0.20265854170E+02  0.43400727091E+02  0.00000000000E+00 0.  1.
         11    1    3    3    0    0  0.80383184012E+01 -0.10780529662E+02 -0.60904106090E+01  0.14762367160E+02  0.51100000000E-03 0. -1.
        -11    1    3    3    0    0 -0.68233639061E+01 -0.21911012183E+02 -0.14604640744E+02  0.27201953632E+02  0.51100000000E-03 0.  1.
        -12    1    3    3    0    0  0.15936087041E+01 -0.55841715976E+01  0.42919718282E+00  0.58229521169E+01  0.00000000000E+00 0.  1.
</event>
<event>
 7    1  0.2756432E-009  0.4778727E+02  0.7816164E-02  0.1312668E+00
        -11   -1    0    0    0    0  0.00000000000E+00  0.00000000000E+00  0.45593999997E+02  0.45594000000E+02  0.51100000000E-03 0.  1.
         11   -1    0    0    0    0 -0.00000000000E+00 -0.00000000000E+00 -0.45593999997E+02  0.45594000000E+02  0.51100000000E-03 0. -1.
    9900012    2    1    2    0    0 -0.35121685298E+02  0.12667699060E+02 -0.22127358984E+02  0.47787269669E+02  0.19999993730E+02 0.  0.
        -12    1    1    2    0    0  0.35121685298E+02 -0.12667699060E+02  0.22127358984E+02  0.43400730331E+02  0.00000000000E+00 0.  1.
         11    1    3    3    0    0 -0.11860570396E+02  0.30349543109E+01 -0.16933460764E+02  0.20895601726E+02  0.51100000000E-03 0. -1.
        -11    1    3    3    0    0 -0.25616020320E+01  0.31877831070E+01  0.12471713976E+01  0.42754184431E+01  0.51100000000E-03 0.  1.
         12    1    3    3    0    0 -0.20699512870E+02  0.64449616425E+01 -0.64410696172E+01  0.22616249500E+02  0.00000000000E+00 0. -1.
</event>
<event>
 7    1  0.2756432E-009  0.4778727E+02  0.7816164E-02  0.1312668E+00
        -11   -1    0    0    0    0  0.00000000000E+00  0.00000000000E+00  0.45593999997E+02  0.45594000000E+02  0.51100000000E-03 0.  1.
         11   -1    0    0    0    0 -0.00000000000E+00 -0.00000000000E+00 -0.45593999997E+02  0.45594000000E+02  0.51100000000E-03 0. -1.
    9900012    2    1    2    0    0  0.55423627543E+01 -0.14224883447E+02 -0.40627061305E+02  0.47787271846E+02  0.20000003657E+02 0.  0.
        -12    1    1    2    0    0 -0.55423627543E+01  0.14224883447E+02  0.40627061305E+02  0.43400728154E+02  0.00000000000E+00 0.  1.
         11    1    3    3    0    0 -0.31475766865E+01 -0.24442237715E+01 -0.22322233658E+02  0.22675175514E+02  0.51100000000E-03 0. -1.
        -11    1    3    3    0    0  0.38259413569E+01 -0.11043054716E+02 -0.15617893270E+02  0.19506549546E+02  0.51100000000E-03 0.  1.
        -12    1    3    3    0    0  0.48639980839E+01 -0.73760495954E+00 -0.26869343774E+01  0.56055467873E+01  0.00000000000E+00 0.  1.
</event>
<event>
 7    1  0.2756432E-009  0.4778727E+02  0.7816164E-02  0.1312668E+00
        -11   -1    0    0    0    0  0.00000000000E+00  0.00000000000E+00  0.45593999997E+02  0.45594000000E+02  0.51100000000E-03 0. -1.
         11   -1    0    0    0    0 -0.00000000000E+00 -0.00000000000E+00 -0.45593999997E+02  0.45594000000E+02  0.51100000000E-03 0.  1.
    9900012    2    1    2    0    0  0.41063223651E+02  0.69435238463E+01 -0.12215664084E+02  0.47787270640E+02  0.19999998154E+02 0.  0.
        -12    1    1    2    0    0 -0.41063223651E+02 -0.69435238463E+01  0.12215664084E+02  0.43400729360E+02  0.00000000000E+00 0.  1.
         11    1    3    3    0    0  0.12681734939E+02 -0.40535318572E+01 -0.48076154306E+01  0.14155235356E+02  0.51100000000E-03 0. -1.
        -11    1    3    3    0    0  0.87668631133E+01  0.82145505245E+01  0.11145560740E+01  0.12065610829E+02  0.51100000000E-03 0.  1.
         12    1    3    3    0    0  0.19614625598E+02  0.27825051790E+01 -0.85226047277E+01  0.21566424455E+02  0.00000000000E+00 0. -1.
</event>
<event>
 7    1  0.2756432E-009  0.4778728E+02  0.7816164E-02  0.1312668E+00
        -11   -1    0    0    0    0  0.00000000000E+00  0.00000000000E+00  0.45593999997E+02  0.45594000000E+02  0.51100000000E-03 0. -1.
         11   -1    0    0    0    0 -0.00000000000E+00 -0.00000000000E+00 -0.45593999997E+02  0.45594000000E+02  0.51100000000E-03 0.  1.
    9900012    2    1    2    0    0  0.26496581174E+02  0.11715304518E+02  0.32315717429E+02  0.47787276886E+02  0.20000026635E+02 0.  0.
        -12    1    1    2    0    0 -0.26496581174E+02 -0.11715304518E+02 -0.32315717429E+02  0.43400723114E+02  0.00000000000E+00 0.  1.
         11    1    3    3    0    0  0.17167159473E+02  0.54550706425E+01  0.65594602857E+01  0.19170176828E+02  0.51100000000E-03 0. -1.
        -11    1    3    3    0    0  0.12349225884E+01  0.34082512742E+01  0.10559472787E+02  0.11164393237E+02  0.51100000000E-03 0.  1.
         12    1    3    3    0    0  0.80944991124E+01  0.28519826014E+01  0.15196784356E+02  0.17452706821E+02  0.00000000000E+00 0. -1.
</event>
<event>
 7    1  0.2756432E-009  0.4778727E+02  0.7816164E-02  0.1312668E+00
        -11   -1    0    0    0    0  0.00000000000E+00  0.00000000000E+00  0.45593999997E+02  0.45594000000E+02  0.51100000000E-03 0.  1.
         11   -1    0    0    0    0 -0.00000000000E+00 -0.00000000000E+00 -0.45593999997E+02  0.45594000000E+02  0.51100000000E-03 0. -1.
    9900012    2    1    2    0    0  0.32228587041E+01 -0.27955993705E+02 -0.33040861591E+02  0.47787274926E+02  0.20000017699E+02 0.  0.
        -12    1    1    2    0    0 -0.32228587041E+01  0.27955993705E+02  0.33040861591E+02  0.43400725074E+02  0.00000000000E+00 0.  1.
         11    1    3    3    0    0 -0.24217821965E+01 -0.11216996542E+02 -0.22503086166E+02  0.25260145045E+02  0.51100000000E-03 0. -1.
        -11    1    3    3    0    0 -0.13833810727E+01 -0.80905198602E+01 -0.71338474184E+01  0.10874834898E+02  0.51100000000E-03 0.  1.
         12    1    3    3    0    0  0.70280219733E+01 -0.86484773031E+01 -0.34039280060E+01  0.11652294984E+02  0.00000000000E+00 0. -1.
</event>
<event>
 7    1  0.3304541E-009  0.4778727E+02  0.7816164E-02  0.1312668E+00
        -11   -1    0    0    0    0  0.00000000000E+00  0.00000000000E+00  0.45593999997E+02  0.45594000000E+02  0.51100000000E-03 0. -1.
         11   -1    0    0    0    0 -0.00000000000E+00 -0.00000000000E+00 -0.45593999997E+02  0.45594000000E+02  0.51100000000E-03 0.  1.
    9900012    2    1    2    0    0 -0.42809222951E+01 -0.25464694487E+02  0.34883326130E+02  0.47787269558E+02  0.19999993223E+02 0.  0.
        -12    1    1    2    0    0  0.42809222951E+01  0.25464694487E+02 -0.34883326130E+02  0.43400730442E+02  0.00000000000E+00 0.  1.
         11    1    3    3    0    0 -0.72173697264E+01 -0.15635375667E+02  0.18879435095E+02  0.25553639032E+02  0.51100000000E-03 0. -1.
        -11    1    3    3    0    0  0.17328021044E+01  0.24509591258E+01  0.22183412276E+01  0.37324042965E+01  0.51100000000E-03 0.  1.
        -12    1    3    3    0    0  0.12036453269E+01 -0.12280277947E+02  0.13785549807E+02  0.18501226229E+02  0.00000000000E+00 0.  1.
</event>
<event>
 7    1  0.2756432E-009  0.4778727E+02  0.7816164E-02  0.1312668E+00
        -11   -1    0    0    0    0  0.00000000000E+00  0.00000000000E+00  0.45593999997E+02  0.45594000000E+02  0.51100000000E-03 0.  1.
         11   -1    0    0    0    0 -0.00000000000E+00 -0.00000000000E+00 -0.45593999997E+02  0.45594000000E+02  0.51100000000E-03 0. -1.
    9900012    2    1    2    0    0  0.28594306911E+02 -0.85395014342E+01 -0.31512946678E+02  0.47787270965E+02  0.19999999637E+02 0.  0.
        -12    1    1    2    0    0 -0.28594306911E+02  0.85395014342E+01  0.31512946678E+02  0.43400729035E+02  0.00000000000E+00 0.  1.
         11    1    3    3    0    0  0.15478165929E+02  0.25570635301E+01 -0.90035941161E+01  0.18088032001E+02  0.51100000000E-03 0. -1.
        -11    1    3    3    0    0  0.69266142423E+01 -0.65808720000E+01 -0.54526895870E+01  0.11000803840E+02  0.51100000000E-03 0.  1.
         12    1    3    3    0    0  0.61895267401E+01 -0.45156929643E+01 -0.17056662975E+02  0.18698435123E+02  0.00000000000E+00 0. -1.
</event>
<event>
 7    1  0.2756432E-009  0.4778727E+02  0.7816164E-02  0.1312668E+00
        -11   -1    0    0    0    0  0.00000000000E+00  0.00000000000E+00  0.45593999997E+02  0.45594000000E+02  0.51100000000E-03 0. -1.
         11   -1    0    0    0    0 -0.00000000000E+00 -0.00000000000E+00 -0.45593999997E+02  0.45594000000E+02  0.51100000000E-03 0.  1.
    9900012    2    1    2    0    0  0.32915092648E+02  0.51545050885E+01  0.27814583170E+02  0.47787270932E+02  0.19999999486E+02 0.  0.
        -12    1    1    2    0    0 -0.32915092648E+02 -0.51545050885E+01 -0.27814583170E+02  0.43400729068E+02  0.00000000000E+00 0.  1.
         11    1    3    3    0    0  0.11160053750E+02 -0.57259449618E+00  0.60178748391E+00  0.11190925458E+02  0.51100000000E-03 0.  1.
        -11    1    3    3    0    0  0.21625454134E+02  0.47122433508E+01  0.27705586978E+02  0.35460753714E+02  0.51100000000E-03 0. -1.
         12    1    3    3    0    0  0.12958476365E+00  0.10148562339E+01 -0.49279129233E+00  0.11355917595E+01  0.00000000000E+00 0. -1.
</event>
<event>
 7    1  0.3136071E-009  0.4778727E+02  0.7816164E-02  0.1312668E+00
        -11   -1    0    0    0    0  0.00000000000E+00  0.00000000000E+00  0.45593999997E+02  0.45594000000E+02  0.51100000000E-03 0. -1.
         11   -1    0    0    0    0 -0.00000000000E+00 -0.00000000000E+00 -0.45593999997E+02  0.45594000000E+02  0.51100000000E-03 0.  1.
    9900012    2    1    2    0    0  0.16744332242E+02  0.38263945136E+02  0.11794961185E+02  0.47787271101E+02  0.20000000260E+02 0.  0.
        -12    1    1    2    0    0 -0.16744332242E+02 -0.38263945136E+02 -0.11794961185E+02  0.43400728899E+02  0.00000000000E+00 0.  1.
         11    1    3    3    0    0  0.50699278425E+01  0.20110712474E+02 -0.12160621512E+01  0.20775556117E+02  0.51100000000E-03 0.  1.
        -11    1    3    3    0    0  0.63883738959E+01  0.16387031729E+02  0.12139098167E+02  0.21370630185E+02  0.51100000000E-03 0. -1.
        -12    1    3    3    0    0  0.52860305035E+01  0.17662009324E+01  0.87192516910E+00  0.56410847998E+01  0.00000000000E+00 0.  1.
</event>
<event>
 7    1  0.3726695E-009  0.4778727E+02  0.7816164E-02  0.1312668E+00
        -11   -1    0    0    0    0  0.00000000000E+00  0.00000000000E+00  0.45593999997E+02  0.45594000000E+02  0.51100000000E-03 0.  1.
         11   -1    0    0    0    0 -0.00000000000E+00 -0.00000000000E+00 -0.45593999997E+02  0.45594000000E+02  0.51100000000E-03 0. -1.
    9900012    2    1    2    0    0  0.37841284731E+02  0.16792827090E+02 -0.13025416760E+02  0.47787270127E+02  0.19999995817E+02 0.  0.
        -12    1    1    2    0    0 -0.37841284731E+02 -0.16792827090E+02  0.13025416760E+02  0.43400729873E+02  0.00000000000E+00 0.  1.
         11    1    3    3    0    0  0.21399957634E+02  0.86818233281E+01 -0.90209029554E+01  0.24793324372E+02  0.51100000000E-03 0. -1.
        -11    1    3    3    0    0  0.83224138476E+01  0.91241101127E+01  0.24283065132E+01  0.12586049038E+02  0.51100000000E-03 0.  1.
        -12    1    3    3    0    0  0.81189132491E+01 -0.10131063512E+01 -0.64328203177E+01  0.10407896717E+02  0.00000000000E+00 0.  1.
</event>
<event>
 7    1  0.2756432E-009  0.4778727E+02  0.7816164E-02  0.1312668E+00
        -11   -1    0    0    0    0  0.00000000000E+00  0.00000000000E+00  0.45593999997E+02  0.45594000000E+02  0.51100000000E-03 0. -1.
         11   -1    0    0    0    0 -0.00000000000E+00 -0.00000000000E+00 -0.45593999997E+02  0.45594000000E+02  0.51100000000E-03 0.  1.
    9900012    2    1    2    0    0  0.36526373293E+02 -0.16300323391E+02  0.16844786550E+02  0.47787270484E+02  0.19999997447E+02 0.  0.
        -12    1    1    2    0    0 -0.36526373293E+02  0.16300323391E+02 -0.16844786550E+02  0.43400729516E+02  0.00000000000E+00 0.  1.
         11    1    3    3    0    0  0.23815619436E+02 -0.98041297367E+01  0.33872694987E+01  0.25976494835E+02  0.51100000000E-03 0.  1.
        -11    1    3    3    0    0  0.98730547012E+01 -0.64575143035E+01  0.14583324537E+02  0.18757666564E+02  0.51100000000E-03 0. -1.
         12    1    3    3    0    0  0.28376991558E+01 -0.38679350629E-01 -0.11258074858E+01  0.30531090852E+01  0.00000000000E+00 0. -1.
</event>
<event>
 7    1  0.3394750E-009  0.4778727E+02  0.7816164E-02  0.1312668E+00
        -11   -1    0    0    0    0  0.00000000000E+00  0.00000000000E+00  0.45593999997E+02  0.45594000000E+02  0.51100000000E-03 0. -1.
         11   -1    0    0    0    0 -0.00000000000E+00 -0.00000000000E+00 -0.45593999997E+02  0.45594000000E+02  0.51100000000E-03 0.  1.
    9900012    2    1    2    0    0  0.20708968873E+02  0.16762006972E+02  0.34260723402E+02  0.47787269159E+02  0.19999991405E+02 0.  0.
        -12    1    1    2    0    0 -0.20708968873E+02 -0.16762006972E+02 -0.34260723402E+02  0.43400730841E+02  0.00000000000E+00 0.  1.
         11    1    3    3    0    0  0.15255891017E+02  0.14783653490E+02  0.27877755542E+02  0.35049506068E+02  0.51100000000E-03 0. -1.
        -11    1    3    3    0    0  0.37020519290E+01  0.30963169867E+01 -0.11183369470E+01  0.49540937774E+01  0.51100000000E-03 0.  1.
        -12    1    3    3    0    0  0.17510259264E+01 -0.11179635049E+01  0.75013048061E+01  0.77836693139E+01  0.00000000000E+00 0.  1.
</event>
<event>
 7    1  0.2756432E-009  0.4778727E+02  0.7816164E-02  0.1312668E+00
        -11   -1    0    0    0    0  0.00000000000E+00  0.00000000000E+00  0.45593999997E+02  0.45594000000E+02  0.51100000000E-03 0.  1.
         11   -1    0    0    0    0 -0.00000000000E+00 -0.00000000000E+00 -0.45593999997E+02  0.45594000000E+02  0.51100000000E-03 0. -1.
    9900012    2    1    2    0    0 -0.34039264480E+01 -0.43252614728E+01 -0.43050302427E+02  0.47787272574E+02  0.20000006975E+02 0.  0.
        -12    1    1    2    0    0  0.34039264480E+01  0.43252614728E+01  0.43050302427E+02  0.43400727426E+02  0.00000000000E+00 0.  1.
         11    1    3    3    0    0 -0.68468371733E+01  0.34610741418E+00 -0.26787228427E+02  0.27650580043E+02  0.51100000000E-03 0. -1.
        -11    1    3    3    0    0  0.72079237131E+00 -0.74310443930E+01 -0.13320242943E+02  0.15269866886E+02  0.51100000000E-03 0.  1.
         12    1    3    3    0    0  0.27221183540E+01  0.27596755060E+01 -0.29428310563E+01  0.48668256449E+01  0.00000000000E+00 0. -1.
</event>
<event>
 7    1  0.2756432E-009  0.4778727E+02  0.7816164E-02  0.1312668E+00
        -11   -1    0    0    0    0  0.00000000000E+00  0.00000000000E+00  0.45593999997E+02  0.45594000000E+02  0.51100000000E-03 0.  1.
         11   -1    0    0    0    0 -0.00000000000E+00 -0.00000000000E+00 -0.45593999997E+02  0.45594000000E+02  0.51100000000E-03 0. -1.
    9900012    2    1    2    0    0  0.29019433056E+01 -0.27744983860E+02 -0.33247823742E+02  0.47787272035E+02  0.20000004516E+02 0.  0.
        -12    1    1    2    0    0 -0.29019433056E+01  0.27744983860E+02  0.33247823742E+02  0.43400727965E+02  0.00000000000E+00 0.  1.
         11    1    3    3    0    0 -0.27511020586E+01 -0.22996862385E+01 -0.59982230676E+01  0.69882615551E+01  0.51100000000E-03 0. -1.
        -11    1    3    3    0    0  0.33380735012E+01  0.12113160024E+01 -0.40356797953E+01  0.53755681401E+01  0.51100000000E-03 0.  1.
        -12    1    3    3    0    0  0.23149718630E+01 -0.26656613624E+02 -0.23213920879E+02  0.35423442340E+02  0.00000000000E+00 0.  1.
</event>
<event>
 7    1  0.3628460E-009  0.4778727E+02  0.7816164E-02  0.1312668E+00
        -11   -1    0    0    0    0  0.00000000000E+00  0.00000000000E+00  0.45593999997E+02  0.45594000000E+02  0.51100000000E-03 0. -1.
         11   -1    0    0    0    0 -0.00000000000E+00 -0.00000000000E+00 -0.45593999997E+02  0.45594000000E+02  0.51100000000E-03 0.  1.
    9900012    2    1    2    0    0  0.71217006216E+01  0.14786091037E+02  0.40178054617E+02  0.47787272118E+02  0.20000004895E+02 0.  0.
        -12    1    1    2    0    0 -0.71217006216E+01 -0.14786091037E+02 -0.40178054617E+02  0.43400727882E+02  0.00000000000E+00 0.  1.
         11    1    3    3    0    0  0.53437905380E+01  0.12052079666E+02  0.28270340806E+02  0.31193282789E+02  0.51100000000E-03 0. -1.
        -11    1    3    3    0    0 -0.44789796557E+01  0.22109807005E+01  0.34937972118E+01  0.60955978897E+01  0.51100000000E-03 0.  1.
        -12    1    3    3    0    0  0.62568897393E+01  0.52303067088E+00  0.84139165989E+01  0.10498391440E+02  0.00000000000E+00 0.  1.
</event>
<event>
 7    1  0.2756432E-009  0.4778727E+02  0.7816164E-02  0.1312668E+00
        -11   -1    0    0    0    0  0.00000000000E+00  0.00000000000E+00  0.45593999997E+02  0.45594000000E+02  0.51100000000E-03 0.  1.
         11   -1    0    0    0    0 -0.00000000000E+00 -0.00000000000E+00 -0.45593999997E+02  0.45594000000E+02  0.51100000000E-03 0. -1.
    9900012    2    1    2    0    0  0.59787074519E+01  0.98807897385E+01 -0.41835966957E+02  0.47787273279E+02  0.20000010188E+02 0.  0.
        -12    1    1    2    0    0 -0.59787074519E+01 -0.98807897385E+01  0.41835966957E+02  0.43400726721E+02  0.00000000000E+00 0.  1.
         11    1    3    3    0    0  0.10690974075E+02  0.81250620647E+01 -0.14075205132E+02  0.19453147817E+02  0.51100000000E-03 0. -1.
        -11    1    3    3    0    0 -0.25917705740E+01 -0.31629833306E+00 -0.10445707081E+02  0.10767084843E+02  0.51100000000E-03 0.  1.
         12    1    3    3    0    0 -0.21204960496E+01  0.20720260068E+01 -0.17315054745E+02  0.17567040619E+02  0.00000000000E+00 0. -1.
</event>
<event>
 7    1  0.2756432E-009  0.4778727E+02  0.7816164E-02  0.1312668E+00
        -11   -1    0    0    0    0  0.00000000000E+00  0.00000000000E+00  0.45593999997E+02  0.45594000000E+02  0.51100000000E-03 0.  1.
         11   -1    0    0    0    0 -0.00000000000E+00 -0.00000000000E+00 -0.45593999997E+02  0.45594000000E+02  0.51100000000E-03 0. -1.
    9900012    2    1    2    0    0  0.39491650280E+02  0.15076363983E+02 -0.98354477683E+01  0.47787271600E+02  0.20000002535E+02 0.  0.
        -12    1    1    2    0    0 -0.39491650280E+02 -0.15076363983E+02  0.98354477683E+01  0.43400728400E+02  0.00000000000E+00 0.  1.
         11    1    3    3    0    0  0.63002616674E+00  0.70610737578E+00 -0.44599041725E+01  0.45591957719E+01  0.51100000000E-03 0. -1.
        -11    1    3    3    0    0  0.25703611601E+02  0.14819603765E+02 -0.47493809922E+01  0.30047511131E+02  0.51100000000E-03 0.  1.
         12    1    3    3    0    0  0.13158012513E+02 -0.44934715739E+00 -0.62616260364E+00  0.13180564698E+02  0.00000000000E+00 0. -1.
</event>
<event>
 7    1  0.2756432E-009  0.4778726E+02  0.7816164E-02  0.1312668E+00
        -11   -1    0    0    0    0  0.00000000000E+00  0.00000000000E+00  0.45593999997E+02  0.45594000000E+02  0.51100000000E-03 0.  1.
         11   -1    0    0    0    0 -0.00000000000E+00 -0.00000000000E+00 -0.45593999997E+02  0.45594000000E+02  0.51100000000E-03 0. -1.
    9900012    2    1    2    0    0 -0.84991842263E+01  0.14600941690E+02 -0.39977495953E+02  0.47787264828E+02  0.19999971657E+02 0.  0.
        -12    1    1    2    0    0  0.84991842263E+01 -0.14600941690E+02  0.39977495953E+02  0.43400735172E+02  0.00000000000E+00 0.  1.
         11    1    3    3    0    0  0.28053293602E+01  0.62580485543E+01 -0.12905663641E+02  0.14614691198E+02  0.51100000000E-03 0. -1.
        -11    1    3    3    0    0 -0.11762252861E+02  0.11132303624E+02 -0.24382749554E+02  0.29271099269E+02  0.51100000000E-03 0.  1.
        -12    1    3    3    0    0  0.45773927412E+00 -0.27894104880E+01 -0.26890827588E+01  0.39014743620E+01  0.00000000000E+00 0.  1.
</event>
<event>
 7    1  0.2756432E-009  0.4778727E+02  0.7816164E-02  0.1312668E+00
        -11   -1    0    0    0    0  0.00000000000E+00  0.00000000000E+00  0.45593999997E+02  0.45594000000E+02  0.51100000000E-03 0. -1.
         11   -1    0    0    0    0 -0.00000000000E+00 -0.00000000000E+00 -0.45593999997E+02  0.45594000000E+02  0.51100000000E-03 0.  1.
    9900012    2    1    2    0    0  0.24542045842E+00  0.41704867519E+02 -0.12011126244E+02  0.47787270057E+02  0.19999995497E+02 0.  0.
        -12    1    1    2    0    0 -0.24542045842E+00 -0.41704867519E+02  0.12011126244E+02  0.43400729943E+02  0.00000000000E+00 0.  1.
         11    1    3    3    0    0  0.48625992945E+01  0.18336868799E+02 -0.12150024162E+02  0.22527954116E+02  0.51100000000E-03 0. -1.
        -11    1    3    3    0    0 -0.52018587893E+01  0.81137748584E+01  0.21123825807E+01  0.98668555146E+01  0.51100000000E-03 0.  1.
         12    1    3    3    0    0  0.58467995329E+00  0.15254223861E+02 -0.19734846627E+01  0.15392460426E+02  0.00000000000E+00 0. -1.
</event>
<event>
 7    1  0.2756432E-009  0.4778727E+02  0.7816164E-02  0.1312668E+00
        -11   -1    0    0    0    0  0.00000000000E+00  0.00000000000E+00  0.45593999997E+02  0.45594000000E+02  0.51100000000E-03 0.  1.
         11   -1    0    0    0    0 -0.00000000000E+00 -0.00000000000E+00 -0.45593999997E+02  0.45594000000E+02  0.51100000000E-03 0. -1.
    9900012    2    1    2    0    0 -0.26746274109E+02 -0.23297325084E+02 -0.25009894001E+02  0.47787270366E+02  0.19999996908E+02 0.  0.
        -12    1    1    2    0    0  0.26746274109E+02  0.23297325084E+02  0.25009894001E+02  0.43400729634E+02  0.00000000000E+00 0.  1.
         11    1    3    3    0    0 -0.11212676657E+02 -0.47623814311E+01 -0.22318855723E+00  0.12184178598E+02  0.51100000000E-03 0.  1.
        -11    1    3    3    0    0 -0.15034155423E+02 -0.14464733210E+02 -0.17451454674E+02  0.27199404527E+02  0.51100000000E-03 0. -1.
        -12    1    3    3    0    0 -0.49944202842E+00 -0.40702104433E+01 -0.73352507698E+01  0.84036872412E+01  0.00000000000E+00 0.  1.
</event>
<event>
 7    1  0.2756432E-009  0.4778727E+02  0.7816164E-02  0.1312668E+00
        -11   -1    0    0    0    0  0.00000000000E+00  0.00000000000E+00  0.45593999997E+02  0.45594000000E+02  0.51100000000E-03 0.  1.
         11   -1    0    0    0    0 -0.00000000000E+00 -0.00000000000E+00 -0.45593999997E+02  0.45594000000E+02  0.51100000000E-03 0. -1.
    9900012    2    1    2    0    0  0.36367964236E+01 -0.53951041184E+01 -0.42910250563E+02  0.47787273738E+02  0.20000012283E+02 0.  0.
        -12    1    1    2    0    0 -0.36367964236E+01  0.53951041184E+01  0.42910250563E+02  0.43400726262E+02  0.00000000000E+00 0.  1.
         11    1    3    3    0    0 -0.19202040680E+01 -0.34457612175E+00 -0.30716430332E+02  0.30778320437E+02  0.51100000000E-03 0. -1.
        -11    1    3    3    0    0  0.73306130142E+01 -0.13408473131E+01 -0.59659018963E+01  0.95460852908E+01  0.51100000000E-03 0.  1.
         12    1    3    3    0    0 -0.17736125226E+01 -0.37096806835E+01 -0.62279183347E+01  0.74628680102E+01  0.00000000000E+00 0. -1.
</event>
<event>
 7    1  0.2756432E-009  0.4778728E+02  0.7816164E-02  0.1312668E+00
        -11   -1    0    0    0    0  0.00000000000E+00  0.00000000000E+00  0.45593999997E+02  0.45594000000E+02  0.51100000000E-03 0. -1.
         11   -1    0    0    0    0 -0.00000000000E+00 -0.00000000000E+00 -0.45593999997E+02  0.45594000000E+02  0.51100000000E-03 0.  1.
    9900012    2    1    2    0    0  0.25248208966E+01 -0.42594389275E+02 -0.79351239351E+01  0.47787275235E+02  0.20000019108E+02 0.  0.
        -12    1    1    2    0    0 -0.25248208966E+01  0.42594389275E+02  0.79351239351E+01  0.43400724765E+02  0.00000000000E+00 0.  1.
         11    1    3    3    0    0  0.39903928582E+01 -0.13140911389E+01 -0.27965051062E+01  0.50468318532E+01  0.51100000000E-03 0. -1.
        -11    1    3    3    0    0 -0.49705453375E+01 -0.20632774687E+02 -0.49684029166E+01  0.21796851608E+02  0.51100000000E-03 0.  1.
         12    1    3    3    0    0  0.35049733758E+01 -0.20647523449E+02 -0.17021591228E+00  0.20943591774E+02  0.00000000000E+00 0. -1.
</event>
<event>
 7    1  0.3438057E-009  0.4778727E+02  0.7816164E-02  0.1312668E+00
        -11   -1    0    0    0    0  0.00000000000E+00  0.00000000000E+00  0.45593999997E+02  0.45594000000E+02  0.51100000000E-03 0. -1.
         11   -1    0    0    0    0 -0.00000000000E+00 -0.00000000000E+00 -0.45593999997E+02  0.45594000000E+02  0.51100000000E-03 0.  1.
    9900012    2    1    2    0    0 -0.26242865499E+02 -0.20193855805E+02  0.28056076298E+02  0.47787271676E+02  0.20000002877E+02 0.  0.
        -12    1    1    2    0    0  0.26242865499E+02  0.20193855805E+02 -0.28056076298E+02  0.43400728324E+02  0.00000000000E+00 0.  1.
         11    1    3    3    0    0 -0.90144753802E+01 -0.68104019919E+01  0.91218642454E+01  0.14520700715E+02  0.51100000000E-03 0. -1.
        -11    1    3    3    0    0 -0.35133083757E+01 -0.84556868858E+01  0.15948896811E+02  0.18390467264E+02  0.51100000000E-03 0.  1.
        -12    1    3    3    0    0 -0.13715081743E+02 -0.49277669269E+01  0.29853152420E+01  0.14876103697E+02  0.00000000000E+00 0.  1.
</event>
<event>
 7    1  0.2756432E-009  0.4778727E+02  0.7816164E-02  0.1312668E+00
        -11   -1    0    0    0    0  0.00000000000E+00  0.00000000000E+00  0.45593999997E+02  0.45594000000E+02  0.51100000000E-03 0.  1.
         11   -1    0    0    0    0 -0.00000000000E+00 -0.00000000000E+00 -0.45593999997E+02  0.45594000000E+02  0.51100000000E-03 0. -1.
    9900012    2    1    2    0    0 -0.41315530395E+02  0.33945157620E+01  0.12850195204E+02  0.47787270676E+02  0.19999998322E+02 0.  0.
        -12    1    1    2    0    0  0.41315530395E+02 -0.33945157620E+01 -0.12850195204E+02  0.43400729324E+02  0.00000000000E+00 0.  1.
         11    1    3    3    0    0 -0.11379524233E+02  0.60174974493E+01  0.46123653184E+00  0.12880861257E+02  0.51100000000E-03 0. -1.
        -11    1    3    3    0    0 -0.95746940905E+01 -0.35767324102E+01  0.10142696176E+02  0.14399377335E+02  0.51100000000E-03 0.  1.
        -12    1    3    3    0    0 -0.20361312072E+02  0.95375072286E+00  0.22462624962E+01  0.20507032085E+02  0.00000000000E+00 0.  1.
</event>
<event>
 7    1  0.2756432E-009  0.4778724E+02  0.7816164E-02  0.1312668E+00
        -11   -1    0    0    0    0  0.00000000000E+00  0.00000000000E+00  0.45593999997E+02  0.45594000000E+02  0.51100000000E-03 0. -1.
         11   -1    0    0    0    0 -0.00000000000E+00 -0.00000000000E+00 -0.45593999997E+02  0.45594000000E+02  0.51100000000E-03 0.  1.
    9900012    2    1    2    0    0 -0.19581993421E+02 -0.21703607214E+02  0.32079975712E+02  0.47787241088E+02  0.19999863416E+02 0.  0.
        -12    1    1    2    0    0  0.19581993421E+02  0.21703607214E+02 -0.32079975712E+02  0.43400758912E+02  0.00000000000E+00 0.  1.
         11    1    3    3    0    0 -0.11120496508E+02 -0.86151532354E+01  0.75597453921E+01  0.15969848418E+02  0.51100000000E-03 0. -1.
        -11    1    3    3    0    0  0.27934007916E+01 -0.29863634556E+01  0.10202161545E+02  0.10991158043E+02  0.51100000000E-03 0.  1.
        -12    1    3    3    0    0 -0.11254897705E+02 -0.10102090524E+02  0.14318068775E+02  0.20826234627E+02  0.00000000000E+00 0.  1.
</event>
<event>
 7    1  0.2756432E-009  0.4778727E+02  0.7816164E-02  0.1312668E+00
        -11   -1    0    0    0    0  0.00000000000E+00  0.00000000000E+00  0.45593999997E+02  0.45594000000E+02  0.51100000000E-03 0. -1.
         11   -1    0    0    0    0 -0.00000000000E+00 -0.00000000000E+00 -0.45593999997E+02  0.45594000000E+02  0.51100000000E-03 0.  1.
    9900012    2    1    2    0    0 -0.90986312046E+01 -0.39053157146E+02 -0.16603900051E+02  0.47787266484E+02  0.19999979205E+02 0.  0.
        -12    1    1    2    0    0  0.90986312046E+01  0.39053157146E+02  0.16603900051E+02  0.43400733516E+02  0.00000000000E+00 0.  1.
         11    1    3    3    0    0 -0.12161239995E+02 -0.24882422191E+02 -0.35073610710E+01  0.27916523319E+02  0.51100000000E-03 0. -1.
        -11    1    3    3    0    0  0.24436566889E+01 -0.77151311836E+01 -0.50626321618E+01  0.95459390245E+01  0.51100000000E-03 0.  1.
         12    1    3    3    0    0  0.61895210157E+00 -0.64556037717E+01 -0.80339068183E+01  0.10324804140E+02  0.00000000000E+00 0. -1.
</event>
<event>
 7    1  0.2756432E-009  0.4778727E+02  0.7816164E-02  0.1312668E+00
        -11   -1    0    0    0    0  0.00000000000E+00  0.00000000000E+00  0.45593999997E+02  0.45594000000E+02  0.51100000000E-03 0.  1.
         11   -1    0    0    0    0 -0.00000000000E+00 -0.00000000000E+00 -0.45593999997E+02  0.45594000000E+02  0.51100000000E-03 0. -1.
    9900012    2    1    2    0    0 -0.29087244643E+02 -0.16459072942E+02 -0.27688526355E+02  0.47787269883E+02  0.19999994703E+02 0.  0.
        -12    1    1    2    0    0  0.29087244643E+02  0.16459072942E+02  0.27688526355E+02  0.43400730117E+02  0.00000000000E+00 0.  1.
         11    1    3    3    0    0 -0.27857410172E+02 -0.16333527932E+02 -0.24449492616E+02  0.40504285275E+02  0.51100000000E-03 0. -1.
        -11    1    3    3    0    0 -0.17548308212E+01 -0.41539102120E+00  0.15976615090E+01  0.24092537164E+01  0.51100000000E-03 0.  1.
         12    1    3    3    0    0  0.52499635027E+00  0.28984601192E+00 -0.48366952479E+01  0.48737308912E+01  0.00000000000E+00 0. -1.
</event>
<event>
 7    1  0.2756432E-009  0.4778728E+02  0.7816164E-02  0.1312668E+00
        -11   -1    0    0    0    0  0.00000000000E+00  0.00000000000E+00  0.45593999997E+02  0.45594000000E+02  0.51100000000E-03 0. -1.
         11   -1    0    0    0    0 -0.00000000000E+00 -0.00000000000E+00 -0.45593999997E+02  0.45594000000E+02  0.51100000000E-03 0.  1.
    9900012    2    1    2    0    0  0.14469164200E+02  0.10188573657E+02  0.39629013563E+02  0.47787280401E+02  0.20000042658E+02 0.  0.
        -12    1    1    2    0    0 -0.14469164200E+02 -0.10188573657E+02 -0.39629013563E+02  0.43400719599E+02  0.00000000000E+00 0.  1.
         11    1    3    3    0    0  0.10670646339E+02  0.37894327478E+01  0.22915886228E+02  0.25560914219E+02  0.51100000000E-03 0. -1.
        -11    1    3    3    0    0 -0.29087061459E+01  0.61257767421E+01  0.40624527477E+01  0.79050132653E+01  0.51100000000E-03 0.  1.
        -12    1    3    3    0    0  0.67072240066E+01  0.27336416754E+00  0.12650674587E+02  0.14321352916E+02  0.00000000000E+00 0.  1.
</event>
<event>
 7    1  0.2756432E-009  0.4778727E+02  0.7816164E-02  0.1312668E+00
        -11   -1    0    0    0    0  0.00000000000E+00  0.00000000000E+00  0.45593999997E+02  0.45594000000E+02  0.51100000000E-03 0.  1.
         11   -1    0    0    0    0 -0.00000000000E+00 -0.00000000000E+00 -0.45593999997E+02  0.45594000000E+02  0.51100000000E-03 0. -1.
    9900012    2    1    2    0    0  0.63687145179E+01 -0.32444477048E+02 -0.28114380210E+02  0.47787274314E+02  0.20000014907E+02 0.  0.
        -12    1    1    2    0    0 -0.63687145179E+01  0.32444477048E+02  0.28114380210E+02  0.43400725686E+02  0.00000000000E+00 0.  1.
         11    1    3    3    0    0 -0.40464534310E+01 -0.17413903350E+02 -0.99499667247E+01  0.20460196806E+02  0.51100000000E-03 0. -1.
        -11    1    3    3    0    0  0.34354582424E+01  0.93166832242E-01 -0.14498383447E+01  0.37300247829E+01  0.51100000000E-03 0.  1.
         12    1    3    3    0    0  0.69797097065E+01 -0.15123740530E+02 -0.16714575140E+02  0.23597052725E+02  0.00000000000E+00 0. -1.
</event>
<event>
 7    1  0.2756432E-009  0.4778727E+02  0.7816164E-02  0.1312668E+00
        -11   -1    0    0    0    0  0.00000000000E+00  0.00000000000E+00  0.45593999997E+02  0.45594000000E+02  0.51100000000E-03 0.  1.
         11   -1    0    0    0    0 -0.00000000000E+00 -0.00000000000E+00 -0.45593999997E+02  0.45594000000E+02  0.51100000000E-03 0. -1.
    9900012    2    1    2    0    0 -0.41807228305E+01  0.32915300104E+02 -0.27977269742E+02  0.47787273664E+02  0.20000011942E+02 0.  0.
        -12    1    1    2    0    0  0.41807228305E+01 -0.32915300104E+02  0.27977269742E+02  0.43400726336E+02  0.00000000000E+00 0.  1.
         11    1    3    3    0    0  0.19652283284E+01  0.10888785961E+01 -0.85460063026E+01  0.88364021505E+01  0.51100000000E-03 0.  1.
        -11    1    3    3    0    0  0.70684215797E+00 -0.22018521810E+00  0.17736275609E+00  0.76129178041E+00  0.51100000000E-03 0. -1.
         12    1    3    3    0    0 -0.68527933168E+01  0.32046606726E+02 -0.19608626196E+02  0.38189579733E+02  0.00000000000E+00 0. -1.
</event>
<event>
 7    1  0.2756432E-009  0.4778727E+02  0.7816164E-02  0.1312668E+00
        -11   -1    0    0    0    0  0.00000000000E+00  0.00000000000E+00  0.45593999997E+02  0.45594000000E+02  0.51100000000E-03 0.  1.
         11   -1    0    0    0    0 -0.00000000000E+00 -0.00000000000E+00 -0.45593999997E+02  0.45594000000E+02  0.51100000000E-03 0. -1.
    9900012    2    1    2    0    0 -0.15443080836E+02 -0.20721718443E+02 -0.34867538426E+02  0.47787267324E+02  0.19999983038E+02 0.  0.
        -12    1    1    2    0    0  0.15443080836E+02  0.20721718443E+02  0.34867538426E+02  0.43400732676E+02  0.00000000000E+00 0.  1.
         11    1    3    3    0    0 -0.13233317058E+02 -0.63535364646E+01 -0.12541350944E+02  0.19307345487E+02  0.51100000000E-03 0. -1.
        -11    1    3    3    0    0 -0.57161435531E+00 -0.13401753652E+02 -0.22859545945E+02  0.26504576680E+02  0.51100000000E-03 0.  1.
        -12    1    3    3    0    0 -0.16381494221E+01 -0.96642832663E+00  0.53335846379E+00  0.19753451573E+01  0.00000000000E+00 0.  1.
</event>
<event>
 7    1  0.2756432E-009  0.4778727E+02  0.7816164E-02  0.1312668E+00
        -11   -1    0    0    0    0  0.00000000000E+00  0.00000000000E+00  0.45593999997E+02  0.45594000000E+02  0.51100000000E-03 0. -1.
         11   -1    0    0    0    0 -0.00000000000E+00 -0.00000000000E+00 -0.45593999997E+02  0.45594000000E+02  0.51100000000E-03 0.  1.
    9900012    2    1    2    0    0  0.37516965043E+02 -0.11333055770E+02  0.18645712182E+02  0.47787269570E+02  0.19999993276E+02 0.  0.
        -12    1    1    2    0    0 -0.37516965043E+02  0.11333055770E+02 -0.18645712182E+02  0.43400730430E+02  0.00000000000E+00 0.  1.
         11    1    3    3    0    0  0.10587254059E+02 -0.35319708663E+01  0.91394831167E+01  0.14425495437E+02  0.51100000000E-03 0. -1.
        -11    1    3    3    0    0  0.14809863133E+02 -0.11884934388E+02  0.74975390025E+01  0.20415601945E+02  0.51100000000E-03 0.  1.
        -12    1    3    3    0    0  0.12119847851E+02  0.40838494843E+01  0.20086900633E+01  0.12946172188E+02  0.00000000000E+00 0.  1.
</event>
<event>
 7    1  0.2756432E-009  0.4778727E+02  0.7816164E-02  0.1312668E+00
        -11   -1    0    0    0    0  0.00000000000E+00  0.00000000000E+00  0.45593999997E+02  0.45594000000E+02  0.51100000000E-03 0. -1.
         11   -1    0    0    0    0 -0.00000000000E+00 -0.00000000000E+00 -0.45593999997E+02  0.45594000000E+02  0.51100000000E-03 0.  1.
    9900012    2    1    2    0    0  0.32919015101E+02  0.26280345619E+02  0.10454905500E+02  0.47787272241E+02  0.20000005455E+02 0.  0.
        -12    1    1    2    0    0 -0.32919015101E+02 -0.26280345619E+02 -0.10454905500E+02  0.43400727759E+02  0.00000000000E+00 0.  1.
         11    1    3    3    0    0  0.23735408500E+02  0.73987396741E+01  0.60420402991E+01  0.25585488400E+02  0.51100000000E-03 0. -1.
        -11    1    3    3    0    0  0.66698478903E+01  0.13464050931E+02  0.57384995213E+01  0.16084088888E+02  0.51100000000E-03 0.  1.
         12    1    3    3    0    0  0.25137587100E+01  0.54175550139E+01 -0.13256343207E+01  0.61176949525E+01  0.00000000000E+00 0. -1.
</event>
<event>
 7    1  0.3821411E-009  0.4778727E+02  0.7816164E-02  0.1312668E+00
        -11   -1    0    0    0    0  0.00000000000E+00  0.00000000000E+00  0.45593999997E+02  0.45594000000E+02  0.51100000000E-03 0.  1.
         11   -1    0    0    0    0 -0.00000000000E+00 -0.00000000000E+00 -0.45593999997E+02  0.45594000000E+02  0.51100000000E-03 0. -1.
    9900012    2    1    2    0    0 -0.14331668843E+02  0.33731394421E+02 -0.23246922278E+02  0.47787273084E+02  0.20000009301E+02 0.  0.
        -12    1    1    2    0    0  0.14331668843E+02 -0.33731394421E+02  0.23246922278E+02  0.43400726916E+02  0.00000000000E+00 0.  1.
         11    1    3    3    0    0 -0.12413053703E+02  0.17643819654E+02 -0.16805566239E+02  0.27346212372E+02  0.51100000000E-03 0. -1.
        -11    1    3    3    0    0  0.42054382050E+01  0.80322572772E+01 -0.15356856642E+01  0.91957162953E+01  0.51100000000E-03 0.  1.
        -12    1    3    3    0    0 -0.61240533455E+01  0.80553174890E+01 -0.49056703749E+01  0.11245344417E+02  0.00000000000E+00 0.  1.
</event>
<event>
 7    1  0.2756432E-009  0.4778727E+02  0.7816164E-02  0.1312668E+00
        -11   -1    0    0    0    0  0.00000000000E+00  0.00000000000E+00  0.45593999997E+02  0.45594000000E+02  0.51100000000E-03 0.  1.
         11   -1    0    0    0    0 -0.00000000000E+00 -0.00000000000E+00 -0.45593999997E+02  0.45594000000E+02  0.51100000000E-03 0. -1.
    9900012    2    1    2    0    0  0.16119568223E+02  0.39278633823E+02 -0.89984244427E+01  0.47787271929E+02  0.20000004031E+02 0.  0.
        -12    1    1    2    0    0 -0.16119568223E+02 -0.39278633823E+02  0.89984244427E+01  0.43400728071E+02  0.00000000000E+00 0.  1.
         11    1    3    3    0    0  0.11727059731E+02  0.63407367470E+01 -0.41609127999E+01  0.13965746240E+02  0.51100000000E-03 0.  1.
        -11    1    3    3    0    0  0.50168558140E+01  0.26945227088E+02 -0.33230474290E+01  0.27608997620E+02  0.51100000000E-03 0. -1.
        -12    1    3    3    0    0 -0.62434732204E+00  0.59926699871E+01 -0.15144642137E+01  0.62125280689E+01  0.00000000000E+00 0.  1.
</event>
<event>
 7    1  0.2756432E-009  0.4778727E+02  0.7816164E-02  0.1312668E+00
        -11   -1    0    0    0    0  0.00000000000E+00  0.00000000000E+00  0.45593999997E+02  0.45594000000E+02  0.51100000000E-03 0. -1.
         11   -1    0    0    0    0 -0.00000000000E+00 -0.00000000000E+00 -0.45593999997E+02  0.45594000000E+02  0.51100000000E-03 0.  1.
    9900012    2    1    2    0    0  0.33050618308E+02  0.23039796703E+02  0.16138397164E+02  0.47787268835E+02  0.19999989924E+02 0.  0.
        -12    1    1    2    0    0 -0.33050618308E+02 -0.23039796703E+02 -0.16138397164E+02  0.43400731165E+02  0.00000000000E+00 0.  1.
         11    1    3    3    0    0  0.11794736291E+02  0.40196138973E+01 -0.19703539365E+01  0.12615680519E+02  0.51100000000E-03 0. -1.
        -11    1    3    3    0    0  0.21221840938E+02  0.14708347676E+02  0.15946365110E+02  0.30347793736E+02  0.51100000000E-03 0.  1.
        -12    1    3    3    0    0  0.34041079578E-01  0.43118351293E+01  0.21623859904E+01  0.48237945799E+01  0.00000000000E+00 0.  1.
</event>
<event>
 7    1  0.2756432E-009  0.4778727E+02  0.7816164E-02  0.1312668E+00
        -11   -1    0    0    0    0  0.00000000000E+00  0.00000000000E+00  0.45593999997E+02  0.45594000000E+02  0.51100000000E-03 0.  1.
         11   -1    0    0    0    0 -0.00000000000E+00 -0.00000000000E+00 -0.45593999997E+02  0.45594000000E+02  0.51100000000E-03 0. -1.
    9900012    2    1    2    0    0  0.34898628120E+02  0.87749177770E+01 -0.24263341805E+02  0.47787272100E+02  0.20000004814E+02 0.  0.
        -12    1    1    2    0    0 -0.34898628120E+02 -0.87749177770E+01  0.24263341805E+02  0.43400727900E+02  0.00000000000E+00 0.  1.
         11    1    3    3    0    0  0.23401518184E+02  0.96783510812E-02 -0.18658079141E+02  0.29929167454E+02  0.51100000000E-03 0. -1.
        -11    1    3    3    0    0 -0.31533640884E+00  0.42302030431E+01 -0.76242779977E+00  0.43099131369E+01  0.51100000000E-03 0.  1.
         12    1    3    3    0    0  0.11812446345E+02  0.45350363827E+01 -0.48428348642E+01  0.13548191509E+02  0.00000000000E+00 0. -1.
</event>
<event>
 7    1  0.2756432E-009  0.4778727E+02  0.7816164E-02  0.1312668E+00
        -11   -1    0    0    0    0  0.00000000000E+00  0.00000000000E+00  0.45593999997E+02  0.45594000000E+02  0.51100000000E-03 0.  1.
         11   -1    0    0    0    0 -0.00000000000E+00 -0.00000000000E+00 -0.45593999997E+02  0.45594000000E+02  0.51100000000E-03 0. -1.
    9900012    2    1    2    0    0  0.26415317462E+02 -0.28055714635E+02 -0.19968253645E+02  0.47787271044E+02  0.19999999998E+02 0.  0.
        -12    1    1    2    0    0 -0.26415317462E+02  0.28055714635E+02  0.19968253645E+02  0.43400728956E+02  0.00000000000E+00 0.  1.
         11    1    3    3    0    0  0.15842865049E+02 -0.12401969407E+02 -0.18947985063E+02  0.27637499097E+02  0.51100000000E-03 0. -1.
        -11    1    3    3    0    0  0.11188714111E+02 -0.12107228558E+02 -0.35617702353E+00  0.16489365335E+02  0.51100000000E-03 0.  1.
        -12    1    3    3    0    0 -0.61626169842E+00 -0.35465166695E+01 -0.66409155896E+00  0.36604066122E+01  0.00000000000E+00 0.  1.
</event>
<event>
 7    1  0.2756432E-009  0.4778727E+02  0.7816164E-02  0.1312668E+00
        -11   -1    0    0    0    0  0.00000000000E+00  0.00000000000E+00  0.45593999997E+02  0.45594000000E+02  0.51100000000E-03 0. -1.
         11   -1    0    0    0    0 -0.00000000000E+00 -0.00000000000E+00 -0.45593999997E+02  0.45594000000E+02  0.51100000000E-03 0.  1.
    9900012    2    1    2    0    0 -0.38683575260E+02  0.15859882819E+01  0.19613480720E+02  0.47787274434E+02  0.20000015452E+02 0.  0.
        -12    1    1    2    0    0  0.38683575260E+02 -0.15859882819E+01 -0.19613480720E+02  0.43400725566E+02  0.00000000000E+00 0.  1.
         11    1    3    3    0    0 -0.68547483059E+01 -0.49924032431E+01  0.83279839839E+01  0.11885578740E+02  0.51100000000E-03 0. -1.
        -11    1    3    3    0    0 -0.28672823681E+01  0.19480662262E+01  0.47034736551E+01  0.58428533171E+01  0.51100000000E-03 0.  1.
         12    1    3    3    0    0 -0.28961544586E+02  0.46303252988E+01  0.65820230810E+01  0.30058842377E+02  0.00000000000E+00 0. -1.
</event>
<event>
 7    1  0.2756432E-009  0.4778727E+02  0.7816164E-02  0.1312668E+00
        -11   -1    0    0    0    0  0.00000000000E+00  0.00000000000E+00  0.45593999997E+02  0.45594000000E+02  0.51100000000E-03 0. -1.
         11   -1    0    0    0    0 -0.00000000000E+00 -0.00000000000E+00 -0.45593999997E+02  0.45594000000E+02  0.51100000000E-03 0.  1.
    9900012    2    1    2    0    0 -0.10712289482E+02 -0.16767513598E+02  0.38570982705E+02  0.47787269994E+02  0.19999995213E+02 0.  0.
        -12    1    1    2    0    0  0.10712289482E+02  0.16767513598E+02 -0.38570982705E+02  0.43400730006E+02  0.00000000000E+00 0.  1.
         11    1    3    3    0    0 -0.47886224201E+01 -0.12735344489E+02  0.35744031355E+02  0.38245989093E+02  0.51100000000E-03 0. -1.
        -11    1    3    3    0    0 -0.38270592319E+01  0.40896615972E+00 -0.50642302064E-01  0.38491818077E+01  0.51100000000E-03 0.  1.
         12    1    3    3    0    0 -0.20966078302E+01 -0.44411352687E+01  0.28775936518E+01  0.56920990937E+01  0.00000000000E+00 0. -1.
</event>
<event>
 7    1  0.2756432E-009  0.4778724E+02  0.7816164E-02  0.1312668E+00
        -11   -1    0    0    0    0  0.00000000000E+00  0.00000000000E+00  0.45593999997E+02  0.45594000000E+02  0.51100000000E-03 0.  1.
         11   -1    0    0    0    0 -0.00000000000E+00 -0.00000000000E+00 -0.45593999997E+02  0.45594000000E+02  0.51100000000E-03 0. -1.
    9900012    2    1    2    0    0  0.28887265338E+02  0.14379942206E+01 -0.32358673709E+02  0.47787243206E+02  0.19999873072E+02 0.  0.
        -12    1    1    2    0    0 -0.28887265338E+02 -0.14379942206E+01  0.32358673709E+02  0.43400756794E+02  0.00000000000E+00 0.  1.
         11    1    3    3    0    0  0.22704340770E+02 -0.96965934674E+00 -0.12573435763E+02  0.25971496226E+02  0.51100000000E-03 0. -1.
        -11    1    3    3    0    0  0.56648357706E+01  0.33036297097E+01 -0.19716519029E+02  0.20778485422E+02  0.51100000000E-03 0.  1.
        -12    1    3    3    0    0  0.51808879765E+00 -0.89597614238E+00 -0.68718917505E-01  0.10372615579E+01  0.00000000000E+00 0.  1.
</event>
<event>
 7    1  0.2756432E-009  0.4778727E+02  0.7816164E-02  0.1312668E+00
        -11   -1    0    0    0    0  0.00000000000E+00  0.00000000000E+00  0.45593999997E+02  0.45594000000E+02  0.51100000000E-03 0. -1.
         11   -1    0    0    0    0 -0.00000000000E+00 -0.00000000000E+00 -0.45593999997E+02  0.45594000000E+02  0.51100000000E-03 0.  1.
    9900012    2    1    2    0    0 -0.36166499578E+02 -0.22217024242E+02 -0.90560095692E+01  0.47787272273E+02  0.20000005603E+02 0.  0.
        -12    1    1    2    0    0  0.36166499578E+02  0.22217024242E+02  0.90560095692E+01  0.43400727727E+02  0.00000000000E+00 0.  1.
         11    1    3    3    0    0 -0.11322104086E+02  0.10515132205E+01  0.25638686245E+00  0.11373717750E+02  0.51100000000E-03 0. -1.
        -11    1    3    3    0    0 -0.18311262809E+02 -0.15950384912E+02 -0.10642443843E+02  0.26513746165E+02  0.51100000000E-03 0.  1.
        -12    1    3    3    0    0 -0.65331326835E+01 -0.73181525500E+01  0.13300474111E+01  0.98998083578E+01  0.00000000000E+00 0.  1.
</event>
<event>
 7    1  0.2756432E-009  0.4778727E+02  0.7816164E-02  0.1312668E+00
        -11   -1    0    0    0    0  0.00000000000E+00  0.00000000000E+00  0.45593999997E+02  0.45594000000E+02  0.51100000000E-03 0.  1.
         11   -1    0    0    0    0 -0.00000000000E+00 -0.00000000000E+00 -0.45593999997E+02  0.45594000000E+02  0.51100000000E-03 0. -1.
    9900012    2    1    2    0    0  0.12198735621E+01  0.38665391873E+01 -0.43210936475E+02  0.47787271345E+02  0.20000001369E+02 0.  0.
        -12    1    1    2    0    0 -0.12198735621E+01 -0.38665391873E+01  0.43210936475E+02  0.43400728655E+02  0.00000000000E+00 0.  1.
         11    1    3    3    0    0 -0.47604079123E+01  0.30965956910E+01 -0.18226861288E+02  0.19091067572E+02  0.51100000000E-03 0. -1.
        -11    1    3    3    0    0  0.69263675194E+01 -0.28942984466E+01 -0.23433402780E+02  0.24606419825E+02  0.51100000000E-03 0.  1.
        -12    1    3    3    0    0 -0.94608604498E+00  0.36642419429E+01 -0.15506724062E+01  0.40897839469E+01  0.00000000000E+00 0.  1.
</event>
<event>
 7    1  0.2756432E-009  0.4778727E+02  0.7816164E-02  0.1312668E+00
        -11   -1    0    0    0    0  0.00000000000E+00  0.00000000000E+00  0.45593999997E+02  0.45594000000E+02  0.51100000000E-03 0.  1.
         11   -1    0    0    0    0 -0.00000000000E+00 -0.00000000000E+00 -0.45593999997E+02  0.45594000000E+02  0.51100000000E-03 0. -1.
    9900012    2    1    2    0    0  0.37880508251E+02  0.20918088699E+02 -0.33352799940E+01  0.47787269214E+02  0.19999991653E+02 0.  0.
        -12    1    1    2    0    0 -0.37880508251E+02 -0.20918088699E+02  0.33352799940E+01  0.43400730786E+02  0.00000000000E+00 0.  1.
         11    1    3    3    0    0  0.15244456183E+02  0.30340859806E+01  0.11147391615E+01  0.15583381075E+02  0.51100000000E-03 0.  1.
        -11    1    3    3    0    0  0.16157237021E+02  0.17374827899E+02  0.96319855663E+00  0.23745919742E+02  0.51100000000E-03 0. -1.
        -12    1    3    3    0    0  0.64788150460E+01  0.50917481894E+00 -0.54132177122E+01  0.84579683965E+01  0.00000000000E+00 0.  1.
</event>
<event>
 7    1  0.2756432E-009  0.4778727E+02  0.7816164E-02  0.1312668E+00
        -11   -1    0    0    0    0  0.00000000000E+00  0.00000000000E+00  0.45593999997E+02  0.45594000000E+02  0.51100000000E-03 0. -1.
         11   -1    0    0    0    0 -0.00000000000E+00 -0.00000000000E+00 -0.45593999997E+02  0.45594000000E+02  0.51100000000E-03 0.  1.
    9900012    2    1    2    0    0  0.11087498012E+02 -0.26557466527E+02 -0.32486787647E+02  0.47787274060E+02  0.20000013750E+02 0.  0.
        -12    1    1    2    0    0 -0.11087498012E+02  0.26557466527E+02  0.32486787647E+02  0.43400725940E+02  0.00000000000E+00 0.  1.
         11    1    3    3    0    0  0.11852580199E+02 -0.25930293822E+02 -0.24121959584E+02  0.37346120675E+02  0.51100000000E-03 0. -1.
        -11    1    3    3    0    0 -0.13951385981E+01 -0.14005682361E+01  0.40061028188E-01  0.19772729298E+01  0.51100000000E-03 0.  1.
         12    1    3    3    0    0  0.63005641176E+00  0.77339553104E+00 -0.84048890906E+01  0.84638804549E+01  0.00000000000E+00 0. -1.
</event>
<event>
 7    1  0.2756432E-009  0.4778727E+02  0.7816164E-02  0.1312668E+00
        -11   -1    0    0    0    0  0.00000000000E+00  0.00000000000E+00  0.45593999997E+02  0.45594000000E+02  0.51100000000E-03 0.  1.
         11   -1    0    0    0    0 -0.00000000000E+00 -0.00000000000E+00 -0.45593999997E+02  0.45594000000E+02  0.51100000000E-03 0. -1.
    9900012    2    1    2    0    0  0.16951729373E+02 -0.83106594823E+01 -0.39079348866E+02  0.47787266164E+02  0.19999977746E+02 0.  0.
        -12    1    1    2    0    0 -0.16951729373E+02  0.83106594823E+01  0.39079348866E+02  0.43400733836E+02  0.00000000000E+00 0.  1.
         11    1    3    3    0    0  0.10671338974E+02 -0.42601955908E+01 -0.11287736710E+02  0.16107133273E+02  0.51100000000E-03 0. -1.
        -11    1    3    3    0    0 -0.30885715764E+01 -0.23827356681E+00 -0.13673419505E+01  0.33860999610E+01  0.51100000000E-03 0.  1.
        -12    1    3    3    0    0  0.93689619754E+01 -0.38121903247E+01 -0.26424270205E+02  0.28294032930E+02  0.00000000000E+00 0.  1.
</event>
<event>
 7    1  0.2756432E-009  0.4778727E+02  0.7816164E-02  0.1312668E+00
        -11   -1    0    0    0    0  0.00000000000E+00  0.00000000000E+00  0.45593999997E+02  0.45594000000E+02  0.51100000000E-03 0.  1.
         11   -1    0    0    0    0 -0.00000000000E+00 -0.00000000000E+00 -0.45593999997E+02  0.45594000000E+02  0.51100000000E-03 0. -1.
    9900012    2    1    2    0    0 -0.17236381144E+02 -0.26584943552E+02  0.29660935212E+02  0.47787272630E+02  0.20000007228E+02 0.  0.
        -12    1    1    2    0    0  0.17236381144E+02  0.26584943552E+02 -0.29660935212E+02  0.43400727370E+02  0.00000000000E+00 0.  1.
         11    1    3    3    0    0 -0.50937669565E+01 -0.10161071770E+02  0.22052183917E+01  0.11578291314E+02  0.51100000000E-03 0. -1.
        -11    1    3    3    0    0 -0.69637191986E+01 -0.12260157307E+02  0.25735447125E+02  0.29344813533E+02  0.51100000000E-03 0.  1.
        -12    1    3    3    0    0 -0.51788949884E+01 -0.41637144757E+01  0.17202696950E+01  0.68641677835E+01  0.00000000000E+00 0.  1.
</event>
<event>
 7    1  0.2756432E-009  0.4778728E+02  0.7816164E-02  0.1312668E+00
        -11   -1    0    0    0    0  0.00000000000E+00  0.00000000000E+00  0.45593999997E+02  0.45594000000E+02  0.51100000000E-03 0.  1.
         11   -1    0    0    0    0 -0.00000000000E+00 -0.00000000000E+00 -0.45593999997E+02  0.45594000000E+02  0.51100000000E-03 0. -1.
    9900012    2    1    2    0    0 -0.30849544710E+02  0.15346071970E+02 -0.26389879649E+02  0.47787284780E+02  0.20000062627E+02 0.  0.
        -12    1    1    2    0    0  0.30849544710E+02 -0.15346071970E+02  0.26389879649E+02  0.43400715220E+02  0.00000000000E+00 0.  1.
         11    1    3    3    0    0 -0.82073663178E+01  0.96724785413E+01 -0.16137901961E+02  0.20526801577E+02  0.51100000000E-03 0. -1.
        -11    1    3    3    0    0 -0.11230876550E+02  0.55341134256E+01 -0.98385413072E+00  0.12558939792E+02  0.51100000000E-03 0.  1.
        -12    1    3    3    0    0 -0.11411301842E+02  0.13948000272E+00 -0.92681235569E+01  0.14701543411E+02  0.00000000000E+00 0.  1.
</event>
<event>
 7    1  0.2756432E-009  0.4778727E+02  0.7816164E-02  0.1312668E+00
        -11   -1    0    0    0    0  0.00000000000E+00  0.00000000000E+00  0.45593999997E+02  0.45594000000E+02  0.51100000000E-03 0.  1.
         11   -1    0    0    0    0 -0.00000000000E+00 -0.00000000000E+00 -0.45593999997E+02  0.45594000000E+02  0.51100000000E-03 0. -1.
    9900012    2    1    2    0    0  0.42022737612E+02 -0.38244991723E+01 -0.10153148253E+02  0.47787266253E+02  0.19999978154E+02 0.  0.
        -12    1    1    2    0    0 -0.42022737612E+02  0.38244991723E+01  0.10153148253E+02  0.43400733747E+02  0.00000000000E+00 0.  1.
         11    1    3    3    0    0  0.11529359527E+02 -0.49266286912E+01 -0.36828925629E+01  0.13067574345E+02  0.51100000000E-03 0. -1.
        -11    1    3    3    0    0  0.22493751744E+02  0.72595082427E+01 -0.68778758784E+01  0.24616549399E+02  0.51100000000E-03 0.  1.
        -12    1    3    3    0    0  0.79996263412E+01 -0.61573787237E+01  0.40762018851E+00  0.10103142509E+02  0.00000000000E+00 0.  1.
</event>
<event>
 7    1  0.2756432E-009  0.4778727E+02  0.7816164E-02  0.1312668E+00
        -11   -1    0    0    0    0  0.00000000000E+00  0.00000000000E+00  0.45593999997E+02  0.45594000000E+02  0.51100000000E-03 0.  1.
         11   -1    0    0    0    0 -0.00000000000E+00 -0.00000000000E+00 -0.45593999997E+02  0.45594000000E+02  0.51100000000E-03 0. -1.
    9900012    2    1    2    0    0  0.27874986599E+02  0.27261830088E+02  0.19063081826E+02  0.47787270209E+02  0.19999996191E+02 0.  0.
        -12    1    1    2    0    0 -0.27874986599E+02 -0.27261830088E+02 -0.19063081826E+02  0.43400729791E+02  0.00000000000E+00 0.  1.
         11    1    3    3    0    0  0.59608582754E+01  0.63746871587E+01  0.27735789714E+00  0.87318609365E+01  0.51100000000E-03 0. -1.
        -11    1    3    3    0    0  0.23966068728E+02  0.20999059693E+02  0.16180098175E+02  0.35736935172E+02  0.51100000000E-03 0.  1.
        -12    1    3    3    0    0 -0.20519404045E+01 -0.11191676352E+00  0.26056257538E+01  0.33184741003E+01  0.00000000000E+00 0.  1.
</event>
<event>
 7    1  0.2756432E-009  0.4778729E+02  0.7816164E-02  0.1312668E+00
        -11   -1    0    0    0    0  0.00000000000E+00  0.00000000000E+00  0.45593999997E+02  0.45594000000E+02  0.51100000000E-03 0. -1.
         11   -1    0    0    0    0 -0.00000000000E+00 -0.00000000000E+00 -0.45593999997E+02  0.45594000000E+02  0.51100000000E-03 0.  1.
    9900012    2    1    2    0    0 -0.18612685501E+02  0.38907096880E+02  0.48402233143E+01  0.47787285595E+02  0.20000066340E+02 0.  0.
        -12    1    1    2    0    0  0.18612685501E+02 -0.38907096880E+02 -0.48402233143E+01  0.43400714405E+02  0.00000000000E+00 0.  1.
         11    1    3    3    0    0 -0.18691535833E+02  0.26541625711E+02  0.35009322978E+01  0.32651002043E+02  0.51100000000E-03 0. -1.
        -11    1    3    3    0    0  0.20713035021E+01  0.10861222107E+02  0.37403861222E+01  0.11672486130E+02  0.51100000000E-03 0.  1.
        -12    1    3    3    0    0 -0.19924531699E+01  0.15042490622E+01 -0.24010951057E+01  0.34637974222E+01  0.00000000000E+00 0.  1.
</event>
<event>
 7    1  0.2756432E-009  0.4778729E+02  0.7816164E-02  0.1312668E+00
        -11   -1    0    0    0    0  0.00000000000E+00  0.00000000000E+00  0.45593999997E+02  0.45594000000E+02  0.51100000000E-03 0.  1.
         11   -1    0    0    0    0 -0.00000000000E+00 -0.00000000000E+00 -0.45593999997E+02  0.45594000000E+02  0.51100000000E-03 0. -1.
    9900012    2    1    2    0    0 -0.28797967443E+02  0.22803357626E+02 -0.23115054382E+02  0.47787288175E+02  0.20000078103E+02 0.  0.
        -12    1    1    2    0    0  0.28797967443E+02 -0.22803357626E+02  0.23115054382E+02  0.43400711825E+02  0.00000000000E+00 0.  1.
         11    1    3    3    0    0 -0.93068960201E+01  0.23008057407E+01 -0.22441967704E+01  0.98462398910E+01  0.51100000000E-03 0. -1.
        -11    1    3    3    0    0 -0.17469599380E+02  0.16132966660E+02 -0.22619096074E+02  0.32818943054E+02  0.51100000000E-03 0.  1.
        -12    1    3    3    0    0 -0.20214720433E+01  0.43695852251E+01  0.17482384621E+01  0.51221052294E+01  0.00000000000E+00 0.  1.
</event>
<event>
 7    1  0.2756432E-009  0.4778722E+02  0.7816164E-02  0.1312668E+00
        -11   -1    0    0    0    0  0.00000000000E+00  0.00000000000E+00  0.45593999997E+02  0.45594000000E+02  0.51100000000E-03 0.  1.
         11   -1    0    0    0    0 -0.00000000000E+00 -0.00000000000E+00 -0.45593999997E+02  0.45594000000E+02  0.51100000000E-03 0. -1.
    9900012    2    1    2    0    0 -0.55915158775E+00 -0.10403542602E+02 -0.42131717948E+02  0.47787216523E+02  0.19999751413E+02 0.  0.
        -12    1    1    2    0    0  0.55915158775E+00  0.10403542602E+02  0.42131717948E+02  0.43400783477E+02  0.00000000000E+00 0.  1.
         11    1    3    3    0    0 -0.92558106149E+00 -0.32535464797E+01  0.72060687374E-02  0.33826494328E+01  0.51100000000E-03 0. -1.
        -11    1    3    3    0    0  0.13990774162E+01  0.20416432539E+00  0.19226052605E+00  0.14269075160E+01  0.51100000000E-03 0.  1.
         12    1    3    3    0    0 -0.10326479425E+01 -0.73541604474E+01 -0.42331184543E+02  0.42977659574E+02  0.00000000000E+00 0. -1.
</event>
<event>
 7    1  0.2756432E-009  0.4778727E+02  0.7816164E-02  0.1312668E+00
        -11   -1    0    0    0    0  0.00000000000E+00  0.00000000000E+00  0.45593999997E+02  0.45594000000E+02  0.51100000000E-03 0. -1.
         11   -1    0    0    0    0 -0.00000000000E+00 -0.00000000000E+00 -0.45593999997E+02  0.45594000000E+02  0.51100000000E-03 0.  1.
    9900012    2    1    2    0    0 -0.20205487244E+02 -0.35023994455E+02 -0.15769650145E+02  0.47787265351E+02  0.19999974043E+02 0.  0.
        -12    1    1    2    0    0  0.20205487244E+02  0.35023994455E+02  0.15769650145E+02  0.43400734649E+02  0.00000000000E+00 0.  1.
         11    1    3    3    0    0 -0.17166459347E+01 -0.84196660232E+01  0.15753493999E+01  0.87360961075E+01  0.51100000000E-03 0. -1.
        -11    1    3    3    0    0 -0.82467025228E+01 -0.12733990903E+02 -0.15535605337E+02  0.21714457402E+02  0.51100000000E-03 0.  1.
         12    1    3    3    0    0 -0.10242138787E+02 -0.13870337529E+02 -0.18093942081E+01  0.17336711842E+02  0.00000000000E+00 0. -1.
</event>
<event>
 7    1  0.2756432E-009  0.4778726E+02  0.7816164E-02  0.1312668E+00
        -11   -1    0    0    0    0  0.00000000000E+00  0.00000000000E+00  0.45593999997E+02  0.45594000000E+02  0.51100000000E-03 0.  1.
         11   -1    0    0    0    0 -0.00000000000E+00 -0.00000000000E+00 -0.45593999997E+02  0.45594000000E+02  0.51100000000E-03 0. -1.
    9900012    2    1    2    0    0 -0.30575055245E+02 -0.16741368859E+02 -0.25855685479E+02  0.47787263760E+02  0.19999966789E+02 0.  0.
        -12    1    1    2    0    0  0.30575055245E+02  0.16741368859E+02  0.25855685479E+02  0.43400736240E+02  0.00000000000E+00 0.  1.
         11    1    3    3    0    0 -0.71119861756E+01 -0.12291642557E+02 -0.15650773112E+02  0.21133185358E+02  0.51100000000E-03 0. -1.
        -11    1    3    3    0    0 -0.19310479246E+02 -0.50254061323E+01 -0.10311229840E+02  0.22460426901E+02  0.51100000000E-03 0.  1.
         12    1    3    3    0    0 -0.41525898237E+01  0.57567983039E+00  0.10631747239E+00  0.41936515015E+01  0.00000000000E+00 0. -1.
</event>
<event>
 7    1  0.2756432E-009  0.4778728E+02  0.7816164E-02  0.1312668E+00
        -11   -1    0    0    0    0  0.00000000000E+00  0.00000000000E+00  0.45593999997E+02  0.45594000000E+02  0.51100000000E-03 0. -1.
         11   -1    0    0    0    0 -0.00000000000E+00 -0.00000000000E+00 -0.45593999997E+02  0.45594000000E+02  0.51100000000E-03 0.  1.
    9900012    2    1    2    0    0  0.19948859885E+02 -0.32731084712E+02  0.20355388562E+02  0.47787276957E+02  0.20000026958E+02 0.  0.
        -12    1    1    2    0    0 -0.19948859885E+02  0.32731084712E+02 -0.20355388562E+02  0.43400723043E+02  0.00000000000E+00 0.  1.
         11    1    3    3    0    0  0.16113229754E+01 -0.14164013135E+02  0.66881343049E+01  0.15746325621E+02  0.51100000000E-03 0. -1.
        -11    1    3    3    0    0  0.77010726758E+01 -0.35788297388E+00  0.21072217247E+01  0.79921826955E+01  0.51100000000E-03 0.  1.
         12    1    3    3    0    0  0.10636464233E+02 -0.18209188604E+02  0.11560032532E+02  0.24048768641E+02  0.00000000000E+00 0. -1.
</event>
<event>
 7    1  0.2756432E-009  0.4778727E+02  0.7816164E-02  0.1312668E+00
        -11   -1    0    0    0    0  0.00000000000E+00  0.00000000000E+00  0.45593999997E+02  0.45594000000E+02  0.51100000000E-03 0.  1.
         11   -1    0    0    0    0 -0.00000000000E+00 -0.00000000000E+00 -0.45593999997E+02  0.45594000000E+02  0.51100000000E-03 0. -1.
    9900012    2    1    2    0    0 -0.17562536225E+02 -0.17750573820E+02 -0.35497851363E+02  0.47787274188E+02  0.20000014332E+02 0.  0.
        -12    1    1    2    0    0  0.17562536225E+02  0.17750573820E+02  0.35497851363E+02  0.43400725812E+02  0.00000000000E+00 0.  1.
         11    1    3    3    0    0 -0.12750157647E+02  0.30205528619E+00 -0.15905266175E+02  0.20387134418E+02  0.51100000000E-03 0. -1.
        -11    1    3    3    0    0 -0.37054593380E+01 -0.14115609364E+02 -0.12511306211E+02  0.19222737579E+02  0.51100000000E-03 0.  1.
         12    1    3    3    0    0 -0.11069192405E+01 -0.39370197415E+01 -0.70812789774E+01  0.81774021918E+01  0.00000000000E+00 0. -1.
</event>
<event>
 7    1  0.2967260E-009  0.4778727E+02  0.7816164E-02  0.1312668E+00
        -11   -1    0    0    0    0  0.00000000000E+00  0.00000000000E+00  0.45593999997E+02  0.45594000000E+02  0.51100000000E-03 0. -1.
         11   -1    0    0    0    0 -0.00000000000E+00 -0.00000000000E+00 -0.45593999997E+02  0.45594000000E+02  0.51100000000E-03 0.  1.
    9900012    2    1    2    0    0  0.21519251867E+02 -0.76986259344E+01  0.36895476872E+02  0.47787271253E+02  0.20000000952E+02 0.  0.
        -12    1    1    2    0    0 -0.21519251867E+02  0.76986259344E+01 -0.36895476872E+02  0.43400728747E+02  0.00000000000E+00 0.  1.
         11    1    3    3    0    0  0.50869451746E+01 -0.29733925899E+01  0.15459860243E+02  0.16544647282E+02  0.51100000000E-03 0. -1.
        -11    1    3    3    0    0  0.19050650532E+02 -0.23519112681E+01  0.18089636032E+02  0.26376006224E+02  0.51100000000E-03 0.  1.
        -12    1    3    3    0    0 -0.26183438398E+01 -0.23733220763E+01  0.33459805969E+01  0.48666177471E+01  0.00000000000E+00 0.  1.
</event>
<event>
 7    1  0.2756432E-009  0.4778727E+02  0.7816164E-02  0.1312668E+00
        -11   -1    0    0    0    0  0.00000000000E+00  0.00000000000E+00  0.45593999997E+02  0.45594000000E+02  0.51100000000E-03 0.  1.
         11   -1    0    0    0    0 -0.00000000000E+00 -0.00000000000E+00 -0.45593999997E+02  0.45594000000E+02  0.51100000000E-03 0. -1.
    9900012    2    1    2    0    0  0.14409741735E+02  0.25477508361E+02 -0.32044955170E+02  0.47787271423E+02  0.20000001726E+02 0.  0.
        -12    1    1    2    0    0 -0.14409741735E+02 -0.25477508361E+02  0.32044955170E+02  0.43400728577E+02  0.00000000000E+00 0.  1.
         11    1    3    3    0    0  0.16689174876E+01  0.18831099394E+02 -0.21341698380E+02  0.28510764282E+02  0.51100000000E-03 0. -1.
        -11    1    3    3    0    0  0.12448057679E+02  0.78504484329E+01 -0.10337097814E+02  0.17984417478E+02  0.51100000000E-03 0.  1.
         12    1    3    3    0    0  0.29276656848E+00 -0.12040394658E+01 -0.36615897705E+00  0.12920896623E+01  0.00000000000E+00 0. -1.
</event>
<event>
 7    1  0.2756432E-009  0.4778727E+02  0.7816164E-02  0.1312668E+00
        -11   -1    0    0    0    0  0.00000000000E+00  0.00000000000E+00  0.45593999997E+02  0.45594000000E+02  0.51100000000E-03 0.  1.
         11   -1    0    0    0    0 -0.00000000000E+00 -0.00000000000E+00 -0.45593999997E+02  0.45594000000E+02  0.51100000000E-03 0. -1.
    9900012    2    1    2    0    0  0.18693745751E+02  0.39167011724E+02 -0.33544830157E+00  0.47787268864E+02  0.19999990057E+02 0.  0.
        -12    1    1    2    0    0 -0.18693745751E+02 -0.39167011724E+02  0.33544830157E+00  0.43400731136E+02  0.00000000000E+00 0.  1.
         11    1    3    3    0    0  0.12774618252E+02  0.27761273495E+02 -0.54967293841E+01  0.31049850430E+02  0.51100000000E-03 0. -1.
        -11    1    3    3    0    0 -0.65421541574E+00  0.88262839424E+01  0.31640694633E+01  0.93990755860E+01  0.51100000000E-03 0.  1.
         12    1    3    3    0    0  0.65733429152E+01  0.25794542863E+01  0.19972116192E+01  0.73383428475E+01  0.00000000000E+00 0. -1.
</event>
<event>
 7    1  0.2756432E-009  0.4778727E+02  0.7816164E-02  0.1312668E+00
        -11   -1    0    0    0    0  0.00000000000E+00  0.00000000000E+00  0.45593999997E+02  0.45594000000E+02  0.51100000000E-03 0.  1.
         11   -1    0    0    0    0 -0.00000000000E+00 -0.00000000000E+00 -0.45593999997E+02  0.45594000000E+02  0.51100000000E-03 0. -1.
    9900012    2    1    2    0    0  0.13313897489E+02 -0.57577294895E+01 -0.40904914679E+02  0.47787270051E+02  0.19999995470E+02 0.  0.
        -12    1    1    2    0    0 -0.13313897489E+02  0.57577294895E+01  0.40904914679E+02  0.43400729949E+02  0.00000000000E+00 0.  1.
         11    1    3    3    0    0  0.10780620432E+02 -0.81685221046E+01 -0.24537618161E+02  0.28018587323E+02  0.51100000000E-03 0. -1.
        -11    1    3    3    0    0  0.71954210769E-01  0.61348010190E+01 -0.12228729370E+02  0.13681475915E+02  0.51100000000E-03 0.  1.
        -12    1    3    3    0    0  0.24613228460E+01 -0.37240084039E+01 -0.41385671478E+01  0.60872068127E+01  0.00000000000E+00 0.  1.
</event>
<event>
 7    1  0.2756432E-009  0.4778727E+02  0.7816164E-02  0.1312668E+00
        -11   -1    0    0    0    0  0.00000000000E+00  0.00000000000E+00  0.45593999997E+02  0.45594000000E+02  0.51100000000E-03 0.  1.
         11   -1    0    0    0    0 -0.00000000000E+00 -0.00000000000E+00 -0.45593999997E+02  0.45594000000E+02  0.51100000000E-03 0. -1.
    9900012    2    1    2    0    0  0.31120116006E+01  0.68920940905E+01 -0.42736846721E+02  0.47787266771E+02  0.19999980517E+02 0.  0.
        -12    1    1    2    0    0 -0.31120116006E+01 -0.68920940905E+01  0.42736846721E+02  0.43400733229E+02  0.00000000000E+00 0.  1.
         11    1    3    3    0    0  0.74744548782E+01  0.34153295197E+01 -0.12596971806E+02  0.15040467094E+02  0.51100000000E-03 0. -1.
        -11    1    3    3    0    0 -0.33225344415E+01  0.68638085095E+01 -0.26849852226E+02  0.27911747835E+02  0.51100000000E-03 0.  1.
        -12    1    3    3    0    0 -0.10399088361E+01 -0.33870439387E+01 -0.32900226886E+01  0.48350518427E+01  0.00000000000E+00 0.  1.
</event>
<event>
 7    1  0.2756432E-009  0.4778727E+02  0.7816164E-02  0.1312668E+00
        -11   -1    0    0    0    0  0.00000000000E+00  0.00000000000E+00  0.45593999997E+02  0.45594000000E+02  0.51100000000E-03 0. -1.
         11   -1    0    0    0    0 -0.00000000000E+00 -0.00000000000E+00 -0.45593999997E+02  0.45594000000E+02  0.51100000000E-03 0.  1.
    9900012    2    1    2    0    0 -0.28710092602E+02  0.32521322442E+02 -0.13105516851E+01  0.47787269864E+02  0.19999994619E+02 0.  0.
        -12    1    1    2    0    0  0.28710092602E+02 -0.32521322442E+02  0.13105516851E+01  0.43400730136E+02  0.00000000000E+00 0.  1.
         11    1    3    3    0    0 -0.75493490227E+01  0.37744397697E+01  0.50682989889E+01  0.98451369287E+01  0.51100000000E-03 0. -1.
        -11    1    3    3    0    0 -0.15991335347E+02  0.16476756133E+02 -0.84518352864E+01  0.24467117092E+02  0.51100000000E-03 0.  1.
        -12    1    3    3    0    0 -0.51694082321E+01  0.12270126540E+02  0.20729846124E+01  0.13475015843E+02  0.00000000000E+00 0.  1.
</event>
<event>
 7    1  0.2756432E-009  0.4778729E+02  0.7816164E-02  0.1312668E+00
        -11   -1    0    0    0    0  0.00000000000E+00  0.00000000000E+00  0.45593999997E+02  0.45594000000E+02  0.51100000000E-03 0.  1.
         11   -1    0    0    0    0 -0.00000000000E+00 -0.00000000000E+00 -0.45593999997E+02  0.45594000000E+02  0.51100000000E-03 0. -1.
    9900012    2    1    2    0    0 -0.12151483389E+01 -0.36277773953E+00 -0.43382178538E+02  0.47787290237E+02  0.20000087508E+02 0.  0.
        -12    1    1    2    0    0  0.12151483389E+01  0.36277773953E+00  0.43382178538E+02  0.43400709763E+02  0.00000000000E+00 0.  1.
         11    1    3    3    0    0 -0.48277905361E+01 -0.38234116885E+01 -0.30634809239E+02  0.31247681126E+02  0.51100000000E-03 0. -1.
        -11    1    3    3    0    0  0.29716054034E+01  0.55531789643E+01 -0.12889994133E+02  0.14346434550E+02  0.51100000000E-03 0.  1.
        -12    1    3    3    0    0  0.64103679385E+00 -0.20925450153E+01  0.14262483383E+00  0.21931745611E+01  0.00000000000E+00 0.  1.
</event>
<event>
 7    1  0.2756432E-009  0.4778727E+02  0.7816164E-02  0.1312668E+00
        -11   -1    0    0    0    0  0.00000000000E+00  0.00000000000E+00  0.45593999997E+02  0.45594000000E+02  0.51100000000E-03 0. -1.
         11   -1    0    0    0    0 -0.00000000000E+00 -0.00000000000E+00 -0.45593999997E+02  0.45594000000E+02  0.51100000000E-03 0.  1.
    9900012    2    1    2    0    0 -0.16796748673E+02 -0.39333678613E+02  0.73725440514E+01  0.47787269072E+02  0.19999991009E+02 0.  0.
        -12    1    1    2    0    0  0.16796748673E+02  0.39333678613E+02 -0.73725440514E+01  0.43400730928E+02  0.00000000000E+00 0.  1.
         11    1    3    3    0    0 -0.47206182017E+01 -0.95047776047E+01 -0.58052733774E+01  0.12096538049E+02  0.51100000000E-03 0. -1.
        -11    1    3    3    0    0  0.53968960159E+00 -0.63757854196E+01  0.38814355514E+01  0.74838123162E+01  0.51100000000E-03 0.  1.
         12    1    3    3    0    0 -0.12615820073E+02 -0.23453115589E+02  0.92963818773E+01  0.28206918707E+02  0.00000000000E+00 0. -1.
</event>
<event>
 7    1  0.2756432E-009  0.4778727E+02  0.7816164E-02  0.1312668E+00
        -11   -1    0    0    0    0  0.00000000000E+00  0.00000000000E+00  0.45593999997E+02  0.45594000000E+02  0.51100000000E-03 0. -1.
         11   -1    0    0    0    0 -0.00000000000E+00 -0.00000000000E+00 -0.45593999997E+02  0.45594000000E+02  0.51100000000E-03 0.  1.
    9900012    2    1    2    0    0 -0.20092517940E+01 -0.68857154898E+01  0.42803893129E+02  0.47787269159E+02  0.19999991402E+02 0.  0.
        -12    1    1    2    0    0  0.20092517940E+01  0.68857154898E+01 -0.42803893129E+02  0.43400730841E+02  0.00000000000E+00 0.  1.
         11    1    3    3    0    0 -0.65239311722E+01 -0.75538806480E+01  0.24714495118E+02  0.26653875140E+02  0.51100000000E-03 0. -1.
        -11    1    3    3    0    0  0.75137754667E+01 -0.61805990825E+00  0.14006556597E+02  0.15906679345E+02  0.51100000000E-03 0.  1.
        -12    1    3    3    0    0 -0.29990960885E+01  0.12862250665E+01  0.40828414139E+01  0.52267146738E+01  0.00000000000E+00 0.  1.
</event>
<event>
 7    1  0.2756432E-009  0.4778726E+02  0.7816164E-02  0.1312668E+00
        -11   -1    0    0    0    0  0.00000000000E+00  0.00000000000E+00  0.45593999997E+02  0.45594000000E+02  0.51100000000E-03 0.  1.
         11   -1    0    0    0    0 -0.00000000000E+00 -0.00000000000E+00 -0.45593999997E+02  0.45594000000E+02  0.51100000000E-03 0. -1.
    9900012    2    1    2    0    0 -0.26916307468E+02 -0.24048600932E+02 -0.24099829242E+02  0.47787255951E+02  0.19999931185E+02 0.  0.
        -12    1    1    2    0    0  0.26916307468E+02  0.24048600932E+02  0.24099829242E+02  0.43400744049E+02  0.00000000000E+00 0.  1.
         11    1    3    3    0    0 -0.11127419770E+02 -0.39461349695E+01 -0.16363427340E+02  0.20178037727E+02  0.51100000000E-03 0. -1.
        -11    1    3    3    0    0 -0.12076656431E+02 -0.17416947816E+02 -0.87285687761E+01  0.22921248110E+02  0.51100000000E-03 0.  1.
        -12    1    3    3    0    0 -0.37122312665E+01 -0.26855181460E+01  0.99216687373E+00  0.46879701145E+01  0.00000000000E+00 0.  1.
</event>
<event>
 7    1  0.2756432E-009  0.4778728E+02  0.7816164E-02  0.1312668E+00
        -11   -1    0    0    0    0  0.00000000000E+00  0.00000000000E+00  0.45593999997E+02  0.45594000000E+02  0.51100000000E-03 0.  1.
         11   -1    0    0    0    0 -0.00000000000E+00 -0.00000000000E+00 -0.45593999997E+02  0.45594000000E+02  0.51100000000E-03 0. -1.
    9900012    2    1    2    0    0  0.13753083690E+02  0.15373307251E+02 -0.38185560370E+02  0.47787275264E+02  0.20000019240E+02 0.  0.
        -12    1    1    2    0    0 -0.13753083690E+02 -0.15373307251E+02  0.38185560370E+02  0.43400724736E+02  0.00000000000E+00 0.  1.
         11    1    3    3    0    0  0.46664832519E+01 -0.73500659372E+00  0.45669390663E+00  0.47460373174E+01  0.51100000000E-03 0.  1.
        -11    1    3    3    0    0  0.60703158029E+01  0.93130690334E+01 -0.18656237709E+02  0.21717209639E+02  0.51100000000E-03 0. -1.
        -12    1    3    3    0    0  0.30162846350E+01  0.67952448111E+01 -0.19986016568E+02  0.21324028308E+02  0.00000000000E+00 0.  1.
</event>
<event>
 7    1  0.2756432E-009  0.4778727E+02  0.7816164E-02  0.1312668E+00
        -11   -1    0    0    0    0  0.00000000000E+00  0.00000000000E+00  0.45593999997E+02  0.45594000000E+02  0.51100000000E-03 0.  1.
         11   -1    0    0    0    0 -0.00000000000E+00 -0.00000000000E+00 -0.45593999997E+02  0.45594000000E+02  0.51100000000E-03 0. -1.
    9900012    2    1    2    0    0  0.84167663492E+01 -0.42209718203E+02  0.55786400911E+01  0.47787268533E+02  0.19999988551E+02 0.  0.
        -12    1    1    2    0    0 -0.84167663492E+01  0.42209718203E+02 -0.55786400911E+01  0.43400731467E+02  0.00000000000E+00 0.  1.
         11    1    3    3    0    0  0.93409172428E+01 -0.30114907630E+02 -0.34047906795E+01  0.31713609008E+02  0.51100000000E-03 0. -1.
        -11    1    3    3    0    0 -0.19553251026E+00 -0.10386647610E+02  0.95715440286E+01  0.14125690670E+02  0.51100000000E-03 0.  1.
        -12    1    3    3    0    0 -0.72861838334E+00 -0.17081629628E+01 -0.58811325805E+00  0.19479688551E+01  0.00000000000E+00 0.  1.
</event>
<event>
 7    1  0.2756432E-009  0.4778727E+02  0.7816164E-02  0.1312668E+00
        -11   -1    0    0    0    0  0.00000000000E+00  0.00000000000E+00  0.45593999997E+02  0.45594000000E+02  0.51100000000E-03 0.  1.
         11   -1    0    0    0    0 -0.00000000000E+00 -0.00000000000E+00 -0.45593999997E+02  0.45594000000E+02  0.51100000000E-03 0. -1.
    9900012    2    1    2    0    0  0.39935818726E+02  0.16338862482E+02  0.46685355804E+01  0.47787271101E+02  0.20000000258E+02 0.  0.
        -12    1    1    2    0    0 -0.39935818726E+02 -0.16338862482E+02 -0.46685355804E+01  0.43400728899E+02  0.00000000000E+00 0.  1.
         11    1    3    3    0    0  0.23783632385E+02  0.80816568986E+01 -0.57198206450E+01  0.25762195095E+02  0.51100000000E-03 0. -1.
        -11    1    3    3    0    0  0.10232720024E+02  0.21826301576E+01  0.81230674046E+01  0.13246005353E+02  0.51100000000E-03 0.  1.
         12    1    3    3    0    0  0.59194663163E+01  0.60745754262E+01  0.22652888208E+01  0.87790706524E+01  0.00000000000E+00 0. -1.
</event>
<event>
 7    1  0.2756432E-009  0.4778727E+02  0.7816164E-02  0.1312668E+00
        -11   -1    0    0    0    0  0.00000000000E+00  0.00000000000E+00  0.45593999997E+02  0.45594000000E+02  0.51100000000E-03 0.  1.
         11   -1    0    0    0    0 -0.00000000000E+00 -0.00000000000E+00 -0.45593999997E+02  0.45594000000E+02  0.51100000000E-03 0. -1.
    9900012    2    1    2    0    0  0.29901640219E+02  0.13028379907E+02 -0.28631739411E+02  0.47787271061E+02  0.20000000074E+02 0.  0.
        -12    1    1    2    0    0 -0.29901640219E+02 -0.13028379907E+02  0.28631739411E+02  0.43400728939E+02  0.00000000000E+00 0.  1.
         11    1    3    3    0    0  0.10158476227E+02  0.86243394893E+01 -0.47998965871E+01  0.14163787572E+02  0.51100000000E-03 0. -1.
        -11    1    3    3    0    0  0.18051960107E+02  0.11171376876E+00 -0.22449422712E+02  0.28807331082E+02  0.51100000000E-03 0.  1.
        -12    1    3    3    0    0  0.16912038848E+01  0.42923266487E+01 -0.13824201114E+01  0.48161524066E+01  0.00000000000E+00 0.  1.
</event>
<event>
 7    1  0.2756432E-009  0.4778727E+02  0.7816164E-02  0.1312668E+00
        -11   -1    0    0    0    0  0.00000000000E+00  0.00000000000E+00  0.45593999997E+02  0.45594000000E+02  0.51100000000E-03 0.  1.
         11   -1    0    0    0    0 -0.00000000000E+00 -0.00000000000E+00 -0.45593999997E+02  0.45594000000E+02  0.51100000000E-03 0. -1.
    9900012    2    1    2    0    0 -0.37814752108E+01 -0.25779612679E+02 -0.34709296752E+02  0.47787271139E+02  0.20000000433E+02 0.  0.
        -12    1    1    2    0    0  0.37814752108E+01  0.25779612679E+02  0.34709296752E+02  0.43400728861E+02  0.00000000000E+00 0.  1.
         11    1    3    3    0    0  0.35008358589E+01 -0.15480164959E+02 -0.11757477682E+02  0.19751699688E+02  0.51100000000E-03 0. -1.
        -11    1    3    3    0    0  0.21478225872E+01 -0.58437245088E+00 -0.56029582720E+01  0.60289115672E+01  0.51100000000E-03 0.  1.
         12    1    3    3    0    0 -0.94301336569E+01 -0.97150752689E+01 -0.17348860798E+02  0.22006659884E+02  0.00000000000E+00 0. -1.
</event>
<event>
 7    1  0.2756432E-009  0.4778727E+02  0.7816164E-02  0.1312668E+00
        -11   -1    0    0    0    0  0.00000000000E+00  0.00000000000E+00  0.45593999997E+02  0.45594000000E+02  0.51100000000E-03 0. -1.
         11   -1    0    0    0    0 -0.00000000000E+00 -0.00000000000E+00 -0.45593999997E+02  0.45594000000E+02  0.51100000000E-03 0.  1.
    9900012    2    1    2    0    0 -0.37336875618E+02 -0.15316189884E+02  0.15968574963E+02  0.47787270285E+02  0.19999996536E+02 0.  0.
        -12    1    1    2    0    0  0.37336875618E+02  0.15316189884E+02 -0.15968574963E+02  0.43400729715E+02  0.00000000000E+00 0.  1.
         11    1    3    3    0    0 -0.36106550275E+01 -0.21012046814E+01  0.86567440748E+01  0.96120293944E+01  0.51100000000E-03 0. -1.
        -11    1    3    3    0    0 -0.20860357438E+02 -0.54342838850E+01  0.23600226011E+00  0.21557867499E+02  0.51100000000E-03 0.  1.
         12    1    3    3    0    0 -0.12865863152E+02 -0.77807013176E+01  0.70758286284E+01  0.16617373391E+02  0.00000000000E+00 0. -1.
</event>
<event>
 7    1  0.2756432E-009  0.4778727E+02  0.7816164E-02  0.1312668E+00
        -11   -1    0    0    0    0  0.00000000000E+00  0.00000000000E+00  0.45593999997E+02  0.45594000000E+02  0.51100000000E-03 0. -1.
         11   -1    0    0    0    0 -0.00000000000E+00 -0.00000000000E+00 -0.45593999997E+02  0.45594000000E+02  0.51100000000E-03 0.  1.
    9900012    2    1    2    0    0 -0.23722756243E+02 -0.34187601884E+02  0.12331353248E+02  0.47787267756E+02  0.19999985008E+02 0.  0.
        -12    1    1    2    0    0  0.23722756243E+02  0.34187601884E+02 -0.12331353248E+02  0.43400732244E+02  0.00000000000E+00 0.  1.
         11    1    3    3    0    0  0.12139744583E+00 -0.21659614370E+01  0.15220175987E+01  0.26500309655E+01  0.51100000000E-03 0. -1.
        -11    1    3    3    0    0 -0.24898307364E+02 -0.30577635418E+02  0.13694750717E+02  0.41742828064E+02  0.51100000000E-03 0.  1.
        -12    1    3    3    0    0  0.10541536749E+01 -0.14440050288E+01 -0.28854150670E+01  0.33944087265E+01  0.00000000000E+00 0.  1.
</event>
<event>
 7    1  0.2756432E-009  0.4778727E+02  0.7816164E-02  0.1312668E+00
        -11   -1    0    0    0    0  0.00000000000E+00  0.00000000000E+00  0.45593999997E+02  0.45594000000E+02  0.51100000000E-03 0.  1.
         11   -1    0    0    0    0 -0.00000000000E+00 -0.00000000000E+00 -0.45593999997E+02  0.45594000000E+02  0.51100000000E-03 0. -1.
    9900012    2    1    2    0    0  0.23623689274E+02 -0.82796027738E+01 -0.35454090367E+02  0.47787273730E+02  0.20000012245E+02 0.  0.
        -12    1    1    2    0    0 -0.23623689274E+02  0.82796027738E+01  0.35454090367E+02  0.43400726270E+02  0.00000000000E+00 0.  1.
         11    1    3    3    0    0  0.51775113029E+01 -0.64744424571E+01 -0.74440136712E+01  0.11141739910E+02  0.51100000000E-03 0. -1.
        -11    1    3    3    0    0  0.16721951854E+02 -0.20955753053E+01 -0.29741777320E+02  0.34184622684E+02  0.51100000000E-03 0.  1.
        -12    1    3    3    0    0  0.17242261169E+01  0.29041498861E+00  0.17317006240E+01  0.24609111359E+01  0.00000000000E+00 0.  1.
</event>
<event>
 7    1 -0.2756432E-009  0.4778726E+02  0.7816164E-02  0.1312668E+00
        -11   -1    0    0    0    0  0.00000000000E+00  0.00000000000E+00  0.45593999997E+02  0.45594000000E+02  0.51100000000E-03 0.  1.
         11   -1    0    0    0    0 -0.00000000000E+00 -0.00000000000E+00 -0.45593999997E+02  0.45594000000E+02  0.51100000000E-03 0. -1.
    9900012    2    1    2    0    0  0.13024640300E+02 -0.32175682882E+02 -0.26052027443E+02  0.47787263166E+02  0.19999964079E+02 0.  0.
        -12    1    1    2    0    0 -0.13024640300E+02  0.32175682882E+02  0.26052027443E+02  0.43400736834E+02  0.00000000000E+00 0.  1.
         11    1    3    3    0    0 -0.15645272257E+01 -0.43988143485E+01 -0.60536822938E+01  0.76448925884E+01  0.51100000000E-03 0. -1.
        -11    1    3    3    0    0  0.71026163964E+01 -0.12254798058E+01 -0.37189677381E+01  0.81104674173E+01  0.51100000000E-03 0.  1.
        -12    1    3    3    0    0  0.74865511288E+01 -0.26551388728E+02 -0.16279377411E+02  0.32031903160E+02  0.00000000000E+00 0.  1.
</event>
<event>
 7    1  0.2756432E-009  0.4778727E+02  0.7816164E-02  0.1312668E+00
        -11   -1    0    0    0    0  0.00000000000E+00  0.00000000000E+00  0.45593999997E+02  0.45594000000E+02  0.51100000000E-03 0.  1.
         11   -1    0    0    0    0 -0.00000000000E+00 -0.00000000000E+00 -0.45593999997E+02  0.45594000000E+02  0.51100000000E-03 0. -1.
    9900012    2    1    2    0    0  0.39667966758E+02 -0.82770853997E+01 -0.15542376905E+02  0.47787271789E+02  0.20000003393E+02 0.  0.
        -12    1    1    2    0    0 -0.39667966758E+02  0.82770853997E+01  0.15542376905E+02  0.43400728211E+02  0.00000000000E+00 0.  1.
         11    1    3    3    0    0  0.69770998656E+01  0.14652263259E+01  0.23146580066E+01  0.74956289042E+01  0.51100000000E-03 0. -1.
        -11    1    3    3    0    0  0.14012636432E+02 -0.11819581510E+01 -0.13062484201E+02  0.19193214911E+02  0.51100000000E-03 0.  1.
        -12    1    3    3    0    0  0.18678230460E+02 -0.85603535745E+01 -0.47945507108E+01  0.21098427974E+02  0.00000000000E+00 0.  1.
</event>
<event>
 7    1  0.2756432E-009  0.4778727E+02  0.7816164E-02  0.1312668E+00
        -11   -1    0    0    0    0  0.00000000000E+00  0.00000000000E+00  0.45593999997E+02  0.45594000000E+02  0.51100000000E-03 0.  1.
         11   -1    0    0    0    0 -0.00000000000E+00 -0.00000000000E+00 -0.45593999997E+02  0.45594000000E+02  0.51100000000E-03 0. -1.
    9900012    2    1    2    0    0 -0.42209738196E+02 -0.99146191693E+01  0.19135440565E+01  0.47787270482E+02  0.19999997436E+02 0.  0.
        -12    1    1    2    0    0  0.42209738196E+02  0.99146191693E+01 -0.19135440565E+01  0.43400729518E+02  0.00000000000E+00 0.  1.
         11    1    3    3    0    0 -0.18789878774E+01 -0.10542570677E+01  0.49988256304E+00  0.22117721958E+01  0.51100000000E-03 0. -1.
        -11    1    3    3    0    0 -0.23949622826E+02 -0.74976118122E+01  0.10018630230E+02  0.27021687000E+02  0.51100000000E-03 0.  1.
        -12    1    3    3    0    0 -0.16381127493E+02 -0.13627502894E+01 -0.86049687367E+01  0.18553811286E+02  0.00000000000E+00 0.  1.
</event>
<event>
 7    1  0.2756432E-009  0.4778727E+02  0.7816164E-02  0.1312668E+00
        -11   -1    0    0    0    0  0.00000000000E+00  0.00000000000E+00  0.45593999997E+02  0.45594000000E+02  0.51100000000E-03 0.  1.
         11   -1    0    0    0    0 -0.00000000000E+00 -0.00000000000E+00 -0.45593999997E+02  0.45594000000E+02  0.51100000000E-03 0. -1.
    9900012    2    1    2    0    0 -0.13619772437E+02  0.16078502499E+02 -0.37942148363E+02  0.47787273436E+02  0.20000010904E+02 0.  0.
        -12    1    1    2    0    0  0.13619772437E+02 -0.16078502499E+02  0.37942148363E+02  0.43400726564E+02  0.00000000000E+00 0.  1.
         11    1    3    3    0    0 -0.51502750832E+01 -0.98865177812E+00 -0.11176792172E+01  0.53620866148E+01  0.51100000000E-03 0. -1.
        -11    1    3    3    0    0  0.18166158609E+01  0.36889369398E+01 -0.58268413271E+01  0.71316498122E+01  0.51100000000E-03 0.  1.
         12    1    3    3    0    0 -0.10286113215E+02  0.13378217338E+02 -0.30997627819E+02  0.35293537009E+02  0.00000000000E+00 0. -1.
</event>
<event>
 7    1  0.2756432E-009  0.4778728E+02  0.7816164E-02  0.1312668E+00
        -11   -1    0    0    0    0  0.00000000000E+00  0.00000000000E+00  0.45593999997E+02  0.45594000000E+02  0.51100000000E-03 0.  1.
         11   -1    0    0    0    0 -0.00000000000E+00 -0.00000000000E+00 -0.45593999997E+02  0.45594000000E+02  0.51100000000E-03 0. -1.
    9900012    2    1    2    0    0 -0.22610195064E+02 -0.19516907483E+02 -0.31487970531E+02  0.47787275506E+02  0.20000020340E+02 0.  0.
        -12    1    1    2    0    0  0.22610195064E+02  0.19516907483E+02  0.31487970531E+02  0.43400724494E+02  0.00000000000E+00 0.  1.
         11    1    3    3    0    0  0.24472618613E+01 -0.58091310163E+01 -0.84692256292E+01  0.10557598060E+02  0.51100000000E-03 0. -1.
        -11    1    3    3    0    0 -0.13260756734E+01 -0.14426033255E+01 -0.39473894357E+01  0.44069790861E+01  0.51100000000E-03 0.  1.
         12    1    3    3    0    0 -0.23731381252E+02 -0.12265173141E+02 -0.19071355466E+02  0.32822698359E+02  0.00000000000E+00 0. -1.
</event>
<event>
 7    1  0.2756432E-009  0.4778727E+02  0.7816164E-02  0.1312668E+00
        -11   -1    0    0    0    0  0.00000000000E+00  0.00000000000E+00  0.45593999997E+02  0.45594000000E+02  0.51100000000E-03 0.  1.
         11   -1    0    0    0    0 -0.00000000000E+00 -0.00000000000E+00 -0.45593999997E+02  0.45594000000E+02  0.51100000000E-03 0. -1.
    9900012    2    1    2    0    0  0.13866337841E+02 -0.21620541121E+02 -0.34984283396E+02  0.47787271801E+02  0.20000003450E+02 0.  0.
        -12    1    1    2    0    0 -0.13866337841E+02  0.21620541121E+02  0.34984283396E+02  0.43400728199E+02  0.00000000000E+00 0.  1.
         11    1    3    3    0    0  0.11002505777E+02 -0.53394518713E+01 -0.19302981827E+02  0.22851039087E+02  0.51100000000E-03 0. -1.
        -11    1    3    3    0    0 -0.88578666743E+00 -0.14219239334E+02 -0.14846504206E+02  0.20576444607E+02  0.51100000000E-03 0.  1.
        -12    1    3    3    0    0  0.37496187312E+01 -0.20618499161E+01 -0.83479736220E+00  0.43597881074E+01  0.00000000000E+00 0.  1.
</event>
<event>
 7    1  0.2756432E-009  0.4778727E+02  0.7816164E-02  0.1312668E+00
        -11   -1    0    0    0    0  0.00000000000E+00  0.00000000000E+00  0.45593999997E+02  0.45594000000E+02  0.51100000000E-03 0.  1.
         11   -1    0    0    0    0 -0.00000000000E+00 -0.00000000000E+00 -0.45593999997E+02  0.45594000000E+02  0.51100000000E-03 0. -1.
    9900012    2    1    2    0    0  0.20552014232E+02 -0.23435878955E+02 -0.30199304244E+02  0.47787266270E+02  0.19999978233E+02 0.  0.
        -12    1    1    2    0    0 -0.20552014232E+02  0.23435878955E+02  0.30199304244E+02  0.43400733730E+02  0.00000000000E+00 0.  1.
         11    1    3    3    0    0  0.20301366665E+02 -0.15953178472E+02 -0.16764966028E+02  0.30784955385E+02  0.51100000000E-03 0. -1.
        -11    1    3    3    0    0 -0.25798984479E+01 -0.64111267568E+01 -0.67292631971E+01  0.96457973092E+01  0.51100000000E-03 0.  1.
        -12    1    3    3    0    0  0.28305460148E+01 -0.10715737268E+01 -0.67050750189E+01  0.73565135766E+01  0.00000000000E+00 0.  1.
</event>
<event>
 7    1  0.4480806E-009  0.4778729E+02  0.7816164E-02  0.1312668E+00
        -11   -1    0    0    0    0  0.00000000000E+00  0.00000000000E+00  0.45593999997E+02  0.45594000000E+02  0.51100000000E-03 0. -1.
         11   -1    0    0    0    0 -0.00000000000E+00 -0.00000000000E+00 -0.45593999997E+02  0.45594000000E+02  0.51100000000E-03 0.  1.
    9900012    2    1    2    0    0 -0.36804321954E+02  0.20124795888E+02 -0.11138062440E+02  0.47787286193E+02  0.20000069068E+02 0.  0.
        -12    1    1    2    0    0  0.36804321954E+02 -0.20124795888E+02  0.11138062440E+02  0.43400713807E+02  0.00000000000E+00 0.  1.
         11    1    3    3    0    0 -0.20041111776E+02  0.15774765343E+02 -0.11917242428E+02  0.28151555023E+02  0.51100000000E-03 0. -1.
        -11    1    3    3    0    0 -0.29342287261E+01 -0.27682831807E+01 -0.29799266646E+00  0.40449832974E+01  0.51100000000E-03 0.  1.
        -12    1    3    3    0    0 -0.13828981453E+02  0.71183137249E+01  0.10771726544E+01  0.15590747873E+02  0.00000000000E+00 0.  1.
</event>
<event>
 7    1  0.2756432E-009  0.4778727E+02  0.7816164E-02  0.1312668E+00
        -11   -1    0    0    0    0  0.00000000000E+00  0.00000000000E+00  0.45593999997E+02  0.45594000000E+02  0.51100000000E-03 0. -1.
         11   -1    0    0    0    0 -0.00000000000E+00 -0.00000000000E+00 -0.45593999997E+02  0.45594000000E+02  0.51100000000E-03 0.  1.
    9900012    2    1    2    0    0 -0.21229372263E+02 -0.56787872370E+01  0.37425776138E+02  0.47787267394E+02  0.19999983358E+02 0.  0.
        -12    1    1    2    0    0  0.21229372263E+02  0.56787872370E+01 -0.37425776138E+02  0.43400732606E+02  0.00000000000E+00 0.  1.
         11    1    3    3    0    0 -0.15911068574E+02  0.28682259545E+01  0.18504525085E+02  0.24572469802E+02  0.51100000000E-03 0. -1.
        -11    1    3    3    0    0  0.14279264388E+01 -0.71969791970E+00  0.80841527297E+01  0.82407805837E+01  0.51100000000E-03 0.  1.
         12    1    3    3    0    0 -0.67462301287E+01 -0.78273152718E+01  0.10837098323E+02  0.14974017009E+02  0.00000000000E+00 0. -1.
</event>
<event>
 7    1  0.2756432E-009  0.4778727E+02  0.7816164E-02  0.1312668E+00
        -11   -1    0    0    0    0  0.00000000000E+00  0.00000000000E+00  0.45593999997E+02  0.45594000000E+02  0.51100000000E-03 0.  1.
         11   -1    0    0    0    0 -0.00000000000E+00 -0.00000000000E+00 -0.45593999997E+02  0.45594000000E+02  0.51100000000E-03 0. -1.
    9900012    2    1    2    0    0  0.20010352688E+02 -0.23128776008E+02 -0.30793975726E+02  0.47787269185E+02  0.19999991521E+02 0.  0.
        -12    1    1    2    0    0 -0.20010352688E+02  0.23128776008E+02  0.30793975726E+02  0.43400730815E+02  0.00000000000E+00 0.  1.
         11    1    3    3    0    0  0.44234927071E+01 -0.31576826682E+01  0.13325153473E+01  0.55958774982E+01  0.51100000000E-03 0. -1.
        -11    1    3    3    0    0  0.61346754003E+01 -0.15373712810E+02 -0.22543167047E+02  0.27967475191E+02  0.51100000000E-03 0.  1.
         12    1    3    3    0    0  0.94521845802E+01 -0.45973805297E+01 -0.95833240262E+01  0.14223916495E+02  0.00000000000E+00 0. -1.
</event>
<event>
 7    1  0.2756432E-009  0.4778725E+02  0.7816164E-02  0.1312668E+00
        -11   -1    0    0    0    0  0.00000000000E+00  0.00000000000E+00  0.45593999997E+02  0.45594000000E+02  0.51100000000E-03 0. -1.
         11   -1    0    0    0    0 -0.00000000000E+00 -0.00000000000E+00 -0.45593999997E+02  0.45594000000E+02  0.51100000000E-03 0.  1.
    9900012    2    1    2    0    0  0.18258986437E+01  0.10983944059E+02  0.41948111509E+02  0.47787251249E+02  0.19999909745E+02 0.  0.
        -12    1    1    2    0    0 -0.18258986437E+01 -0.10983944059E+02 -0.41948111509E+02  0.43400748751E+02  0.00000000000E+00 0.  1.
         11    1    3    3    0    0 -0.32575164327E+00  0.13189406977E+02  0.27245667274E+02  0.30271983021E+02  0.51100000000E-03 0. -1.
        -11    1    3    3    0    0  0.47861682836E+01 -0.28460346581E+01  0.51476581548E+01  0.75832516017E+01  0.51100000000E-03 0.  1.
        -12    1    3    3    0    0 -0.26345179966E+01  0.64057174026E+00  0.95547860802E+01  0.99320166264E+01  0.00000000000E+00 0.  1.
</event>
<event>
 7    1  0.2756432E-009  0.4778727E+02  0.7816164E-02  0.1312668E+00
        -11   -1    0    0    0    0  0.00000000000E+00  0.00000000000E+00  0.45593999997E+02  0.45594000000E+02  0.51100000000E-03 0. -1.
         11   -1    0    0    0    0 -0.00000000000E+00 -0.00000000000E+00 -0.45593999997E+02  0.45594000000E+02  0.51100000000E-03 0.  1.
    9900012    2    1    2    0    0 -0.15231520106E+02  0.27939590189E+02  0.29512770158E+02  0.47787268358E+02  0.19999987753E+02 0.  0.
        -12    1    1    2    0    0  0.15231520106E+02 -0.27939590189E+02 -0.29512770158E+02  0.43400731642E+02  0.00000000000E+00 0.  1.
         11    1    3    3    0    0  0.56310602323E+00  0.14871601648E+01  0.61334673493E+01  0.63362572340E+01  0.51100000000E-03 0. -1.
        -11    1    3    3    0    0 -0.10181270282E+02  0.22108685121E+02  0.10017679229E+02  0.26321210453E+02  0.51100000000E-03 0.  1.
        -12    1    3    3    0    0 -0.56133558480E+01  0.43437449025E+01  0.13361623580E+02  0.15129800671E+02  0.00000000000E+00 0.  1.
</event>
<event>
 7    1  0.2756432E-009  0.4778727E+02  0.7816164E-02  0.1312668E+00
        -11   -1    0    0    0    0  0.00000000000E+00  0.00000000000E+00  0.45593999997E+02  0.45594000000E+02  0.51100000000E-03 0. -1.
         11   -1    0    0    0    0 -0.00000000000E+00 -0.00000000000E+00 -0.45593999997E+02  0.45594000000E+02  0.51100000000E-03 0.  1.
    9900012    2    1    2    0    0  0.88406085267E+01  0.40529251575E+02  0.12761139245E+02  0.47787271121E+02  0.20000000350E+02 0.  0.
        -12    1    1    2    0    0 -0.88406085267E+01 -0.40529251575E+02 -0.12761139245E+02  0.43400728879E+02  0.00000000000E+00 0.  1.
         11    1    3    3    0    0 -0.43723441716E+00  0.24937965203E+02  0.44770835375E+01  0.25340433296E+02  0.51100000000E-03 0. -1.
        -11    1    3    3    0    0  0.99029717512E+01  0.67339146458E+01  0.50501969262E+01  0.12996882134E+02  0.51100000000E-03 0.  1.
        -12    1    3    3    0    0 -0.62512880739E+00  0.88573717268E+01  0.32338587814E+01  0.94499556904E+01  0.00000000000E+00 0.  1.
</event>
<event>
 7    1  0.2756432E-009  0.4778727E+02  0.7816164E-02  0.1312668E+00
        -11   -1    0    0    0    0  0.00000000000E+00  0.00000000000E+00  0.45593999997E+02  0.45594000000E+02  0.51100000000E-03 0. -1.
         11   -1    0    0    0    0 -0.00000000000E+00 -0.00000000000E+00 -0.45593999997E+02  0.45594000000E+02  0.51100000000E-03 0.  1.
    9900012    2    1    2    0    0  0.48351929852E+01 -0.15078154226E+02  0.40409073274E+02  0.47787273866E+02  0.20000012867E+02 0.  0.
        -12    1    1    2    0    0 -0.48351929852E+01  0.15078154226E+02 -0.40409073274E+02  0.43400726134E+02  0.00000000000E+00 0.  1.
         11    1    3    3    0    0 -0.65118167973E+01 -0.48373339442E+01  0.16021620610E+02  0.17958170423E+02  0.51100000000E-03 0. -1.
        -11    1    3    3    0    0  0.50615705797E+01  0.59015876576E-01  0.82552147382E+01  0.96835711513E+01  0.51100000000E-03 0.  1.
         12    1    3    3    0    0  0.62854392028E+01 -0.10299836159E+02  0.16132237925E+02  0.20145532293E+02  0.00000000000E+00 0. -1.
</event>
<event>
 7    1  0.2756432E-009  0.4778727E+02  0.7816164E-02  0.1312668E+00
        -11   -1    0    0    0    0  0.00000000000E+00  0.00000000000E+00  0.45593999997E+02  0.45594000000E+02  0.51100000000E-03 0.  1.
         11   -1    0    0    0    0 -0.00000000000E+00 -0.00000000000E+00 -0.45593999997E+02  0.45594000000E+02  0.51100000000E-03 0. -1.
    9900012    2    1    2    0    0  0.40830110047E+02  0.11329516968E+02 -0.93897630467E+01  0.47787268540E+02  0.19999988582E+02 0.  0.
        -12    1    1    2    0    0 -0.40830110047E+02 -0.11329516968E+02  0.93897630467E+01  0.43400731460E+02  0.00000000000E+00 0.  1.
         11    1    3    3    0    0  0.29594070074E+02  0.11939206371E+02 -0.66379599707E+01  0.32594725726E+02  0.51100000000E-03 0. -1.
        -11    1    3    3    0    0  0.24267251373E+01 -0.46097134547E+01 -0.33440924461E+00  0.52201803446E+01  0.51100000000E-03 0.  1.
        -12    1    3    3    0    0  0.88093148356E+01  0.40000240525E+01 -0.24173938314E+01  0.99723624698E+01  0.00000000000E+00 0.  1.
</event>
<event>
 7    1  0.2756432E-009  0.4778727E+02  0.7816164E-02  0.1312668E+00
        -11   -1    0    0    0    0  0.00000000000E+00  0.00000000000E+00  0.45593999997E+02  0.45594000000E+02  0.51100000000E-03 0.  1.
         11   -1    0    0    0    0 -0.00000000000E+00 -0.00000000000E+00 -0.45593999997E+02  0.45594000000E+02  0.51100000000E-03 0. -1.
    9900012    2    1    2    0    0  0.19769264685E+00  0.64044375637E+01 -0.42925135580E+02  0.47787272271E+02  0.20000005591E+02 0.  0.
        -12    1    1    2    0    0 -0.19769264685E+00 -0.64044375637E+01  0.42925135580E+02  0.43400727729E+02  0.00000000000E+00 0.  1.
         11    1    3    3    0    0 -0.90527975337E+01  0.46938444985E+01 -0.23826580174E+02  0.25917006818E+02  0.51100000000E-03 0. -1.
        -11    1    3    3    0    0  0.49108726641E+01  0.10659818141E+01 -0.49367738281E+01  0.70444817866E+01  0.51100000000E-03 0.  1.
         12    1    3    3    0    0  0.43396175165E+01  0.64461125109E+00 -0.14161781577E+02  0.14825783666E+02  0.00000000000E+00 0. -1.
</event>
<event>
 7    1  0.2834806E-009  0.4778727E+02  0.7816164E-02  0.1312668E+00
        -11   -1    0    0    0    0  0.00000000000E+00  0.00000000000E+00  0.45593999997E+02  0.45594000000E+02  0.51100000000E-03 0.  1.
         11   -1    0    0    0    0 -0.00000000000E+00 -0.00000000000E+00 -0.45593999997E+02  0.45594000000E+02  0.51100000000E-03 0. -1.
    9900012    2    1    2    0    0 -0.14759857583E+02  0.39222551918E+02  0.11285457939E+02  0.47787268028E+02  0.19999986248E+02 0.  0.
        -12    1    1    2    0    0  0.14759857583E+02 -0.39222551918E+02 -0.11285457939E+02  0.43400731972E+02  0.00000000000E+00 0.  1.
         11    1    3    3    0    0 -0.13358987903E+02  0.14211720415E+02  0.52193884343E+01  0.20191026988E+02  0.51100000000E-03 0. -1.
        -11    1    3    3    0    0  0.22101017609E+01  0.60935133066E+01 -0.19003298903E+01  0.67547544859E+01  0.51100000000E-03 0.  1.
        -12    1    3    3    0    0 -0.36109714410E+01  0.18917318196E+02  0.79663993947E+01  0.20841486554E+02  0.00000000000E+00 0.  1.
</event>
<event>
 7    1  0.2756432E-009  0.4778727E+02  0.7816164E-02  0.1312668E+00
        -11   -1    0    0    0    0  0.00000000000E+00  0.00000000000E+00  0.45593999997E+02  0.45594000000E+02  0.51100000000E-03 0. -1.
         11   -1    0    0    0    0 -0.00000000000E+00 -0.00000000000E+00 -0.45593999997E+02  0.45594000000E+02  0.51100000000E-03 0.  1.
    9900012    2    1    2    0    0 -0.18596195397E+02  0.56125540347E+01  0.38811137219E+02  0.47787267077E+02  0.19999981910E+02 0.  0.
        -12    1    1    2    0    0  0.18596195397E+02 -0.56125540347E+01 -0.38811137219E+02  0.43400732923E+02  0.00000000000E+00 0.  1.
         11    1    3    3    0    0  0.17887404207E+01 -0.11220794663E+01  0.78130140868E+01  0.80933209502E+01  0.51100000000E-03 0. -1.
        -11    1    3    3    0    0 -0.20931560829E+02  0.42150849322E+01  0.23433979187E+02  0.31702500855E+02  0.51100000000E-03 0.  1.
        -12    1    3    3    0    0  0.54662501048E+00  0.25195485688E+01  0.75641439456E+01  0.79914452712E+01  0.00000000000E+00 0.  1.
</event>
<event>
 7    1  0.2756432E-009  0.4778727E+02  0.7816164E-02  0.1312668E+00
        -11   -1    0    0    0    0  0.00000000000E+00  0.00000000000E+00  0.45593999997E+02  0.45594000000E+02  0.51100000000E-03 0. -1.
         11   -1    0    0    0    0 -0.00000000000E+00 -0.00000000000E+00 -0.45593999997E+02  0.45594000000E+02  0.51100000000E-03 0.  1.
    9900012    2    1    2    0    0 -0.27857701854E+02  0.30892768543E+02  0.12377753096E+02  0.47787268755E+02  0.19999989564E+02 0.  0.
        -12    1    1    2    0    0  0.27857701854E+02 -0.30892768543E+02 -0.12377753096E+02  0.43400731245E+02  0.00000000000E+00 0.  1.
         11    1    3    3    0    0 -0.67493616398E+01  0.10246752579E+02  0.11388274632E+02  0.16740448630E+02  0.51100000000E-03 0. -1.
        -11    1    3    3    0    0 -0.21067690664E+02  0.17532499831E+02  0.26170201022E+01  0.27533342236E+02  0.51100000000E-03 0.  1.
         12    1    3    3    0    0 -0.40649550581E-01  0.31135161326E+01 -0.16275416382E+01  0.35134778892E+01  0.00000000000E+00 0. -1.
</event>
<event>
 7    1  0.2756432E-009  0.4778727E+02  0.7816164E-02  0.1312668E+00
        -11   -1    0    0    0    0  0.00000000000E+00  0.00000000000E+00  0.45593999997E+02  0.45594000000E+02  0.51100000000E-03 0.  1.
         11   -1    0    0    0    0 -0.00000000000E+00 -0.00000000000E+00 -0.45593999997E+02  0.45594000000E+02  0.51100000000E-03 0. -1.
    9900012    2    1    2    0    0  0.14071176516E+02 -0.73783092305E+01 -0.40387939159E+02  0.47787273218E+02  0.20000009910E+02 0.  0.
        -12    1    1    2    0    0 -0.14071176516E+02  0.73783092305E+01  0.40387939159E+02  0.43400726782E+02  0.00000000000E+00 0.  1.
         11    1    3    3    0    0  0.95975758295E+00 -0.72016284694E+01 -0.29642712720E+02  0.30520075440E+02  0.51100000000E-03 0. -1.
        -11    1    3    3    0    0 -0.10517459518E+00 -0.17212930079E+00  0.43407752537E-01  0.20633634136E+00  0.51100000000E-03 0.  1.
         12    1    3    3    0    0  0.13216593529E+02 -0.45514602934E-02 -0.10788634192E+02  0.17060861436E+02  0.00000000000E+00 0. -1.
</event>
<event>
 7    1  0.2756432E-009  0.4778727E+02  0.7816164E-02  0.1312668E+00
        -11   -1    0    0    0    0  0.00000000000E+00  0.00000000000E+00  0.45593999997E+02  0.45594000000E+02  0.51100000000E-03 0. -1.
         11   -1    0    0    0    0 -0.00000000000E+00 -0.00000000000E+00 -0.45593999997E+02  0.45594000000E+02  0.51100000000E-03 0.  1.
    9900012    2    1    2    0    0  0.89378970269E+01  0.42460406387E+02 -0.92251949232E+00  0.47787272402E+02  0.20000006191E+02 0.  0.
        -12    1    1    2    0    0 -0.89378970269E+01 -0.42460406387E+02  0.92251949232E+00  0.43400727598E+02  0.00000000000E+00 0.  1.
         11    1    3    3    0    0  0.11106383446E+02  0.22021270411E+02  0.30729431269E+01  0.24854196497E+02  0.51100000000E-03 0.  1.
        -11    1    3    3    0    0 -0.44629470265E+01  0.40579099961E+01 -0.77795253162E+00  0.60819191133E+01  0.51100000000E-03 0. -1.
         12    1    3    3    0    0  0.22944606071E+01  0.16381225980E+02 -0.32175100876E+01  0.16851156792E+02  0.00000000000E+00 0. -1.
</event>
<event>
 7    1  0.2756432E-009  0.4778727E+02  0.7816164E-02  0.1312668E+00
        -11   -1    0    0    0    0  0.00000000000E+00  0.00000000000E+00  0.45593999997E+02  0.45594000000E+02  0.51100000000E-03 0.  1.
         11   -1    0    0    0    0 -0.00000000000E+00 -0.00000000000E+00 -0.45593999997E+02  0.45594000000E+02  0.51100000000E-03 0. -1.
    9900012    2    1    2    0    0  0.19755269068E+02  0.30920429044E+02 -0.23179290914E+02  0.47787272869E+02  0.20000008319E+02 0.  0.
        -12    1    1    2    0    0 -0.19755269068E+02 -0.30920429044E+02  0.23179290914E+02  0.43400727131E+02  0.00000000000E+00 0.  1.
         11    1    3    3    0    0  0.11011436608E+02  0.16918912502E+02 -0.31631721329E+01  0.20432987903E+02  0.51100000000E-03 0. -1.
        -11    1    3    3    0    0  0.27925197593E-01  0.23738271884E+01  0.28194958682E+00  0.23906758809E+01  0.51100000000E-03 0.  1.
         12    1    3    3    0    0  0.87159072627E+01  0.11627689353E+02 -0.20298068368E+02  0.24963609085E+02  0.00000000000E+00 0. -1.
</event>
<event>
 7    1  0.2756432E-009  0.4778728E+02  0.7816164E-02  0.1312668E+00
        -11   -1    0    0    0    0  0.00000000000E+00  0.00000000000E+00  0.45593999997E+02  0.45594000000E+02  0.51100000000E-03 0.  1.
         11   -1    0    0    0    0 -0.00000000000E+00 -0.00000000000E+00 -0.45593999997E+02  0.45594000000E+02  0.51100000000E-03 0. -1.
    9900012    2    1    2    0    0  0.15400928184E+02 -0.35372753208E+02 -0.19879685952E+02  0.47787283739E+02  0.20000057879E+02 0.  0.
        -12    1    1    2    0    0 -0.15400928184E+02  0.35372753208E+02  0.19879685952E+02  0.43400716261E+02  0.00000000000E+00 0.  1.
         11    1    3    3    0    0  0.48049299363E+01 -0.59357267974E+01 -0.11269438791E+02  0.13613245580E+02  0.51100000000E-03 0. -1.
        -11    1    3    3    0    0  0.11941337866E+01  0.77721721012E+00 -0.27048026633E+00  0.14502351284E+01  0.51100000000E-03 0.  1.
         12    1    3    3    0    0  0.94018644614E+01 -0.30214243621E+02 -0.83397668948E+01  0.32723803030E+02  0.00000000000E+00 0. -1.
</event>
<event>
 7    1  0.2756432E-009  0.4778728E+02  0.7816164E-02  0.1312668E+00
        -11   -1    0    0    0    0  0.00000000000E+00  0.00000000000E+00  0.45593999997E+02  0.45594000000E+02  0.51100000000E-03 0. -1.
         11   -1    0    0    0    0 -0.00000000000E+00 -0.00000000000E+00 -0.45593999997E+02  0.45594000000E+02  0.51100000000E-03 0.  1.
    9900012    2    1    2    0    0 -0.31512645074E+02 -0.26720675668E+02  0.13288397953E+02  0.47787276183E+02  0.20000023429E+02 0.  0.
        -12    1    1    2    0    0  0.31512645074E+02  0.26720675668E+02 -0.13288397953E+02  0.43400723817E+02  0.00000000000E+00 0.  1.
         11    1    3    3    0    0 -0.23922567471E+01 -0.92921133679E+01  0.33813331763E+01  0.10173479125E+02  0.51100000000E-03 0. -1.
        -11    1    3    3    0    0 -0.24300315130E+02 -0.11522912288E+02  0.12370625071E+02  0.29602621302E+02  0.51100000000E-03 0.  1.
        -12    1    3    3    0    0 -0.48200731964E+01 -0.59056500121E+01 -0.24635602944E+01  0.80111757570E+01  0.00000000000E+00 0.  1.
</event>
<event>
 7    1  0.2756432E-009  0.4778728E+02  0.7816164E-02  0.1312668E+00
        -11   -1    0    0    0    0  0.00000000000E+00  0.00000000000E+00  0.45593999997E+02  0.45594000000E+02  0.51100000000E-03 0.  1.
         11   -1    0    0    0    0 -0.00000000000E+00 -0.00000000000E+00 -0.45593999997E+02  0.45594000000E+02  0.51100000000E-03 0. -1.
    9900012    2    1    2    0    0  0.25318149814E+02 -0.24178227581E+02 -0.25652045120E+02  0.47787276298E+02  0.20000023954E+02 0.  0.
        -12    1    1    2    0    0 -0.25318149814E+02  0.24178227581E+02  0.25652045120E+02  0.43400723702E+02  0.00000000000E+00 0.  1.
         11    1    3    3    0    0  0.15244026250E+02 -0.23388974772E+02 -0.15596665085E+02  0.31979375217E+02  0.51100000000E-03 0.  1.
        -11    1    3    3    0    0  0.99043366103E+01 -0.47550463281E+00 -0.10993228269E+02  0.14804494465E+02  0.51100000000E-03 0. -1.
        -12    1    3    3    0    0  0.16978695364E+00 -0.31374817608E+00  0.93784823359E+00  0.10034066159E+01  0.00000000000E+00 0.  1.
</event>
<event>
 7    1  0.2756432E-009  0.4778727E+02  0.7816164E-02  0.1312668E+00
        -11   -1    0    0    0    0  0.00000000000E+00  0.00000000000E+00  0.45593999997E+02  0.45594000000E+02  0.51100000000E-03 0.  1.
         11   -1    0    0    0    0 -0.00000000000E+00 -0.00000000000E+00 -0.45593999997E+02  0.45594000000E+02  0.51100000000E-03 0. -1.
    9900012    2    1    2    0    0 -0.17186775224E+02  0.38771733153E+02  0.92190237974E+01  0.47787274960E+02  0.20000017851E+02 0.  0.
        -12    1    1    2    0    0  0.17186775224E+02 -0.38771733153E+02 -0.92190237974E+01  0.43400725040E+02  0.00000000000E+00 0.  1.
         11    1    3    3    0    0 -0.16923168666E+02  0.19165523708E+02  0.98003969912E+00  0.25586547535E+02  0.51100000000E-03 0. -1.
        -11    1    3    3    0    0 -0.13933431410E+01  0.13998494779E+01  0.22668863334E+01  0.30066189614E+01  0.51100000000E-03 0.  1.
         12    1    3    3    0    0  0.11297365827E+01  0.18206359967E+02  0.59720977650E+01  0.19194108463E+02  0.00000000000E+00 0. -1.
</event>
<event>
 7    1  0.2756432E-009  0.4778727E+02  0.7816164E-02  0.1312668E+00
        -11   -1    0    0    0    0  0.00000000000E+00  0.00000000000E+00  0.45593999997E+02  0.45594000000E+02  0.51100000000E-03 0.  1.
         11   -1    0    0    0    0 -0.00000000000E+00 -0.00000000000E+00 -0.45593999997E+02  0.45594000000E+02  0.51100000000E-03 0. -1.
    9900012    2    1    2    0    0  0.12897296853E+02 -0.14996733928E+02 -0.38631350185E+02  0.47787268305E+02  0.19999987508E+02 0.  0.
        -12    1    1    2    0    0 -0.12897296853E+02  0.14996733928E+02  0.38631350185E+02  0.43400731695E+02  0.00000000000E+00 0.  1.
         11    1    3    3    0    0  0.12843936874E+02 -0.47083707095E+01 -0.26396004206E+02  0.29730195214E+02  0.51100000000E-03 0. -1.
        -11    1    3    3    0    0 -0.90208711446E+00 -0.10914281822E+02 -0.77187812580E+01  0.13398316805E+02  0.51100000000E-03 0.  1.
        -12    1    3    3    0    0  0.95544709291E+00  0.62591860352E+00 -0.45165647205E+01  0.46587562847E+01  0.00000000000E+00 0.  1.
</event>
<event>
 7    1  0.2756432E-009  0.4778727E+02  0.7816164E-02  0.1312668E+00
        -11   -1    0    0    0    0  0.00000000000E+00  0.00000000000E+00  0.45593999997E+02  0.45594000000E+02  0.51100000000E-03 0. -1.
         11   -1    0    0    0    0 -0.00000000000E+00 -0.00000000000E+00 -0.45593999997E+02  0.45594000000E+02  0.51100000000E-03 0.  1.
    9900012    2    1    2    0    0  0.83612098444E+01 -0.73729922722E+01  0.41944636260E+02  0.47787270097E+02  0.19999995679E+02 0.  0.
        -12    1    1    2    0    0 -0.83612098444E+01  0.73729922722E+01 -0.41944636260E+02  0.43400729903E+02  0.00000000000E+00 0.  1.
         11    1    3    3    0    0 -0.37715433920E+01 -0.36644933778E+01  0.13460251593E+02  0.14451000812E+02  0.51100000000E-03 0.  1.
        -11    1    3    3    0    0  0.13703124905E+02 -0.25619253783E+01  0.28080309527E+02  0.31350324994E+02  0.51100000000E-03 0. -1.
        -12    1    3    3    0    0 -0.15703716690E+01 -0.11465735162E+01  0.40407514059E+00  0.19859442908E+01  0.00000000000E+00 0.  1.
</event>
<event>
 7    1  0.2756432E-009  0.4778727E+02  0.7816164E-02  0.1312668E+00
        -11   -1    0    0    0    0  0.00000000000E+00  0.00000000000E+00  0.45593999997E+02  0.45594000000E+02  0.51100000000E-03 0.  1.
         11   -1    0    0    0    0 -0.00000000000E+00 -0.00000000000E+00 -0.45593999997E+02  0.45594000000E+02  0.51100000000E-03 0. -1.
    9900012    2    1    2    0    0 -0.14843306321E+02  0.19404180249E+02 -0.35871679487E+02  0.47787270250E+02  0.19999996376E+02 0.  0.
        -12    1    1    2    0    0  0.14843306321E+02 -0.19404180249E+02  0.35871679487E+02  0.43400729750E+02  0.00000000000E+00 0.  1.
         11    1    3    3    0    0 -0.11593669703E+02  0.43345342238E+01 -0.20958934477E+02  0.24340877116E+02  0.51100000000E-03 0. -1.
        -11    1    3    3    0    0  0.39974667288E+00  0.87277914957E+01 -0.25859946503E+01  0.91116140385E+01  0.51100000000E-03 0.  1.
        -12    1    3    3    0    0 -0.36493832911E+01  0.63418545292E+01 -0.12326750359E+02  0.14334779095E+02  0.00000000000E+00 0.  1.
</event>
<event>
 7    1  0.2756432E-009  0.4778727E+02  0.7816164E-02  0.1312668E+00
        -11   -1    0    0    0    0  0.00000000000E+00  0.00000000000E+00  0.45593999997E+02  0.45594000000E+02  0.51100000000E-03 0.  1.
         11   -1    0    0    0    0 -0.00000000000E+00 -0.00000000000E+00 -0.45593999997E+02  0.45594000000E+02  0.51100000000E-03 0. -1.
    9900012    2    1    2    0    0  0.15607631743E+02  0.38980476812E+02 -0.10979412793E+02  0.47787271361E+02  0.20000001442E+02 0.  0.
        -12    1    1    2    0    0 -0.15607631743E+02 -0.38980476812E+02  0.10979412793E+02  0.43400728639E+02  0.00000000000E+00 0.  1.
         11    1    3    3    0    0  0.96517083247E+01  0.32939790846E+02 -0.76498628045E+01  0.35166826637E+02  0.51100000000E-03 0. -1.
        -11    1    3    3    0    0  0.80655178833E+01  0.52424979665E+01 -0.37525081680E+01  0.10325583832E+02  0.51100000000E-03 0.  1.
         12    1    3    3    0    0 -0.21095944651E+01  0.79818800016E+00  0.42295817979E+00  0.22948608918E+01  0.00000000000E+00 0. -1.
</event>
<event>
 7    1  0.2756432E-009  0.4778728E+02  0.7816164E-02  0.1312668E+00
        -11   -1    0    0    0    0  0.00000000000E+00  0.00000000000E+00  0.45593999997E+02  0.45594000000E+02  0.51100000000E-03 0.  1.
         11   -1    0    0    0    0 -0.00000000000E+00 -0.00000000000E+00 -0.45593999997E+02  0.45594000000E+02  0.51100000000E-03 0. -1.
    9900012    2    1    2    0    0 -0.14227863355E+02  0.17551391345E+02 -0.37055887587E+02  0.47787282971E+02  0.20000054376E+02 0.  0.
        -12    1    1    2    0    0  0.14227863355E+02 -0.17551391345E+02  0.37055887587E+02  0.43400717029E+02  0.00000000000E+00 0.  1.
         11    1    3    3    0    0 -0.13211130392E+02  0.10756576989E+02 -0.16643139512E+02  0.23816633008E+02  0.51100000000E-03 0. -1.
        -11    1    3    3    0    0 -0.16888051153E+01 -0.17032092126E+01 -0.11055110086E+02  0.11312313805E+02  0.51100000000E-03 0.  1.
        -12    1    3    3    0    0  0.67207215303E+00  0.84980235680E+01 -0.93576379896E+01  0.12658336158E+02  0.00000000000E+00 0.  1.
</event>
<event>
 7    1  0.2756432E-009  0.4778728E+02  0.7816164E-02  0.1312668E+00
        -11   -1    0    0    0    0  0.00000000000E+00  0.00000000000E+00  0.45593999997E+02  0.45594000000E+02  0.51100000000E-03 0. -1.
         11   -1    0    0    0    0 -0.00000000000E+00 -0.00000000000E+00 -0.45593999997E+02  0.45594000000E+02  0.51100000000E-03 0.  1.
    9900012    2    1    2    0    0  0.83228301416E+00 -0.27576516601E+02  0.33503218996E+02  0.47787278278E+02  0.20000032982E+02 0.  0.
        -12    1    1    2    0    0 -0.83228301416E+00  0.27576516601E+02 -0.33503218996E+02  0.43400721722E+02  0.00000000000E+00 0.  1.
         11    1    3    3    0    0  0.36903345871E+00 -0.12218149192E+02  0.14087049768E+02  0.18651121328E+02  0.51100000000E-03 0. -1.
        -11    1    3    3    0    0 -0.98274927681E+00 -0.12056016518E+02  0.31834017027E+01  0.12507892592E+02  0.51100000000E-03 0.  1.
        -12    1    3    3    0    0  0.14459988323E+01 -0.33023508903E+01  0.16232767525E+02  0.16628264358E+02  0.00000000000E+00 0.  1.
</event>
<event>
 7    1  0.2756432E-009  0.4778727E+02  0.7816164E-02  0.1312668E+00
        -11   -1    0    0    0    0  0.00000000000E+00  0.00000000000E+00  0.45593999997E+02  0.45594000000E+02  0.51100000000E-03 0. -1.
         11   -1    0    0    0    0 -0.00000000000E+00 -0.00000000000E+00 -0.45593999997E+02  0.45594000000E+02  0.51100000000E-03 0.  1.
    9900012    2    1    2    0    0 -0.40821776679E+02 -0.13634571609E+02  0.55950546474E+01  0.47787266934E+02  0.19999981259E+02 0.  0.
        -12    1    1    2    0    0  0.40821776679E+02  0.13634571609E+02 -0.55950546474E+01  0.43400733066E+02  0.00000000000E+00 0.  1.
         11    1    3    3    0    0 -0.12890530488E+02  0.28083904595E+01  0.19304546829E+01  0.13333397495E+02  0.51100000000E-03 0. -1.
        -11    1    3    3    0    0 -0.16001171180E+02 -0.11339085210E+02 -0.30438645535E+01  0.19846345866E+02  0.51100000000E-03 0.  1.
         12    1    3    3    0    0 -0.11930075011E+02 -0.51038768588E+01  0.67084645180E+01  0.14607523573E+02  0.00000000000E+00 0. -1.
</event>
<event>
 7    1  0.2756432E-009  0.4778726E+02  0.7816164E-02  0.1312668E+00
        -11   -1    0    0    0    0  0.00000000000E+00  0.00000000000E+00  0.45593999997E+02  0.45594000000E+02  0.51100000000E-03 0.  1.
         11   -1    0    0    0    0 -0.00000000000E+00 -0.00000000000E+00 -0.45593999997E+02  0.45594000000E+02  0.51100000000E-03 0. -1.
    9900012    2    1    2    0    0  0.38359906461E+01  0.41916331673E+02 -0.10579742100E+02  0.47787255444E+02  0.19999928869E+02 0.  0.
        -12    1    1    2    0    0 -0.38359906461E+01 -0.41916331673E+02  0.10579742100E+02  0.43400744556E+02  0.00000000000E+00 0.  1.
         11    1    3    3    0    0 -0.56150947316E+01  0.19211106284E+02 -0.15847626467E+01  0.20077533872E+02  0.51100000000E-03 0. -1.
        -11    1    3    3    0    0  0.73651707277E+01  0.63859727889E+01 -0.36978808388E+01  0.10425963326E+02  0.51100000000E-03 0.  1.
         12    1    3    3    0    0  0.20859146500E+01  0.16319252601E+02 -0.52970986143E+01  0.17283758246E+02  0.00000000000E+00 0. -1.
</event>
<event>
 7    1  0.3549202E-009  0.4778727E+02  0.7816164E-02  0.1312668E+00
        -11   -1    0    0    0    0  0.00000000000E+00  0.00000000000E+00  0.45593999997E+02  0.45594000000E+02  0.51100000000E-03 0.  1.
         11   -1    0    0    0    0 -0.00000000000E+00 -0.00000000000E+00 -0.45593999997E+02  0.45594000000E+02  0.51100000000E-03 0. -1.
    9900012    2    1    2    0    0  0.35901336911E+02 -0.16402912929E+02 -0.18046103609E+02  0.47787269592E+02  0.19999993376E+02 0.  0.
        -12    1    1    2    0    0 -0.35901336911E+02  0.16402912929E+02  0.18046103609E+02  0.43400730408E+02  0.00000000000E+00 0.  1.
         11    1    3    3    0    0  0.16513526025E+02 -0.10935362716E+02 -0.11624650440E+02  0.22965434845E+02  0.51100000000E-03 0. -1.
        -11    1    3    3    0    0 -0.52232371483E+00 -0.17934633650E+01  0.21392915716E+01  0.28400530970E+01  0.51100000000E-03 0.  1.
        -12    1    3    3    0    0  0.19910134600E+02 -0.36740868480E+01 -0.85607447411E+01  0.21981781650E+02  0.00000000000E+00 0.  1.
</event>
<event>
 7    1  0.3103565E-009  0.4778727E+02  0.7816164E-02  0.1312668E+00
        -11   -1    0    0    0    0  0.00000000000E+00  0.00000000000E+00  0.45593999997E+02  0.45594000000E+02  0.51100000000E-03 0.  1.
         11   -1    0    0    0    0 -0.00000000000E+00 -0.00000000000E+00 -0.45593999997E+02  0.45594000000E+02  0.51100000000E-03 0. -1.
    9900012    2    1    2    0    0 -0.34492644776E+02  0.12694132515E+02 -0.23081149330E+02  0.47787274219E+02  0.20000014473E+02 0.  0.
        -12    1    1    2    0    0  0.34492644776E+02 -0.12694132515E+02  0.23081149330E+02  0.43400725781E+02  0.00000000000E+00 0.  1.
         11    1    3    3    0    0 -0.21220435891E+02  0.10404439364E+02 -0.21266938790E+02  0.31793740636E+02  0.51100000000E-03 0. -1.
        -11    1    3    3    0    0 -0.35566452424E+01 -0.23211827673E+01  0.18496431583E+01  0.46323638559E+01  0.51100000000E-03 0.  1.
        -12    1    3    3    0    0 -0.97155636427E+01  0.46108759189E+01 -0.36638536979E+01  0.11361169726E+02  0.00000000000E+00 0.  1.
</event>
<event>
 7    1  0.2756432E-009  0.4778727E+02  0.7816164E-02  0.1312668E+00
        -11   -1    0    0    0    0  0.00000000000E+00  0.00000000000E+00  0.45593999997E+02  0.45594000000E+02  0.51100000000E-03 0.  1.
         11   -1    0    0    0    0 -0.00000000000E+00 -0.00000000000E+00 -0.45593999997E+02  0.45594000000E+02  0.51100000000E-03 0. -1.
    9900012    2    1    2    0    0  0.32949439973E+02  0.10808682150E+02 -0.26098468225E+02  0.47787271342E+02  0.20000001356E+02 0.  0.
        -12    1    1    2    0    0 -0.32949439973E+02 -0.10808682150E+02  0.26098468225E+02  0.43400728658E+02  0.00000000000E+00 0.  1.
         11    1    3    3    0    0  0.24753934154E+02  0.62204962003E+01 -0.24853615182E+02  0.35625187956E+02  0.51100000000E-03 0. -1.
        -11    1    3    3    0    0 -0.43153123616E+00 -0.14794214744E+01  0.57453790431E-02  0.15410841564E+01  0.51100000000E-03 0.  1.
         12    1    3    3    0    0  0.86270370558E+01  0.60676074237E+01 -0.12505984221E+01  0.10620999229E+02  0.00000000000E+00 0. -1.
</event>
<event>
 7    1  0.2756432E-009  0.4778726E+02  0.7816164E-02  0.1312668E+00
        -11   -1    0    0    0    0  0.00000000000E+00  0.00000000000E+00  0.45593999997E+02  0.45594000000E+02  0.51100000000E-03 0.  1.
         11   -1    0    0    0    0 -0.00000000000E+00 -0.00000000000E+00 -0.45593999997E+02  0.45594000000E+02  0.51100000000E-03 0. -1.
    9900012    2    1    2    0    0 -0.20182713339E+02  0.32891733508E+02 -0.19859903871E+02  0.47787264607E+02  0.19999970649E+02 0.  0.
        -12    1    1    2    0    0  0.20182713339E+02 -0.32891733508E+02  0.19859903871E+02  0.43400735393E+02  0.00000000000E+00 0.  1.
         11    1    3    3    0    0 -0.60170741152E+01  0.66567286760E+01 -0.63816142038E+01  0.11011004390E+02  0.51100000000E-03 0. -1.
        -11    1    3    3    0    0 -0.15380805563E+02  0.18337133510E+02 -0.38129818314E+01  0.24235479690E+02  0.51100000000E-03 0.  1.
        -12    1    3    3    0    0  0.12151663393E+01  0.78978713226E+01 -0.96653078354E+01  0.12540780527E+02  0.00000000000E+00 0.  1.
</event>
<event>
 7    1  0.2756432E-009  0.4778727E+02  0.7816164E-02  0.1312668E+00
        -11   -1    0    0    0    0  0.00000000000E+00  0.00000000000E+00  0.45593999997E+02  0.45594000000E+02  0.51100000000E-03 0.  1.
         11   -1    0    0    0    0 -0.00000000000E+00 -0.00000000000E+00 -0.45593999997E+02  0.45594000000E+02  0.51100000000E-03 0. -1.
    9900012    2    1    2    0    0 -0.39484966434E+02 -0.96556343368E+01 -0.15209526056E+02  0.47787268076E+02  0.19999986464E+02 0.  0.
        -12    1    1    2    0    0  0.39484966434E+02  0.96556343368E+01  0.15209526056E+02  0.43400731924E+02  0.00000000000E+00 0.  1.
         11    1    3    3    0    0 -0.33320824249E+02 -0.10939700737E+02 -0.16465333090E+02  0.38743535911E+02  0.51100000000E-03 0. -1.
        -11    1    3    3    0    0 -0.67309447695E+01  0.27048315449E+01  0.34249171274E+00  0.72621644163E+01  0.51100000000E-03 0.  1.
         12    1    3    3    0    0  0.56680258485E+00 -0.14207651443E+01  0.91331532130E+00  0.17815677482E+01  0.00000000000E+00 0. -1.
</event>
<event>
 7    1  0.2756432E-009  0.4778727E+02  0.7816164E-02  0.1312668E+00
        -11   -1    0    0    0    0  0.00000000000E+00  0.00000000000E+00  0.45593999997E+02  0.45594000000E+02  0.51100000000E-03 0.  1.
         11   -1    0    0    0    0 -0.00000000000E+00 -0.00000000000E+00 -0.45593999997E+02  0.45594000000E+02  0.51100000000E-03 0. -1.
    9900012    2    1    2    0    0  0.34132549558E+02 -0.25994819561E+02  0.65468930615E+01  0.47787269683E+02  0.19999993791E+02 0.  0.
        -12    1    1    2    0    0 -0.34132549558E+02  0.25994819561E+02 -0.65468930615E+01  0.43400730317E+02  0.00000000000E+00 0.  1.
         11    1    3    3    0    0  0.19928199930E+02 -0.15364567149E+02  0.83016105764E+01  0.26497543557E+02  0.51100000000E-03 0. -1.
        -11    1    3    3    0    0 -0.68110789654E+00  0.15197069203E+01  0.89947054475E+00  0.18927399748E+01  0.51100000000E-03 0.  1.
        -12    1    3    3    0    0  0.14885457524E+02 -0.12149959333E+02 -0.26541880597E+01  0.19396986151E+02  0.00000000000E+00 0.  1.
</event>
<event>
 7    1  0.2756432E-009  0.4778727E+02  0.7816164E-02  0.1312668E+00
        -11   -1    0    0    0    0  0.00000000000E+00  0.00000000000E+00  0.45593999997E+02  0.45594000000E+02  0.51100000000E-03 0.  1.
         11   -1    0    0    0    0 -0.00000000000E+00 -0.00000000000E+00 -0.45593999997E+02  0.45594000000E+02  0.51100000000E-03 0. -1.
    9900012    2    1    2    0    0  0.33279038095E+02  0.21721049579E+02 -0.17444910862E+02  0.47787270901E+02  0.19999999345E+02 0.  0.
        -12    1    1    2    0    0 -0.33279038095E+02 -0.21721049579E+02  0.17444910862E+02  0.43400729099E+02  0.00000000000E+00 0.  1.
         11    1    3    3    0    0  0.17545777051E+01  0.39339336680E+01 -0.40248938997E+01  0.58952648959E+01  0.51100000000E-03 0. -1.
        -11    1    3    3    0    0 -0.36867437217E+00 -0.20713667338E+01 -0.50350432785E+00  0.21633302586E+01  0.51100000000E-03 0.  1.
        -12    1    3    3    0    0  0.31893134762E+02  0.19858482645E+02 -0.12916512635E+02  0.39728675746E+02  0.00000000000E+00 0.  1.
</event>
<event>
 7    1  0.2756432E-009  0.4778727E+02  0.7816164E-02  0.1312668E+00
        -11   -1    0    0    0    0  0.00000000000E+00  0.00000000000E+00  0.45593999997E+02  0.45594000000E+02  0.51100000000E-03 0.  1.
         11   -1    0    0    0    0 -0.00000000000E+00 -0.00000000000E+00 -0.45593999997E+02  0.45594000000E+02  0.51100000000E-03 0. -1.
    9900012    2    1    2    0    0 -0.28561737969E+02  0.32668650850E+02 -0.78090692010E+00  0.47787269133E+02  0.19999991285E+02 0.  0.
        -12    1    1    2    0    0  0.28561737969E+02 -0.32668650850E+02  0.78090692010E+00  0.43400730867E+02  0.00000000000E+00 0.  1.
         11    1    3    3    0    0 -0.16038686652E+02  0.17934311774E+02  0.42030506197E+01  0.24424263410E+02  0.51100000000E-03 0. -1.
        -11    1    3    3    0    0 -0.88173857700E+01  0.10654088333E+02 -0.90378878587E+01  0.16520874893E+02  0.51100000000E-03 0.  1.
        -12    1    3    3    0    0 -0.37056655465E+01  0.40802507435E+01  0.40539303189E+01  0.68421308305E+01  0.00000000000E+00 0.  1.
</event>
<event>
 7    1  0.2756432E-009  0.4778727E+02  0.7816164E-02  0.1312668E+00
        -11   -1    0    0    0    0  0.00000000000E+00  0.00000000000E+00  0.45593999997E+02  0.45594000000E+02  0.51100000000E-03 0.  1.
         11   -1    0    0    0    0 -0.00000000000E+00 -0.00000000000E+00 -0.45593999997E+02  0.45594000000E+02  0.51100000000E-03 0. -1.
    9900012    2    1    2    0    0  0.56744585172E+01 -0.22666982892E+02 -0.36573646020E+02  0.47787272171E+02  0.20000005137E+02 0.  0.
        -12    1    1    2    0    0 -0.56744585172E+01  0.22666982892E+02  0.36573646020E+02  0.43400727829E+02  0.00000000000E+00 0.  1.
         11    1    3    3    0    0 -0.63890546315E+00 -0.17683597867E+02 -0.20608551386E+02  0.27163030468E+02  0.51100000000E-03 0. -1.
        -11    1    3    3    0    0 -0.10631473487E+01  0.23517292720E+01 -0.40990970957E+01  0.48439147510E+01  0.51100000000E-03 0.  1.
         12    1    3    3    0    0  0.73765113290E+01 -0.73351142966E+01 -0.11865997538E+02  0.15780326952E+02  0.00000000000E+00 0. -1.
</event>
<event>
 7    1  0.2756432E-009  0.4778727E+02  0.7816164E-02  0.1312668E+00
        -11   -1    0    0    0    0  0.00000000000E+00  0.00000000000E+00  0.45593999997E+02  0.45594000000E+02  0.51100000000E-03 0. -1.
         11   -1    0    0    0    0 -0.00000000000E+00 -0.00000000000E+00 -0.45593999997E+02  0.45594000000E+02  0.51100000000E-03 0.  1.
    9900012    2    1    2    0    0 -0.29049675951E+01  0.38893068217E+02 -0.19039795986E+02  0.47787269323E+02  0.19999992153E+02 0.  0.
        -12    1    1    2    0    0  0.29049675951E+01 -0.38893068217E+02  0.19039795986E+02  0.43400730677E+02  0.00000000000E+00 0.  1.
         11    1    3    3    0    0  0.45431815133E+01  0.25176122248E+02 -0.13149303638E+02  0.28764245447E+02  0.51100000000E-03 0. -1.
        -11    1    3    3    0    0  0.21207422738E+00  0.18445684727E+01 -0.44485821436E+01  0.48205074087E+01  0.51100000000E-03 0.  1.
         12    1    3    3    0    0 -0.76602233358E+01  0.11872377496E+02 -0.14419102042E+01  0.14202516467E+02  0.00000000000E+00 0. -1.
</event>
<event>
 7    1  0.2756432E-009  0.4778726E+02  0.7816164E-02  0.1312668E+00
        -11   -1    0    0    0    0  0.00000000000E+00  0.00000000000E+00  0.45593999997E+02  0.45594000000E+02  0.51100000000E-03 0.  1.
         11   -1    0    0    0    0 -0.00000000000E+00 -0.00000000000E+00 -0.45593999997E+02  0.45594000000E+02  0.51100000000E-03 0. -1.
    9900012    2    1    2    0    0  0.27666723127E+02  0.32556982453E+02 -0.76301533365E+01  0.47787263658E+02  0.19999966324E+02 0.  0.
        -12    1    1    2    0    0 -0.27666723127E+02 -0.32556982453E+02  0.76301533365E+01  0.43400736342E+02  0.00000000000E+00 0.  1.
         11    1    3    3    0    0  0.95843041871E+01  0.35150868328E+00 -0.45305451595E+01  0.10606992260E+02  0.51100000000E-03 0. -1.
        -11    1    3    3    0    0  0.11555042022E+02  0.22024019991E+02 -0.32677250535E+01  0.25084945285E+02  0.51100000000E-03 0.  1.
         12    1    3    3    0    0  0.65273769186E+01  0.10181453779E+02  0.16811687644E+00  0.12095326113E+02  0.00000000000E+00 0. -1.
</event>
<event>
 7    1  0.2756432E-009  0.4778727E+02  0.7816164E-02  0.1312668E+00
        -11   -1    0    0    0    0  0.00000000000E+00  0.00000000000E+00  0.45593999997E+02  0.45594000000E+02  0.51100000000E-03 0. -1.
         11   -1    0    0    0    0 -0.00000000000E+00 -0.00000000000E+00 -0.45593999997E+02  0.45594000000E+02  0.51100000000E-03 0.  1.
    9900012    2    1    2    0    0 -0.32447981487E+02  0.15190147171E+02  0.24495127425E+02  0.47787270268E+02  0.19999996462E+02 0.  0.
        -12    1    1    2    0    0  0.32447981487E+02 -0.15190147171E+02 -0.24495127425E+02  0.43400729732E+02  0.00000000000E+00 0.  1.
         11    1    3    3    0    0 -0.15935051743E+02  0.92595304958E+01  0.33292854548E+01  0.18728291993E+02  0.51100000000E-03 0. -1.
        -11    1    3    3    0    0 -0.77370312873E+01 -0.10292778106E+01  0.13126548759E+02  0.15271782756E+02  0.51100000000E-03 0.  1.
         12    1    3    3    0    0 -0.87758984568E+01  0.69598944856E+01  0.80392932107E+01  0.13787195520E+02  0.00000000000E+00 0. -1.
</event>
<event>
 7    1  0.2756432E-009  0.4778727E+02  0.7816164E-02  0.1312668E+00
        -11   -1    0    0    0    0  0.00000000000E+00  0.00000000000E+00  0.45593999997E+02  0.45594000000E+02  0.51100000000E-03 0. -1.
         11   -1    0    0    0    0 -0.00000000000E+00 -0.00000000000E+00 -0.45593999997E+02  0.45594000000E+02  0.51100000000E-03 0.  1.
    9900012    2    1    2    0    0 -0.35821734336E+02 -0.21849255029E+02 -0.11092197800E+02  0.47787269036E+02  0.19999990843E+02 0.  0.
        -12    1    1    2    0    0  0.35821734336E+02  0.21849255029E+02  0.11092197800E+02  0.43400730964E+02  0.00000000000E+00 0.  1.
         11    1    3    3    0    0 -0.43427233992E+01 -0.10013569133E+02  0.46235932743E+00  0.10924494941E+02  0.51100000000E-03 0. -1.
        -11    1    3    3    0    0 -0.27338463198E+02 -0.13483643282E+02 -0.10820343544E+02  0.32346252347E+02  0.51100000000E-03 0.  1.
         12    1    3    3    0    0 -0.41405477381E+01  0.16479573858E+01 -0.73421358340E+00  0.45165217483E+01  0.00000000000E+00 0. -1.
</event>
<event>
 7    1  0.3439228E-009  0.4778727E+02  0.7816164E-02  0.1312668E+00
        -11   -1    0    0    0    0  0.00000000000E+00  0.00000000000E+00  0.45593999997E+02  0.45594000000E+02  0.51100000000E-03 0.  1.
         11   -1    0    0    0    0 -0.00000000000E+00 -0.00000000000E+00 -0.45593999997E+02  0.45594000000E+02  0.51100000000E-03 0. -1.
    9900012    2    1    2    0    0 -0.37665650307E+02  0.28225170068E+01 -0.21376512291E+02  0.47787273128E+02  0.20000009498E+02 0.  0.
        -12    1    1    2    0    0  0.37665650307E+02 -0.28225170068E+01  0.21376512291E+02  0.43400726872E+02  0.00000000000E+00 0.  1.
         11    1    3    3    0    0 -0.17827717763E+02  0.39881007407E+01 -0.15692779562E+02  0.24083101935E+02  0.51100000000E-03 0. -1.
        -11    1    3    3    0    0 -0.29915197078E+01 -0.34639140314E+01  0.20626615873E+01  0.50202055400E+01  0.51100000000E-03 0.  1.
        -12    1    3    3    0    0 -0.16846412836E+02  0.22983302976E+01 -0.77463943166E+01  0.18683965653E+02  0.00000000000E+00 0.  1.
</event>
<event>
 7    1  0.2756432E-009  0.4778728E+02  0.7816164E-02  0.1312668E+00
        -11   -1    0    0    0    0  0.00000000000E+00  0.00000000000E+00  0.45593999997E+02  0.45594000000E+02  0.51100000000E-03 0. -1.
         11   -1    0    0    0    0 -0.00000000000E+00 -0.00000000000E+00 -0.45593999997E+02  0.45594000000E+02  0.51100000000E-03 0.  1.
    9900012    2    1    2    0    0 -0.11829242305E+02 -0.37325193022E+02  0.18722221419E+02  0.47787279010E+02  0.20000036317E+02 0.  0.
        -12    1    1    2    0    0  0.11829242305E+02  0.37325193022E+02 -0.18722221419E+02  0.43400720990E+02  0.00000000000E+00 0.  1.
         11    1    3    3    0    0 -0.11257538431E+02 -0.90928175911E+01  0.41173251201E+01  0.15045393636E+02  0.51100000000E-03 0. -1.
        -11    1    3    3    0    0  0.27530440131E+01 -0.48744621141E+01  0.17041036067E+01  0.58518032780E+01  0.51100000000E-03 0.  1.
         12    1    3    3    0    0 -0.33247478877E+01 -0.23357913317E+02  0.12900792692E+02  0.26890082095E+02  0.00000000000E+00 0. -1.
</event>
<event>
 7    1  0.2756432E-009  0.4778727E+02  0.7816164E-02  0.1312668E+00
        -11   -1    0    0    0    0  0.00000000000E+00  0.00000000000E+00  0.45593999997E+02  0.45594000000E+02  0.51100000000E-03 0.  1.
         11   -1    0    0    0    0 -0.00000000000E+00 -0.00000000000E+00 -0.45593999997E+02  0.45594000000E+02  0.51100000000E-03 0. -1.
    9900012    2    1    2    0    0  0.42144792113E+01  0.43134847493E+02 -0.22904230831E+01  0.47787274877E+02  0.20000017475E+02 0.  0.
        -12    1    1    2    0    0 -0.42144792113E+01 -0.43134847493E+02  0.22904230831E+01  0.43400725123E+02  0.00000000000E+00 0.  1.
         11    1    3    3    0    0  0.10062247134E+02  0.27008840074E+02 -0.40369272929E+00  0.28825149221E+02  0.51100000000E-03 0. -1.
        -11    1    3    3    0    0 -0.28896167551E+01  0.15532842691E+02 -0.20963872730E+01  0.15937814370E+02  0.51100000000E-03 0.  1.
         12    1    3    3    0    0 -0.29581511679E+01  0.59316472824E+00  0.20965691919E+00  0.30243112853E+01  0.00000000000E+00 0. -1.
</event>
<event>
 7    1  0.2756432E-009  0.4778727E+02  0.7816164E-02  0.1312668E+00
        -11   -1    0    0    0    0  0.00000000000E+00  0.00000000000E+00  0.45593999997E+02  0.45594000000E+02  0.51100000000E-03 0.  1.
         11   -1    0    0    0    0 -0.00000000000E+00 -0.00000000000E+00 -0.45593999997E+02  0.45594000000E+02  0.51100000000E-03 0. -1.
    9900012    2    1    2    0    0  0.40773726229E+02 -0.14870193332E+02  0.63982284508E-01  0.47787268508E+02  0.19999988435E+02 0.  0.
        -12    1    1    2    0    0 -0.40773726229E+02  0.14870193332E+02 -0.63982284508E-01  0.43400731492E+02  0.00000000000E+00 0.  1.
         11    1    3    3    0    0  0.33173148015E+02 -0.14763754270E+02 -0.43599236806E+01  0.36570960121E+02  0.51100000000E-03 0. -1.
        -11    1    3    3    0    0  0.19650668987E+01  0.79662101114E-01  0.51673220511E+01  0.55289285949E+01  0.51100000000E-03 0.  1.
        -12    1    3    3    0    0  0.56355113148E+01 -0.18610116249E+00 -0.74341608601E+00  0.56873797920E+01  0.00000000000E+00 0.  1.
</event>
<event>
 7    1  0.2756432E-009  0.4778727E+02  0.7816164E-02  0.1312668E+00
        -11   -1    0    0    0    0  0.00000000000E+00  0.00000000000E+00  0.45593999997E+02  0.45594000000E+02  0.51100000000E-03 0.  1.
         11   -1    0    0    0    0 -0.00000000000E+00 -0.00000000000E+00 -0.45593999997E+02  0.45594000000E+02  0.51100000000E-03 0. -1.
    9900012    2    1    2    0    0  0.29893815722E+02 -0.20939090279E+02 -0.23484841382E+02  0.47787268498E+02  0.19999988392E+02 0.  0.
        -12    1    1    2    0    0 -0.29893815722E+02  0.20939090279E+02  0.23484841382E+02  0.43400731502E+02  0.00000000000E+00 0.  1.
         11    1    3    3    0    0  0.14543371535E+02 -0.28459620871E-02 -0.13684120106E+02  0.19969096300E+02  0.51100000000E-03 0. -1.
        -11    1    3    3    0    0  0.11650371179E+02 -0.14904253495E+02 -0.64330389318E+01  0.19981289023E+02  0.51100000000E-03 0.  1.
         12    1    3    3    0    0  0.37000730079E+01 -0.60319908211E+01 -0.33676823444E+01  0.78368831753E+01  0.00000000000E+00 0. -1.
</event>
<event>
 7    1  0.2756432E-009  0.4778727E+02  0.7816164E-02  0.1312668E+00
        -11   -1    0    0    0    0  0.00000000000E+00  0.00000000000E+00  0.45593999997E+02  0.45594000000E+02  0.51100000000E-03 0.  1.
         11   -1    0    0    0    0 -0.00000000000E+00 -0.00000000000E+00 -0.45593999997E+02  0.45594000000E+02  0.51100000000E-03 0. -1.
    9900012    2    1    2    0    0  0.40728062103E+02  0.14681689658E+02 -0.30490112492E+01  0.47787268169E+02  0.19999986890E+02 0.  0.
        -12    1    1    2    0    0 -0.40728062103E+02 -0.14681689658E+02  0.30490112492E+01  0.43400731831E+02  0.00000000000E+00 0.  1.
         11    1    3    3    0    0  0.32623753671E+02  0.14121544863E+02 -0.18833205404E+01  0.35598795337E+02  0.51100000000E-03 0. -1.
        -11    1    3    3    0    0  0.20223242644E+01  0.40009279270E+01 -0.24115593720E+01  0.50904654574E+01  0.51100000000E-03 0.  1.
         12    1    3    3    0    0  0.60819841672E+01 -0.34407831316E+01  0.12458686631E+01  0.70980073750E+01  0.00000000000E+00 0. -1.
</event>
<event>
 7    1  0.2756432E-009  0.4778727E+02  0.7816164E-02  0.1312668E+00
        -11   -1    0    0    0    0  0.00000000000E+00  0.00000000000E+00  0.45593999997E+02  0.45594000000E+02  0.51100000000E-03 0.  1.
         11   -1    0    0    0    0 -0.00000000000E+00 -0.00000000000E+00 -0.45593999997E+02  0.45594000000E+02  0.51100000000E-03 0. -1.
    9900012    2    1    2    0    0 -0.42293284993E+01 -0.42260537827E+02 -0.89321382595E+01  0.47787269927E+02  0.19999994905E+02 0.  0.
        -12    1    1    2    0    0  0.42293284993E+01  0.42260537827E+02  0.89321382595E+01  0.43400730073E+02  0.00000000000E+00 0.  1.
         11    1    3    3    0    0  0.37176339978E+01 -0.23061007530E+02 -0.43789698392E+01  0.23765652694E+02  0.51100000000E-03 0.  1.
        -11    1    3    3    0    0 -0.58359255059E+01 -0.25285847841E+01 -0.33143609575E+01  0.71719422989E+01  0.51100000000E-03 0. -1.
         12    1    3    3    0    0 -0.21110369912E+01 -0.16670945513E+02 -0.12388074627E+01  0.16849674934E+02  0.00000000000E+00 0. -1.
</event>
<event>
 7    1  0.2756432E-009  0.4778724E+02  0.7816164E-02  0.1312668E+00
        -11   -1    0    0    0    0  0.00000000000E+00  0.00000000000E+00  0.45593999997E+02  0.45594000000E+02  0.51100000000E-03 0.  1.
         11   -1    0    0    0    0 -0.00000000000E+00 -0.00000000000E+00 -0.45593999997E+02  0.45594000000E+02  0.51100000000E-03 0. -1.
    9900012    2    1    2    0    0  0.17564120150E+02 -0.30466062683E+01 -0.39570766203E+02  0.47787243506E+02  0.19999874440E+02 0.  0.
        -12    1    1    2    0    0 -0.17564120150E+02  0.30466062683E+01  0.39570766203E+02  0.43400756494E+02  0.00000000000E+00 0.  1.
         11    1    3    3    0    0  0.46388352439E+01 -0.68690622337E+01 -0.28422358842E+02  0.29606304916E+02  0.51100000000E-03 0. -1.
        -11    1    3    3    0    0  0.38224515890E+01 -0.27677550387E-01 -0.86755098539E+00  0.39197636626E+01  0.51100000000E-03 0.  1.
         12    1    3    3    0    0  0.91028333174E+01  0.38501335158E+01 -0.10280856375E+02  0.14261174927E+02  0.00000000000E+00 0. -1.
</event>
<event>
 7    1  0.2756432E-009  0.4778727E+02  0.7816164E-02  0.1312668E+00
        -11   -1    0    0    0    0  0.00000000000E+00  0.00000000000E+00  0.45593999997E+02  0.45594000000E+02  0.51100000000E-03 0. -1.
         11   -1    0    0    0    0 -0.00000000000E+00 -0.00000000000E+00 -0.45593999997E+02  0.45594000000E+02  0.51100000000E-03 0.  1.
    9900012    2    1    2    0    0  0.27186463794E+02 -0.29505631026E+02  0.16551047952E+02  0.47787271156E+02  0.20000000509E+02 0.  0.
        -12    1    1    2    0    0 -0.27186463794E+02  0.29505631026E+02 -0.16551047952E+02  0.43400728844E+02  0.00000000000E+00 0.  1.
         11    1    3    3    0    0  0.75503221163E+01 -0.22410085659E+02  0.10316380811E+02  0.25800135980E+02  0.51100000000E-03 0. -1.
        -11    1    3    3    0    0  0.17197148954E+02 -0.69643913326E+01  0.48409950403E+01  0.19174981409E+02  0.51100000000E-03 0.  1.
         12    1    3    3    0    0  0.24389927233E+01 -0.13115403509E+00  0.13936721006E+01  0.28121537670E+01  0.00000000000E+00 0. -1.
</event>
<event>
 7    1  0.2756432E-009  0.4778727E+02  0.7816164E-02  0.1312668E+00
        -11   -1    0    0    0    0  0.00000000000E+00  0.00000000000E+00  0.45593999997E+02  0.45594000000E+02  0.51100000000E-03 0. -1.
         11   -1    0    0    0    0 -0.00000000000E+00 -0.00000000000E+00 -0.45593999997E+02  0.45594000000E+02  0.51100000000E-03 0.  1.
    9900012    2    1    2    0    0 -0.13978508325E+02  0.38832498389E+02 -0.13426154281E+02  0.47787271378E+02  0.20000001522E+02 0.  0.
        -12    1    1    2    0    0  0.13978508325E+02 -0.38832498389E+02  0.13426154281E+02  0.43400728622E+02  0.00000000000E+00 0.  1.
         11    1    3    3    0    0 -0.49651950708E+01  0.34260640129E+02 -0.12420055877E+02  0.36779102931E+02  0.51100000000E-03 0. -1.
        -11    1    3    3    0    0 -0.49426998735E+01  0.22053574939E+01  0.15772482105E+01  0.56375168198E+01  0.51100000000E-03 0.  1.
         12    1    3    3    0    0 -0.40706133807E+01  0.23665007655E+01 -0.25833466147E+01  0.53706516271E+01  0.00000000000E+00 0. -1.
</event>
<event>
 7    1  0.2756432E-009  0.4778727E+02  0.7816164E-02  0.1312668E+00
        -11   -1    0    0    0    0  0.00000000000E+00  0.00000000000E+00  0.45593999997E+02  0.45594000000E+02  0.51100000000E-03 0.  1.
         11   -1    0    0    0    0 -0.00000000000E+00 -0.00000000000E+00 -0.45593999997E+02  0.45594000000E+02  0.51100000000E-03 0. -1.
    9900012    2    1    2    0    0  0.69964433381E+01  0.28384211584E+02 -0.32078183281E+02  0.47787268103E+02  0.19999986587E+02 0.  0.
        -12    1    1    2    0    0 -0.69964433381E+01 -0.28384211584E+02  0.32078183281E+02  0.43400731897E+02  0.00000000000E+00 0.  1.
         11    1    3    3    0    0  0.21451548348E+01  0.25589848057E+02 -0.24129527643E+02  0.35237424954E+02  0.51100000000E-03 0. -1.
        -11    1    3    3    0    0 -0.75536121666E+00  0.23634091639E+01  0.37030051588E+00  0.25086642216E+01  0.51100000000E-03 0.  1.
         12    1    3    3    0    0  0.56066497200E+01  0.43095436247E+00 -0.83189561547E+01  0.10041178927E+02  0.00000000000E+00 0. -1.
</event>
<event>
 7    1  0.2756432E-009  0.4778727E+02  0.7816164E-02  0.1312668E+00
        -11   -1    0    0    0    0  0.00000000000E+00  0.00000000000E+00  0.45593999997E+02  0.45594000000E+02  0.51100000000E-03 0.  1.
         11   -1    0    0    0    0 -0.00000000000E+00 -0.00000000000E+00 -0.45593999997E+02  0.45594000000E+02  0.51100000000E-03 0. -1.
    9900012    2    1    2    0    0  0.22349541654E+01  0.28337535723E+02 -0.32796529435E+02  0.47787270813E+02  0.19999998945E+02 0.  0.
        -12    1    1    2    0    0 -0.22349541654E+01 -0.28337535723E+02  0.32796529435E+02  0.43400729187E+02  0.00000000000E+00 0.  1.
         11    1    3    3    0    0  0.60266249214E+01  0.19072086739E+02 -0.29040147625E+02  0.35261804760E+02  0.51100000000E-03 0. -1.
        -11    1    3    3    0    0 -0.36088930378E+01  0.99390202290E+01 -0.45124255662E+01  0.11496530643E+02  0.51100000000E-03 0.  1.
         12    1    3    3    0    0 -0.18277771822E+00 -0.67357124520E+00  0.75604375690E+00  0.10289354105E+01  0.00000000000E+00 0. -1.
</event>
<event>
 7    1  0.2756432E-009  0.4778728E+02  0.7816164E-02  0.1312668E+00
        -11   -1    0    0    0    0  0.00000000000E+00  0.00000000000E+00  0.45593999997E+02  0.45594000000E+02  0.51100000000E-03 0. -1.
         11   -1    0    0    0    0 -0.00000000000E+00 -0.00000000000E+00 -0.45593999997E+02  0.45594000000E+02  0.51100000000E-03 0.  1.
    9900012    2    1    2    0    0  0.43139867255E+02 -0.34073944178E+01  0.33112460879E+01  0.47787276110E+02  0.20000023096E+02 0.  0.
        -12    1    1    2    0    0 -0.43139867255E+02  0.34073944178E+01 -0.33112460879E+01  0.43400723890E+02  0.00000000000E+00 0.  1.
         11    1    3    3    0    0  0.30119312341E+01  0.51626040793E+01  0.23891211107E+00  0.59817463919E+01  0.51100000000E-03 0. -1.
        -11    1    3    3    0    0  0.50471996417E+00  0.81325174296E+00 -0.10379091689E+00  0.96275306035E+00  0.51100000000E-03 0.  1.
         12    1    3    3    0    0  0.39623216057E+02 -0.93832502401E+01  0.31761248937E+01  0.40842776658E+02  0.00000000000E+00 0. -1.
</event>
<event>
 7    1  0.2756432E-009  0.4778727E+02  0.7816164E-02  0.1312668E+00
        -11   -1    0    0    0    0  0.00000000000E+00  0.00000000000E+00  0.45593999997E+02  0.45594000000E+02  0.51100000000E-03 0.  1.
         11   -1    0    0    0    0 -0.00000000000E+00 -0.00000000000E+00 -0.45593999997E+02  0.45594000000E+02  0.51100000000E-03 0. -1.
    9900012    2    1    2    0    0 -0.49853913847E+01 -0.43101728647E+02  0.10049400713E+01  0.47787273690E+02  0.20000012064E+02 0.  0.
        -12    1    1    2    0    0  0.49853913847E+01  0.43101728647E+02 -0.10049400713E+01  0.43400726310E+02  0.00000000000E+00 0.  1.
         11    1    3    3    0    0  0.54242547055E+01 -0.18862169424E+02  0.73204917216E+00  0.19640261473E+02  0.51100000000E-03 0. -1.
        -11    1    3    3    0    0 -0.63457615830E+01 -0.40071025963E+01 -0.13959446995E+00  0.75063338696E+01  0.51100000000E-03 0.  1.
         12    1    3    3    0    0 -0.40638845073E+01 -0.20232456627E+02  0.41248536911E+00  0.20640678347E+02  0.00000000000E+00 0. -1.
</event>
<event>
 7    1  0.2756432E-009  0.4778727E+02  0.7816164E-02  0.1312668E+00
        -11   -1    0    0    0    0  0.00000000000E+00  0.00000000000E+00  0.45593999997E+02  0.45594000000E+02  0.51100000000E-03 0.  1.
         11   -1    0    0    0    0 -0.00000000000E+00 -0.00000000000E+00 -0.45593999997E+02  0.45594000000E+02  0.51100000000E-03 0. -1.
    9900012    2    1    2    0    0 -0.10587286164E+02  0.25079564105E+02 -0.33801598731E+02  0.47787271426E+02  0.20000001739E+02 0.  0.
        -12    1    1    2    0    0  0.10587286164E+02 -0.25079564105E+02  0.33801598731E+02  0.43400728574E+02  0.00000000000E+00 0.  1.
         11    1    3    3    0    0 -0.47524395986E+01 -0.11053686061E+01 -0.11747159191E+02  0.12720191477E+02  0.51100000000E-03 0. -1.
        -11    1    3    3    0    0 -0.36283958763E+00  0.12767432624E+02 -0.10444362184E+02  0.16499202710E+02  0.51100000000E-03 0.  1.
         12    1    3    3    0    0 -0.54720069777E+01  0.13417500086E+02 -0.11610077356E+02  0.18567877239E+02  0.00000000000E+00 0. -1.
</event>
<event>
 7    1  0.2756432E-009  0.4778727E+02  0.7816164E-02  0.1312668E+00
        -11   -1    0    0    0    0  0.00000000000E+00  0.00000000000E+00  0.45593999997E+02  0.45594000000E+02  0.51100000000E-03 0. -1.
         11   -1    0    0    0    0 -0.00000000000E+00 -0.00000000000E+00 -0.45593999997E+02  0.45594000000E+02  0.51100000000E-03 0.  1.
    9900012    2    1    2    0    0 -0.25023324045E+02 -0.35460044208E+02  0.20523010952E+00  0.47787267277E+02  0.19999982823E+02 0.  0.
        -12    1    1    2    0    0  0.25023324045E+02  0.35460044208E+02 -0.20523010952E+00  0.43400732723E+02  0.00000000000E+00 0.  1.
         11    1    3    3    0    0 -0.14164049587E+02 -0.23862344389E+02  0.77376933409E+01  0.28808048856E+02  0.51100000000E-03 0. -1.
        -11    1    3    3    0    0 -0.11474310292E+02 -0.87791286827E+01 -0.55409463592E+01  0.15473686823E+02  0.51100000000E-03 0.  1.
        -12    1    3    3    0    0  0.61503583318E+00 -0.28185711367E+01 -0.19915168721E+01  0.35055315974E+01  0.00000000000E+00 0.  1.
</event>
<event>
 7    1  0.2756432E-009  0.4778727E+02  0.7816164E-02  0.1312668E+00
        -11   -1    0    0    0    0  0.00000000000E+00  0.00000000000E+00  0.45593999997E+02  0.45594000000E+02  0.51100000000E-03 0. -1.
         11   -1    0    0    0    0 -0.00000000000E+00 -0.00000000000E+00 -0.45593999997E+02  0.45594000000E+02  0.51100000000E-03 0.  1.
    9900012    2    1    2    0    0  0.30310257633E+02 -0.22045560023E+02  0.21883896869E+02  0.47787269860E+02  0.19999994599E+02 0.  0.
        -12    1    1    2    0    0 -0.30310257633E+02  0.22045560023E+02 -0.21883896869E+02  0.43400730140E+02  0.00000000000E+00 0.  1.
         11    1    3    3    0    0  0.47028092524E+01 -0.44303764247E+01  0.52697318391E+01  0.83375490432E+01  0.51100000000E-03 0. -1.
        -11    1    3    3    0    0  0.25660868131E+02 -0.91218238197E+01  0.13566688328E+02  0.30426022670E+02  0.51100000000E-03 0.  1.
        -12    1    3    3    0    0 -0.53419750228E-01 -0.84933597788E+01  0.30474767017E+01  0.90236981470E+01  0.00000000000E+00 0.  1.
</event>
<event>
 7    1  0.2756432E-009  0.4778727E+02  0.7816164E-02  0.1312668E+00
        -11   -1    0    0    0    0  0.00000000000E+00  0.00000000000E+00  0.45593999997E+02  0.45594000000E+02  0.51100000000E-03 0. -1.
         11   -1    0    0    0    0 -0.00000000000E+00 -0.00000000000E+00 -0.45593999997E+02  0.45594000000E+02  0.51100000000E-03 0.  1.
    9900012    2    1    2    0    0 -0.23205986489E+02 -0.35923395431E+02  0.73902056578E+01  0.47787270883E+02  0.19999999264E+02 0.  0.
        -12    1    1    2    0    0  0.23205986489E+02  0.35923395431E+02 -0.73902056578E+01  0.43400729117E+02  0.00000000000E+00 0.  1.
         11    1    3    3    0    0 -0.85071278039E+01 -0.11750872503E+02  0.56331111436E+01  0.15562331749E+02  0.51100000000E-03 0. -1.
        -11    1    3    3    0    0 -0.61976632121E+01 -0.21797573552E+02 -0.17455506502E+01  0.22728664488E+02  0.51100000000E-03 0.  1.
        -12    1    3    3    0    0 -0.85011954726E+01 -0.23749493755E+01  0.35026451644E+01  0.94962746457E+01  0.00000000000E+00 0.  1.
</event>
<event>
 7    1  0.2756432E-009  0.4778727E+02  0.7816164E-02  0.1312668E+00
        -11   -1    0    0    0    0  0.00000000000E+00  0.00000000000E+00  0.45593999997E+02  0.45594000000E+02  0.51100000000E-03 0.  1.
         11   -1    0    0    0    0 -0.00000000000E+00 -0.00000000000E+00 -0.45593999997E+02  0.45594000000E+02  0.51100000000E-03 0. -1.
    9900012    2    1    2    0    0  0.33831797056E+02  0.19249419912E+02 -0.19196158774E+02  0.47787272234E+02  0.20000005422E+02 0.  0.
        -12    1    1    2    0    0 -0.33831797056E+02 -0.19249419912E+02  0.19196158774E+02  0.43400727766E+02  0.00000000000E+00 0.  1.
         11    1    3    3    0    0  0.29216749224E+02  0.19890717794E+02 -0.21550885855E+02  0.41396857018E+02  0.51100000000E-03 0. -1.
        -11    1    3    3    0    0  0.45681276535E+01 -0.15915357739E+00  0.64840227770E+00  0.46166596035E+01  0.51100000000E-03 0.  1.
         12    1    3    3    0    0  0.46920178296E-01 -0.48214430496E+00  0.17063248038E+01  0.17737556117E+01  0.00000000000E+00 0. -1.
</event>
<event>
 7    1  0.2756432E-009  0.4778727E+02  0.7816164E-02  0.1312668E+00
        -11   -1    0    0    0    0  0.00000000000E+00  0.00000000000E+00  0.45593999997E+02  0.45594000000E+02  0.51100000000E-03 0.  1.
         11   -1    0    0    0    0 -0.00000000000E+00 -0.00000000000E+00 -0.45593999997E+02  0.45594000000E+02  0.51100000000E-03 0. -1.
    9900012    2    1    2    0    0 -0.40066672245E+02 -0.44027796157E+01 -0.16090388156E+02  0.47787270926E+02  0.19999999459E+02 0.  0.
        -12    1    1    2    0    0  0.40066672245E+02  0.44027796157E+01  0.16090388156E+02  0.43400729074E+02  0.00000000000E+00 0.  1.
         11    1    3    3    0    0 -0.16873214018E+02 -0.44429666806E+01 -0.14273845044E+02  0.22543024571E+02  0.51100000000E-03 0. -1.
        -11    1    3    3    0    0 -0.20615434884E+02  0.24672551270E+01  0.89909723227E+00  0.20782008551E+02  0.51100000000E-03 0.  1.
        -12    1    3    3    0    0 -0.25780233436E+01 -0.24270680621E+01 -0.27156403448E+01  0.44622378041E+01  0.00000000000E+00 0.  1.
</event>
<event>
 7    1  0.2756432E-009  0.4778725E+02  0.7816164E-02  0.1312668E+00
        -11   -1    0    0    0    0  0.00000000000E+00  0.00000000000E+00  0.45593999997E+02  0.45594000000E+02  0.51100000000E-03 0.  1.
         11   -1    0    0    0    0 -0.00000000000E+00 -0.00000000000E+00 -0.45593999997E+02  0.45594000000E+02  0.51100000000E-03 0. -1.
    9900012    2    1    2    0    0  0.12055470449E+01  0.23054715449E+02 -0.36751211624E+02  0.47787253417E+02  0.19999919631E+02 0.  0.
        -12    1    1    2    0    0 -0.12055470449E+01 -0.23054715449E+02  0.36751211624E+02  0.43400746583E+02  0.00000000000E+00 0.  1.
         11    1    3    3    0    0  0.28284845346E+01  0.77393259849E+01 -0.54159801445E+01  0.98605442370E+01  0.51100000000E-03 0. -1.
        -11    1    3    3    0    0  0.72935563996E+00  0.13054582019E+00 -0.16667441969E+02  0.16683903138E+02  0.51100000000E-03 0.  1.
        -12    1    3    3    0    0 -0.23522931297E+01  0.15184843643E+02 -0.14667789511E+02  0.21242806043E+02  0.00000000000E+00 0.  1.
</event>
<event>
 7    1  0.2756432E-009  0.4778727E+02  0.7816164E-02  0.1312668E+00
        -11   -1    0    0    0    0  0.00000000000E+00  0.00000000000E+00  0.45593999997E+02  0.45594000000E+02  0.51100000000E-03 0.  1.
         11   -1    0    0    0    0 -0.00000000000E+00 -0.00000000000E+00 -0.45593999997E+02  0.45594000000E+02  0.51100000000E-03 0. -1.
    9900012    2    1    2    0    0 -0.24847066825E+02  0.21870956938E+02 -0.28069700441E+02  0.47787267632E+02  0.19999984443E+02 0.  0.
        -12    1    1    2    0    0  0.24847066825E+02 -0.21870956938E+02  0.28069700441E+02  0.43400732368E+02  0.00000000000E+00 0.  1.
         11    1    3    3    0    0 -0.19331155511E+00  0.27070544150E+01 -0.96323882831E+01  0.10007418112E+02  0.51100000000E-03 0. -1.
        -11    1    3    3    0    0 -0.31807450690E+01  0.70818124488E+01 -0.15696223280E+01  0.79204116855E+01  0.51100000000E-03 0.  1.
         12    1    3    3    0    0 -0.21473010201E+02  0.12082090075E+02 -0.16867689830E+02  0.29859437835E+02  0.00000000000E+00 0. -1.
</event>
<event>
 7    1  0.2756432E-009  0.4778727E+02  0.7816164E-02  0.1312668E+00
        -11   -1    0    0    0    0  0.00000000000E+00  0.00000000000E+00  0.45593999997E+02  0.45594000000E+02  0.51100000000E-03 0. -1.
         11   -1    0    0    0    0 -0.00000000000E+00 -0.00000000000E+00 -0.45593999997E+02  0.45594000000E+02  0.51100000000E-03 0.  1.
    9900012    2    1    2    0    0 -0.14123818961E+02 -0.40435438943E+02  0.70082940465E+01  0.47787272241E+02  0.20000005458E+02 0.  0.
        -12    1    1    2    0    0  0.14123818961E+02  0.40435438943E+02 -0.70082940465E+01  0.43400727759E+02  0.00000000000E+00 0.  1.
         11    1    3    3    0    0 -0.79567032345E+01 -0.29009771555E+02  0.11757216167E+02  0.32297184154E+02  0.51100000000E-03 0. -1.
        -11    1    3    3    0    0 -0.75966822054E+01 -0.84487270077E+01 -0.29907739631E+01  0.11748842400E+02  0.51100000000E-03 0.  1.
         12    1    3    3    0    0  0.14295664794E+01 -0.29769403806E+01 -0.17581481579E+01  0.37412456874E+01  0.00000000000E+00 0. -1.
</event>
<event>
 7    1  0.2756432E-009  0.4778726E+02  0.7816164E-02  0.1312668E+00
        -11   -1    0    0    0    0  0.00000000000E+00  0.00000000000E+00  0.45593999997E+02  0.45594000000E+02  0.51100000000E-03 0.  1.
         11   -1    0    0    0    0 -0.00000000000E+00 -0.00000000000E+00 -0.45593999997E+02  0.45594000000E+02  0.51100000000E-03 0. -1.
    9900012    2    1    2    0    0  0.32323380993E+02  0.38330870689E+00 -0.28959904797E+02  0.47787263022E+02  0.19999963423E+02 0.  0.
        -12    1    1    2    0    0 -0.32323380993E+02 -0.38330870689E+00  0.28959904797E+02  0.43400736978E+02  0.00000000000E+00 0.  1.
         11    1    3    3    0    0 -0.15970560275E+01 -0.96766047393E+00 -0.44943314474E+01  0.48668234165E+01  0.51100000000E-03 0. -1.
        -11    1    3    3    0    0  0.15509379289E+02 -0.14548173539E+01 -0.59966827948E+01  0.16691840649E+02  0.51100000000E-03 0.  1.
         12    1    3    3    0    0  0.18411057731E+02  0.28057865347E+01 -0.18468890555E+02  0.26228598956E+02  0.00000000000E+00 0. -1.
</event>
<event>
 7    1  0.2756432E-009  0.4778727E+02  0.7816164E-02  0.1312668E+00
        -11   -1    0    0    0    0  0.00000000000E+00  0.00000000000E+00  0.45593999997E+02  0.45594000000E+02  0.51100000000E-03 0.  1.
         11   -1    0    0    0    0 -0.00000000000E+00 -0.00000000000E+00 -0.45593999997E+02  0.45594000000E+02  0.51100000000E-03 0. -1.
    9900012    2    1    2    0    0 -0.22807541204E+02 -0.36866079270E+02  0.20812720428E+01  0.47787269248E+02  0.19999991809E+02 0.  0.
        -12    1    1    2    0    0  0.22807541204E+02  0.36866079270E+02 -0.20812720428E+01  0.43400730752E+02  0.00000000000E+00 0.  1.
         11    1    3    3    0    0 -0.86773271795E+01 -0.10129281148E+02 -0.27795934120E+01  0.13624407633E+02  0.51100000000E-03 0. -1.
        -11    1    3    3    0    0 -0.63241456791E+01 -0.71581172815E+00  0.26898983503E+01  0.69096134766E+01  0.51100000000E-03 0.  1.
        -12    1    3    3    0    0 -0.78060683453E+01 -0.26020986393E+02  0.21709671045E+01  0.27253248138E+02  0.00000000000E+00 0.  1.
</event>
<event>
 7    1  0.2756432E-009  0.4778727E+02  0.7816164E-02  0.1312668E+00
        -11   -1    0    0    0    0  0.00000000000E+00  0.00000000000E+00  0.45593999997E+02  0.45594000000E+02  0.51100000000E-03 0. -1.
         11   -1    0    0    0    0 -0.00000000000E+00 -0.00000000000E+00 -0.45593999997E+02  0.45594000000E+02  0.51100000000E-03 0.  1.
    9900012    2    1    2    0    0  0.11461730687E+02 -0.42179408213E+01  0.41646861030E+02  0.47787270413E+02  0.19999997119E+02 0.  0.
        -12    1    1    2    0    0 -0.11461730687E+02  0.42179408213E+01 -0.41646861030E+02  0.43400729587E+02  0.00000000000E+00 0.  1.
         11    1    3    3    0    0 -0.17332490974E+01  0.12760235931E+01  0.12798974498E+02  0.12978680099E+02  0.51100000000E-03 0. -1.
        -11    1    3    3    0    0  0.14183298711E+02 -0.89702200991E+00  0.17627749368E+02  0.22643059839E+02  0.51100000000E-03 0.  1.
         12    1    3    3    0    0 -0.98831892672E+00 -0.45969424044E+01  0.11220137164E+02  0.12165530475E+02  0.00000000000E+00 0. -1.
</event>
<event>
 7    1  0.2756432E-009  0.4778727E+02  0.7816164E-02  0.1312668E+00
        -11   -1    0    0    0    0  0.00000000000E+00  0.00000000000E+00  0.45593999997E+02  0.45594000000E+02  0.51100000000E-03 0.  1.
         11   -1    0    0    0    0 -0.00000000000E+00 -0.00000000000E+00 -0.45593999997E+02  0.45594000000E+02  0.51100000000E-03 0. -1.
    9900012    2    1    2    0    0 -0.35420739702E+02  0.98124341558E+01 -0.23080522159E+02  0.47787272262E+02  0.20000005550E+02 0.  0.
        -12    1    1    2    0    0  0.35420739702E+02 -0.98124341558E+01  0.23080522159E+02  0.43400727738E+02  0.00000000000E+00 0.  1.
         11    1    3    3    0    0 -0.20572683595E+02 -0.81403725317E+00 -0.11083492928E+02  0.23382510188E+02  0.51100000000E-03 0. -1.
        -11    1    3    3    0    0  0.30743777893E+00  0.43877970879E+01 -0.59324228096E+00  0.44383801029E+01  0.51100000000E-03 0.  1.
         12    1    3    3    0    0 -0.15155493886E+02  0.62386743210E+01 -0.11403786950E+02  0.19966381971E+02  0.00000000000E+00 0. -1.
</event>
<event>
 7    1  0.2756432E-009  0.4778727E+02  0.7816164E-02  0.1312668E+00
        -11   -1    0    0    0    0  0.00000000000E+00  0.00000000000E+00  0.45593999997E+02  0.45594000000E+02  0.51100000000E-03 0. -1.
         11   -1    0    0    0    0 -0.00000000000E+00 -0.00000000000E+00 -0.45593999997E+02  0.45594000000E+02  0.51100000000E-03 0.  1.
    9900012    2    1    2    0    0  0.32976975051E+02  0.75775364154E+01  0.27179461279E+02  0.47787273542E+02  0.20000011389E+02 0.  0.
        -12    1    1    2    0    0 -0.32976975051E+02 -0.75775364154E+01 -0.27179461279E+02  0.43400726458E+02  0.00000000000E+00 0.  1.
         11    1    3    3    0    0  0.16264067445E+02  0.51755921926E+01  0.24547675045E+01  0.17243332861E+02  0.51100000000E-03 0. -1.
        -11    1    3    3    0    0  0.11338471046E+02 -0.10787485005E+01  0.17608883707E+02  0.20971347349E+02  0.51100000000E-03 0.  1.
         12    1    3    3    0    0  0.53744365597E+01  0.34806927232E+01  0.71158100683E+01  0.95725933318E+01  0.00000000000E+00 0. -1.
</event>
<event>
 7    1  0.2756432E-009  0.4778727E+02  0.7816164E-02  0.1312668E+00
        -11   -1    0    0    0    0  0.00000000000E+00  0.00000000000E+00  0.45593999997E+02  0.45594000000E+02  0.51100000000E-03 0.  1.
         11   -1    0    0    0    0 -0.00000000000E+00 -0.00000000000E+00 -0.45593999997E+02  0.45594000000E+02  0.51100000000E-03 0. -1.
    9900012    2    1    2    0    0  0.36189580787E+02  0.10544804725E+02 -0.21511500689E+02  0.47787270442E+02  0.19999997255E+02 0.  0.
        -12    1    1    2    0    0 -0.36189580787E+02 -0.10544804725E+02  0.21511500689E+02  0.43400729558E+02  0.00000000000E+00 0.  1.
         11    1    3    3    0    0  0.23546360382E+02  0.51467849829E+01 -0.20108830910E+02  0.31389258732E+02  0.51100000000E-03 0. -1.
        -11    1    3    3    0    0  0.11046029023E+02  0.77408625656E+01 -0.14162420997E+01  0.13562501701E+02  0.51100000000E-03 0.  1.
         12    1    3    3    0    0  0.15971913816E+01 -0.23428428239E+01  0.13572320506E-01  0.28355100096E+01  0.00000000000E+00 0. -1.
</event>
<event>
 7    1  0.2756432E-009  0.4778727E+02  0.7816164E-02  0.1312668E+00
        -11   -1    0    0    0    0  0.00000000000E+00  0.00000000000E+00  0.45593999997E+02  0.45594000000E+02  0.51100000000E-03 0.  1.
         11   -1    0    0    0    0 -0.00000000000E+00 -0.00000000000E+00 -0.45593999997E+02  0.45594000000E+02  0.51100000000E-03 0. -1.
    9900012    2    1    2    0    0  0.19309071686E+02 -0.22979959206E+01 -0.38800799712E+02  0.47787273129E+02  0.20000009503E+02 0.  0.
        -12    1    1    2    0    0 -0.19309071686E+02  0.22979959206E+01  0.38800799712E+02  0.43400726871E+02  0.00000000000E+00 0.  1.
         11    1    3    3    0    0  0.56641885003E+00  0.26588144050E+00 -0.10528394965E+02  0.10546972270E+02  0.51100000000E-03 0. -1.
        -11    1    3    3    0    0  0.25038260750E+01 -0.10668731573E+01  0.16355451626E+01  0.31752750412E+01  0.51100000000E-03 0.  1.
        -12    1    3    3    0    0  0.16238826761E+02 -0.14970042037E+01 -0.29907949910E+02  0.34065025818E+02  0.00000000000E+00 0.  1.
</event>
<event>
 7    1  0.2756432E-009  0.4778727E+02  0.7816164E-02  0.1312668E+00
        -11   -1    0    0    0    0  0.00000000000E+00  0.00000000000E+00  0.45593999997E+02  0.45594000000E+02  0.51100000000E-03 0. -1.
         11   -1    0    0    0    0 -0.00000000000E+00 -0.00000000000E+00 -0.45593999997E+02  0.45594000000E+02  0.51100000000E-03 0.  1.
    9900012    2    1    2    0    0 -0.27389435506E+02  0.33556352209E+02 -0.27227378082E+01  0.47787271295E+02  0.20000001144E+02 0.  0.
        -12    1    1    2    0    0  0.27389435506E+02 -0.33556352209E+02  0.27227378082E+01  0.43400728705E+02  0.00000000000E+00 0.  1.
         11    1    3    3    0    0  0.19543615889E+01  0.65518593264E+01  0.29853534530E+01  0.74604775553E+01  0.51100000000E-03 0. -1.
        -11    1    3    3    0    0 -0.19651490070E+02  0.17225741698E+02 -0.43447213606E+01  0.26491203124E+02  0.51100000000E-03 0.  1.
         12    1    3    3    0    0 -0.96923070252E+01  0.97787511850E+01 -0.13633699007E+01  0.13835590616E+02  0.00000000000E+00 0. -1.
</event>
<event>
 7    1  0.2756432E-009  0.4778728E+02  0.7816164E-02  0.1312668E+00
        -11   -1    0    0    0    0  0.00000000000E+00  0.00000000000E+00  0.45593999997E+02  0.45594000000E+02  0.51100000000E-03 0.  1.
         11   -1    0    0    0    0 -0.00000000000E+00 -0.00000000000E+00 -0.45593999997E+02  0.45594000000E+02  0.51100000000E-03 0. -1.
    9900012    2    1    2    0    0  0.12993278428E+02 -0.23495682290E+02 -0.34099121821E+02  0.47787280195E+02  0.20000041722E+02 0.  0.
        -12    1    1    2    0    0 -0.12993278428E+02  0.23495682290E+02  0.34099121821E+02  0.43400719805E+02  0.00000000000E+00 0.  1.
         11    1    3    3    0    0  0.17500575769E+01 -0.31133264886E+01 -0.27629274533E+01  0.45154481196E+01  0.51100000000E-03 0. -1.
        -11    1    3    3    0    0  0.64116562668E+01 -0.16935178744E+02 -0.91175395912E+01  0.20274100316E+02  0.51100000000E-03 0.  1.
        -12    1    3    3    0    0  0.48315645842E+01 -0.34471770578E+01 -0.22218654777E+02  0.22997731759E+02  0.00000000000E+00 0.  1.
</event>
<event>
 7    1  0.2756432E-009  0.4778728E+02  0.7816164E-02  0.1312668E+00
        -11   -1    0    0    0    0  0.00000000000E+00  0.00000000000E+00  0.45593999997E+02  0.45594000000E+02  0.51100000000E-03 0. -1.
         11   -1    0    0    0    0 -0.00000000000E+00 -0.00000000000E+00 -0.45593999997E+02  0.45594000000E+02  0.51100000000E-03 0.  1.
    9900012    2    1    2    0    0  0.21418331381E+02  0.10623925334E+00  0.37747405271E+02  0.47787276381E+02  0.20000024332E+02 0.  0.
        -12    1    1    2    0    0 -0.21418331381E+02 -0.10623925334E+00 -0.37747405271E+02  0.43400723619E+02  0.00000000000E+00 0.  1.
         11    1    3    3    0    0  0.74009927308E+01  0.82433769553E+01  0.18991356667E+02  0.21986349978E+02  0.51100000000E-03 0. -1.
        -11    1    3    3    0    0  0.16215970308E+01 -0.18076166981E+01 -0.20384245122E-01  0.24284708843E+01  0.51100000000E-03 0.  1.
         12    1    3    3    0    0  0.12395741619E+02 -0.63295210038E+01  0.18776432850E+02  0.23372455519E+02  0.00000000000E+00 0. -1.
</event>
<event>
 7    1  0.2756432E-009  0.4778727E+02  0.7816164E-02  0.1312668E+00
        -11   -1    0    0    0    0  0.00000000000E+00  0.00000000000E+00  0.45593999997E+02  0.45594000000E+02  0.51100000000E-03 0.  1.
         11   -1    0    0    0    0 -0.00000000000E+00 -0.00000000000E+00 -0.45593999997E+02  0.45594000000E+02  0.51100000000E-03 0. -1.
    9900012    2    1    2    0    0 -0.85092577709E+01  0.27491121008E+02 -0.32487756667E+02  0.47787268032E+02  0.19999986267E+02 0.  0.
        -12    1    1    2    0    0  0.85092577709E+01 -0.27491121008E+02  0.32487756667E+02  0.43400731968E+02  0.00000000000E+00 0.  1.
         11    1    3    3    0    0 -0.13237155297E+02  0.11684649895E+02 -0.22040908869E+02  0.28241016050E+02  0.51100000000E-03 0. -1.
        -11    1    3    3    0    0  0.30601172092E+01  0.10925590568E+02 -0.67760364108E+01  0.13215427208E+02  0.51100000000E-03 0.  1.
         12    1    3    3    0    0  0.16677803168E+01  0.48808805448E+01 -0.36708113868E+01  0.63308247737E+01  0.00000000000E+00 0. -1.
</event>
<event>
 7    1  0.2756432E-009  0.4778721E+02  0.7816164E-02  0.1312668E+00
        -11   -1    0    0    0    0  0.00000000000E+00  0.00000000000E+00  0.45593999997E+02  0.45594000000E+02  0.51100000000E-03 0. -1.
         11   -1    0    0    0    0 -0.00000000000E+00 -0.00000000000E+00 -0.45593999997E+02  0.45594000000E+02  0.51100000000E-03 0.  1.
    9900012    2    1    2    0    0 -0.41564719025E+02 -0.11883194165E+02  0.38461126015E+01  0.47787207918E+02  0.19999712181E+02 0.  0.
        -12    1    1    2    0    0  0.41564719025E+02  0.11883194165E+02 -0.38461126015E+01  0.43400792082E+02  0.00000000000E+00 0.  1.
         11    1    3    3    0    0  0.90273736937E+00 -0.84794984284E+00  0.25648525892E+01  0.28482315144E+01  0.51100000000E-03 0. -1.
        -11    1    3    3    0    0 -0.20677942046E+02 -0.46677947288E+01 -0.41425071811E+01  0.21599212044E+02  0.51100000000E-03 0.  1.
         12    1    3    3    0    0 -0.21789514348E+02 -0.63674495929E+01  0.54237671934E+01  0.23339764360E+02  0.00000000000E+00 0. -1.
</event>
<event>
 7    1  0.2756432E-009  0.4778728E+02  0.7816164E-02  0.1312668E+00
        -11   -1    0    0    0    0  0.00000000000E+00  0.00000000000E+00  0.45593999997E+02  0.45594000000E+02  0.51100000000E-03 0.  1.
         11   -1    0    0    0    0 -0.00000000000E+00 -0.00000000000E+00 -0.45593999997E+02  0.45594000000E+02  0.51100000000E-03 0. -1.
    9900012    2    1    2    0    0  0.32624152160E+02 -0.28552775999E+02  0.20065257315E+01  0.47787280341E+02  0.20000042386E+02 0.  0.
        -12    1    1    2    0    0 -0.32624152160E+02  0.28552775999E+02 -0.20065257315E+01  0.43400719659E+02  0.00000000000E+00 0.  1.
         11    1    3    3    0    0  0.69886268413E+01 -0.33394675143E+01 -0.22605148105E+01  0.80686353168E+01  0.51100000000E-03 0. -1.
        -11    1    3    3    0    0  0.70633117319E+01 -0.16736221962E+01 -0.44235454871E+01  0.85005375604E+01  0.51100000000E-03 0.  1.
        -12    1    3    3    0    0  0.18572213587E+02 -0.23539686289E+02  0.86905860291E+01  0.31218107464E+02  0.00000000000E+00 0.  1.
</event>
<event>
 7    1  0.2756432E-009  0.4778728E+02  0.7816164E-02  0.1312668E+00
        -11   -1    0    0    0    0  0.00000000000E+00  0.00000000000E+00  0.45593999997E+02  0.45594000000E+02  0.51100000000E-03 0.  1.
         11   -1    0    0    0    0 -0.00000000000E+00 -0.00000000000E+00 -0.45593999997E+02  0.45594000000E+02  0.51100000000E-03 0. -1.
    9900012    2    1    2    0    0  0.80838152264E+01  0.35065880055E+02 -0.24262290539E+02  0.47787277024E+02  0.20000027262E+02 0.  0.
        -12    1    1    2    0    0 -0.80838152264E+01 -0.35065880055E+02  0.24262290539E+02  0.43400722976E+02  0.00000000000E+00 0.  1.
         11    1    3    3    0    0  0.59604466517E+00  0.21166998677E+02 -0.53180107925E+01  0.21832964556E+02  0.51100000000E-03 0. -1.
        -11    1    3    3    0    0  0.56483139136E+01  0.88999482962E+01 -0.17509908861E+02  0.20437941147E+02  0.51100000000E-03 0.  1.
        -12    1    3    3    0    0  0.18394566476E+01  0.49989330820E+01 -0.14343708857E+01  0.55163713213E+01  0.00000000000E+00 0.  1.
</event>
<event>
 7    1  0.2756432E-009  0.4778725E+02  0.7816164E-02  0.1312668E+00
        -11   -1    0    0    0    0  0.00000000000E+00  0.00000000000E+00  0.45593999997E+02  0.45594000000E+02  0.51100000000E-03 0. -1.
         11   -1    0    0    0    0 -0.00000000000E+00 -0.00000000000E+00 -0.45593999997E+02  0.45594000000E+02  0.51100000000E-03 0.  1.
    9900012    2    1    2    0    0 -0.19197462630E+02  0.26334460235E+02  0.28663192446E+02  0.47787251521E+02  0.19999910985E+02 0.  0.
        -12    1    1    2    0    0  0.19197462630E+02 -0.26334460235E+02 -0.28663192446E+02  0.43400748479E+02  0.00000000000E+00 0.  1.
         11    1    3    3    0    0 -0.25190244871E+01  0.67195688781E+00  0.34122185016E+01  0.42942107295E+01  0.51100000000E-03 0. -1.
        -11    1    3    3    0    0 -0.19460855286E+02  0.15565011893E+02  0.18418871397E+02  0.30987889691E+02  0.51100000000E-03 0.  1.
        -12    1    3    3    0    0  0.27824171430E+01  0.10097491454E+02  0.68321025481E+01  0.12505151101E+02  0.00000000000E+00 0.  1.
</event>
<event>
 7    1  0.2756432E-009  0.4778727E+02  0.7816164E-02  0.1312668E+00
        -11   -1    0    0    0    0  0.00000000000E+00  0.00000000000E+00  0.45593999997E+02  0.45594000000E+02  0.51100000000E-03 0.  1.
         11   -1    0    0    0    0 -0.00000000000E+00 -0.00000000000E+00 -0.45593999997E+02  0.45594000000E+02  0.51100000000E-03 0. -1.
    9900012    2    1    2    0    0 -0.13095087870E+02 -0.57743521069E+01 -0.40973146537E+02  0.47787271830E+02  0.20000003580E+02 0.  0.
        -12    1    1    2    0    0  0.13095087870E+02  0.57743521069E+01  0.40973146537E+02  0.43400728170E+02  0.00000000000E+00 0.  1.
         11    1    3    3    0    0 -0.93628726188E+01  0.18761300569E+01 -0.12898260928E+02  0.16048314020E+02  0.51100000000E-03 0. -1.
        -11    1    3    3    0    0 -0.28965620690E+01 -0.10491581741E+02 -0.25808869745E+02  0.28010018155E+02  0.51100000000E-03 0.  1.
        -12    1    3    3    0    0 -0.83565318182E+00  0.28410995777E+01 -0.22660158641E+01  0.37289396545E+01  0.00000000000E+00 0.  1.
</event>
<event>
 7    1  0.2756432E-009  0.4778727E+02  0.7816164E-02  0.1312668E+00
        -11   -1    0    0    0    0  0.00000000000E+00  0.00000000000E+00  0.45593999997E+02  0.45594000000E+02  0.51100000000E-03 0.  1.
         11   -1    0    0    0    0 -0.00000000000E+00 -0.00000000000E+00 -0.45593999997E+02  0.45594000000E+02  0.51100000000E-03 0. -1.
    9900012    2    1    2    0    0  0.13404481631E+02  0.41266624649E+02  0.10044071584E+01  0.47787271072E+02  0.20000000128E+02 0.  0.
        -12    1    1    2    0    0 -0.13404481631E+02 -0.41266624649E+02 -0.10044071584E+01  0.43400728928E+02  0.00000000000E+00 0.  1.
         11    1    3    3    0    0  0.12634082397E+02  0.24076655150E+02 -0.69736101496E+01  0.28070208407E+02  0.51100000000E-03 0.  1.
        -11    1    3    3    0    0 -0.63119811886E+00  0.14350128246E+02  0.82046195293E+01  0.16542078879E+02  0.51100000000E-03 0. -1.
         12    1    3    3    0    0  0.14015973533E+01  0.28398412526E+01 -0.22660222137E+00  0.31749837869E+01  0.00000000000E+00 0. -1.
</event>
<event>
 7    1  0.2756432E-009  0.4778727E+02  0.7816164E-02  0.1312668E+00
        -11   -1    0    0    0    0  0.00000000000E+00  0.00000000000E+00  0.45593999997E+02  0.45594000000E+02  0.51100000000E-03 0.  1.
         11   -1    0    0    0    0 -0.00000000000E+00 -0.00000000000E+00 -0.45593999997E+02  0.45594000000E+02  0.51100000000E-03 0. -1.
    9900012    2    1    2    0    0 -0.38446490497E+02 -0.19244018852E+02  0.59294612709E+01  0.47787269544E+02  0.19999993160E+02 0.  0.
        -12    1    1    2    0    0  0.38446490497E+02  0.19244018852E+02 -0.59294612709E+01  0.43400730456E+02  0.00000000000E+00 0.  1.
         11    1    3    3    0    0 -0.43799349373E+01 -0.21120584518E+00 -0.26094943388E+01  0.51027344561E+01  0.51100000000E-03 0. -1.
        -11    1    3    3    0    0 -0.32471258838E+02 -0.14729268042E+02  0.11207178270E+02  0.37375591402E+02  0.51100000000E-03 0.  1.
        -12    1    3    3    0    0 -0.15952967216E+01 -0.43035449657E+01 -0.26682226605E+01  0.53089436866E+01  0.00000000000E+00 0.  1.
</event>
<event>
 7    1  0.2756432E-009  0.4778727E+02  0.7816164E-02  0.1312668E+00
        -11   -1    0    0    0    0  0.00000000000E+00  0.00000000000E+00  0.45593999997E+02  0.45594000000E+02  0.51100000000E-03 0.  1.
         11   -1    0    0    0    0 -0.00000000000E+00 -0.00000000000E+00 -0.45593999997E+02  0.45594000000E+02  0.51100000000E-03 0. -1.
    9900012    2    1    2    0    0  0.20131166801E+02 -0.89340771544E+01 -0.37397081817E+02  0.47787270285E+02  0.19999996536E+02 0.  0.
        -12    1    1    2    0    0 -0.20131166801E+02  0.89340771544E+01  0.37397081817E+02  0.43400729715E+02  0.00000000000E+00 0.  1.
         11    1    3    3    0    0  0.19744761599E+02 -0.82869604187E+01 -0.37608394061E+02  0.43277253006E+02  0.51100000000E-03 0. -1.
        -11    1    3    3    0    0 -0.16470325848E+01  0.76006693794E+00 -0.59496757249E+00  0.19090324143E+01  0.51100000000E-03 0.  1.
         12    1    3    3    0    0  0.20334377866E+01 -0.14071836736E+01  0.80627981646E+00  0.26009848646E+01  0.00000000000E+00 0. -1.
</event>
<event>
 7    1  0.2756432E-009  0.4778727E+02  0.7816164E-02  0.1312668E+00
        -11   -1    0    0    0    0  0.00000000000E+00  0.00000000000E+00  0.45593999997E+02  0.45594000000E+02  0.51100000000E-03 0.  1.
         11   -1    0    0    0    0 -0.00000000000E+00 -0.00000000000E+00 -0.45593999997E+02  0.45594000000E+02  0.51100000000E-03 0. -1.
    9900012    2    1    2    0    0  0.70436753867E+01  0.18462988626E+02 -0.38641013600E+02  0.47787271389E+02  0.20000001571E+02 0.  0.
        -12    1    1    2    0    0 -0.70436753867E+01 -0.18462988626E+02  0.38641013600E+02  0.43400728611E+02  0.00000000000E+00 0.  1.
         11    1    3    3    0    0  0.50211545341E+01  0.40792382669E+01 -0.25060814379E+02  0.25882360698E+02  0.51100000000E-03 0. -1.
        -11    1    3    3    0    0 -0.10914263037E+01  0.13642960791E+02 -0.12474410262E+02  0.18518436818E+02  0.51100000000E-03 0.  1.
        -12    1    3    3    0    0  0.31139471563E+01  0.74078956773E+00 -0.11057889587E+01  0.33864738736E+01  0.00000000000E+00 0.  1.
</event>
<event>
 7    1  0.2756432E-009  0.4778727E+02  0.7816164E-02  0.1312668E+00
        -11   -1    0    0    0    0  0.00000000000E+00  0.00000000000E+00  0.45593999997E+02  0.45594000000E+02  0.51100000000E-03 0. -1.
         11   -1    0    0    0    0 -0.00000000000E+00 -0.00000000000E+00 -0.45593999997E+02  0.45594000000E+02  0.51100000000E-03 0.  1.
    9900012    2    1    2    0    0 -0.12441000903E+02 -0.24753928638E+00  0.41578646404E+02  0.47787267103E+02  0.19999982031E+02 0.  0.
        -12    1    1    2    0    0  0.12441000903E+02  0.24753928638E+00 -0.41578646404E+02  0.43400732897E+02  0.00000000000E+00 0.  1.
         11    1    3    3    0    0 -0.17137966734E+01 -0.62756746263E-01  0.25005012944E+01  0.30320858219E+01  0.51100000000E-03 0. -1.
        -11    1    3    3    0    0 -0.24660292503E+00 -0.84587030629E+01  0.15015236357E+02  0.17235654720E+02  0.51100000000E-03 0.  1.
        -12    1    3    3    0    0 -0.10480601305E+02  0.82739205228E+01  0.24062908752E+02  0.27519526561E+02  0.00000000000E+00 0.  1.
</event>
<event>
 7    1  0.2756432E-009  0.4778727E+02  0.7816164E-02  0.1312668E+00
        -11   -1    0    0    0    0  0.00000000000E+00  0.00000000000E+00  0.45593999997E+02  0.45594000000E+02  0.51100000000E-03 0.  1.
         11   -1    0    0    0    0 -0.00000000000E+00 -0.00000000000E+00 -0.45593999997E+02  0.45594000000E+02  0.51100000000E-03 0. -1.
    9900012    2    1    2    0    0  0.15262245633E+01  0.66007486371E+01 -0.42868682262E+02  0.47787272323E+02  0.20000005831E+02 0.  0.
        -12    1    1    2    0    0 -0.15262245633E+01 -0.66007486371E+01  0.42868682262E+02  0.43400727677E+02  0.00000000000E+00 0.  1.
         11    1    3    3    0    0  0.49417835779E+01  0.74852564009E+01 -0.29531286610E+02  0.30863363028E+02  0.51100000000E-03 0. -1.
        -11    1    3    3    0    0  0.26420882007E+01  0.33517615896E+00 -0.89701575690E+01  0.93571737288E+01  0.51100000000E-03 0.  1.
         12    1    3    3    0    0 -0.60576472152E+01 -0.12196839228E+01 -0.43672380828E+01  0.75667355661E+01  0.00000000000E+00 0. -1.
</event>
<event>
 7    1  0.2756432E-009  0.4778728E+02  0.7816164E-02  0.1312668E+00
        -11   -1    0    0    0    0  0.00000000000E+00  0.00000000000E+00  0.45593999997E+02  0.45594000000E+02  0.51100000000E-03 0. -1.
         11   -1    0    0    0    0 -0.00000000000E+00 -0.00000000000E+00 -0.45593999997E+02  0.45594000000E+02  0.51100000000E-03 0.  1.
    9900012    2    1    2    0    0  0.43372410404E+01  0.42062067286E+02 -0.97771864962E+01  0.47787279500E+02  0.20000038550E+02 0.  0.
        -12    1    1    2    0    0 -0.43372410404E+01 -0.42062067286E+02  0.97771864962E+01  0.43400720500E+02  0.00000000000E+00 0.  1.
         11    1    3    3    0    0  0.58731611564E+01  0.96171641016E+01 -0.72894934885E+01  0.13420900972E+02  0.51100000000E-03 0. -1.
        -11    1    3    3    0    0 -0.11941674652E+01 -0.12949697316E+00 -0.12979483981E+01  0.17684670498E+01  0.51100000000E-03 0.  1.
         12    1    3    3    0    0 -0.34175265073E+00  0.32574400157E+02 -0.11897446097E+01  0.32597911478E+02  0.00000000000E+00 0. -1.
</event>
<event>
 7    1  0.2756432E-009  0.4778727E+02  0.7816164E-02  0.1312668E+00
        -11   -1    0    0    0    0  0.00000000000E+00  0.00000000000E+00  0.45593999997E+02  0.45594000000E+02  0.51100000000E-03 0.  1.
         11   -1    0    0    0    0 -0.00000000000E+00 -0.00000000000E+00 -0.45593999997E+02  0.45594000000E+02  0.51100000000E-03 0. -1.
    9900012    2    1    2    0    0 -0.13071663294E+02 -0.39992696552E+02 -0.10646083333E+02  0.47787271330E+02  0.20000001302E+02 0.  0.
        -12    1    1    2    0    0  0.13071663294E+02  0.39992696552E+02  0.10646083333E+02  0.43400728670E+02  0.00000000000E+00 0.  1.
         11    1    3    3    0    0 -0.18473202951E+01 -0.77274389907E+01 -0.42537513398E+01  0.90122309308E+01  0.51100000000E-03 0. -1.
        -11    1    3    3    0    0 -0.15449550648E+02 -0.21802585299E+02 -0.64595894293E+01  0.27491228361E+02  0.51100000000E-03 0.  1.
        -12    1    3    3    0    0  0.42252076495E+01 -0.10462672262E+02  0.67257436229E-01  0.11283812038E+02  0.00000000000E+00 0.  1.
</event>
<event>
 7    1  0.2756432E-009  0.4778727E+02  0.7816164E-02  0.1312668E+00
        -11   -1    0    0    0    0  0.00000000000E+00  0.00000000000E+00  0.45593999997E+02  0.45594000000E+02  0.51100000000E-03 0. -1.
         11   -1    0    0    0    0 -0.00000000000E+00 -0.00000000000E+00 -0.45593999997E+02  0.45594000000E+02  0.51100000000E-03 0.  1.
    9900012    2    1    2    0    0 -0.72947204791E+01  0.42305340479E+02 -0.63771742160E+01  0.47787272691E+02  0.20000007509E+02 0.  0.
        -12    1    1    2    0    0  0.72947204791E+01 -0.42305340479E+02  0.63771742160E+01  0.43400727309E+02  0.00000000000E+00 0.  1.
         11    1    3    3    0    0 -0.10518180468E+02  0.17994539555E+02 -0.67020104374E+00  0.20853890377E+02  0.51100000000E-03 0. -1.
        -11    1    3    3    0    0  0.51905824471E+01  0.11716977707E+02  0.35208614561E+00  0.12820049830E+02  0.51100000000E-03 0.  1.
         12    1    3    3    0    0 -0.19671224578E+01  0.12593823217E+02 -0.60590593179E+01  0.14113332484E+02  0.00000000000E+00 0. -1.
</event>
<event>
 7    1  0.2756432E-009  0.4778727E+02  0.7816164E-02  0.1312668E+00
        -11   -1    0    0    0    0  0.00000000000E+00  0.00000000000E+00  0.45593999997E+02  0.45594000000E+02  0.51100000000E-03 0.  1.
         11   -1    0    0    0    0 -0.00000000000E+00 -0.00000000000E+00 -0.45593999997E+02  0.45594000000E+02  0.51100000000E-03 0. -1.
    9900012    2    1    2    0    0 -0.13689515566E+02  0.43711668181E+01 -0.40952573466E+02  0.47787271789E+02  0.20000003393E+02 0.  0.
        -12    1    1    2    0    0  0.13689515566E+02 -0.43711668181E+01  0.40952573466E+02  0.43400728211E+02  0.00000000000E+00 0.  1.
         11    1    3    3    0    0 -0.18130003760E+02  0.23696530467E+01 -0.28412952384E+02  0.33787692365E+02  0.51100000000E-03 0. -1.
        -11    1    3    3    0    0  0.26144182065E+01  0.32852935458E+00 -0.10394103063E+02  0.10722895730E+02  0.51100000000E-03 0.  1.
         12    1    3    3    0    0  0.18260699877E+01  0.16729844169E+01 -0.21455180199E+01  0.32766836943E+01  0.00000000000E+00 0. -1.
</event>
<event>
 7    1  0.2756432E-009  0.4778726E+02  0.7816164E-02  0.1312668E+00
        -11   -1    0    0    0    0  0.00000000000E+00  0.00000000000E+00  0.45593999997E+02  0.45594000000E+02  0.51100000000E-03 0.  1.
         11   -1    0    0    0    0 -0.00000000000E+00 -0.00000000000E+00 -0.45593999997E+02  0.45594000000E+02  0.51100000000E-03 0. -1.
    9900012    2    1    2    0    0 -0.24976897475E+02 -0.19651899443E+02 -0.29556409459E+02  0.47787263839E+02  0.19999967149E+02 0.  0.
        -12    1    1    2    0    0  0.24976897475E+02  0.19651899443E+02  0.29556409459E+02  0.43400736161E+02  0.00000000000E+00 0.  1.
         11    1    3    3    0    0 -0.46460179934E+01 -0.43672964599E+01 -0.24685059417E+01  0.68375641429E+01  0.51100000000E-03 0. -1.
        -11    1    3    3    0    0 -0.14094929686E+02 -0.18547936041E+02 -0.17915006620E+02  0.29387759981E+02  0.51100000000E-03 0.  1.
        -12    1    3    3    0    0 -0.62359497960E+01  0.32633330579E+01 -0.91728968966E+01  0.11561939715E+02  0.00000000000E+00 0.  1.
</event>
<event>
 7    1  0.2756432E-009  0.4778728E+02  0.7816164E-02  0.1312668E+00
        -11   -1    0    0    0    0  0.00000000000E+00  0.00000000000E+00  0.45593999997E+02  0.45594000000E+02  0.51100000000E-03 0.  1.
         11   -1    0    0    0    0 -0.00000000000E+00 -0.00000000000E+00 -0.45593999997E+02  0.45594000000E+02  0.51100000000E-03 0. -1.
    9900012    2    1    2    0    0  0.22003234714E+02  0.16868787918E+02 -0.33390483714E+02  0.47787277122E+02  0.20000027709E+02 0.  0.
        -12    1    1    2    0    0 -0.22003234714E+02 -0.16868787918E+02  0.33390483714E+02  0.43400722878E+02  0.00000000000E+00 0.  1.
         11    1    3    3    0    0  0.28195049212E+01  0.96681716862E+01 -0.14384892197E+02  0.17559848392E+02  0.51100000000E-03 0. -1.
        -11    1    3    3    0    0  0.13144416033E+02  0.30077029210E+00 -0.15704747580E+02  0.20481826882E+02  0.51100000000E-03 0.  1.
         12    1    3    3    0    0  0.60393137591E+01  0.68998459401E+01 -0.33008439363E+01  0.97456018475E+01  0.00000000000E+00 0. -1.
</event>
<event>
 7    1  0.2756432E-009  0.4778729E+02  0.7816164E-02  0.1312668E+00
        -11   -1    0    0    0    0  0.00000000000E+00  0.00000000000E+00  0.45593999997E+02  0.45594000000E+02  0.51100000000E-03 0. -1.
         11   -1    0    0    0    0 -0.00000000000E+00 -0.00000000000E+00 -0.45593999997E+02  0.45594000000E+02  0.51100000000E-03 0.  1.
    9900012    2    1    2    0    0  0.39927990113E+02  0.22353728604E+01  0.16863592854E+02  0.47787285141E+02  0.20000064271E+02 0.  0.
        -12    1    1    2    0    0 -0.39927990113E+02 -0.22353728604E+01 -0.16863592854E+02  0.43400714859E+02  0.00000000000E+00 0.  1.
         11    1    3    3    0    0  0.31955217181E+02 -0.66622857181E+01  0.11298788936E+02  0.34542504075E+02  0.51100000000E-03 0. -1.
        -11    1    3    3    0    0  0.17435874592E+01  0.28227140647E+01  0.15008334314E+01  0.36414712918E+01  0.51100000000E-03 0.  1.
         12    1    3    3    0    0  0.62291854733E+01  0.60749445137E+01  0.40639704865E+01  0.96033097743E+01  0.00000000000E+00 0. -1.
</event>
<event>
 7    1  0.2756432E-009  0.4778727E+02  0.7816164E-02  0.1312668E+00
        -11   -1    0    0    0    0  0.00000000000E+00  0.00000000000E+00  0.45593999997E+02  0.45594000000E+02  0.51100000000E-03 0. -1.
         11   -1    0    0    0    0 -0.00000000000E+00 -0.00000000000E+00 -0.45593999997E+02  0.45594000000E+02  0.51100000000E-03 0.  1.
    9900012    2    1    2    0    0  0.28684010392E+02  0.15025454896E+02  0.28897871152E+02  0.47787266087E+02  0.19999977398E+02 0.  0.
        -12    1    1    2    0    0 -0.28684010392E+02 -0.15025454896E+02 -0.28897871152E+02  0.43400733913E+02  0.00000000000E+00 0.  1.
         11    1    3    3    0    0  0.51615462587E+01  0.10268161039E+02  0.11374859828E+02  0.16169852420E+02  0.51100000000E-03 0. -1.
        -11    1    3    3    0    0  0.87543012695E+01 -0.28948368159E+01  0.35015898273E+01  0.98630118365E+01  0.51100000000E-03 0.  1.
        -12    1    3    3    0    0  0.14768162864E+02  0.76521306729E+01  0.14021421497E+02  0.21754401831E+02  0.00000000000E+00 0.  1.
</event>
<event>
 7    1  0.2756432E-009  0.4778727E+02  0.7816164E-02  0.1312668E+00
        -11   -1    0    0    0    0  0.00000000000E+00  0.00000000000E+00  0.45593999997E+02  0.45594000000E+02  0.51100000000E-03 0.  1.
         11   -1    0    0    0    0 -0.00000000000E+00 -0.00000000000E+00 -0.45593999997E+02  0.45594000000E+02  0.51100000000E-03 0. -1.
    9900012    2    1    2    0    0  0.29081509604E+02  0.10860954267E+02 -0.30330329368E+02  0.47787269499E+02  0.19999992955E+02 0.  0.
        -12    1    1    2    0    0 -0.29081509604E+02 -0.10860954267E+02  0.30330329368E+02  0.43400730501E+02  0.00000000000E+00 0.  1.
         11    1    3    3    0    0  0.13053052196E+02 -0.43910848638E+01 -0.13722411567E+02  0.19441408832E+02  0.51100000000E-03 0. -1.
        -11    1    3    3    0    0  0.66579985017E+00  0.64966431804E+00 -0.30416508865E+01  0.31807221732E+01  0.51100000000E-03 0.  1.
         12    1    3    3    0    0  0.15362657558E+02  0.14602374813E+02 -0.13566266915E+02  0.25165138494E+02  0.00000000000E+00 0. -1.
</event>
<event>
 7    1  0.2756432E-009  0.4778727E+02  0.7816164E-02  0.1312668E+00
        -11   -1    0    0    0    0  0.00000000000E+00  0.00000000000E+00  0.45593999997E+02  0.45594000000E+02  0.51100000000E-03 0.  1.
         11   -1    0    0    0    0 -0.00000000000E+00 -0.00000000000E+00 -0.45593999997E+02  0.45594000000E+02  0.51100000000E-03 0. -1.
    9900012    2    1    2    0    0 -0.21734434942E+02  0.28203174206E+01 -0.37460428055E+02  0.47787268178E+02  0.19999986931E+02 0.  0.
        -12    1    1    2    0    0  0.21734434942E+02 -0.28203174206E+01  0.37460428055E+02  0.43400731822E+02  0.00000000000E+00 0.  1.
         11    1    3    3    0    0 -0.59853352951E+01  0.24157089872E+01 -0.26683178665E+02  0.27452721403E+02  0.51100000000E-03 0.  1.
        -11    1    3    3    0    0 -0.49463767277E+00  0.40081426070E+00 -0.32727017327E+01  0.33340508982E+01  0.51100000000E-03 0. -1.
         12    1    3    3    0    0 -0.15254461974E+02  0.37941727378E-02 -0.75045476574E+01  0.17000495877E+02  0.00000000000E+00 0. -1.
</event>
<event>
 7    1  0.2756432E-009  0.4778727E+02  0.7816164E-02  0.1312668E+00
        -11   -1    0    0    0    0  0.00000000000E+00  0.00000000000E+00  0.45593999997E+02  0.45594000000E+02  0.51100000000E-03 0.  1.
         11   -1    0    0    0    0 -0.00000000000E+00 -0.00000000000E+00 -0.45593999997E+02  0.45594000000E+02  0.51100000000E-03 0. -1.
    9900012    2    1    2    0    0 -0.10746184873E+02 -0.13408507648E+02 -0.39854171082E+02  0.47787268217E+02  0.19999987108E+02 0.  0.
        -12    1    1    2    0    0  0.10746184873E+02  0.13408507648E+02  0.39854171082E+02  0.43400731783E+02  0.00000000000E+00 0.  1.
         11    1    3    3    0    0 -0.33858670997E+01 -0.55330823512E+01 -0.13090729526E+01  0.66176104885E+01  0.51100000000E-03 0. -1.
        -11    1    3    3    0    0 -0.82356349604E+01 -0.77380903690E+01 -0.38658561956E+02  0.40276396792E+02  0.51100000000E-03 0.  1.
        -12    1    3    3    0    0  0.87531718733E+00 -0.13733492768E+00  0.11346382650E+00  0.89326093652E+00  0.00000000000E+00 0.  1.
</event>
<event>
 7    1  0.2756432E-009  0.4778727E+02  0.7816164E-02  0.1312668E+00
        -11   -1    0    0    0    0  0.00000000000E+00  0.00000000000E+00  0.45593999997E+02  0.45594000000E+02  0.51100000000E-03 0. -1.
         11   -1    0    0    0    0 -0.00000000000E+00 -0.00000000000E+00 -0.45593999997E+02  0.45594000000E+02  0.51100000000E-03 0.  1.
    9900012    2    1    2    0    0 -0.42209039120E+02  0.72001564324E+01  0.70836295968E+01  0.47787273689E+02  0.20000012056E+02 0.  0.
        -12    1    1    2    0    0  0.42209039120E+02 -0.72001564324E+01 -0.70836295968E+01  0.43400726311E+02  0.00000000000E+00 0.  1.
         11    1    3    3    0    0 -0.13606891569E+02 -0.30492895649E+01  0.69849229977E+01  0.15595987130E+02  0.51100000000E-03 0. -1.
        -11    1    3    3    0    0 -0.18693737521E+02  0.10097752260E+02 -0.37228836240E+01  0.21570356649E+02  0.51100000000E-03 0.  1.
        -12    1    3    3    0    0 -0.99084100302E+01  0.15169373686E+00  0.38215902230E+01  0.10620929910E+02  0.00000000000E+00 0.  1.
</event>
<event>
 7    1  0.2756432E-009  0.4778727E+02  0.7816164E-02  0.1312668E+00
        -11   -1    0    0    0    0  0.00000000000E+00  0.00000000000E+00  0.45593999997E+02  0.45594000000E+02  0.51100000000E-03 0.  1.
         11   -1    0    0    0    0 -0.00000000000E+00 -0.00000000000E+00 -0.45593999997E+02  0.45594000000E+02  0.51100000000E-03 0. -1.
    9900012    2    1    2    0    0  0.69176981668E+01 -0.84557431172E+00 -0.42837528497E+02  0.47787269689E+02  0.19999993818E+02 0.  0.
        -12    1    1    2    0    0 -0.69176981668E+01  0.84557431172E+00  0.42837528497E+02  0.43400730311E+02  0.00000000000E+00 0.  1.
         11    1    3    3    0    0 -0.40080296297E+01  0.42154278239E+01 -0.20066138686E+02  0.20892200825E+02  0.51100000000E-03 0. -1.
        -11    1    3    3    0    0  0.52030035505E+01 -0.42293368585E+01 -0.54714605486E+01  0.86542138294E+01  0.51100000000E-03 0.  1.
         12    1    3    3    0    0  0.57227242461E+01 -0.83166527716E+00 -0.17299929262E+02  0.18240855035E+02  0.00000000000E+00 0. -1.
</event>
<event>
 7    1  0.2756432E-009  0.4778728E+02  0.7816164E-02  0.1312668E+00
        -11   -1    0    0    0    0  0.00000000000E+00  0.00000000000E+00  0.45593999997E+02  0.45594000000E+02  0.51100000000E-03 0. -1.
         11   -1    0    0    0    0 -0.00000000000E+00 -0.00000000000E+00 -0.45593999997E+02  0.45594000000E+02  0.51100000000E-03 0.  1.
    9900012    2    1    2    0    0  0.37686195432E+02  0.12923979610E+02  0.17214653841E+02  0.47787275560E+02  0.20000020588E+02 0.  0.
        -12    1    1    2    0    0 -0.37686195432E+02 -0.12923979610E+02 -0.17214653841E+02  0.43400724440E+02  0.00000000000E+00 0.  1.
         11    1    3    3    0    0  0.26102077695E+02  0.53898302237E+01  0.70878955249E+01  0.27579104284E+02  0.51100000000E-03 0. -1.
        -11    1    3    3    0    0  0.35122597956E+01  0.86420937190E+01  0.57721195047E+01  0.10969918712E+02  0.51100000000E-03 0.  1.
        -12    1    3    3    0    0  0.80718579407E+01 -0.11079443325E+01  0.43546388110E+01  0.92382525638E+01  0.00000000000E+00 0.  1.
</event>
<event>
 7    1  0.2756432E-009  0.4778728E+02  0.7816164E-02  0.1312668E+00
        -11   -1    0    0    0    0  0.00000000000E+00  0.00000000000E+00  0.45593999997E+02  0.45594000000E+02  0.51100000000E-03 0.  1.
         11   -1    0    0    0    0 -0.00000000000E+00 -0.00000000000E+00 -0.45593999997E+02  0.45594000000E+02  0.51100000000E-03 0. -1.
    9900012    2    1    2    0    0  0.26669293242E+02  0.18178391210E+02 -0.29015812741E+02  0.47787279983E+02  0.20000040753E+02 0.  0.
        -12    1    1    2    0    0 -0.26669293242E+02 -0.18178391210E+02  0.29015812741E+02  0.43400720017E+02  0.00000000000E+00 0.  1.
         11    1    3    3    0    0  0.14065213946E+02  0.90169499601E+00 -0.14331601706E+02  0.20100699115E+02  0.51100000000E-03 0. -1.
        -11    1    3    3    0    0  0.45327897948E+01  0.11049031157E+02 -0.32694078681E+01  0.12382095982E+02  0.51100000000E-03 0.  1.
        -12    1    3    3    0    0  0.80712895020E+01  0.62276650573E+01 -0.11414803167E+02  0.15304484886E+02  0.00000000000E+00 0.  1.
</event>
<event>
 7    1  0.2756432E-009  0.4778727E+02  0.7816164E-02  0.1312668E+00
        -11   -1    0    0    0    0  0.00000000000E+00  0.00000000000E+00  0.45593999997E+02  0.45594000000E+02  0.51100000000E-03 0.  1.
         11   -1    0    0    0    0 -0.00000000000E+00 -0.00000000000E+00 -0.45593999997E+02  0.45594000000E+02  0.51100000000E-03 0. -1.
    9900012    2    1    2    0    0 -0.28421549687E+02 -0.29387538965E+02 -0.14567476046E+02  0.47787270843E+02  0.19999999081E+02 0.  0.
        -12    1    1    2    0    0  0.28421549687E+02  0.29387538965E+02  0.14567476046E+02  0.43400729157E+02  0.00000000000E+00 0.  1.
         11    1    3    3    0    0 -0.19489848814E+02 -0.16679504043E+02 -0.13183215841E+01  0.25686534098E+02  0.51100000000E-03 0. -1.
        -11    1    3    3    0    0 -0.87751880591E+01 -0.95581315359E+01 -0.13751986933E+02  0.18907113709E+02  0.51100000000E-03 0.  1.
         12    1    3    3    0    0 -0.15651281393E+00 -0.31499033861E+01  0.50283247152E+00  0.31936230362E+01  0.00000000000E+00 0. -1.
</event>
<event>
 7    1  0.2756432E-009  0.4778727E+02  0.7816164E-02  0.1312668E+00
        -11   -1    0    0    0    0  0.00000000000E+00  0.00000000000E+00  0.45593999997E+02  0.45594000000E+02  0.51100000000E-03 0.  1.
         11   -1    0    0    0    0 -0.00000000000E+00 -0.00000000000E+00 -0.45593999997E+02  0.45594000000E+02  0.51100000000E-03 0. -1.
    9900012    2    1    2    0    0  0.15984330377E+02 -0.18432537749E+02 -0.35893820163E+02  0.47787267387E+02  0.19999983324E+02 0.  0.
        -12    1    1    2    0    0 -0.15984330377E+02  0.18432537749E+02  0.35893820163E+02  0.43400732613E+02  0.00000000000E+00 0.  1.
         11    1    3    3    0    0  0.83417477931E+01 -0.30722692253E-01 -0.82362027297E+01  0.11722659075E+02  0.51100000000E-03 0. -1.
        -11    1    3    3    0    0 -0.67234878663E+00 -0.11610530385E+02 -0.18982131775E+02  0.22261576667E+02  0.51100000000E-03 0.  1.
        -12    1    3    3    0    0  0.83149313703E+01 -0.67912846713E+01 -0.86754856588E+01  0.13803031645E+02  0.00000000000E+00 0.  1.
</event>
<event>
 7    1  0.2756432E-009  0.4778727E+02  0.7816164E-02  0.1312668E+00
        -11   -1    0    0    0    0  0.00000000000E+00  0.00000000000E+00  0.45593999997E+02  0.45594000000E+02  0.51100000000E-03 0. -1.
         11   -1    0    0    0    0 -0.00000000000E+00 -0.00000000000E+00 -0.45593999997E+02  0.45594000000E+02  0.51100000000E-03 0.  1.
    9900012    2    1    2    0    0 -0.20710660383E+02 -0.37898102090E+02  0.42925348041E+01  0.47787269009E+02  0.19999990718E+02 0.  0.
        -12    1    1    2    0    0  0.20710660383E+02  0.37898102090E+02 -0.42925348041E+01  0.43400730991E+02  0.00000000000E+00 0.  1.
         11    1    3    3    0    0 -0.18574078013E+01 -0.12519636522E+02  0.73394742279E+01  0.14630760219E+02  0.51100000000E-03 0. -1.
        -11    1    3    3    0    0 -0.24710386349E+01 -0.53266417552E+01 -0.42292756740E+01  0.72364298733E+01  0.51100000000E-03 0.  1.
         12    1    3    3    0    0 -0.16382213947E+02 -0.20051823813E+02  0.11823362503E+01  0.25920078917E+02  0.00000000000E+00 0. -1.
</event>
<event>
 7    1  0.2756432E-009  0.4778727E+02  0.7816164E-02  0.1312668E+00
        -11   -1    0    0    0    0  0.00000000000E+00  0.00000000000E+00  0.45593999997E+02  0.45594000000E+02  0.51100000000E-03 0. -1.
         11   -1    0    0    0    0 -0.00000000000E+00 -0.00000000000E+00 -0.45593999997E+02  0.45594000000E+02  0.51100000000E-03 0.  1.
    9900012    2    1    2    0    0 -0.30244912968E+02  0.52682033750E+01  0.30677590139E+02  0.47787271158E+02  0.20000000518E+02 0.  0.
        -12    1    1    2    0    0  0.30244912968E+02 -0.52682033750E+01 -0.30677590139E+02  0.43400728842E+02  0.00000000000E+00 0.  1.
         11    1    3    3    0    0 -0.91987007675E+01 -0.15591489445E+01  0.35305601566E+00  0.93365780697E+01  0.51100000000E-03 0. -1.
        -11    1    3    3    0    0 -0.35286812044E+00  0.11660498289E+01 -0.10046194675E+00  0.12224078606E+01  0.51100000000E-03 0.  1.
         12    1    3    3    0    0 -0.20693344080E+02  0.56613024907E+01  0.30424996070E+02  0.37228285228E+02  0.00000000000E+00 0. -1.
</event>
<event>
 7    1  0.2756432E-009  0.4778728E+02  0.7816164E-02  0.1312668E+00
        -11   -1    0    0    0    0  0.00000000000E+00  0.00000000000E+00  0.45593999997E+02  0.45594000000E+02  0.51100000000E-03 0. -1.
         11   -1    0    0    0    0 -0.00000000000E+00 -0.00000000000E+00 -0.45593999997E+02  0.45594000000E+02  0.51100000000E-03 0.  1.
    9900012    2    1    2    0    0  0.36276687515E+01 -0.41462375670E+02  0.12301773371E+02  0.47787283360E+02  0.20000056153E+02 0.  0.
        -12    1    1    2    0    0 -0.36276687515E+01  0.41462375670E+02 -0.12301773371E+02  0.43400716640E+02  0.00000000000E+00 0.  1.
         11    1    3    3    0    0  0.64000018571E+01 -0.38327531531E+02  0.13385795904E+02  0.41099139033E+02  0.51100000000E-03 0. -1.
        -11    1    3    3    0    0 -0.79099763693E+00  0.11939370028E+01  0.71267697908E+00  0.15997098380E+01  0.51100000000E-03 0.  1.
         12    1    3    3    0    0 -0.19813354687E+01 -0.43287811420E+01 -0.17966995124E+01  0.50884344893E+01  0.00000000000E+00 0. -1.
</event>
<event>
 7    1  0.2756432E-009  0.4778727E+02  0.7816164E-02  0.1312668E+00
        -11   -1    0    0    0    0  0.00000000000E+00  0.00000000000E+00  0.45593999997E+02  0.45594000000E+02  0.51100000000E-03 0.  1.
         11   -1    0    0    0    0 -0.00000000000E+00 -0.00000000000E+00 -0.45593999997E+02  0.45594000000E+02  0.51100000000E-03 0. -1.
    9900012    2    1    2    0    0 -0.37037708843E+02  0.11125906298E+02 -0.19698882745E+02  0.47787266726E+02  0.19999980313E+02 0.  0.
        -12    1    1    2    0    0  0.37037708843E+02 -0.11125906298E+02  0.19698882745E+02  0.43400733274E+02  0.00000000000E+00 0.  1.
         11    1    3    3    0    0 -0.31796745071E+02  0.16517128699E+02 -0.15322560259E+02  0.38969595721E+02  0.51100000000E-03 0. -1.
        -11    1    3    3    0    0 -0.25373478485E+01 -0.34734207788E+01 -0.20292698595E+01  0.47561247286E+01  0.51100000000E-03 0.  1.
         12    1    3    3    0    0 -0.27036159238E+01 -0.19178016220E+01 -0.23470526262E+01  0.40615462764E+01  0.00000000000E+00 0. -1.
</event>
<event>
 7    1  0.2756432E-009  0.4778727E+02  0.7816164E-02  0.1312668E+00
        -11   -1    0    0    0    0  0.00000000000E+00  0.00000000000E+00  0.45593999997E+02  0.45594000000E+02  0.51100000000E-03 0. -1.
         11   -1    0    0    0    0 -0.00000000000E+00 -0.00000000000E+00 -0.45593999997E+02  0.45594000000E+02  0.51100000000E-03 0.  1.
    9900012    2    1    2    0    0  0.78625598745E+00 -0.28227213023E+02  0.32957996182E+02  0.47787271136E+02  0.20000000419E+02 0.  0.
        -12    1    1    2    0    0 -0.78625598745E+00  0.28227213023E+02 -0.32957996182E+02  0.43400728864E+02  0.00000000000E+00 0.  1.
         11    1    3    3    0    0  0.85754890723E+01 -0.99632563163E+01  0.90133297896E+01  0.15938808093E+02  0.51100000000E-03 0. -1.
        -11    1    3    3    0    0 -0.48178087106E+01 -0.35885362081E+01  0.62553857300E+01  0.86728728678E+01  0.51100000000E-03 0.  1.
         12    1    3    3    0    0 -0.29714243743E+01 -0.14675420499E+02  0.17689280663E+02  0.23175590176E+02  0.00000000000E+00 0. -1.
</event>
<event>
 7    1  0.2756432E-009  0.4778727E+02  0.7816164E-02  0.1312668E+00
        -11   -1    0    0    0    0  0.00000000000E+00  0.00000000000E+00  0.45593999997E+02  0.45594000000E+02  0.51100000000E-03 0.  1.
         11   -1    0    0    0    0 -0.00000000000E+00 -0.00000000000E+00 -0.45593999997E+02  0.45594000000E+02  0.51100000000E-03 0. -1.
    9900012    2    1    2    0    0  0.37273358483E+02 -0.11507615291E+02 -0.19023532538E+02  0.47787271291E+02  0.20000001125E+02 0.  0.
        -12    1    1    2    0    0 -0.37273358483E+02  0.11507615291E+02  0.19023532538E+02  0.43400728709E+02  0.00000000000E+00 0.  1.
         11    1    3    3    0    0  0.93961978851E+01  0.44340742314E+01 -0.15029708199E+01  0.10498022220E+02  0.51100000000E-03 0. -1.
        -11    1    3    3    0    0  0.19095848829E+02 -0.14140533494E+02 -0.14468229127E+02  0.27819701370E+02  0.51100000000E-03 0.  1.
         12    1    3    3    0    0  0.87813117684E+01 -0.18011560281E+01 -0.30523325909E+01  0.94695477008E+01  0.00000000000E+00 0. -1.
</event>
<event>
 7    1  0.2756432E-009  0.4778727E+02  0.7816164E-02  0.1312668E+00
        -11   -1    0    0    0    0  0.00000000000E+00  0.00000000000E+00  0.45593999997E+02  0.45594000000E+02  0.51100000000E-03 0.  1.
         11   -1    0    0    0    0 -0.00000000000E+00 -0.00000000000E+00 -0.45593999997E+02  0.45594000000E+02  0.51100000000E-03 0. -1.
    9900012    2    1    2    0    0  0.96289593487E+01 -0.32055908731E+02 -0.27628342088E+02  0.47787269254E+02  0.19999991837E+02 0.  0.
        -12    1    1    2    0    0 -0.96289593487E+01  0.32055908731E+02  0.27628342088E+02  0.43400730746E+02  0.00000000000E+00 0.  1.
         11    1    3    3    0    0  0.57970540111E+01 -0.16525344628E+02 -0.10679190718E+02  0.20511898131E+02  0.51100000000E-03 0. -1.
        -11    1    3    3    0    0  0.34608433812E+01  0.18210238276E+01 -0.42113582278E+01  0.57470951857E+01  0.51100000000E-03 0.  1.
        -12    1    3    3    0    0  0.37106195636E+00 -0.17351587931E+02 -0.12737793142E+02  0.21528275937E+02  0.00000000000E+00 0.  1.
</event>
<event>
 7    1  0.2756432E-009  0.4778727E+02  0.7816164E-02  0.1312668E+00
        -11   -1    0    0    0    0  0.00000000000E+00  0.00000000000E+00  0.45593999997E+02  0.45594000000E+02  0.51100000000E-03 0.  1.
         11   -1    0    0    0    0 -0.00000000000E+00 -0.00000000000E+00 -0.45593999997E+02  0.45594000000E+02  0.51100000000E-03 0. -1.
    9900012    2    1    2    0    0  0.25896240459E+02  0.11273842236E+02 -0.32953124903E+02  0.47787271555E+02  0.20000002327E+02 0.  0.
        -12    1    1    2    0    0 -0.25896240459E+02 -0.11273842236E+02  0.32953124903E+02  0.43400728445E+02  0.00000000000E+00 0.  1.
         11    1    3    3    0    0  0.71594164456E+01  0.24801101949E+01 -0.86757610795E+01  0.11518551167E+02  0.51100000000E-03 0. -1.
        -11    1    3    3    0    0  0.18994039724E+02  0.10738735681E+02 -0.25796873086E+02  0.33787166947E+02  0.51100000000E-03 0.  1.
        -12    1    3    3    0    0 -0.25721570989E+00 -0.19450036401E+01  0.15195092619E+01  0.24815534406E+01  0.00000000000E+00 0.  1.
</event>
<event>
 7    1  0.2756432E-009  0.4778727E+02  0.7816164E-02  0.1312668E+00
        -11   -1    0    0    0    0  0.00000000000E+00  0.00000000000E+00  0.45593999997E+02  0.45594000000E+02  0.51100000000E-03 0.  1.
         11   -1    0    0    0    0 -0.00000000000E+00 -0.00000000000E+00 -0.45593999997E+02  0.45594000000E+02  0.51100000000E-03 0. -1.
    9900012    2    1    2    0    0  0.14872239368E+02  0.21311428810E+01 -0.40717293442E+02  0.47787271215E+02  0.20000000777E+02 0.  0.
        -12    1    1    2    0    0 -0.14872239368E+02 -0.21311428810E+01  0.40717293442E+02  0.43400728785E+02  0.00000000000E+00 0.  1.
         11    1    3    3    0    0  0.63779305135E+01  0.67212075784E+01 -0.26396890550E+02  0.27975854945E+02  0.51100000000E-03 0. -1.
        -11    1    3    3    0    0  0.93033205782E+01 -0.35597492586E+01 -0.15243014669E+02  0.18209148389E+02  0.51100000000E-03 0.  1.
         12    1    3    3    0    0 -0.80901172337E+00 -0.10303154388E+01  0.92261177684E+00  0.16022678811E+01  0.00000000000E+00 0. -1.
</event>
<event>
 7    1  0.2756432E-009  0.4778727E+02  0.7816164E-02  0.1312668E+00
        -11   -1    0    0    0    0  0.00000000000E+00  0.00000000000E+00  0.45593999997E+02  0.45594000000E+02  0.51100000000E-03 0. -1.
         11   -1    0    0    0    0 -0.00000000000E+00 -0.00000000000E+00 -0.45593999997E+02  0.45594000000E+02  0.51100000000E-03 0.  1.
    9900012    2    1    2    0    0 -0.82083628701E+01  0.42441079613E+02  0.38731363899E+01  0.47787266766E+02  0.19999980494E+02 0.  0.
        -12    1    1    2    0    0  0.82083628701E+01 -0.42441079613E+02 -0.38731363899E+01  0.43400733234E+02  0.00000000000E+00 0.  1.
         11    1    3    3    0    0 -0.12289934897E+02  0.35377119709E+02  0.54105442814E+01  0.37839887531E+02  0.51100000000E-03 0. -1.
        -11    1    3    3    0    0  0.40991693679E+01  0.46409323942E+01  0.11832824070E+01  0.63040939484E+01  0.51100000000E-03 0.  1.
        -12    1    3    3    0    0 -0.17597340783E-01  0.24230275102E+01 -0.27206902986E+01  0.36432852870E+01  0.00000000000E+00 0.  1.
</event>
<event>
 7    1  0.2756432E-009  0.4778728E+02  0.7816164E-02  0.1312668E+00
        -11   -1    0    0    0    0  0.00000000000E+00  0.00000000000E+00  0.45593999997E+02  0.45594000000E+02  0.51100000000E-03 0.  1.
         11   -1    0    0    0    0 -0.00000000000E+00 -0.00000000000E+00 -0.45593999997E+02  0.45594000000E+02  0.51100000000E-03 0. -1.
    9900012    2    1    2    0    0  0.21610545431E+02  0.13702080346E+01 -0.37612892584E+02  0.47787276130E+02  0.20000023187E+02 0.  0.
        -12    1    1    2    0    0 -0.21610545431E+02 -0.13702080346E+01  0.37612892584E+02  0.43400723870E+02  0.00000000000E+00 0.  1.
         11    1    3    3    0    0  0.19875412353E+02 -0.26114856396E+01 -0.24994918464E+02  0.32040565269E+02  0.51100000000E-03 0. -1.
        -11    1    3    3    0    0 -0.95442521089E+00 -0.39995054973E+00 -0.98566716408E+01  0.99108457773E+01  0.51100000000E-03 0.  1.
         12    1    3    3    0    0  0.26895582888E+01  0.43816442240E+01 -0.27613024798E+01  0.58358650841E+01  0.00000000000E+00 0. -1.
</event>
<event>
 7    1  0.2756432E-009  0.4778727E+02  0.7816164E-02  0.1312668E+00
        -11   -1    0    0    0    0  0.00000000000E+00  0.00000000000E+00  0.45593999997E+02  0.45594000000E+02  0.51100000000E-03 0.  1.
         11   -1    0    0    0    0 -0.00000000000E+00 -0.00000000000E+00 -0.45593999997E+02  0.45594000000E+02  0.51100000000E-03 0. -1.
    9900012    2    1    2    0    0  0.17799420645E+02 -0.27483228434E+02 -0.28486414934E+02  0.47787273551E+02  0.20000011430E+02 0.  0.
        -12    1    1    2    0    0 -0.17799420645E+02  0.27483228434E+02  0.28486414934E+02  0.43400726449E+02  0.00000000000E+00 0.  1.
         11    1    3    3    0    0  0.10046509985E+02 -0.33744897405E+01 -0.88676248994E+01  0.13818622055E+02  0.51100000000E-03 0. -1.
        -11    1    3    3    0    0 -0.54239194643E+00 -0.98737934474E+01 -0.24797141907E+01  0.10194850111E+02  0.51100000000E-03 0.  1.
        -12    1    3    3    0    0  0.82953026064E+01 -0.14234945246E+02 -0.17139075844E+02  0.23773801385E+02  0.00000000000E+00 0.  1.
</event>
<event>
 7    1  0.2756432E-009  0.4778727E+02  0.7816164E-02  0.1312668E+00
        -11   -1    0    0    0    0  0.00000000000E+00  0.00000000000E+00  0.45593999997E+02  0.45594000000E+02  0.51100000000E-03 0.  1.
         11   -1    0    0    0    0 -0.00000000000E+00 -0.00000000000E+00 -0.45593999997E+02  0.45594000000E+02  0.51100000000E-03 0. -1.
    9900012    2    1    2    0    0  0.40681698600E+01 -0.32146916241E+02 -0.28872985887E+02  0.47787267935E+02  0.19999985821E+02 0.  0.
        -12    1    1    2    0    0 -0.40681698600E+01  0.32146916241E+02  0.28872985887E+02  0.43400732065E+02  0.00000000000E+00 0.  1.
         11    1    3    3    0    0 -0.25904175525E+01 -0.13163251548E+02 -0.17522647520E+02  0.22068634547E+02  0.51100000000E-03 0. -1.
        -11    1    3    3    0    0  0.75915882192E+01 -0.98517581916E+01 -0.19670488959E+01  0.12592006702E+02  0.51100000000E-03 0.  1.
        -12    1    3    3    0    0 -0.93300080664E+00 -0.91319065014E+01 -0.93832894714E+01  0.13126626686E+02  0.00000000000E+00 0.  1.
</event>
<event>
 7    1  0.2756432E-009  0.4778727E+02  0.7816164E-02  0.1312668E+00
        -11   -1    0    0    0    0  0.00000000000E+00  0.00000000000E+00  0.45593999997E+02  0.45594000000E+02  0.51100000000E-03 0.  1.
         11   -1    0    0    0    0 -0.00000000000E+00 -0.00000000000E+00 -0.45593999997E+02  0.45594000000E+02  0.51100000000E-03 0. -1.
    9900012    2    1    2    0    0  0.11538554287E+02 -0.26531012647E+02 -0.32351054819E+02  0.47787267114E+02  0.19999982080E+02 0.  0.
        -12    1    1    2    0    0 -0.11538554287E+02  0.26531012647E+02  0.32351054819E+02  0.43400732886E+02  0.00000000000E+00 0.  1.
         11    1    3    3    0    0  0.12929453721E+02 -0.90256814995E+01 -0.11067705352E+02  0.19264677575E+02  0.51100000000E-03 0. -1.
        -11    1    3    3    0    0  0.80224009202E+00 -0.34306301006E+01 -0.86728810044E+00  0.36283606439E+01  0.51100000000E-03 0.  1.
         12    1    3    3    0    0 -0.21931395255E+01 -0.14074701047E+02 -0.20416061367E+02  0.24894228895E+02  0.00000000000E+00 0. -1.
</event>
<event>
 7    1  0.2756432E-009  0.4778728E+02  0.7816164E-02  0.1312668E+00
        -11   -1    0    0    0    0  0.00000000000E+00  0.00000000000E+00  0.45593999997E+02  0.45594000000E+02  0.51100000000E-03 0. -1.
         11   -1    0    0    0    0 -0.00000000000E+00 -0.00000000000E+00 -0.45593999997E+02  0.45594000000E+02  0.51100000000E-03 0.  1.
    9900012    2    1    2    0    0  0.83738994330E+01 -0.15269117859E+02  0.39753671972E+02  0.47787278956E+02  0.20000036072E+02 0.  0.
        -12    1    1    2    0    0 -0.83738994330E+01  0.15269117859E+02 -0.39753671972E+02  0.43400721044E+02  0.00000000000E+00 0.  1.
         11    1    3    3    0    0  0.91048737765E+00  0.25435197745E+01  0.80550834490E+01  0.84960490665E+01  0.51100000000E-03 0. -1.
        -11    1    3    3    0    0  0.74980487093E+01 -0.19109998961E+02  0.24439834394E+02  0.31917366749E+02  0.51100000000E-03 0.  1.
        -12    1    3    3    0    0 -0.34636653943E-01  0.12973613273E+01  0.72587541285E+01  0.73738631401E+01  0.00000000000E+00 0.  1.
</event>
<event>
 7    1  0.2756432E-009  0.4778727E+02  0.7816164E-02  0.1312668E+00
        -11   -1    0    0    0    0  0.00000000000E+00  0.00000000000E+00  0.45593999997E+02  0.45594000000E+02  0.51100000000E-03 0.  1.
         11   -1    0    0    0    0 -0.00000000000E+00 -0.00000000000E+00 -0.45593999997E+02  0.45594000000E+02  0.51100000000E-03 0. -1.
    9900012    2    1    2    0    0 -0.11519329012E+02 -0.11209205561E+02 -0.40314789072E+02  0.47787269037E+02  0.19999990849E+02 0.  0.
        -12    1    1    2    0    0  0.11519329012E+02  0.11209205561E+02  0.40314789072E+02  0.43400730963E+02  0.00000000000E+00 0.  1.
         11    1    3    3    0    0  0.23976913529E+01 -0.58074015923E+01 -0.17588754609E+02  0.18677235503E+02  0.51100000000E-03 0. -1.
        -11    1    3    3    0    0 -0.98724089101E+01 -0.47522935421E+01 -0.73400664456E+01  0.13188075193E+02  0.51100000000E-03 0.  1.
         12    1    3    3    0    0 -0.40446114547E+01 -0.64951042689E+00 -0.15385968017E+02  0.15921958341E+02  0.00000000000E+00 0. -1.
</event>
<event>
 7    1  0.2756432E-009  0.4778727E+02  0.7816164E-02  0.1312668E+00
        -11   -1    0    0    0    0  0.00000000000E+00  0.00000000000E+00  0.45593999997E+02  0.45594000000E+02  0.51100000000E-03 0.  1.
         11   -1    0    0    0    0 -0.00000000000E+00 -0.00000000000E+00 -0.45593999997E+02  0.45594000000E+02  0.51100000000E-03 0. -1.
    9900012    2    1    2    0    0 -0.12611063485E+02  0.79596348432E+01 -0.40758169535E+02  0.47787273130E+02  0.20000009508E+02 0.  0.
        -12    1    1    2    0    0  0.12611063485E+02 -0.79596348432E+01  0.40758169535E+02  0.43400726870E+02  0.00000000000E+00 0.  1.
         11    1    3    3    0    0  0.36136297905E+01  0.36868325754E+01 -0.15584911499E+02  0.16417689283E+02  0.51100000000E-03 0. -1.
        -11    1    3    3    0    0 -0.89443572949E+01  0.31319646468E+01 -0.70687649408E+01  0.11822781738E+02  0.51100000000E-03 0.  1.
        -12    1    3    3    0    0 -0.72803359805E+01  0.11408376209E+01 -0.18104493095E+02  0.19546802109E+02  0.00000000000E+00 0.  1.
</event>
<event>
 7    1  0.2756432E-009  0.4778727E+02  0.7816164E-02  0.1312668E+00
        -11   -1    0    0    0    0  0.00000000000E+00  0.00000000000E+00  0.45593999997E+02  0.45594000000E+02  0.51100000000E-03 0.  1.
         11   -1    0    0    0    0 -0.00000000000E+00 -0.00000000000E+00 -0.45593999997E+02  0.45594000000E+02  0.51100000000E-03 0. -1.
    9900012    2    1    2    0    0 -0.37293691530E+02  0.21365877146E+02  0.60252110316E+01  0.47787270719E+02  0.19999998518E+02 0.  0.
        -12    1    1    2    0    0  0.37293691530E+02 -0.21365877146E+02 -0.60252110316E+01  0.43400729281E+02  0.00000000000E+00 0.  1.
         11    1    3    3    0    0 -0.23000025900E+02  0.11193332415E+02  0.82647752364E+01  0.26881190300E+02  0.51100000000E-03 0. -1.
        -11    1    3    3    0    0 -0.60268684378E+01  0.96440772448E+01 -0.46385873548E+01  0.12282013759E+02  0.51100000000E-03 0.  1.
         12    1    3    3    0    0 -0.82667971914E+01  0.52846748562E+00  0.23990231500E+01  0.86240666603E+01  0.00000000000E+00 0. -1.
</event>
<event>
 7    1  0.2756432E-009  0.4778728E+02  0.7816164E-02  0.1312668E+00
        -11   -1    0    0    0    0  0.00000000000E+00  0.00000000000E+00  0.45593999997E+02  0.45594000000E+02  0.51100000000E-03 0. -1.
         11   -1    0    0    0    0 -0.00000000000E+00 -0.00000000000E+00 -0.45593999997E+02  0.45594000000E+02  0.51100000000E-03 0.  1.
    9900012    2    1    2    0    0  0.35307509456E+02  0.22655858172E+02  0.11122682695E+02  0.47787283372E+02  0.20000056207E+02 0.  0.
        -12    1    1    2    0    0 -0.35307509456E+02 -0.22655858172E+02 -0.11122682695E+02  0.43400716628E+02  0.00000000000E+00 0.  1.
         11    1    3    3    0    0  0.89870995190E+01  0.13672730220E+02 -0.14660235001E+01  0.16427438467E+02  0.51100000000E-03 0.  1.
        -11    1    3    3    0    0  0.22608870675E+02  0.80194103686E+01  0.13345432921E+02  0.27451276035E+02  0.51100000000E-03 0. -1.
         12    1    3    3    0    0  0.37115392621E+01  0.96371758424E+00 -0.75672672619E+00  0.39085688704E+01  0.00000000000E+00 0. -1.
</event>
<event>
 7    1  0.2756432E-009  0.4778727E+02  0.7816164E-02  0.1312668E+00
        -11   -1    0    0    0    0  0.00000000000E+00  0.00000000000E+00  0.45593999997E+02  0.45594000000E+02  0.51100000000E-03 0.  1.
         11   -1    0    0    0    0 -0.00000000000E+00 -0.00000000000E+00 -0.45593999997E+02  0.45594000000E+02  0.51100000000E-03 0. -1.
    9900012    2    1    2    0    0 -0.26046508339E+02 -0.19519978179E+02  0.28708419693E+02  0.47787268370E+02  0.19999987805E+02 0.  0.
        -12    1    1    2    0    0  0.26046508339E+02  0.19519978179E+02 -0.28708419693E+02  0.43400731630E+02  0.00000000000E+00 0.  1.
         11    1    3    3    0    0 -0.14277285940E+02 -0.85925413639E+01  0.48474632629E+01  0.17354266370E+02  0.51100000000E-03 0. -1.
        -11    1    3    3    0    0 -0.11207575265E+02 -0.41886124745E+01  0.17104612526E+02  0.20873954769E+02  0.51100000000E-03 0.  1.
         12    1    3    3    0    0 -0.56164713400E+00 -0.67388243401E+01  0.67563439050E+01  0.95590472304E+01  0.00000000000E+00 0. -1.
</event>
<event>
 7    1  0.2756432E-009  0.4778727E+02  0.7816164E-02  0.1312668E+00
        -11   -1    0    0    0    0  0.00000000000E+00  0.00000000000E+00  0.45593999997E+02  0.45594000000E+02  0.51100000000E-03 0. -1.
         11   -1    0    0    0    0 -0.00000000000E+00 -0.00000000000E+00 -0.45593999997E+02  0.45594000000E+02  0.51100000000E-03 0.  1.
    9900012    2    1    2    0    0 -0.15902212857E+01 -0.26541997753E+02  0.34301844486E+02  0.47787274389E+02  0.20000015247E+02 0.  0.
        -12    1    1    2    0    0  0.15902212857E+01  0.26541997753E+02 -0.34301844486E+02  0.43400725611E+02  0.00000000000E+00 0.  1.
         11    1    3    3    0    0 -0.28193990400E+01 -0.12281897475E+02  0.16006501819E+02  0.20371600754E+02  0.51100000000E-03 0. -1.
        -11    1    3    3    0    0  0.67217792961E+01 -0.21168833322E+01  0.54915793263E+01  0.89342574233E+01  0.51100000000E-03 0.  1.
        -12    1    3    3    0    0 -0.54926015419E+01 -0.12143216946E+02  0.12803763341E+02  0.18481416212E+02  0.00000000000E+00 0.  1.
</event>
<event>
 7    1  0.2756432E-009  0.4778727E+02  0.7816164E-02  0.1312668E+00
        -11   -1    0    0    0    0  0.00000000000E+00  0.00000000000E+00  0.45593999997E+02  0.45594000000E+02  0.51100000000E-03 0. -1.
         11   -1    0    0    0    0 -0.00000000000E+00 -0.00000000000E+00 -0.45593999997E+02  0.45594000000E+02  0.51100000000E-03 0.  1.
    9900012    2    1    2    0    0 -0.25441061035E+02  0.90662084070E+01  0.33973216012E+02  0.47787272729E+02  0.20000007682E+02 0.  0.
        -12    1    1    2    0    0  0.25441061035E+02 -0.90662084070E+01 -0.33973216012E+02  0.43400727271E+02  0.00000000000E+00 0.  1.
         11    1    3    3    0    0 -0.21850064931E+02  0.38830648810E+01  0.30293867043E+02  0.37552921471E+02  0.51100000000E-03 0. -1.
        -11    1    3    3    0    0 -0.32532955400E+01  0.19984976076E+01 -0.15349758633E+01  0.41151033669E+01  0.51100000000E-03 0.  1.
        -12    1    3    3    0    0 -0.33770056356E+00  0.31846459185E+01  0.52143248323E+01  0.61192478912E+01  0.00000000000E+00 0.  1.
</event>
<event>
 7    1  0.2756432E-009  0.4778727E+02  0.7816164E-02  0.1312668E+00
        -11   -1    0    0    0    0  0.00000000000E+00  0.00000000000E+00  0.45593999997E+02  0.45594000000E+02  0.51100000000E-03 0.  1.
         11   -1    0    0    0    0 -0.00000000000E+00 -0.00000000000E+00 -0.45593999997E+02  0.45594000000E+02  0.51100000000E-03 0. -1.
    9900012    2    1    2    0    0  0.38057311792E+01 -0.42900758771E+02  0.53539608868E+01  0.47787267401E+02  0.19999983388E+02 0.  0.
        -12    1    1    2    0    0 -0.38057311792E+01  0.42900758771E+02 -0.53539608868E+01  0.43400732599E+02  0.00000000000E+00 0.  1.
         11    1    3    3    0    0 -0.50916718444E+01 -0.67882274473E+01 -0.10345247555E+01  0.85484148109E+01  0.51100000000E-03 0. -1.
        -11    1    3    3    0    0  0.76145297252E+01 -0.17835568928E+02 -0.11491281229E+01  0.19427019267E+02  0.51100000000E-03 0.  1.
        -12    1    3    3    0    0  0.12828732984E+01 -0.18276962396E+02  0.75376137652E+01  0.19811833323E+02  0.00000000000E+00 0.  1.
</event>
<event>
 7    1  0.2756432E-009  0.4778728E+02  0.7816164E-02  0.1312668E+00
        -11   -1    0    0    0    0  0.00000000000E+00  0.00000000000E+00  0.45593999997E+02  0.45594000000E+02  0.51100000000E-03 0.  1.
         11   -1    0    0    0    0 -0.00000000000E+00 -0.00000000000E+00 -0.45593999997E+02  0.45594000000E+02  0.51100000000E-03 0. -1.
    9900012    2    1    2    0    0 -0.37324418398E+02 -0.16378132541E+02 -0.14908609309E+02  0.47787284962E+02  0.20000063456E+02 0.  0.
        -12    1    1    2    0    0  0.37324418398E+02  0.16378132541E+02  0.14908609309E+02  0.43400715038E+02  0.00000000000E+00 0.  1.
         11    1    3    3    0    0 -0.55973854520E+01 -0.48276824795E+01 -0.69599666282E+01  0.10152752225E+02  0.51100000000E-03 0. -1.
        -11    1    3    3    0    0 -0.17206049966E+02 -0.52721376272E-01  0.64064799300E+00  0.17218053464E+02  0.51100000000E-03 0.  1.
        -12    1    3    3    0    0 -0.14520982980E+02 -0.11497728685E+02 -0.85892906742E+01  0.20416479273E+02  0.00000000000E+00 0.  1.
</event>
<event>
 7    1  0.2756432E-009  0.4778727E+02  0.7816164E-02  0.1312668E+00
        -11   -1    0    0    0    0  0.00000000000E+00  0.00000000000E+00  0.45593999997E+02  0.45594000000E+02  0.51100000000E-03 0.  1.
         11   -1    0    0    0    0 -0.00000000000E+00 -0.00000000000E+00 -0.45593999997E+02  0.45594000000E+02  0.51100000000E-03 0. -1.
    9900012    2    1    2    0    0  0.30075030397E+02  0.24182090322E+02 -0.19858053852E+02  0.47787271336E+02  0.20000001331E+02 0.  0.
        -12    1    1    2    0    0 -0.30075030397E+02 -0.24182090322E+02  0.19858053852E+02  0.43400728664E+02  0.00000000000E+00 0.  1.
         11    1    3    3    0    0  0.27673004555E+01  0.40709218813E+01  0.18806062268E+01  0.52694436913E+01  0.51100000000E-03 0. -1.
        -11    1    3    3    0    0  0.11179265887E+02  0.39491492222E+01 -0.13974409738E+01  0.11938367011E+02  0.51100000000E-03 0.  1.
         12    1    3    3    0    0  0.16128464055E+02  0.16162019218E+02 -0.20341219105E+02  0.30579460634E+02  0.00000000000E+00 0. -1.
</event>
<event>
 7    1  0.2756432E-009  0.4778725E+02  0.7816164E-02  0.1312668E+00
        -11   -1    0    0    0    0  0.00000000000E+00  0.00000000000E+00  0.45593999997E+02  0.45594000000E+02  0.51100000000E-03 0.  1.
         11   -1    0    0    0    0 -0.00000000000E+00 -0.00000000000E+00 -0.45593999997E+02  0.45594000000E+02  0.51100000000E-03 0. -1.
    9900012    2    1    2    0    0 -0.40441767272E+02 -0.15359660855E+02 -0.34884747823E+01  0.47787249108E+02  0.19999899984E+02 0.  0.
        -12    1    1    2    0    0  0.40441767272E+02  0.15359660855E+02  0.34884747823E+01  0.43400750892E+02  0.00000000000E+00 0.  1.
         11    1    3    3    0    0 -0.29568210974E+02 -0.18543152561E+02 -0.25068223291E+01  0.34991595641E+02  0.51100000000E-03 0. -1.
        -11    1    3    3    0    0 -0.28353146547E+01  0.13059706672E+01  0.23363983892E+01  0.38991442995E+01  0.51100000000E-03 0.  1.
         12    1    3    3    0    0 -0.80382416437E+01  0.18775210387E+01 -0.33180508423E+01  0.88965091674E+01  0.00000000000E+00 0. -1.
</event>
<event>
 7    1  0.2756432E-009  0.4778726E+02  0.7816164E-02  0.1312668E+00
        -11   -1    0    0    0    0  0.00000000000E+00  0.00000000000E+00  0.45593999997E+02  0.45594000000E+02  0.51100000000E-03 0.  1.
         11   -1    0    0    0    0 -0.00000000000E+00 -0.00000000000E+00 -0.45593999997E+02  0.45594000000E+02  0.51100000000E-03 0. -1.
    9900012    2    1    2    0    0  0.32103411663E+02  0.28191581952E+02 -0.76308239736E+01  0.47787264892E+02  0.19999971948E+02 0.  0.
        -12    1    1    2    0    0 -0.32103411663E+02 -0.28191581952E+02  0.76308239736E+01  0.43400735108E+02  0.00000000000E+00 0.  1.
         11    1    3    3    0    0  0.44516569131E+00  0.77575374802E+01 -0.39223600648E+01  0.87041638880E+01  0.51100000000E-03 0. -1.
        -11    1    3    3    0    0  0.11431738959E+02  0.22577887872E+01 -0.21148138338E+01  0.11842917869E+02  0.51100000000E-03 0.  1.
         12    1    3    3    0    0  0.20226507013E+02  0.18176255685E+02 -0.15936500750E+01  0.27240183135E+02  0.00000000000E+00 0. -1.
</event>
<event>
 7    1  0.2756432E-009  0.4778726E+02  0.7816164E-02  0.1312668E+00
        -11   -1    0    0    0    0  0.00000000000E+00  0.00000000000E+00  0.45593999997E+02  0.45594000000E+02  0.51100000000E-03 0. -1.
         11   -1    0    0    0    0 -0.00000000000E+00 -0.00000000000E+00 -0.45593999997E+02  0.45594000000E+02  0.51100000000E-03 0.  1.
    9900012    2    1    2    0    0  0.35956110781E+02 -0.96034613923E+01  0.22328362023E+02  0.47787261252E+02  0.19999955352E+02 0.  0.
        -12    1    1    2    0    0 -0.35956110781E+02  0.96034613923E+01 -0.22328362023E+02  0.43400738748E+02  0.00000000000E+00 0.  1.
         11    1    3    3    0    0  0.11203505833E+02 -0.64678753796E+00  0.15075078116E+02  0.18793479123E+02  0.51100000000E-03 0. -1.
        -11    1    3    3    0    0  0.17604917860E+02 -0.10745487440E+02  0.62897523483E+01  0.21562922298E+02  0.51100000000E-03 0.  1.
         12    1    3    3    0    0  0.71476870890E+01  0.17888135856E+01  0.96353155835E+00  0.74308598311E+01  0.00000000000E+00 0. -1.
</event>
<event>
 7    1  0.2756432E-009  0.4778727E+02  0.7816164E-02  0.1312668E+00
        -11   -1    0    0    0    0  0.00000000000E+00  0.00000000000E+00  0.45593999997E+02  0.45594000000E+02  0.51100000000E-03 0.  1.
         11   -1    0    0    0    0 -0.00000000000E+00 -0.00000000000E+00 -0.45593999997E+02  0.45594000000E+02  0.51100000000E-03 0. -1.
    9900012    2    1    2    0    0 -0.27093942766E+02  0.25889574689E+02 -0.21892268380E+02  0.47787271585E+02  0.20000002463E+02 0.  0.
        -12    1    1    2    0    0  0.27093942766E+02 -0.25889574689E+02  0.21892268380E+02  0.43400728415E+02  0.00000000000E+00 0.  1.
         11    1    3    3    0    0 -0.11962785575E+02  0.11991085258E+01 -0.70046618623E+01  0.13914430927E+02  0.51100000000E-03 0. -1.
        -11    1    3    3    0    0 -0.37308540366E+01  0.11627493256E+01 -0.38766738476E+01  0.55045306992E+01  0.51100000000E-03 0.  1.
         12    1    3    3    0    0 -0.11400303154E+02  0.23527716838E+02 -0.11010932670E+02  0.28368309958E+02  0.00000000000E+00 0. -1.
</event>
<event>
 7    1  0.2756432E-009  0.4778727E+02  0.7816164E-02  0.1312668E+00
        -11   -1    0    0    0    0  0.00000000000E+00  0.00000000000E+00  0.45593999997E+02  0.45594000000E+02  0.51100000000E-03 0.  1.
         11   -1    0    0    0    0 -0.00000000000E+00 -0.00000000000E+00 -0.45593999997E+02  0.45594000000E+02  0.51100000000E-03 0. -1.
    9900012    2    1    2    0    0 -0.78923544187E+01  0.38852703640E+02 -0.17657891001E+02  0.47787274741E+02  0.20000016855E+02 0.  0.
        -12    1    1    2    0    0  0.78923544187E+01 -0.38852703640E+02  0.17657891001E+02  0.43400725259E+02  0.00000000000E+00 0.  1.
         11    1    3    3    0    0 -0.50073566925E+01  0.10431825880E+02 -0.14376418575E+02  0.18454756122E+02  0.51100000000E-03 0. -1.
        -11    1    3    3    0    0 -0.86995911344E+00  0.17834016958E+02  0.63367825206E+00  0.17866464062E+02  0.51100000000E-03 0.  1.
         12    1    3    3    0    0 -0.20150386128E+01  0.10586860802E+02 -0.39151506782E+01  0.11466054557E+02  0.00000000000E+00 0. -1.
</event>
<event>
 7    1  0.2756432E-009  0.4778724E+02  0.7816164E-02  0.1312668E+00
        -11   -1    0    0    0    0  0.00000000000E+00  0.00000000000E+00  0.45593999997E+02  0.45594000000E+02  0.51100000000E-03 0.  1.
         11   -1    0    0    0    0 -0.00000000000E+00 -0.00000000000E+00 -0.45593999997E+02  0.45594000000E+02  0.51100000000E-03 0. -1.
    9900012    2    1    2    0    0  0.34050614053E+02  0.36308679646E+01 -0.26664550992E+02  0.47787241952E+02  0.19999867354E+02 0.  0.
        -12    1    1    2    0    0 -0.34050614053E+02 -0.36308679646E+01  0.26664550992E+02  0.43400758048E+02  0.00000000000E+00 0.  1.
         11    1    3    3    0    0  0.16010888189E+02  0.78889357127E+01 -0.19062305311E+02  0.26114274474E+02  0.51100000000E-03 0. -1.
        -11    1    3    3    0    0  0.17919849540E+02 -0.57336460498E+01 -0.70012596740E+01  0.20075192200E+02  0.51100000000E-03 0.  1.
        -12    1    3    3    0    0  0.11987632347E+00  0.14755783017E+01 -0.60098600698E+00  0.15977752777E+01  0.00000000000E+00 0.  1.
</event>
<event>
 7    1  0.2756432E-009  0.4778727E+02  0.7816164E-02  0.1312668E+00
        -11   -1    0    0    0    0  0.00000000000E+00  0.00000000000E+00  0.45593999997E+02  0.45594000000E+02  0.51100000000E-03 0.  1.
         11   -1    0    0    0    0 -0.00000000000E+00 -0.00000000000E+00 -0.45593999997E+02  0.45594000000E+02  0.51100000000E-03 0. -1.
    9900012    2    1    2    0    0 -0.29414516631E+02  0.19684982658E+02 -0.25117945931E+02  0.47787267994E+02  0.19999986090E+02 0.  0.
        -12    1    1    2    0    0  0.29414516631E+02 -0.19684982658E+02  0.25117945931E+02  0.43400732006E+02  0.00000000000E+00 0.  1.
         11    1    3    3    0    0 -0.15597388908E+02  0.17062705666E+01 -0.11979344719E+02  0.19740683883E+02  0.51100000000E-03 0. -1.
        -11    1    3    3    0    0 -0.14266847665E+02  0.18323532233E+02 -0.10747290015E+02  0.25589040988E+02  0.51100000000E-03 0.  1.
        -12    1    3    3    0    0  0.44971994181E+00 -0.34482014172E+00 -0.23913111972E+01  0.24575431223E+01  0.00000000000E+00 0.  1.
</event>
<event>
 7    1  0.2756432E-009  0.4778727E+02  0.7816164E-02  0.1312668E+00
        -11   -1    0    0    0    0  0.00000000000E+00  0.00000000000E+00  0.45593999997E+02  0.45594000000E+02  0.51100000000E-03 0. -1.
         11   -1    0    0    0    0 -0.00000000000E+00 -0.00000000000E+00 -0.45593999997E+02  0.45594000000E+02  0.51100000000E-03 0.  1.
    9900012    2    1    2    0    0 -0.12600310203E+02  0.21959347580E+02  0.35251133815E+02  0.47787271912E+02  0.20000003955E+02 0.  0.
        -12    1    1    2    0    0  0.12600310203E+02 -0.21959347580E+02 -0.35251133815E+02  0.43400728088E+02  0.00000000000E+00 0.  1.
         11    1    3    3    0    0 -0.14743287386E+02  0.12201183903E+02  0.23279455929E+02  0.30135800639E+02  0.51100000000E-03 0. -1.
        -11    1    3    3    0    0 -0.96820806058E+00 -0.11831084327E+01  0.88053308621E+00  0.17642310476E+01  0.51100000000E-03 0.  1.
         12    1    3    3    0    0  0.31111852432E+01  0.10941272110E+02  0.11091144800E+02  0.15887240225E+02  0.00000000000E+00 0. -1.
</event>
<event>
 7    1  0.2756432E-009  0.4778727E+02  0.7816164E-02  0.1312668E+00
        -11   -1    0    0    0    0  0.00000000000E+00  0.00000000000E+00  0.45593999997E+02  0.45594000000E+02  0.51100000000E-03 0.  1.
         11   -1    0    0    0    0 -0.00000000000E+00 -0.00000000000E+00 -0.45593999997E+02  0.45594000000E+02  0.51100000000E-03 0. -1.
    9900012    2    1    2    0    0 -0.27029797530E+02 -0.97786885953E+01 -0.32517542221E+02  0.47787271236E+02  0.20000000873E+02 0.  0.
        -12    1    1    2    0    0  0.27029797530E+02  0.97786885953E+01  0.32517542221E+02  0.43400728764E+02  0.00000000000E+00 0.  1.
         11    1    3    3    0    0 -0.25128359807E+02 -0.99872167214E+01 -0.17400327037E+02  0.32155098285E+02  0.51100000000E-03 0.  1.
        -11    1    3    3    0    0 -0.24777226958E+01  0.25619101231E+00 -0.14723235429E+02  0.14932461463E+02  0.51100000000E-03 0. -1.
        -12    1    3    3    0    0  0.57628497216E+00 -0.47662886196E-01 -0.39397975445E+00  0.69971148824E+00  0.00000000000E+00 0.  1.
</event>
<event>
 7    1  0.2756432E-009  0.4778727E+02  0.7816164E-02  0.1312668E+00
        -11   -1    0    0    0    0  0.00000000000E+00  0.00000000000E+00  0.45593999997E+02  0.45594000000E+02  0.51100000000E-03 0.  1.
         11   -1    0    0    0    0 -0.00000000000E+00 -0.00000000000E+00 -0.45593999997E+02  0.45594000000E+02  0.51100000000E-03 0. -1.
    9900012    2    1    2    0    0  0.16850565450E+02  0.39816284424E+02 -0.37875040705E+01  0.47787271338E+02  0.20000001339E+02 0.  0.
        -12    1    1    2    0    0 -0.16850565450E+02 -0.39816284424E+02  0.37875040705E+01  0.43400728662E+02  0.00000000000E+00 0.  1.
         11    1    3    3    0    0  0.14498190399E+02  0.15946128335E+02 -0.39188747292E+01  0.21905116140E+02  0.51100000000E-03 0.  1.
        -11    1    3    3    0    0 -0.20489516897E+01  0.19483711264E+02  0.95217834093E+00  0.19614276726E+02  0.51100000000E-03 0. -1.
         12    1    3    3    0    0  0.44013267409E+01  0.43864448256E+01 -0.82080768221E+00  0.62678784720E+01  0.00000000000E+00 0. -1.
</event>
<event>
 7    1  0.2756432E-009  0.4778727E+02  0.7816164E-02  0.1312668E+00
        -11   -1    0    0    0    0  0.00000000000E+00  0.00000000000E+00  0.45593999997E+02  0.45594000000E+02  0.51100000000E-03 0. -1.
         11   -1    0    0    0    0 -0.00000000000E+00 -0.00000000000E+00 -0.45593999997E+02  0.45594000000E+02  0.51100000000E-03 0.  1.
    9900012    2    1    2    0    0  0.45431966930E+01  0.10182833425E+02  0.41943922779E+02  0.47787269697E+02  0.19999993856E+02 0.  0.
        -12    1    1    2    0    0 -0.45431966930E+01 -0.10182833425E+02 -0.41943922779E+02  0.43400730303E+02  0.00000000000E+00 0.  1.
         11    1    3    3    0    0  0.24637254684E+01  0.11877169857E+02  0.21712413092E+02  0.24870986903E+02  0.51100000000E-03 0. -1.
        -11    1    3    3    0    0  0.53740764427E+01 -0.28573976259E+01  0.17352721372E+02  0.18389191338E+02  0.51100000000E-03 0.  1.
        -12    1    3    3    0    0 -0.32946052181E+01  0.11630611934E+01  0.28787883155E+01  0.45270914557E+01  0.00000000000E+00 0.  1.
</event>
<event>
 7    1  0.2756432E-009  0.4778727E+02  0.7816164E-02  0.1312668E+00
        -11   -1    0    0    0    0  0.00000000000E+00  0.00000000000E+00  0.45593999997E+02  0.45594000000E+02  0.51100000000E-03 0. -1.
         11   -1    0    0    0    0 -0.00000000000E+00 -0.00000000000E+00 -0.45593999997E+02  0.45594000000E+02  0.51100000000E-03 0.  1.
    9900012    2    1    2    0    0 -0.26006206856E+02  0.19734669996E+02  0.28597958704E+02  0.47787271470E+02  0.20000001939E+02 0.  0.
        -12    1    1    2    0    0  0.26006206856E+02 -0.19734669996E+02 -0.28597958704E+02  0.43400728530E+02  0.00000000000E+00 0.  1.
         11    1    3    3    0    0  0.28272918681E+01  0.46677793269E+01  0.42584902152E+01  0.69221732372E+01  0.51100000000E-03 0. -1.
        -11    1    3    3    0    0 -0.54193015553E+00  0.76368117348E+00  0.67930613947E-01  0.93888873550E+00  0.51100000000E-03 0.  1.
         12    1    3    3    0    0 -0.28291568569E+02  0.14303209495E+02  0.24271537875E+02  0.39926209497E+02  0.00000000000E+00 0. -1.
</event>
<event>
 7    1  0.2756432E-009  0.4778727E+02  0.7816164E-02  0.1312668E+00
        -11   -1    0    0    0    0  0.00000000000E+00  0.00000000000E+00  0.45593999997E+02  0.45594000000E+02  0.51100000000E-03 0.  1.
         11   -1    0    0    0    0 -0.00000000000E+00 -0.00000000000E+00 -0.45593999997E+02  0.45594000000E+02  0.51100000000E-03 0. -1.
    9900012    2    1    2    0    0 -0.41813878191E+02  0.52733747642E+01 -0.10364114177E+02  0.47787265520E+02  0.19999974810E+02 0.  0.
        -12    1    1    2    0    0  0.41813878191E+02 -0.52733747642E+01  0.10364114177E+02  0.43400734480E+02  0.00000000000E+00 0.  1.
         11    1    3    3    0    0 -0.17634609396E+02  0.85742188428E+01  0.29396940510E+01  0.19827719957E+02  0.51100000000E-03 0. -1.
        -11    1    3    3    0    0 -0.79446924202E+01 -0.25165755909E+01 -0.47577462481E+01  0.95962200881E+01  0.51100000000E-03 0.  1.
         12    1    3    3    0    0 -0.16234576375E+02 -0.78426848769E+00 -0.85460619801E+01  0.18363325475E+02  0.00000000000E+00 0. -1.
</event>
<event>
 7    1  0.2756432E-009  0.4778729E+02  0.7816164E-02  0.1312668E+00
        -11   -1    0    0    0    0  0.00000000000E+00  0.00000000000E+00  0.45593999997E+02  0.45594000000E+02  0.51100000000E-03 0.  1.
         11   -1    0    0    0    0 -0.00000000000E+00 -0.00000000000E+00 -0.45593999997E+02  0.45594000000E+02  0.51100000000E-03 0. -1.
    9900012    2    1    2    0    0  0.32456363624E+02 -0.16796844726E+02 -0.23410934786E+02  0.47787292632E+02  0.20000098428E+02 0.  0.
        -12    1    1    2    0    0 -0.32456363624E+02  0.16796844726E+02  0.23410934786E+02  0.43400707368E+02  0.00000000000E+00 0.  1.
         11    1    3    3    0    0  0.18749495519E+01 -0.31260062097E+01 -0.93115533234E+01  0.99996188028E+01  0.51100000000E-03 0. -1.
        -11    1    3    3    0    0  0.23379217789E+02 -0.58630467979E+01 -0.12133834574E+02  0.26985052972E+02  0.51100000000E-03 0.  1.
        -12    1    3    3    0    0  0.72021962831E+01 -0.78077917180E+01 -0.19655468890E+01  0.10802620857E+02  0.00000000000E+00 0.  1.
</event>
<event>
 7    1  0.2756432E-009  0.4778728E+02  0.7816164E-02  0.1312668E+00
        -11   -1    0    0    0    0  0.00000000000E+00  0.00000000000E+00  0.45593999997E+02  0.45594000000E+02  0.51100000000E-03 0.  1.
         11   -1    0    0    0    0 -0.00000000000E+00 -0.00000000000E+00 -0.45593999997E+02  0.45594000000E+02  0.51100000000E-03 0. -1.
    9900012    2    1    2    0    0  0.96498489198E+01 -0.16774575920E+02 -0.38847343933E+02  0.47787284428E+02  0.20000061023E+02 0.  0.
        -12    1    1    2    0    0 -0.96498489198E+01  0.16774575920E+02  0.38847343933E+02  0.43400715572E+02  0.00000000000E+00 0.  1.
         11    1    3    3    0    0  0.36945865116E+01 -0.27295239210E+01 -0.98187808294E-01  0.45945523649E+01  0.51100000000E-03 0. -1.
        -11    1    3    3    0    0  0.85707714049E+01 -0.77576282832E+01 -0.29677691640E+02  0.31849714291E+02  0.51100000000E-03 0.  1.
        -12    1    3    3    0    0 -0.26155089967E+01 -0.62874237158E+01 -0.90714644844E+01  0.11343017772E+02  0.00000000000E+00 0.  1.
</event>
<event>
 7    1  0.2756432E-009  0.4778727E+02  0.7816164E-02  0.1312668E+00
        -11   -1    0    0    0    0  0.00000000000E+00  0.00000000000E+00  0.45593999997E+02  0.45594000000E+02  0.51100000000E-03 0. -1.
         11   -1    0    0    0    0 -0.00000000000E+00 -0.00000000000E+00 -0.45593999997E+02  0.45594000000E+02  0.51100000000E-03 0.  1.
    9900012    2    1    2    0    0  0.92335522664E+01 -0.22455183606E+02  0.35974009285E+02  0.47787273021E+02  0.20000009013E+02 0.  0.
        -12    1    1    2    0    0 -0.92335522664E+01  0.22455183606E+02 -0.35974009285E+02  0.43400726979E+02  0.00000000000E+00 0.  1.
         11    1    3    3    0    0  0.16102096299E+01 -0.88805169459E+01  0.84974788857E+01  0.12396108420E+02  0.51100000000E-03 0. -1.
        -11    1    3    3    0    0 -0.19522467527E+01 -0.12199379857E+02  0.18133279117E+02  0.21942013310E+02  0.51100000000E-03 0.  1.
        -12    1    3    3    0    0  0.95755893892E+01 -0.13752868028E+01  0.93432512827E+01  0.13449151292E+02  0.00000000000E+00 0.  1.
</event>
<event>
 7    1  0.6259612E-009  0.4778727E+02  0.7816164E-02  0.1312668E+00
        -11   -1    0    0    0    0  0.00000000000E+00  0.00000000000E+00  0.45593999997E+02  0.45594000000E+02  0.51100000000E-03 0. -1.
         11   -1    0    0    0    0 -0.00000000000E+00 -0.00000000000E+00 -0.45593999997E+02  0.45594000000E+02  0.51100000000E-03 0.  1.
    9900012    2    1    2    0    0  0.42687591358E+02 -0.30521322123E+01 -0.72164419742E+01  0.47787274179E+02  0.20000014292E+02 0.  0.
        -12    1    1    2    0    0 -0.42687591358E+02  0.30521322123E+01  0.72164419742E+01  0.43400725821E+02  0.00000000000E+00 0.  1.
         11    1    3    3    0    0  0.23712310969E+02 -0.87329583727E+00 -0.62786461238E+01  0.24545014454E+02  0.51100000000E-03 0. -1.
        -11    1    3    3    0    0  0.71531700896E+01  0.47535636329E+01  0.28059600938E+01  0.90353539971E+01  0.51100000000E-03 0.  1.
        -12    1    3    3    0    0  0.11822110299E+02 -0.69324000080E+01 -0.37437559441E+01  0.14206905728E+02  0.00000000000E+00 0.  1.
</event>
<event>
 7    1  0.2756432E-009  0.4778727E+02  0.7816164E-02  0.1312668E+00
        -11   -1    0    0    0    0  0.00000000000E+00  0.00000000000E+00  0.45593999997E+02  0.45594000000E+02  0.51100000000E-03 0.  1.
         11   -1    0    0    0    0 -0.00000000000E+00 -0.00000000000E+00 -0.45593999997E+02  0.45594000000E+02  0.51100000000E-03 0. -1.
    9900012    2    1    2    0    0 -0.16665198465E+02  0.16222691544E+02 -0.36643128457E+02  0.47787269316E+02  0.19999992118E+02 0.  0.
        -12    1    1    2    0    0  0.16665198465E+02 -0.16222691544E+02  0.36643128457E+02  0.43400730684E+02  0.00000000000E+00 0.  1.
         11    1    3    3    0    0 -0.43086911458E+01  0.87759799500E+01 -0.13579198978E+02  0.16732521885E+02  0.51100000000E-03 0. -1.
        -11    1    3    3    0    0  0.17366946909E+01 -0.26293297666E+01 -0.18083077238E+01  0.36331061857E+01  0.51100000000E-03 0.  1.
        -12    1    3    3    0    0 -0.14093202010E+02  0.10076041361E+02 -0.21255621755E+02  0.27421641246E+02  0.00000000000E+00 0.  1.
</event>
<event>
 7    1  0.2756432E-009  0.4778728E+02  0.7816164E-02  0.1312668E+00
        -11   -1    0    0    0    0  0.00000000000E+00  0.00000000000E+00  0.45593999997E+02  0.45594000000E+02  0.51100000000E-03 0. -1.
         11   -1    0    0    0    0 -0.00000000000E+00 -0.00000000000E+00 -0.45593999997E+02  0.45594000000E+02  0.51100000000E-03 0.  1.
    9900012    2    1    2    0    0 -0.12472436290E+02 -0.28542568002E+02  0.30222225346E+02  0.47787276964E+02  0.20000026991E+02 0.  0.
        -12    1    1    2    0    0  0.12472436290E+02  0.28542568002E+02 -0.30222225346E+02  0.43400723036E+02  0.00000000000E+00 0.  1.
         11    1    3    3    0    0 -0.97634638052E+01 -0.69857594558E+01  0.26341334339E+01  0.12290838859E+02  0.51100000000E-03 0. -1.
        -11    1    3    3    0    0  0.11127380084E+01 -0.10721064266E+02  0.14732558983E+02  0.18254525448E+02  0.51100000000E-03 0.  1.
         12    1    3    3    0    0 -0.38217104931E+01 -0.10835744280E+02  0.12855532929E+02  0.17241912658E+02  0.00000000000E+00 0. -1.
</event>
<event>
 7    1  0.2756432E-009  0.4778727E+02  0.7816164E-02  0.1312668E+00
        -11   -1    0    0    0    0  0.00000000000E+00  0.00000000000E+00  0.45593999997E+02  0.45594000000E+02  0.51100000000E-03 0. -1.
         11   -1    0    0    0    0 -0.00000000000E+00 -0.00000000000E+00 -0.45593999997E+02  0.45594000000E+02  0.51100000000E-03 0.  1.
    9900012    2    1    2    0    0  0.21484525430E+02 -0.18808001125E+02  0.32684828668E+02  0.47787265394E+02  0.19999974238E+02 0.  0.
        -12    1    1    2    0    0 -0.21484525430E+02  0.18808001125E+02 -0.32684828668E+02  0.43400734606E+02  0.00000000000E+00 0.  1.
         11    1    3    3    0    0  0.13533568653E+02 -0.13835118936E+02  0.26740443117E+02  0.33009381921E+02  0.51100000000E-03 0. -1.
        -11    1    3    3    0    0  0.90763300514E+01 -0.72552029158E+00  0.35408092839E+01  0.97695177742E+01  0.51100000000E-03 0.  1.
         12    1    3    3    0    0 -0.11253732749E+01 -0.42473618977E+01  0.24035762670E+01  0.50083656984E+01  0.00000000000E+00 0. -1.
</event>
<event>
 7    1  0.2756432E-009  0.4778727E+02  0.7816164E-02  0.1312668E+00
        -11   -1    0    0    0    0  0.00000000000E+00  0.00000000000E+00  0.45593999997E+02  0.45594000000E+02  0.51100000000E-03 0.  1.
         11   -1    0    0    0    0 -0.00000000000E+00 -0.00000000000E+00 -0.45593999997E+02  0.45594000000E+02  0.51100000000E-03 0. -1.
    9900012    2    1    2    0    0 -0.66103668920E+01 -0.28053843701E+01 -0.42802523789E+02  0.47787272188E+02  0.20000005214E+02 0.  0.
        -12    1    1    2    0    0  0.66103668920E+01  0.28053843701E+01  0.42802523789E+02  0.43400727812E+02  0.00000000000E+00 0.  1.
         11    1    3    3    0    0 -0.46998196570E+01  0.66363676087E+01 -0.12692947736E+02  0.15074501727E+02  0.51100000000E-03 0. -1.
        -11    1    3    3    0    0 -0.19732327291E+01 -0.73308962224E+01 -0.10324247838E+02  0.12815060691E+02  0.51100000000E-03 0.  1.
         12    1    3    3    0    0  0.62685494015E-01 -0.21108557563E+01 -0.19785328215E+02  0.19897709770E+02  0.00000000000E+00 0. -1.
</event>
<event>
 7    1  0.2756432E-009  0.4778727E+02  0.7816164E-02  0.1312668E+00
        -11   -1    0    0    0    0  0.00000000000E+00  0.00000000000E+00  0.45593999997E+02  0.45594000000E+02  0.51100000000E-03 0. -1.
         11   -1    0    0    0    0 -0.00000000000E+00 -0.00000000000E+00 -0.45593999997E+02  0.45594000000E+02  0.51100000000E-03 0.  1.
    9900012    2    1    2    0    0  0.32777847246E+02  0.66864538580E+01  0.27650091667E+02  0.47787268388E+02  0.19999987890E+02 0.  0.
        -12    1    1    2    0    0 -0.32777847246E+02 -0.66864538580E+01 -0.27650091667E+02  0.43400731612E+02  0.00000000000E+00 0.  1.
         11    1    3    3    0    0  0.99371370155E+01  0.78295552193E+01  0.61368353020E+01  0.14060916570E+02  0.51100000000E-03 0. -1.
        -11    1    3    3    0    0  0.20291114387E+02 -0.46708662720E+01  0.20577567032E+02  0.29274264808E+02  0.51100000000E-03 0.  1.
        -12    1    3    3    0    0  0.25495958430E+01  0.35277649106E+01  0.93568933255E+00  0.44520870111E+01  0.00000000000E+00 0.  1.
</event>
<event>
 7    1  0.2756432E-009  0.4778727E+02  0.7816164E-02  0.1312668E+00
        -11   -1    0    0    0    0  0.00000000000E+00  0.00000000000E+00  0.45593999997E+02  0.45594000000E+02  0.51100000000E-03 0.  1.
         11   -1    0    0    0    0 -0.00000000000E+00 -0.00000000000E+00 -0.45593999997E+02  0.45594000000E+02  0.51100000000E-03 0. -1.
    9900012    2    1    2    0    0  0.13359662452E+02  0.71604262180E+01 -0.40667813099E+02  0.47787270667E+02  0.19999998278E+02 0.  0.
        -12    1    1    2    0    0 -0.13359662452E+02 -0.71604262180E+01  0.40667813099E+02  0.43400729333E+02  0.00000000000E+00 0.  1.
         11    1    3    3    0    0  0.33673323994E+01  0.86669762762E+01 -0.32847215772E+02  0.34137882030E+02  0.51100000000E-03 0. -1.
        -11    1    3    3    0    0  0.86627912852E+01 -0.18760887464E+01 -0.83443410869E+01  0.12173400933E+02  0.51100000000E-03 0.  1.
         12    1    3    3    0    0  0.13295387669E+01  0.36953868829E+00  0.52374376062E+00  0.14759877037E+01  0.00000000000E+00 0. -1.
</event>
<event>
 7    1  0.2756432E-009  0.4778726E+02  0.7816164E-02  0.1312668E+00
        -11   -1    0    0    0    0  0.00000000000E+00  0.00000000000E+00  0.45593999997E+02  0.45594000000E+02  0.51100000000E-03 0. -1.
         11   -1    0    0    0    0 -0.00000000000E+00 -0.00000000000E+00 -0.45593999997E+02  0.45594000000E+02  0.51100000000E-03 0.  1.
    9900012    2    1    2    0    0 -0.40901406850E+02 -0.13446101155E+02 -0.54681910523E+01  0.47787264615E+02  0.19999970684E+02 0.  0.
        -12    1    1    2    0    0  0.40901406850E+02  0.13446101155E+02  0.54681910523E+01  0.43400735385E+02  0.00000000000E+00 0.  1.
         11    1    3    3    0    0 -0.17971664651E+02 -0.98636816762E+00 -0.59457306654E+01  0.18955351907E+02  0.51100000000E-03 0. -1.
        -11    1    3    3    0    0 -0.29694691565E+01 -0.68705743719E+01 -0.24996112039E+01  0.78911720108E+01  0.51100000000E-03 0.  1.
         12    1    3    3    0    0 -0.19960273042E+02 -0.55891586155E+01  0.29771508170E+01  0.20940740697E+02  0.00000000000E+00 0. -1.
</event>
<event>
 7    1  0.2756432E-009  0.4778727E+02  0.7816164E-02  0.1312668E+00
        -11   -1    0    0    0    0  0.00000000000E+00  0.00000000000E+00  0.45593999997E+02  0.45594000000E+02  0.51100000000E-03 0. -1.
         11   -1    0    0    0    0 -0.00000000000E+00 -0.00000000000E+00 -0.45593999997E+02  0.45594000000E+02  0.51100000000E-03 0.  1.
    9900012    2    1    2    0    0  0.21586371307E+00  0.21202705854E+02  0.37868482400E+02  0.47787270837E+02  0.19999999052E+02 0.  0.
        -12    1    1    2    0    0 -0.21586371307E+00 -0.21202705854E+02 -0.37868482400E+02  0.43400729163E+02  0.00000000000E+00 0.  1.
         11    1    3    3    0    0 -0.31828131971E+00  0.21886035433E+02  0.37247409482E+02  0.43202654587E+02  0.51100000000E-03 0. -1.
        -11    1    3    3    0    0 -0.11106019795E+01 -0.20644344334E+01 -0.16508909457E-01  0.23442694154E+01  0.51100000000E-03 0.  1.
         12    1    3    3    0    0  0.16447470123E+01  0.13811048536E+01  0.63758182745E+00  0.22403468343E+01  0.00000000000E+00 0. -1.
</event>
<event>
 7    1  0.2756432E-009  0.4778727E+02  0.7816164E-02  0.1312668E+00
        -11   -1    0    0    0    0  0.00000000000E+00  0.00000000000E+00  0.45593999997E+02  0.45594000000E+02  0.51100000000E-03 0.  1.
         11   -1    0    0    0    0 -0.00000000000E+00 -0.00000000000E+00 -0.45593999997E+02  0.45594000000E+02  0.51100000000E-03 0. -1.
    9900012    2    1    2    0    0 -0.19721162134E+02  0.32129930997E+02 -0.21502711342E+02  0.47787270780E+02  0.19999998795E+02 0.  0.
        -12    1    1    2    0    0  0.19721162134E+02 -0.32129930997E+02  0.21502711342E+02  0.43400729220E+02  0.00000000000E+00 0.  1.
         11    1    3    3    0    0 -0.14164281385E+02  0.19647158993E+02 -0.17787287185E+02  0.30050379520E+02  0.51100000000E-03 0. -1.
        -11    1    3    3    0    0 -0.25993097657E+01  0.12064777138E+02  0.75020627053E+00  0.12364387100E+02  0.51100000000E-03 0.  1.
        -12    1    3    3    0    0 -0.29575709834E+01  0.41799486491E+00 -0.44656304282E+01  0.53725041601E+01  0.00000000000E+00 0.  1.
</event>
<event>
 7    1  0.2756432E-009  0.4778727E+02  0.7816164E-02  0.1312668E+00
        -11   -1    0    0    0    0  0.00000000000E+00  0.00000000000E+00  0.45593999997E+02  0.45594000000E+02  0.51100000000E-03 0.  1.
         11   -1    0    0    0    0 -0.00000000000E+00 -0.00000000000E+00 -0.45593999997E+02  0.45594000000E+02  0.51100000000E-03 0. -1.
    9900012    2    1    2    0    0  0.10915335858E+02 -0.15939157582E+02 -0.38864148404E+02  0.47787270369E+02  0.19999996921E+02 0.  0.
        -12    1    1    2    0    0 -0.10915335858E+02  0.15939157582E+02  0.38864148404E+02  0.43400729631E+02  0.00000000000E+00 0.  1.
         11    1    3    3    0    0  0.92493686305E+01 -0.30598708885E+01 -0.81331401660E+01  0.12691004654E+02  0.51100000000E-03 0. -1.
        -11    1    3    3    0    0  0.36577935663E+00  0.45226775661E+00  0.71178393276E+00  0.91922646256E+00  0.51100000000E-03 0.  1.
         12    1    3    3    0    0  0.13001878709E+01 -0.13331554450E+02 -0.31442792171E+02  0.34177039252E+02  0.00000000000E+00 0. -1.
</event>
<event>
 7    1  0.2756432E-009  0.4778727E+02  0.7816164E-02  0.1312668E+00
        -11   -1    0    0    0    0  0.00000000000E+00  0.00000000000E+00  0.45593999997E+02  0.45594000000E+02  0.51100000000E-03 0.  1.
         11   -1    0    0    0    0 -0.00000000000E+00 -0.00000000000E+00 -0.45593999997E+02  0.45594000000E+02  0.51100000000E-03 0. -1.
    9900012    2    1    2    0    0  0.30203030322E+01 -0.18994521066E+02 -0.38906415885E+02  0.47787271228E+02  0.20000000837E+02 0.  0.
        -12    1    1    2    0    0 -0.30203030322E+01  0.18994521066E+02  0.38906415885E+02  0.43400728772E+02  0.00000000000E+00 0.  1.
         11    1    3    3    0    0  0.45180601461E+01 -0.19657285563E+02 -0.28980858664E+02  0.35308807858E+02  0.51100000000E-03 0. -1.
        -11    1    3    3    0    0  0.24649735891E+01  0.10083441215E+01 -0.12656402959E+01  0.29486773784E+01  0.51100000000E-03 0.  1.
         12    1    3    3    0    0 -0.39627307030E+01 -0.34557962478E+00 -0.86599169246E+01  0.95297859914E+01  0.00000000000E+00 0. -1.
</event>
<event>
 7    1  0.2756432E-009  0.4778727E+02  0.7816164E-02  0.1312668E+00
        -11   -1    0    0    0    0  0.00000000000E+00  0.00000000000E+00  0.45593999997E+02  0.45594000000E+02  0.51100000000E-03 0.  1.
         11   -1    0    0    0    0 -0.00000000000E+00 -0.00000000000E+00 -0.45593999997E+02  0.45594000000E+02  0.51100000000E-03 0. -1.
    9900012    2    1    2    0    0  0.37285718485E+01 -0.28431614645E+02 -0.32578585890E+02  0.47787271689E+02  0.20000002938E+02 0.  0.
        -12    1    1    2    0    0 -0.37285718485E+01  0.28431614645E+02  0.32578585890E+02  0.43400728311E+02  0.00000000000E+00 0.  1.
         11    1    3    3    0    0  0.90138573627E+00 -0.32067097098E+01 -0.41360890201E+01  0.53106229439E+01  0.51100000000E-03 0. -1.
        -11    1    3    3    0    0 -0.40518643665E+01 -0.23309687571E+02 -0.25408411694E+02  0.34718100821E+02  0.51100000000E-03 0.  1.
        -12    1    3    3    0    0  0.68790504787E+01 -0.19152173637E+01 -0.30340851760E+01  0.77585479243E+01  0.00000000000E+00 0.  1.
</event>
<event>
 7    1  0.2756432E-009  0.4778727E+02  0.7816164E-02  0.1312668E+00
        -11   -1    0    0    0    0  0.00000000000E+00  0.00000000000E+00  0.45593999997E+02  0.45594000000E+02  0.51100000000E-03 0.  1.
         11   -1    0    0    0    0 -0.00000000000E+00 -0.00000000000E+00 -0.45593999997E+02  0.45594000000E+02  0.51100000000E-03 0. -1.
    9900012    2    1    2    0    0  0.30756302950E+02  0.27118097493E+02 -0.14222585746E+02  0.47787270419E+02  0.19999997151E+02 0.  0.
        -12    1    1    2    0    0 -0.30756302950E+02 -0.27118097493E+02  0.14222585746E+02  0.43400729581E+02  0.00000000000E+00 0.  1.
         11    1    3    3    0    0  0.28447943180E+02  0.28920448193E+02 -0.10422682490E+02  0.41884485259E+02  0.51100000000E-03 0. -1.
        -11    1    3    3    0    0 -0.44435769818E+00 -0.11214038677E+01 -0.25155374810E+01  0.27897902211E+01  0.51100000000E-03 0.  1.
         12    1    3    3    0    0  0.27527174679E+01 -0.68094683215E+00 -0.12843657750E+01  0.31129949390E+01  0.00000000000E+00 0. -1.
</event>
<event>
 7    1  0.2756432E-009  0.4778727E+02  0.7816164E-02  0.1312668E+00
        -11   -1    0    0    0    0  0.00000000000E+00  0.00000000000E+00  0.45593999997E+02  0.45594000000E+02  0.51100000000E-03 0.  1.
         11   -1    0    0    0    0 -0.00000000000E+00 -0.00000000000E+00 -0.45593999997E+02  0.45594000000E+02  0.51100000000E-03 0. -1.
    9900012    2    1    2    0    0  0.28539150945E+02  0.77292168853E+01 -0.31771045183E+02  0.47787271408E+02  0.20000001657E+02 0.  0.
        -12    1    1    2    0    0 -0.28539150945E+02 -0.77292168853E+01  0.31771045183E+02  0.43400728592E+02  0.00000000000E+00 0.  1.
         11    1    3    3    0    0  0.55012978437E+01  0.97703777884E+00 -0.96344914945E+01  0.11137428222E+02  0.51100000000E-03 0. -1.
        -11    1    3    3    0    0 -0.13834005144E+01 -0.11684735141E+01 -0.61377109535E+01  0.63992674070E+01  0.51100000000E-03 0.  1.
        -12    1    3    3    0    0  0.24421253616E+02  0.79206526206E+01 -0.15998842735E+02  0.30250575779E+02  0.00000000000E+00 0.  1.
</event>
<event>
 7    1  0.2756432E-009  0.4778727E+02  0.7816164E-02  0.1312668E+00
        -11   -1    0    0    0    0  0.00000000000E+00  0.00000000000E+00  0.45593999997E+02  0.45594000000E+02  0.51100000000E-03 0.  1.
         11   -1    0    0    0    0 -0.00000000000E+00 -0.00000000000E+00 -0.45593999997E+02  0.45594000000E+02  0.51100000000E-03 0. -1.
    9900012    2    1    2    0    0  0.42829956379E+01  0.40635050618E+02 -0.14631196504E+02  0.47787270726E+02  0.19999998548E+02 0.  0.
        -12    1    1    2    0    0 -0.42829956379E+01 -0.40635050618E+02  0.14631196504E+02  0.43400729274E+02  0.00000000000E+00 0.  1.
         11    1    3    3    0    0  0.72305306992E+01  0.31129858603E+02 -0.10026124814E+02  0.33494355493E+02  0.51100000000E-03 0. -1.
        -11    1    3    3    0    0 -0.15394710162E+01  0.98583312566E+01 -0.64981966308E+01  0.11907276174E+02  0.51100000000E-03 0.  1.
         12    1    3    3    0    0 -0.14080640451E+01 -0.35313924181E+00  0.18931249404E+01  0.23856390588E+01  0.00000000000E+00 0. -1.
</event>
<event>
 7    1  0.2756432E-009  0.4778729E+02  0.7816164E-02  0.1312668E+00
        -11   -1    0    0    0    0  0.00000000000E+00  0.00000000000E+00  0.45593999997E+02  0.45594000000E+02  0.51100000000E-03 0.  1.
         11   -1    0    0    0    0 -0.00000000000E+00 -0.00000000000E+00 -0.45593999997E+02  0.45594000000E+02  0.51100000000E-03 0. -1.
    9900012    2    1    2    0    0  0.39032704776E+01 -0.23360282181E+02 -0.36368717953E+02  0.47787286302E+02  0.20000069563E+02 0.  0.
        -12    1    1    2    0    0 -0.39032704776E+01  0.23360282181E+02  0.36368717953E+02  0.43400713698E+02  0.00000000000E+00 0.  1.
         11    1    3    3    0    0  0.48762879536E+01 -0.86811563432E+01 -0.33664591608E+01  0.10510647326E+02  0.51100000000E-03 0. -1.
        -11    1    3    3    0    0  0.15361563744E+01 -0.13019401053E+01 -0.55244085316E+00  0.20880650377E+01  0.51100000000E-03 0.  1.
         12    1    3    3    0    0 -0.25091738504E+01 -0.13377185733E+02 -0.32449817939E+02  0.35188573938E+02  0.00000000000E+00 0. -1.
</event>
<event>
 7    1  0.2756432E-009  0.4778727E+02  0.7816164E-02  0.1312668E+00
        -11   -1    0    0    0    0  0.00000000000E+00  0.00000000000E+00  0.45593999997E+02  0.45594000000E+02  0.51100000000E-03 0.  1.
         11   -1    0    0    0    0 -0.00000000000E+00 -0.00000000000E+00 -0.45593999997E+02  0.45594000000E+02  0.51100000000E-03 0. -1.
    9900012    2    1    2    0    0  0.36884227026E+02  0.13401391572E+02 -0.18535908727E+02  0.47787269456E+02  0.19999992758E+02 0.  0.
        -12    1    1    2    0    0 -0.36884227026E+02 -0.13401391572E+02  0.18535908727E+02  0.43400730544E+02  0.00000000000E+00 0.  1.
         11    1    3    3    0    0  0.10845281543E+02  0.29899535885E+01 -0.13987048599E+02  0.17949860250E+02  0.51100000000E-03 0. -1.
        -11    1    3    3    0    0  0.20869382973E+02  0.44971393743E+01 -0.51450673869E+01  0.21959670464E+02  0.51100000000E-03 0.  1.
        -12    1    3    3    0    0  0.51695625106E+01  0.59142986096E+01  0.59620725941E+00  0.78777387422E+01  0.00000000000E+00 0.  1.
</event>
<event>
 7    1  0.2756432E-009  0.4778728E+02  0.7816164E-02  0.1312668E+00
        -11   -1    0    0    0    0  0.00000000000E+00  0.00000000000E+00  0.45593999997E+02  0.45594000000E+02  0.51100000000E-03 0.  1.
         11   -1    0    0    0    0 -0.00000000000E+00 -0.00000000000E+00 -0.45593999997E+02  0.45594000000E+02  0.51100000000E-03 0. -1.
    9900012    2    1    2    0    0 -0.13666403238E+02  0.10466013042E+02 -0.39841114705E+02  0.47787280796E+02  0.20000044461E+02 0.  0.
        -12    1    1    2    0    0  0.13666403238E+02 -0.10466013042E+02  0.39841114705E+02  0.43400719204E+02  0.00000000000E+00 0.  1.
         11    1    3    3    0    0 -0.43842720951E+01 -0.29026651423E+01 -0.58554636321E+01  0.78698005909E+01  0.51100000000E-03 0. -1.
        -11    1    3    3    0    0  0.62411262532E+00  0.94946956188E+01 -0.21524720465E+02  0.23534067919E+02  0.51100000000E-03 0.  1.
        -12    1    3    3    0    0 -0.99062437680E+01  0.38739825660E+01 -0.12460930608E+02  0.16383412286E+02  0.00000000000E+00 0.  1.
</event>
<event>
 7    1  0.2756432E-009  0.4778725E+02  0.7816164E-02  0.1312668E+00
        -11   -1    0    0    0    0  0.00000000000E+00  0.00000000000E+00  0.45593999997E+02  0.45594000000E+02  0.51100000000E-03 0.  1.
         11   -1    0    0    0    0 -0.00000000000E+00 -0.00000000000E+00 -0.45593999997E+02  0.45594000000E+02  0.51100000000E-03 0. -1.
    9900012    2    1    2    0    0  0.37099660120E+02  0.46389397712E+01  0.22039066827E+02  0.47787251046E+02  0.19999908817E+02 0.  0.
        -12    1    1    2    0    0 -0.37099660120E+02 -0.46389397712E+01 -0.22039066827E+02  0.43400748954E+02  0.00000000000E+00 0.  1.
         11    1    3    3    0    0 -0.79443040913E-01 -0.10536870663E+01 -0.17135666899E+01  0.20131762695E+01  0.51100000000E-03 0.  1.
        -11    1    3    3    0    0 -0.23802158906E-01 -0.24517001603E+00  0.25139881091E+01  0.25260267919E+01  0.51100000000E-03 0. -1.
         12    1    3    3    0    0  0.37202905320E+02  0.59377968535E+01  0.21238645408E+02  0.43248047984E+02  0.00000000000E+00 0. -1.
</event>
<event>
 7    1  0.2756432E-009  0.4778727E+02  0.7816164E-02  0.1312668E+00
        -11   -1    0    0    0    0  0.00000000000E+00  0.00000000000E+00  0.45593999997E+02  0.45594000000E+02  0.51100000000E-03 0.  1.
         11   -1    0    0    0    0 -0.00000000000E+00 -0.00000000000E+00 -0.45593999997E+02  0.45594000000E+02  0.51100000000E-03 0. -1.
    9900012    2    1    2    0    0 -0.15674356874E+02 -0.39496896000E+02 -0.88279747320E+01  0.47787269650E+02  0.19999993644E+02 0.  0.
        -12    1    1    2    0    0  0.15674356874E+02  0.39496896000E+02  0.88279747320E+01  0.43400730350E+02  0.00000000000E+00 0.  1.
         11    1    3    3    0    0 -0.10532184875E+02 -0.21839553012E+02 -0.14625071162E+02  0.28315820680E+02  0.51100000000E-03 0. -1.
        -11    1    3    3    0    0 -0.42393436816E+01 -0.12813866885E+02  0.53703153580E+01  0.14526097436E+02  0.51100000000E-03 0.  1.
         12    1    3    3    0    0 -0.90282831735E+00 -0.48434761020E+01  0.42678107178E+00  0.49453515350E+01  0.00000000000E+00 0. -1.
</event>
<event>
 7    1  0.2756432E-009  0.4778727E+02  0.7816164E-02  0.1312668E+00
        -11   -1    0    0    0    0  0.00000000000E+00  0.00000000000E+00  0.45593999997E+02  0.45594000000E+02  0.51100000000E-03 0. -1.
         11   -1    0    0    0    0 -0.00000000000E+00 -0.00000000000E+00 -0.45593999997E+02  0.45594000000E+02  0.51100000000E-03 0.  1.
    9900012    2    1    2    0    0  0.10201573918E+02 -0.40257105027E+02 -0.12606235670E+02  0.47787265060E+02  0.19999972715E+02 0.  0.
        -12    1    1    2    0    0 -0.10201573918E+02  0.40257105027E+02  0.12606235670E+02  0.43400734940E+02  0.00000000000E+00 0.  1.
         11    1    3    3    0    0  0.38021473163E+01 -0.16158194803E+02 -0.38259774270E+00  0.16603914141E+02  0.51100000000E-03 0. -1.
        -11    1    3    3    0    0 -0.32761068862E+01 -0.28879154947E+01 -0.52915612166E+01  0.68610168783E+01  0.51100000000E-03 0.  1.
        -12    1    3    3    0    0  0.96755334874E+01 -0.21210994729E+02 -0.69320767112E+01  0.24322334040E+02  0.00000000000E+00 0.  1.
</event>
<event>
 7    1  0.2756432E-009  0.4778727E+02  0.7816164E-02  0.1312668E+00
        -11   -1    0    0    0    0  0.00000000000E+00  0.00000000000E+00  0.45593999997E+02  0.45594000000E+02  0.51100000000E-03 0.  1.
         11   -1    0    0    0    0 -0.00000000000E+00 -0.00000000000E+00 -0.45593999997E+02  0.45594000000E+02  0.51100000000E-03 0. -1.
    9900012    2    1    2    0    0  0.46117073192E+01  0.21007266729E+02 -0.37696823835E+02  0.47787266975E+02  0.19999981447E+02 0.  0.
        -12    1    1    2    0    0 -0.46117073192E+01 -0.21007266729E+02  0.37696823835E+02  0.43400733025E+02  0.00000000000E+00 0.  1.
         11    1    3    3    0    0  0.45425574405E+01 -0.11609163156E+01 -0.51756779417E+01  0.69835662243E+01  0.51100000000E-03 0. -1.
        -11    1    3    3    0    0 -0.17359453116E+01  0.20315883544E+02 -0.22112028882E+02  0.30078072609E+02  0.51100000000E-03 0.  1.
        -12    1    3    3    0    0  0.18050951903E+01  0.18522995002E+01 -0.10409117012E+02  0.10725628142E+02  0.00000000000E+00 0.  1.
</event>
<event>
 7    1  0.2756432E-009  0.4778725E+02  0.7816164E-02  0.1312668E+00
        -11   -1    0    0    0    0  0.00000000000E+00  0.00000000000E+00  0.45593999997E+02  0.45594000000E+02  0.51100000000E-03 0. -1.
         11   -1    0    0    0    0 -0.00000000000E+00 -0.00000000000E+00 -0.45593999997E+02  0.45594000000E+02  0.51100000000E-03 0.  1.
    9900012    2    1    2    0    0 -0.28975485391E+02 -0.15091594945E+01  0.32276444711E+02  0.47787248864E+02  0.19999898870E+02 0.  0.
        -12    1    1    2    0    0  0.28975485391E+02  0.15091594945E+01 -0.32276444711E+02  0.43400751136E+02  0.00000000000E+00 0.  1.
         11    1    3    3    0    0 -0.12299902829E+02 -0.78300156515E+00  0.22323715122E+02  0.25499979572E+02  0.51100000000E-03 0. -1.
        -11    1    3    3    0    0 -0.12938163452E+02  0.41028206028E+01  0.51453571669E+01  0.14515643667E+02  0.51100000000E-03 0.  1.
        -12    1    3    3    0    0 -0.37374191089E+01 -0.48289785321E+01  0.48073724214E+01  0.77716256251E+01  0.00000000000E+00 0.  1.
</event>
<event>
 7    1  0.2756432E-009  0.4778728E+02  0.7816164E-02  0.1312668E+00
        -11   -1    0    0    0    0  0.00000000000E+00  0.00000000000E+00  0.45593999997E+02  0.45594000000E+02  0.51100000000E-03 0.  1.
         11   -1    0    0    0    0 -0.00000000000E+00 -0.00000000000E+00 -0.45593999997E+02  0.45594000000E+02  0.51100000000E-03 0. -1.
    9900012    2    1    2    0    0 -0.11157484838E+02 -0.37746905189E+02 -0.18283990819E+02  0.47787278352E+02  0.20000033319E+02 0.  0.
        -12    1    1    2    0    0  0.11157484838E+02  0.37746905189E+02  0.18283990819E+02  0.43400721648E+02  0.00000000000E+00 0.  1.
         11    1    3    3    0    0 -0.33909240902E+01 -0.19723680309E+02  0.69089739335E+00  0.20024966182E+02  0.51100000000E-03 0. -1.
        -11    1    3    3    0    0 -0.17154443939E+01 -0.10048893280E+02 -0.10650954202E+02  0.14743331757E+02  0.51100000000E-03 0.  1.
         12    1    3    3    0    0 -0.60511163539E+01 -0.79743316004E+01 -0.83239340100E+01  0.13018980413E+02  0.00000000000E+00 0. -1.
</event>
<event>
 7    1  0.2756432E-009  0.4778728E+02  0.7816164E-02  0.1312668E+00
        -11   -1    0    0    0    0  0.00000000000E+00  0.00000000000E+00  0.45593999997E+02  0.45594000000E+02  0.51100000000E-03 0.  1.
         11   -1    0    0    0    0 -0.00000000000E+00 -0.00000000000E+00 -0.45593999997E+02  0.45594000000E+02  0.51100000000E-03 0. -1.
    9900012    2    1    2    0    0 -0.35828464850E+02  0.10784574374E+02 -0.21991735693E+02  0.47787281380E+02  0.20000047123E+02 0.  0.
        -12    1    1    2    0    0  0.35828464850E+02 -0.10784574374E+02  0.21991735693E+02  0.43400718620E+02  0.00000000000E+00 0.  1.
         11    1    3    3    0    0 -0.18190021023E+02  0.16084971600E+01 -0.17053903639E+02  0.24985991226E+02  0.51100000000E-03 0. -1.
        -11    1    3    3    0    0 -0.44004503550E+01  0.77481315429E+01 -0.26066461969E+01  0.92839706155E+01  0.51100000000E-03 0.  1.
         12    1    3    3    0    0 -0.13237993472E+02  0.14279456709E+01 -0.23311858569E+01  0.13517319538E+02  0.00000000000E+00 0. -1.
</event>
<event>
 7    1  0.2756432E-009  0.4778727E+02  0.7816164E-02  0.1312668E+00
        -11   -1    0    0    0    0  0.00000000000E+00  0.00000000000E+00  0.45593999997E+02  0.45594000000E+02  0.51100000000E-03 0.  1.
         11   -1    0    0    0    0 -0.00000000000E+00 -0.00000000000E+00 -0.45593999997E+02  0.45594000000E+02  0.51100000000E-03 0. -1.
    9900012    2    1    2    0    0  0.38481687022E+02  0.20060575165E+02 -0.59700172960E+00  0.47787270477E+02  0.19999997414E+02 0.  0.
        -12    1    1    2    0    0 -0.38481687022E+02 -0.20060575165E+02  0.59700172960E+00  0.43400729523E+02  0.00000000000E+00 0.  1.
         11    1    3    3    0    0 -0.17754198826E+01  0.15193293180E+01 -0.49917049859E+00  0.23894871382E+01  0.51100000000E-03 0.  1.
        -11    1    3    3    0    0  0.24421226034E+02  0.11929189307E+02  0.46918433118E+01  0.27581066557E+02  0.51100000000E-03 0. -1.
        -12    1    3    3    0    0  0.15835880871E+02  0.66120565405E+01 -0.47896745428E+01  0.17816716782E+02  0.00000000000E+00 0.  1.
</event>
<event>
 7    1  0.2756432E-009  0.4778724E+02  0.7816164E-02  0.1312668E+00
        -11   -1    0    0    0    0  0.00000000000E+00  0.00000000000E+00  0.45593999997E+02  0.45594000000E+02  0.51100000000E-03 0. -1.
         11   -1    0    0    0    0 -0.00000000000E+00 -0.00000000000E+00 -0.45593999997E+02  0.45594000000E+02  0.51100000000E-03 0.  1.
    9900012    2    1    2    0    0  0.74548106508E+00 -0.41555919610E+02  0.12497032616E+02  0.47787239397E+02  0.19999855708E+02 0.  0.
        -12    1    1    2    0    0 -0.74548106508E+00  0.41555919610E+02 -0.12497032616E+02  0.43400760603E+02  0.00000000000E+00 0.  1.
         11    1    3    3    0    0  0.85042613886E-02 -0.19279294357E+01  0.19469542092E+01  0.27400027710E+01  0.51100000000E-03 0. -1.
        -11    1    3    3    0    0 -0.77917398725E+01 -0.92454098982E+01  0.12886665361E+01  0.12159336994E+02  0.51100000000E-03 0.  1.
        -12    1    3    3    0    0  0.85287166762E+01 -0.30382580276E+02  0.92614118712E+01  0.32887899633E+02  0.00000000000E+00 0.  1.
</event>
<event>
 7    1  0.2756432E-009  0.4778727E+02  0.7816164E-02  0.1312668E+00
        -11   -1    0    0    0    0  0.00000000000E+00  0.00000000000E+00  0.45593999997E+02  0.45594000000E+02  0.51100000000E-03 0.  1.
         11   -1    0    0    0    0 -0.00000000000E+00 -0.00000000000E+00 -0.45593999997E+02  0.45594000000E+02  0.51100000000E-03 0. -1.
    9900012    2    1    2    0    0  0.32646605594E+02  0.16969016789E+02 -0.23019009425E+02  0.47787272097E+02  0.20000004798E+02 0.  0.
        -12    1    1    2    0    0 -0.32646605594E+02 -0.16969016789E+02  0.23019009425E+02  0.43400727903E+02  0.00000000000E+00 0.  1.
         11    1    3    3    0    0  0.23367019056E+02  0.38094431316E+01 -0.18123786566E+02  0.29816121081E+02  0.51100000000E-03 0. -1.
        -11    1    3    3    0    0  0.87676865543E+01  0.12303848937E+02 -0.61983913394E+01  0.16330250508E+02  0.51100000000E-03 0.  1.
        -12    1    3    3    0    0  0.51189998362E+00  0.85572471970E+00  0.13031684804E+01  0.16409005081E+01  0.00000000000E+00 0.  1.
</event>
<event>
 7    1  0.2756432E-009  0.4778727E+02  0.7816164E-02  0.1312668E+00
        -11   -1    0    0    0    0  0.00000000000E+00  0.00000000000E+00  0.45593999997E+02  0.45594000000E+02  0.51100000000E-03 0.  1.
         11   -1    0    0    0    0 -0.00000000000E+00 -0.00000000000E+00 -0.45593999997E+02  0.45594000000E+02  0.51100000000E-03 0. -1.
    9900012    2    1    2    0    0 -0.19671362443E+02 -0.38155172471E+02 -0.63908913332E+01  0.47787272141E+02  0.20000005000E+02 0.  0.
        -12    1    1    2    0    0  0.19671362443E+02  0.38155172471E+02  0.63908913332E+01  0.43400727859E+02  0.00000000000E+00 0.  1.
         11    1    3    3    0    0 -0.11021009871E+02 -0.84317679974E+01 -0.60381585527E+01  0.15133298685E+02  0.51100000000E-03 0. -1.
        -11    1    3    3    0    0  0.17111141365E+01 -0.90396870166E+01  0.19538565900E+01  0.94053925373E+01  0.51100000000E-03 0.  1.
         12    1    3    3    0    0 -0.10361466709E+02 -0.20683717457E+02 -0.23065893704E+01  0.23248580919E+02  0.00000000000E+00 0. -1.
</event>
<event>
 7    1  0.2756432E-009  0.4778727E+02  0.7816164E-02  0.1312668E+00
        -11   -1    0    0    0    0  0.00000000000E+00  0.00000000000E+00  0.45593999997E+02  0.45594000000E+02  0.51100000000E-03 0.  1.
         11   -1    0    0    0    0 -0.00000000000E+00 -0.00000000000E+00 -0.45593999997E+02  0.45594000000E+02  0.51100000000E-03 0. -1.
    9900012    2    1    2    0    0 -0.15237019519E+02 -0.39627340901E+02 -0.90072266529E+01  0.47787273708E+02  0.20000012142E+02 0.  0.
        -12    1    1    2    0    0  0.15237019519E+02  0.39627340901E+02  0.90072266529E+01  0.43400726292E+02  0.00000000000E+00 0.  1.
         11    1    3    3    0    0 -0.14696951377E+02 -0.39925155805E+02 -0.10249052302E+02  0.43761415873E+02  0.51100000000E-03 0. -1.
        -11    1    3    3    0    0  0.10398976470E+01 -0.93707585137E+00  0.14430948586E+01  0.20104778784E+01  0.51100000000E-03 0.  1.
         12    1    3    3    0    0 -0.15799657893E+01  0.12348907555E+01 -0.20126920922E+00  0.20153799562E+01  0.00000000000E+00 0. -1.
</event>
<event>
 7    1  0.2756432E-009  0.4778727E+02  0.7816164E-02  0.1312668E+00
        -11   -1    0    0    0    0  0.00000000000E+00  0.00000000000E+00  0.45593999997E+02  0.45594000000E+02  0.51100000000E-03 0.  1.
         11   -1    0    0    0    0 -0.00000000000E+00 -0.00000000000E+00 -0.45593999997E+02  0.45594000000E+02  0.51100000000E-03 0. -1.
    9900012    2    1    2    0    0 -0.39743244494E+02  0.70180507550E+01 -0.15963866102E+02  0.47787267976E+02  0.19999986008E+02 0.  0.
        -12    1    1    2    0    0  0.39743244494E+02 -0.70180507550E+01  0.15963866102E+02  0.43400732024E+02  0.00000000000E+00 0.  1.
         11    1    3    3    0    0 -0.69989216448E+01  0.77514417540E+00 -0.28897814873E+01  0.76116088961E+01  0.51100000000E-03 0. -1.
        -11    1    3    3    0    0 -0.16363580567E+02 -0.29912441801E+01  0.10349118273E+01  0.16666893936E+02  0.51100000000E-03 0.  1.
        -12    1    3    3    0    0 -0.16380742283E+02  0.92341507597E+01 -0.14108996442E+02  0.23508765144E+02  0.00000000000E+00 0.  1.
</event>
<event>
 7    1  0.2756432E-009  0.4778727E+02  0.7816164E-02  0.1312668E+00
        -11   -1    0    0    0    0  0.00000000000E+00  0.00000000000E+00  0.45593999997E+02  0.45594000000E+02  0.51100000000E-03 0.  1.
         11   -1    0    0    0    0 -0.00000000000E+00 -0.00000000000E+00 -0.45593999997E+02  0.45594000000E+02  0.51100000000E-03 0. -1.
    9900012    2    1    2    0    0 -0.16634463591E+02  0.35060408600E+02 -0.19434140709E+02  0.47787268955E+02  0.19999990474E+02 0.  0.
        -12    1    1    2    0    0  0.16634463591E+02 -0.35060408600E+02  0.19434140709E+02  0.43400731045E+02  0.00000000000E+00 0.  1.
         11    1    3    3    0    0  0.51435039974E-01  0.14647024990E+02 -0.80412850771E+01  0.16709286417E+02  0.51100000000E-03 0.  1.
        -11    1    3    3    0    0 -0.12737531218E+02  0.75327747717E+01 -0.92097726369E+01  0.17430069121E+02  0.51100000000E-03 0. -1.
         12    1    3    3    0    0 -0.39483674131E+01  0.12880608838E+02 -0.21830829953E+01  0.13647913417E+02  0.00000000000E+00 0. -1.
</event>
<event>
 7    1  0.2756432E-009  0.4778727E+02  0.7816164E-02  0.1312668E+00
        -11   -1    0    0    0    0  0.00000000000E+00  0.00000000000E+00  0.45593999997E+02  0.45594000000E+02  0.51100000000E-03 0.  1.
         11   -1    0    0    0    0 -0.00000000000E+00 -0.00000000000E+00 -0.45593999997E+02  0.45594000000E+02  0.51100000000E-03 0. -1.
    9900012    2    1    2    0    0  0.24987983402E+02 -0.27858787386E+02 -0.21979808597E+02  0.47787270339E+02  0.19999996784E+02 0.  0.
        -12    1    1    2    0    0 -0.24987983402E+02  0.27858787386E+02  0.21979808597E+02  0.43400729661E+02  0.00000000000E+00 0.  1.
         11    1    3    3    0    0  0.25022839732E+02 -0.25374668092E+02 -0.12285252051E+02  0.37695406978E+02  0.51100000000E-03 0. -1.
        -11    1    3    3    0    0 -0.64538873127E+00 -0.13408790218E+01 -0.57716802803E+01  0.59604342698E+01  0.51100000000E-03 0.  1.
         12    1    3    3    0    0  0.61053240097E+00 -0.11432402722E+01 -0.39228762662E+01  0.41314290908E+01  0.00000000000E+00 0. -1.
</event>
<event>
 7    1  0.2756432E-009  0.4778727E+02  0.7816164E-02  0.1312668E+00
        -11   -1    0    0    0    0  0.00000000000E+00  0.00000000000E+00  0.45593999997E+02  0.45594000000E+02  0.51100000000E-03 0. -1.
         11   -1    0    0    0    0 -0.00000000000E+00 -0.00000000000E+00 -0.45593999997E+02  0.45594000000E+02  0.51100000000E-03 0.  1.
    9900012    2    1    2    0    0 -0.36772740646E+02 -0.80305343387E+01 -0.21607860042E+02  0.47787267840E+02  0.19999985392E+02 0.  0.
        -12    1    1    2    0    0  0.36772740646E+02  0.80305343387E+01  0.21607860042E+02  0.43400732160E+02  0.00000000000E+00 0.  1.
         11    1    3    3    0    0 -0.10305153969E+02 -0.49869783401E+01 -0.37592612810E+01  0.12049821448E+02  0.51100000000E-03 0. -1.
        -11    1    3    3    0    0 -0.85100683918E+01  0.61502562429E+01 -0.84677531857E+01  0.13488875422E+02  0.51100000000E-03 0.  1.
        -12    1    3    3    0    0 -0.17957518286E+02 -0.91938122415E+01 -0.93808455754E+01  0.22248570970E+02  0.00000000000E+00 0.  1.
</event>
<event>
 7    1  0.2756432E-009  0.4778727E+02  0.7816164E-02  0.1312668E+00
        -11   -1    0    0    0    0  0.00000000000E+00  0.00000000000E+00  0.45593999997E+02  0.45594000000E+02  0.51100000000E-03 0.  1.
         11   -1    0    0    0    0 -0.00000000000E+00 -0.00000000000E+00 -0.45593999997E+02  0.45594000000E+02  0.51100000000E-03 0. -1.
    9900012    2    1    2    0    0  0.24110019788E+02 -0.20743415335E+02 -0.29530333624E+02  0.47787274915E+02  0.20000017647E+02 0.  0.
        -12    1    1    2    0    0 -0.24110019788E+02  0.20743415335E+02  0.29530333624E+02  0.43400725085E+02  0.00000000000E+00 0.  1.
         11    1    3    3    0    0  0.14329127770E+02 -0.12448609698E+02 -0.29212455749E+02  0.34837614115E+02  0.51100000000E-03 0. -1.
        -11    1    3    3    0    0  0.56014445665E+01 -0.58689155896E+01 -0.24317391029E+00  0.81166178450E+01  0.51100000000E-03 0.  1.
         12    1    3    3    0    0  0.41794474518E+01 -0.24258900476E+01 -0.74703965166E-01  0.48330429553E+01  0.00000000000E+00 0. -1.
</event>
<event>
 7    1  0.2756432E-009  0.4778722E+02  0.7816164E-02  0.1312668E+00
        -11   -1    0    0    0    0  0.00000000000E+00  0.00000000000E+00  0.45593999997E+02  0.45594000000E+02  0.51100000000E-03 0.  1.
         11   -1    0    0    0    0 -0.00000000000E+00 -0.00000000000E+00 -0.45593999997E+02  0.45594000000E+02  0.51100000000E-03 0. -1.
    9900012    2    1    2    0    0  0.22337315695E+02  0.29142956909E+01 -0.37096887781E+02  0.47787218039E+02  0.19999758324E+02 0.  0.
        -12    1    1    2    0    0 -0.22337315695E+02 -0.29142956909E+01  0.37096887781E+02  0.43400781961E+02  0.00000000000E+00 0.  1.
         11    1    3    3    0    0  0.62161585091E+01 -0.49617509815E+01 -0.14956621974E+02  0.16939897891E+02  0.51100000000E-03 0.  1.
        -11    1    3    3    0    0  0.16698684077E+02  0.98722802858E+01 -0.19851888447E+02  0.27756178467E+02  0.51100000000E-03 0. -1.
         12    1    3    3    0    0 -0.57752689101E+00 -0.19962336134E+01 -0.22883773601E+01  0.30911416809E+01  0.00000000000E+00 0. -1.
</event>
<event>
 7    1  0.2756432E-009  0.4778727E+02  0.7816164E-02  0.1312668E+00
        -11   -1    0    0    0    0  0.00000000000E+00  0.00000000000E+00  0.45593999997E+02  0.45594000000E+02  0.51100000000E-03 0.  1.
         11   -1    0    0    0    0 -0.00000000000E+00 -0.00000000000E+00 -0.45593999997E+02  0.45594000000E+02  0.51100000000E-03 0. -1.
    9900012    2    1    2    0    0  0.27132680996E+02 -0.52049352097E+01 -0.33471626678E+02  0.47787268197E+02  0.19999987017E+02 0.  0.
        -12    1    1    2    0    0 -0.27132680996E+02  0.52049352097E+01  0.33471626678E+02  0.43400731803E+02  0.00000000000E+00 0.  1.
         11    1    3    3    0    0  0.19243682827E+01 -0.41664466036E+01  0.49205813428E+00  0.46156897704E+01  0.51100000000E-03 0.  1.
        -11    1    3    3    0    0  0.10510736063E+02  0.14547685765E+01 -0.20503456491E+02  0.23086438715E+02  0.51100000000E-03 0. -1.
         12    1    3    3    0    0  0.14697576651E+02 -0.24932571826E+01 -0.13460228321E+02  0.20085139712E+02  0.00000000000E+00 0. -1.
</event>
<event>
 7    1  0.2756432E-009  0.4778727E+02  0.7816164E-02  0.1312668E+00
        -11   -1    0    0    0    0  0.00000000000E+00  0.00000000000E+00  0.45593999997E+02  0.45594000000E+02  0.51100000000E-03 0.  1.
         11   -1    0    0    0    0 -0.00000000000E+00 -0.00000000000E+00 -0.45593999997E+02  0.45594000000E+02  0.51100000000E-03 0. -1.
    9900012    2    1    2    0    0  0.17135860136E+02 -0.30645546867E+02 -0.25511497338E+02  0.47787265654E+02  0.19999975421E+02 0.  0.
        -12    1    1    2    0    0 -0.17135860136E+02  0.30645546867E+02  0.25511497338E+02  0.43400734346E+02  0.00000000000E+00 0.  1.
         11    1    3    3    0    0  0.20881055552E+02 -0.24345635135E+02 -0.19180886126E+02  0.37371577756E+02  0.51100000000E-03 0. -1.
        -11    1    3    3    0    0 -0.12471776388E+01 -0.16366117258E+01 -0.42670104094E+01  0.47372278918E+01  0.51100000000E-03 0.  1.
         12    1    3    3    0    0 -0.24980177777E+01 -0.46633000063E+01 -0.20636008023E+01  0.56784600058E+01  0.00000000000E+00 0. -1.
</event>
<event>
 7    1  0.2756432E-009  0.4778727E+02  0.7816164E-02  0.1312668E+00
        -11   -1    0    0    0    0  0.00000000000E+00  0.00000000000E+00  0.45593999997E+02  0.45594000000E+02  0.51100000000E-03 0.  1.
         11   -1    0    0    0    0 -0.00000000000E+00 -0.00000000000E+00 -0.45593999997E+02  0.45594000000E+02  0.51100000000E-03 0. -1.
    9900012    2    1    2    0    0 -0.22727227611E+02  0.48601639841E+01 -0.36653446752E+02  0.47787271577E+02  0.20000002429E+02 0.  0.
        -12    1    1    2    0    0  0.22727227611E+02 -0.48601639841E+01  0.36653446752E+02  0.43400728423E+02  0.00000000000E+00 0.  1.
         11    1    3    3    0    0 -0.16031746483E+02  0.11286400308E+02 -0.17434942153E+02  0.26236938376E+02  0.51100000000E-03 0. -1.
        -11    1    3    3    0    0 -0.37580675500E+01 -0.53773637406E+01 -0.14188143322E+02  0.15631459423E+02  0.51100000000E-03 0.  1.
         12    1    3    3    0    0 -0.29374135778E+01 -0.10488725833E+01 -0.50303612766E+01  0.59188737777E+01  0.00000000000E+00 0. -1.
</event>
<event>
 7    1  0.2756432E-009  0.4778727E+02  0.7816164E-02  0.1312668E+00
        -11   -1    0    0    0    0  0.00000000000E+00  0.00000000000E+00  0.45593999997E+02  0.45594000000E+02  0.51100000000E-03 0.  1.
         11   -1    0    0    0    0 -0.00000000000E+00 -0.00000000000E+00 -0.45593999997E+02  0.45594000000E+02  0.51100000000E-03 0. -1.
    9900012    2    1    2    0    0  0.25873348296E+02  0.27970553411E+02 -0.20780788801E+02  0.47787271973E+02  0.20000004231E+02 0.  0.
        -12    1    1    2    0    0 -0.25873348296E+02 -0.27970553411E+02  0.20780788801E+02  0.43400728027E+02  0.00000000000E+00 0.  1.
         11    1    3    3    0    0  0.97477379850E+00  0.12815462104E+02 -0.65302415733E+01  0.14416320896E+02  0.51100000000E-03 0. -1.
        -11    1    3    3    0    0  0.20524587195E+02  0.15428827782E+02 -0.13168367625E+02  0.28856772384E+02  0.51100000000E-03 0.  1.
        -12    1    3    3    0    0  0.43739873022E+01 -0.27373647555E+00 -0.10821796024E+01  0.45141786927E+01  0.00000000000E+00 0.  1.
</event>
<event>
 7    1  0.2756432E-009  0.4778726E+02  0.7816164E-02  0.1312668E+00
        -11   -1    0    0    0    0  0.00000000000E+00  0.00000000000E+00  0.45593999997E+02  0.45594000000E+02  0.51100000000E-03 0.  1.
         11   -1    0    0    0    0 -0.00000000000E+00 -0.00000000000E+00 -0.45593999997E+02  0.45594000000E+02  0.51100000000E-03 0. -1.
    9900012    2    1    2    0    0  0.17695599958E+02 -0.34140807725E+02 -0.20122017366E+02  0.47787255849E+02  0.19999930717E+02 0.  0.
        -12    1    1    2    0    0 -0.17695599958E+02  0.34140807725E+02  0.20122017366E+02  0.43400744151E+02  0.00000000000E+00 0.  1.
         11    1    3    3    0    0 -0.36013571199E+00 -0.13337297659E+02 -0.27145376235E+01  0.13615502978E+02  0.51100000000E-03 0. -1.
        -11    1    3    3    0    0  0.11341105799E+02 -0.10861588462E+02 -0.15425215243E+02  0.22012088729E+02  0.51100000000E-03 0.  1.
        -12    1    3    3    0    0  0.67146298713E+01 -0.99419216043E+01 -0.19822644992E+01  0.12159664142E+02  0.00000000000E+00 0.  1.
</event>
<event>
 7    1  0.2756432E-009  0.4778728E+02  0.7816164E-02  0.1312668E+00
        -11   -1    0    0    0    0  0.00000000000E+00  0.00000000000E+00  0.45593999997E+02  0.45594000000E+02  0.51100000000E-03 0. -1.
         11   -1    0    0    0    0 -0.00000000000E+00 -0.00000000000E+00 -0.45593999997E+02  0.45594000000E+02  0.51100000000E-03 0.  1.
    9900012    2    1    2    0    0  0.76885674469E+01  0.16851526918E+02  0.39249641530E+02  0.47787281238E+02  0.20000046475E+02 0.  0.
        -12    1    1    2    0    0 -0.76885674469E+01 -0.16851526918E+02 -0.39249641530E+02  0.43400718762E+02  0.00000000000E+00 0.  1.
         11    1    3    3    0    0  0.10903548637E+02  0.44718852340E+01  0.21266702762E+02  0.24313736386E+02  0.51100000000E-03 0. -1.
        -11    1    3    3    0    0 -0.27956855713E+01  0.38576441192E+01  0.12382560307E+02  0.13267444214E+02  0.51100000000E-03 0.  1.
         12    1    3    3    0    0 -0.41929561909E+00  0.85219975646E+01  0.56003784609E+01  0.10206100637E+02  0.00000000000E+00 0. -1.
</event>
<event>
 7    1  0.2756432E-009  0.4778727E+02  0.7816164E-02  0.1312668E+00
        -11   -1    0    0    0    0  0.00000000000E+00  0.00000000000E+00  0.45593999997E+02  0.45594000000E+02  0.51100000000E-03 0.  1.
         11   -1    0    0    0    0 -0.00000000000E+00 -0.00000000000E+00 -0.45593999997E+02  0.45594000000E+02  0.51100000000E-03 0. -1.
    9900012    2    1    2    0    0  0.20588313521E+02  0.10757100675E+02 -0.36661005427E+02  0.47787272040E+02  0.20000004540E+02 0.  0.
        -12    1    1    2    0    0 -0.20588313521E+02 -0.10757100675E+02  0.36661005427E+02  0.43400727960E+02  0.00000000000E+00 0.  1.
         11    1    3    3    0    0  0.16980791316E+01  0.56122726412E+01 -0.55636005812E+01  0.80829900795E+01  0.51100000000E-03 0. -1.
        -11    1    3    3    0    0 -0.21912793110E+01  0.37345039508E+00 -0.69462621769E+01  0.72932659836E+01  0.51100000000E-03 0.  1.
        -12    1    3    3    0    0  0.21081513700E+02  0.47713776384E+01 -0.24151142668E+02  0.32411015977E+02  0.00000000000E+00 0.  1.
</event>
<event>
 7    1  0.2756432E-009  0.4778727E+02  0.7816164E-02  0.1312668E+00
        -11   -1    0    0    0    0  0.00000000000E+00  0.00000000000E+00  0.45593999997E+02  0.45594000000E+02  0.51100000000E-03 0.  1.
         11   -1    0    0    0    0 -0.00000000000E+00 -0.00000000000E+00 -0.45593999997E+02  0.45594000000E+02  0.51100000000E-03 0. -1.
    9900012    2    1    2    0    0 -0.21723691019E+01  0.43062966962E+02 -0.49482384460E+01  0.47787269882E+02  0.19999994701E+02 0.  0.
        -12    1    1    2    0    0  0.21723691019E+01 -0.43062966962E+02  0.49482384460E+01  0.43400730118E+02  0.00000000000E+00 0.  1.
         11    1    3    3    0    0 -0.60077089061E+00  0.18210150529E+02  0.29006913150E+01  0.18449512685E+02  0.51100000000E-03 0. -1.
        -11    1    3    3    0    0  0.52300046857E+01  0.99469898272E+01 -0.16066050568E+00  0.11239277899E+02  0.51100000000E-03 0.  1.
         12    1    3    3    0    0 -0.68016028970E+01  0.14905826605E+02 -0.76882692553E+01  0.18098479298E+02  0.00000000000E+00 0. -1.
</event>
<event>
 7    1  0.2756432E-009  0.4778727E+02  0.7816164E-02  0.1312668E+00
        -11   -1    0    0    0    0  0.00000000000E+00  0.00000000000E+00  0.45593999997E+02  0.45594000000E+02  0.51100000000E-03 0. -1.
         11   -1    0    0    0    0 -0.00000000000E+00 -0.00000000000E+00 -0.45593999997E+02  0.45594000000E+02  0.51100000000E-03 0.  1.
    9900012    2    1    2    0    0 -0.63537757854E+01 -0.40256733878E+02  0.14921398260E+02  0.47787271719E+02  0.20000003076E+02 0.  0.
        -12    1    1    2    0    0  0.63537757854E+01  0.40256733878E+02 -0.14921398260E+02  0.43400728281E+02  0.00000000000E+00 0.  1.
         11    1    3    3    0    0  0.40445342277E+01 -0.96963750731E+01 -0.20832548349E+01  0.10710644128E+02  0.51100000000E-03 0. -1.
        -11    1    3    3    0    0 -0.90249569412E+01 -0.16674604022E+02  0.89680332094E+01  0.20974219580E+02  0.51100000000E-03 0.  1.
         12    1    3    3    0    0 -0.13733530719E+01 -0.13885754783E+02  0.80366198856E+01  0.16102408010E+02  0.00000000000E+00 0. -1.
</event>
<event>
 7    1  0.2756432E-009  0.4778726E+02  0.7816164E-02  0.1312668E+00
        -11   -1    0    0    0    0  0.00000000000E+00  0.00000000000E+00  0.45593999997E+02  0.45594000000E+02  0.51100000000E-03 0.  1.
         11   -1    0    0    0    0 -0.00000000000E+00 -0.00000000000E+00 -0.45593999997E+02  0.45594000000E+02  0.51100000000E-03 0. -1.
    9900012    2    1    2    0    0 -0.41186009822E+02 -0.12801195637E+01  0.13627097449E+02  0.47787263876E+02  0.19999967318E+02 0.  0.
        -12    1    1    2    0    0  0.41186009822E+02  0.12801195637E+01 -0.13627097449E+02  0.43400736124E+02  0.00000000000E+00 0.  1.
         11    1    3    3    0    0 -0.16746813429E+00 -0.39342786832E+01  0.16423259621E+01  0.42665945624E+01  0.51100000000E-03 0. -1.
        -11    1    3    3    0    0 -0.32914555704E+02 -0.10086442746E+01  0.89627057186E+01  0.34127927486E+02  0.51100000000E-03 0.  1.
        -12    1    3    3    0    0 -0.81039859845E+01  0.36628033941E+01  0.30220657680E+01  0.93927418280E+01  0.00000000000E+00 0.  1.
</event>
<event>
 7    1  0.2756432E-009  0.4778727E+02  0.7816164E-02  0.1312668E+00
        -11   -1    0    0    0    0  0.00000000000E+00  0.00000000000E+00  0.45593999997E+02  0.45594000000E+02  0.51100000000E-03 0.  1.
         11   -1    0    0    0    0 -0.00000000000E+00 -0.00000000000E+00 -0.45593999997E+02  0.45594000000E+02  0.51100000000E-03 0. -1.
    9900012    2    1    2    0    0  0.17625261686E+02 -0.78847539876E+01 -0.38869064098E+02  0.47787270296E+02  0.19999996588E+02 0.  0.
        -12    1    1    2    0    0 -0.17625261686E+02  0.78847539876E+01  0.38869064098E+02  0.43400729704E+02  0.00000000000E+00 0.  1.
         11    1    3    3    0    0  0.62492441333E+01 -0.85871117477E+01 -0.16840345012E+02  0.19909514329E+02  0.51100000000E-03 0. -1.
        -11    1    3    3    0    0  0.89384054707E+01  0.44369370219E+01 -0.69691347495E+01  0.12171702507E+02  0.51100000000E-03 0.  1.
        -12    1    3    3    0    0  0.24376120822E+01 -0.37345792619E+01 -0.15059584336E+02  0.15706053461E+02  0.00000000000E+00 0.  1.
</event>
<event>
 7    1  0.2756432E-009  0.4778727E+02  0.7816164E-02  0.1312668E+00
        -11   -1    0    0    0    0  0.00000000000E+00  0.00000000000E+00  0.45593999997E+02  0.45594000000E+02  0.51100000000E-03 0.  1.
         11   -1    0    0    0    0 -0.00000000000E+00 -0.00000000000E+00 -0.45593999997E+02  0.45594000000E+02  0.51100000000E-03 0. -1.
    9900012    2    1    2    0    0  0.73171193720E+01 -0.37693036453E+02 -0.20231614280E+02  0.47787269023E+02  0.19999990783E+02 0.  0.
        -12    1    1    2    0    0 -0.73171193720E+01  0.37693036453E+02  0.20231614280E+02  0.43400730977E+02  0.00000000000E+00 0.  1.
         11    1    3    3    0    0 -0.53839511074E+01 -0.11031448753E+02 -0.33015849482E+01  0.12711422208E+02  0.51100000000E-03 0. -1.
        -11    1    3    3    0    0  0.56085815278E+01 -0.45438549053E+01 -0.60885081659E+01  0.94431316894E+01  0.51100000000E-03 0.  1.
         12    1    3    3    0    0  0.70924889515E+01 -0.22117732795E+02 -0.10841521166E+02  0.25632715126E+02  0.00000000000E+00 0. -1.
</event>
<event>
 7    1  0.2756432E-009  0.4778727E+02  0.7816164E-02  0.1312668E+00
        -11   -1    0    0    0    0  0.00000000000E+00  0.00000000000E+00  0.45593999997E+02  0.45594000000E+02  0.51100000000E-03 0.  1.
         11   -1    0    0    0    0 -0.00000000000E+00 -0.00000000000E+00 -0.45593999997E+02  0.45594000000E+02  0.51100000000E-03 0. -1.
    9900012    2    1    2    0    0  0.39913097704E+02 -0.64625724895E+01 -0.15773503920E+02  0.47787266856E+02  0.19999980902E+02 0.  0.
        -12    1    1    2    0    0 -0.39913097704E+02  0.64625724895E+01  0.15773503920E+02  0.43400733144E+02  0.00000000000E+00 0.  1.
         11    1    3    3    0    0  0.29580080496E+01 -0.58591220010E+01 -0.26633796183E+01  0.70832699720E+01  0.51100000000E-03 0.  1.
        -11    1    3    3    0    0  0.32177280451E+02 -0.21148027167E+01 -0.73586041972E+01  0.33075653036E+02  0.51100000000E-03 0. -1.
         12    1    3    3    0    0  0.47778092035E+01  0.15113522282E+01 -0.57515201048E+01  0.76283438477E+01  0.00000000000E+00 0. -1.
</event>
<event>
 7    1  0.3225774E-009  0.4778727E+02  0.7816164E-02  0.1312668E+00
        -11   -1    0    0    0    0  0.00000000000E+00  0.00000000000E+00  0.45593999997E+02  0.45594000000E+02  0.51100000000E-03 0.  1.
         11   -1    0    0    0    0 -0.00000000000E+00 -0.00000000000E+00 -0.45593999997E+02  0.45594000000E+02  0.51100000000E-03 0. -1.
    9900012    2    1    2    0    0  0.31973689487E+02  0.19218037152E+02 -0.22180475989E+02  0.47787270899E+02  0.19999999337E+02 0.  0.
        -12    1    1    2    0    0 -0.31973689487E+02 -0.19218037152E+02  0.22180475989E+02  0.43400729101E+02  0.00000000000E+00 0.  1.
         11    1    3    3    0    0  0.19630735557E+02  0.75070220010E+01 -0.14049002584E+02  0.25280340814E+02  0.51100000000E-03 0. -1.
        -11    1    3    3    0    0  0.88016294577E+01  0.13761921815E+02 -0.42799371350E+01  0.16887185535E+02  0.51100000000E-03 0.  1.
        -12    1    3    3    0    0  0.35413244722E+01 -0.20509066638E+01 -0.38515362704E+01  0.56197445497E+01  0.00000000000E+00 0.  1.
</event>
<event>
 7    1  0.2756432E-009  0.4778727E+02  0.7816164E-02  0.1312668E+00
        -11   -1    0    0    0    0  0.00000000000E+00  0.00000000000E+00  0.45593999997E+02  0.45594000000E+02  0.51100000000E-03 0.  1.
         11   -1    0    0    0    0 -0.00000000000E+00 -0.00000000000E+00 -0.45593999997E+02  0.45594000000E+02  0.51100000000E-03 0. -1.
    9900012    2    1    2    0    0  0.16013003414E+02  0.12950048590E+02 -0.38203448732E+02  0.47787268073E+02  0.19999986451E+02 0.  0.
        -12    1    1    2    0    0 -0.16013003414E+02 -0.12950048590E+02  0.38203448732E+02  0.43400731927E+02  0.00000000000E+00 0.  1.
         11    1    3    3    0    0  0.99626020922E+01 -0.14313317706E+01 -0.17788980304E+02  0.20438932741E+02  0.51100000000E-03 0. -1.
        -11    1    3    3    0    0 -0.25454712721E+01  0.29682424821E+01 -0.44208915932E+01  0.59020479640E+01  0.51100000000E-03 0.  1.
         12    1    3    3    0    0  0.85958725939E+01  0.11413137878E+02 -0.15993576835E+02  0.21446287367E+02  0.00000000000E+00 0. -1.
</event>
<event>
 7    1  0.2756432E-009  0.4778727E+02  0.7816164E-02  0.1312668E+00
        -11   -1    0    0    0    0  0.00000000000E+00  0.00000000000E+00  0.45593999997E+02  0.45594000000E+02  0.51100000000E-03 0.  1.
         11   -1    0    0    0    0 -0.00000000000E+00 -0.00000000000E+00 -0.45593999997E+02  0.45594000000E+02  0.51100000000E-03 0. -1.
    9900012    2    1    2    0    0 -0.54841467594E+01  0.42997215041E+02 -0.21879000599E+01  0.47787271047E+02  0.20000000012E+02 0.  0.
        -12    1    1    2    0    0  0.54841467594E+01 -0.42997215041E+02  0.21879000599E+01  0.43400728953E+02  0.00000000000E+00 0.  1.
         11    1    3    3    0    0 -0.20953917401E+01  0.27005029846E+02 -0.80047006172E+01  0.28244247835E+02  0.51100000000E-03 0. -1.
        -11    1    3    3    0    0 -0.51066268777E+01  0.87376807242E+01  0.65449357691E+01  0.12052422453E+02  0.51100000000E-03 0.  1.
         12    1    3    3    0    0  0.17178718585E+01  0.72545044712E+01 -0.72813521181E+00  0.74906007590E+01  0.00000000000E+00 0. -1.
</event>
<event>
 7    1  0.2756432E-009  0.4778727E+02  0.7816164E-02  0.1312668E+00
        -11   -1    0    0    0    0  0.00000000000E+00  0.00000000000E+00  0.45593999997E+02  0.45594000000E+02  0.51100000000E-03 0. -1.
         11   -1    0    0    0    0 -0.00000000000E+00 -0.00000000000E+00 -0.45593999997E+02  0.45594000000E+02  0.51100000000E-03 0.  1.
    9900012    2    1    2    0    0 -0.17193651641E+02 -0.14940253621E+01  0.39821718749E+02  0.47787273593E+02  0.20000011620E+02 0.  0.
        -12    1    1    2    0    0  0.17193651641E+02  0.14940253621E+01 -0.39821718749E+02  0.43400726407E+02  0.00000000000E+00 0.  1.
         11    1    3    3    0    0 -0.96780715428E+01 -0.15390672827E+01  0.49010638084E+01  0.10956925828E+02  0.51100000000E-03 0. -1.
        -11    1    3    3    0    0 -0.50654920836E+01  0.43883054949E+01  0.19033376953E+02  0.20178847184E+02  0.51100000000E-03 0.  1.
         12    1    3    3    0    0 -0.24500880141E+01 -0.43432635743E+01  0.15887277987E+02  0.16651500581E+02  0.00000000000E+00 0. -1.
</event>
<event>
 7    1  0.2756432E-009  0.4778727E+02  0.7816164E-02  0.1312668E+00
        -11   -1    0    0    0    0  0.00000000000E+00  0.00000000000E+00  0.45593999997E+02  0.45594000000E+02  0.51100000000E-03 0. -1.
         11   -1    0    0    0    0 -0.00000000000E+00 -0.00000000000E+00 -0.45593999997E+02  0.45594000000E+02  0.51100000000E-03 0.  1.
    9900012    2    1    2    0    0  0.38405521709E+02 -0.45310170865E+01  0.19700486504E+02  0.47787269798E+02  0.19999994317E+02 0.  0.
        -12    1    1    2    0    0 -0.38405521709E+02  0.45310170865E+01 -0.19700486504E+02  0.43400730202E+02  0.00000000000E+00 0.  1.
         11    1    3    3    0    0  0.35537766992E+01 -0.37528382182E+01  0.15082653671E+01  0.53840494238E+01  0.51100000000E-03 0.  1.
        -11    1    3    3    0    0  0.29970303569E+02 -0.58462624833E+01  0.11315547410E+02  0.32564389976E+02  0.51100000000E-03 0. -1.
        -12    1    3    3    0    0  0.48814414405E+01  0.50680836150E+01  0.68766737265E+01  0.98388303983E+01  0.00000000000E+00 0.  1.
</event>
<event>
 7    1  0.2756432E-009  0.4778727E+02  0.7816164E-02  0.1312668E+00
        -11   -1    0    0    0    0  0.00000000000E+00  0.00000000000E+00  0.45593999997E+02  0.45594000000E+02  0.51100000000E-03 0.  1.
         11   -1    0    0    0    0 -0.00000000000E+00 -0.00000000000E+00 -0.45593999997E+02  0.45594000000E+02  0.51100000000E-03 0. -1.
    9900012    2    1    2    0    0 -0.79947616303E+01  0.42543932787E+02 -0.31178431835E+01  0.47787269861E+02  0.19999994604E+02 0.  0.
        -12    1    1    2    0    0  0.79947616303E+01 -0.42543932787E+02  0.31178431835E+01  0.43400730139E+02  0.00000000000E+00 0.  1.
         11    1    3    3    0    0 -0.40483154761E+00  0.14876280805E+01 -0.47802155874E+01  0.50226872500E+01  0.51100000000E-03 0.  1.
        -11    1    3    3    0    0 -0.95287705131E+01  0.30023878389E+02  0.50834216540E+00  0.31503795851E+02  0.51100000000E-03 0. -1.
        -12    1    3    3    0    0  0.19388404304E+01  0.11032426317E+02  0.11540302386E+01  0.11260786760E+02  0.00000000000E+00 0.  1.
</event>
<event>
 7    1  0.2756432E-009  0.4778729E+02  0.7816164E-02  0.1312668E+00
        -11   -1    0    0    0    0  0.00000000000E+00  0.00000000000E+00  0.45593999997E+02  0.45594000000E+02  0.51100000000E-03 0.  1.
         11   -1    0    0    0    0 -0.00000000000E+00 -0.00000000000E+00 -0.45593999997E+02  0.45594000000E+02  0.51100000000E-03 0. -1.
    9900012    2    1    2    0    0 -0.35671468363E+01 -0.86443452779E+00 -0.43245232609E+02  0.47787286561E+02  0.20000070748E+02 0.  0.
        -12    1    1    2    0    0  0.35671468363E+01  0.86443452779E+00  0.43245232609E+02  0.43400713439E+02  0.00000000000E+00 0.  1.
         11    1    3    3    0    0 -0.58075675607E+01 -0.15686467562E+01 -0.23926797603E+01  0.64740567123E+01  0.51100000000E-03 0.  1.
        -11    1    3    3    0    0  0.16153577465E+01 -0.93923898723E-01 -0.39865451952E+02  0.39898276428E+02  0.51100000000E-03 0. -1.
         12    1    3    3    0    0  0.62506297788E+00  0.79813612709E+00 -0.98710089682E+00  0.14149534212E+01  0.00000000000E+00 0. -1.
</event>
<event>
 7    1  0.2756432E-009  0.4778727E+02  0.7816164E-02  0.1312668E+00
        -11   -1    0    0    0    0  0.00000000000E+00  0.00000000000E+00  0.45593999997E+02  0.45594000000E+02  0.51100000000E-03 0.  1.
         11   -1    0    0    0    0 -0.00000000000E+00 -0.00000000000E+00 -0.45593999997E+02  0.45594000000E+02  0.51100000000E-03 0. -1.
    9900012    2    1    2    0    0 -0.25327187005E+02 -0.23550608109E+02 -0.26220708738E+02  0.47787272926E+02  0.20000008577E+02 0.  0.
        -12    1    1    2    0    0  0.25327187005E+02  0.23550608109E+02  0.26220708738E+02  0.43400727074E+02  0.00000000000E+00 0.  1.
         11    1    3    3    0    0 -0.31658749699E+01 -0.15593520887E+02 -0.79554538382E+01  0.17789601008E+02  0.51100000000E-03 0. -1.
        -11    1    3    3    0    0 -0.72746780036E+01 -0.12251944724E+01 -0.45619338281E+01  0.86737121271E+01  0.51100000000E-03 0.  1.
         12    1    3    3    0    0 -0.14886634031E+02 -0.67318927498E+01 -0.13703321071E+02  0.21323959791E+02  0.00000000000E+00 0. -1.
</event>
<event>
 7    1  0.2756432E-009  0.4778727E+02  0.7816164E-02  0.1312668E+00
        -11   -1    0    0    0    0  0.00000000000E+00  0.00000000000E+00  0.45593999997E+02  0.45594000000E+02  0.51100000000E-03 0. -1.
         11   -1    0    0    0    0 -0.00000000000E+00 -0.00000000000E+00 -0.45593999997E+02  0.45594000000E+02  0.51100000000E-03 0.  1.
    9900012    2    1    2    0    0 -0.77523312496E+01  0.27009741613E+02 -0.33075649614E+02  0.47787269831E+02  0.19999994467E+02 0.  0.
        -12    1    1    2    0    0  0.77523312496E+01 -0.27009741613E+02  0.33075649614E+02  0.43400730169E+02  0.00000000000E+00 0.  1.
         11    1    3    3    0    0  0.41615503517E+00  0.18279700152E+02 -0.93770114976E+01  0.20548697466E+02  0.51100000000E-03 0. -1.
        -11    1    3    3    0    0 -0.51364987984E+01  0.14105476335E+01 -0.11762648208E+02  0.12912519416E+02  0.51100000000E-03 0.  1.
         12    1    3    3    0    0 -0.30319874863E+01  0.73194938280E+01 -0.11935989908E+02  0.14326052949E+02  0.00000000000E+00 0. -1.
</event>
<event>
 7    1  0.2756432E-009  0.4778728E+02  0.7816164E-02  0.1312668E+00
        -11   -1    0    0    0    0  0.00000000000E+00  0.00000000000E+00  0.45593999997E+02  0.45594000000E+02  0.51100000000E-03 0. -1.
         11   -1    0    0    0    0 -0.00000000000E+00 -0.00000000000E+00 -0.45593999997E+02  0.45594000000E+02  0.51100000000E-03 0.  1.
    9900012    2    1    2    0    0 -0.37581735032E+02  0.48364150726E+01  0.21162350689E+02  0.47787276441E+02  0.20000024605E+02 0.  0.
        -12    1    1    2    0    0  0.37581735032E+02 -0.48364150726E+01 -0.21162350689E+02  0.43400723559E+02  0.00000000000E+00 0.  1.
         11    1    3    3    0    0 -0.12745942657E+02  0.89364183930E+01  0.97345355275E+01  0.18359733389E+02  0.51100000000E-03 0. -1.
        -11    1    3    3    0    0 -0.16667965151E+02 -0.72537501677E+01  0.92924114021E+01  0.20415358525E+02  0.51100000000E-03 0.  1.
         12    1    3    3    0    0 -0.81678272244E+01  0.31537468472E+01  0.21354037594E+01  0.90121845277E+01  0.00000000000E+00 0. -1.
</event>
<event>
 7    1  0.2756432E-009  0.4778727E+02  0.7816164E-02  0.1312668E+00
        -11   -1    0    0    0    0  0.00000000000E+00  0.00000000000E+00  0.45593999997E+02  0.45594000000E+02  0.51100000000E-03 0.  1.
         11   -1    0    0    0    0 -0.00000000000E+00 -0.00000000000E+00 -0.45593999997E+02  0.45594000000E+02  0.51100000000E-03 0. -1.
    9900012    2    1    2    0    0  0.26737843359E+02 -0.29391150909E+02 -0.17460569438E+02  0.47787268389E+02  0.19999987893E+02 0.  0.
        -12    1    1    2    0    0 -0.26737843359E+02  0.29391150909E+02  0.17460569438E+02  0.43400731611E+02  0.00000000000E+00 0.  1.
         11    1    3    3    0    0  0.13495333090E+02 -0.18150564538E+02 -0.12141332127E+01  0.22650411210E+02  0.51100000000E-03 0. -1.
        -11    1    3    3    0    0  0.11504447084E+02 -0.11710860827E+02 -0.11453781783E+02  0.20017134695E+02  0.51100000000E-03 0.  1.
         12    1    3    3    0    0  0.17380631853E+01  0.47027445679E+00 -0.47926544425E+01  0.51197224833E+01  0.00000000000E+00 0. -1.
</event>
<event>
 7    1  0.2756432E-009  0.4778727E+02  0.7816164E-02  0.1312668E+00
        -11   -1    0    0    0    0  0.00000000000E+00  0.00000000000E+00  0.45593999997E+02  0.45594000000E+02  0.51100000000E-03 0.  1.
         11   -1    0    0    0    0 -0.00000000000E+00 -0.00000000000E+00 -0.45593999997E+02  0.45594000000E+02  0.51100000000E-03 0. -1.
    9900012    2    1    2    0    0  0.10919190607E+02 -0.10367307157E+02 -0.40705205333E+02  0.47787268182E+02  0.19999986947E+02 0.  0.
        -12    1    1    2    0    0 -0.10919190607E+02  0.10367307157E+02  0.40705205333E+02  0.43400731818E+02  0.00000000000E+00 0.  1.
         11    1    3    3    0    0  0.67142500840E+01 -0.62879343926E+01 -0.82634547174E+01  0.12365433969E+02  0.51100000000E-03 0. -1.
        -11    1    3    3    0    0 -0.33114524688E+01 -0.32387856729E+01 -0.22268659707E+02  0.22745299635E+02  0.51100000000E-03 0.  1.
        -12    1    3    3    0    0  0.75163929917E+01 -0.84058709146E+00 -0.10173090908E+02  0.12676534577E+02  0.00000000000E+00 0.  1.
</event>
<event>
 7    1  0.4612705E-009  0.4778727E+02  0.7816164E-02  0.1312668E+00
        -11   -1    0    0    0    0  0.00000000000E+00  0.00000000000E+00  0.45593999997E+02  0.45594000000E+02  0.51100000000E-03 0. -1.
         11   -1    0    0    0    0 -0.00000000000E+00 -0.00000000000E+00 -0.45593999997E+02  0.45594000000E+02  0.51100000000E-03 0.  1.
    9900012    2    1    2    0    0 -0.21449247909E+02 -0.31755222426E+02  0.20375457848E+02  0.47787266484E+02  0.19999979207E+02 0.  0.
        -12    1    1    2    0    0  0.21449247909E+02  0.31755222426E+02 -0.20375457848E+02  0.43400733516E+02  0.00000000000E+00 0.  1.
         11    1    3    3    0    0 -0.52081079950E+01 -0.14676552614E+02  0.11873213607E+02  0.19583125061E+02  0.51100000000E-03 0. -1.
        -11    1    3    3    0    0 -0.15240145698E+02 -0.13684559642E+02  0.17203133973E+01  0.20554529718E+02  0.51100000000E-03 0.  1.
        -12    1    3    3    0    0 -0.10009942163E+01 -0.33941101701E+01  0.67819308439E+01  0.76496117051E+01  0.00000000000E+00 0.  1.
</event>
<event>
 7    1  0.2756432E-009  0.4778727E+02  0.7816164E-02  0.1312668E+00
        -11   -1    0    0    0    0  0.00000000000E+00  0.00000000000E+00  0.45593999997E+02  0.45594000000E+02  0.51100000000E-03 0.  1.
         11   -1    0    0    0    0 -0.00000000000E+00 -0.00000000000E+00 -0.45593999997E+02  0.45594000000E+02  0.51100000000E-03 0. -1.
    9900012    2    1    2    0    0  0.30882949189E+02 -0.28120063318E+02 -0.11795286510E+02  0.47787270796E+02  0.19999998867E+02 0.  0.
        -12    1    1    2    0    0 -0.30882949189E+02  0.28120063318E+02  0.11795286510E+02  0.43400729204E+02  0.00000000000E+00 0.  1.
         11    1    3    3    0    0  0.70020005298E+01 -0.83782694748E+01 -0.65937404542E+01  0.12755423327E+02  0.51100000000E-03 0. -1.
        -11    1    3    3    0    0 -0.53785242984E+00 -0.61139459732E+01  0.14083775151E+01  0.62970745657E+01  0.51100000000E-03 0.  1.
        -12    1    3    3    0    0  0.24418801089E+02 -0.13627847870E+02 -0.66099235708E+01  0.28734772903E+02  0.00000000000E+00 0.  1.
</event>
