<event>
 7    1  0.1654239E-015  0.9000879E+02  0.7816164E-02  0.1186337E+00
        -11   -1    0    0    0    0  0.00000000000E+00  0.00000000000E+00  0.45593999997E+02  0.45594000000E+02  0.51100000000E-03 0. -1.
         11   -1    0    0    0    0 -0.00000000000E+00 -0.00000000000E+00 -0.45593999997E+02  0.45594000000E+02  0.51100000000E-03 0.  1.
    9900012    2    1    2    0    0 -0.59884740369E+00 -0.87769355482E+00 -0.51143605820E+00  0.90008792202E+02  0.90001067453E+02 0.  0.
        -12    1    1    2    0    0  0.59884740369E+00  0.87769355482E+00  0.51143605820E+00  0.11792077979E+01  0.00000000000E+00 0.  1.
         11    1    3    3    0    0 -0.17106208610E+02  0.39593335293E+01 -0.12621786114E+01  0.17603743639E+02  0.51100000000E-03 0. -1.
        -11    1    3    3    0    0 -0.97337143856E+01 -0.29668796551E+02 -0.12899874927E+02  0.33784455862E+02  0.51100000000E-03 0.  1.
         12    1    3    3    0    0  0.26241075592E+02  0.24831769466E+02  0.13650617480E+02  0.38620592701E+02  0.00000000000E+00 0. -1.
</event>
<event>
 7    1  0.1654239E-015  0.9000812E+02  0.7816164E-02  0.1186338E+00
        -11   -1    0    0    0    0  0.00000000000E+00  0.00000000000E+00  0.45593999997E+02  0.45594000000E+02  0.51100000000E-03 0.  1.
         11   -1    0    0    0    0 -0.00000000000E+00 -0.00000000000E+00 -0.45593999997E+02  0.45594000000E+02  0.51100000000E-03 0. -1.
    9900012    2    1    2    0    0 -0.76097286233E+00 -0.49673443685E+00 -0.75251867304E+00  0.90008123247E+02  0.90000389673E+02 0.  0.
        -12    1    1    2    0    0  0.76097286233E+00  0.49673443685E+00  0.75251867304E+00  0.11798767526E+01  0.00000000000E+00 0.  1.
         11    1    3    3    0    0 -0.18165127920E+02  0.11203231790E+02 -0.29853081303E+02  0.36697285164E+02  0.51100000000E-03 0. -1.
        -11    1    3    3    0    0  0.90954093900E+00  0.53471768298E+01 -0.77657906014E+01  0.94724373154E+01  0.51100000000E-03 0.  1.
        -12    1    3    3    0    0  0.16494614119E+02 -0.17047143056E+02  0.36866353231E+02  0.43838400768E+02  0.00000000000E+00 0.  1.
</event>
<event>
 7    1  0.1654239E-015  0.9000753E+02  0.7816164E-02  0.1186339E+00
        -11   -1    0    0    0    0  0.00000000000E+00  0.00000000000E+00  0.45593999997E+02  0.45594000000E+02  0.51100000000E-03 0. -1.
         11   -1    0    0    0    0 -0.00000000000E+00 -0.00000000000E+00 -0.45593999997E+02  0.45594000000E+02  0.51100000000E-03 0.  1.
    9900012    2    1    2    0    0  0.76117282746E+00 -0.17600344864E+00  0.88495466301E+00  0.90007531431E+02  0.89999790045E+02 0.  0.
        -12    1    1    2    0    0 -0.76117282746E+00  0.17600344864E+00 -0.88495466301E+00  0.11804685692E+01  0.00000000000E+00 0.  1.
         11    1    3    3    0    0 -0.40240953870E+02  0.39321298579E+01  0.65363173011E+01  0.40957532368E+02  0.51100000000E-03 0. -1.
        -11    1    3    3    0    0  0.11167144838E+01 -0.26741167149E+01 -0.85558205029E+01  0.90332727282E+01  0.51100000000E-03 0.  1.
        -12    1    3    3    0    0  0.39885412214E+02 -0.14340165916E+01  0.29044578649E+01  0.40016726334E+02  0.00000000000E+00 0.  1.
</event>
<event>
 7    1  0.1654239E-015  0.9000766E+02  0.7816164E-02  0.1186339E+00
        -11   -1    0    0    0    0  0.00000000000E+00  0.00000000000E+00  0.45593999997E+02  0.45594000000E+02  0.51100000000E-03 0.  1.
         11   -1    0    0    0    0 -0.00000000000E+00 -0.00000000000E+00 -0.45593999997E+02  0.45594000000E+02  0.51100000000E-03 0. -1.
    9900012    2    1    2    0    0 -0.73717251173E+00  0.45482089836E+00  0.80182339231E+00  0.90007658476E+02  0.89999918767E+02 0.  0.
        -12    1    1    2    0    0  0.73717251173E+00 -0.45482089836E+00 -0.80182339231E+00  0.11803415243E+01  0.00000000000E+00 0.  1.
         11    1    3    3    0    0  0.18798559552E+02 -0.63105061328E+01 -0.31842509446E+02  0.37512047891E+02  0.51100000000E-03 0. -1.
        -11    1    3    3    0    0 -0.11384644519E+01 -0.10089845652E+02 -0.14391420282E+01  0.10255350634E+02  0.51100000000E-03 0.  1.
        -12    1    3    3    0    0 -0.18397267612E+02  0.16855172683E+02  0.34083474866E+02  0.42240259951E+02  0.00000000000E+00 0.  1.
</event>
<event>
 7    1  0.1654239E-015  0.9000778E+02  0.7816164E-02  0.1186339E+00
        -11   -1    0    0    0    0  0.00000000000E+00  0.00000000000E+00  0.45593999997E+02  0.45594000000E+02  0.51100000000E-03 0. -1.
         11   -1    0    0    0    0 -0.00000000000E+00 -0.00000000000E+00 -0.45593999997E+02  0.45594000000E+02  0.51100000000E-03 0.  1.
    9900012    2    1    2    0    0  0.10985855280E+01 -0.17563936687E+00 -0.39392187026E+00  0.90007782313E+02  0.90000044239E+02 0.  0.
        -12    1    1    2    0    0 -0.10985855280E+01  0.17563936687E+00  0.39392187026E+00  0.11802176873E+01  0.00000000000E+00 0.  1.
         11    1    3    3    0    0  0.69208056886E+01  0.71156341995E+01 -0.12007522021E+01  0.99985802769E+01  0.51100000000E-03 0. -1.
        -11    1    3    3    0    0 -0.33834140281E+02  0.41489730356E+01  0.24165089312E+02  0.41784142537E+02  0.51100000000E-03 0.  1.
         12    1    3    3    0    0  0.28011920120E+02 -0.11440246602E+02 -0.23358258981E+02  0.38225059499E+02  0.00000000000E+00 0. -1.
</event>
<event>
 7    1  0.1654239E-015  0.9000775E+02  0.7816164E-02  0.1186339E+00
        -11   -1    0    0    0    0  0.00000000000E+00  0.00000000000E+00  0.45593999997E+02  0.45594000000E+02  0.51100000000E-03 0.  1.
         11   -1    0    0    0    0 -0.00000000000E+00 -0.00000000000E+00 -0.45593999997E+02  0.45594000000E+02  0.51100000000E-03 0. -1.
    9900012    2    1    2    0    0 -0.69892751173E+00 -0.77420157009E+00 -0.55237058502E+00  0.90007745366E+02  0.90000006805E+02 0.  0.
        -12    1    1    2    0    0  0.69892751173E+00  0.77420157009E+00  0.55237058502E+00  0.11802546340E+01  0.00000000000E+00 0.  1.
         11    1    3    3    0    0 -0.72830951341E+01  0.37198444077E+01  0.46317162960E+01  0.93985910251E+01  0.51100000000E-03 0. -1.
        -11    1    3    3    0    0 -0.55277729893E+00 -0.11546110231E+02  0.36213202300E+02  0.38013342990E+02  0.51100000000E-03 0.  1.
         12    1    3    3    0    0  0.71369449213E+01  0.70520642533E+01 -0.41397289181E+02  0.42595811350E+02  0.00000000000E+00 0. -1.
</event>
<event>
 7    1  0.1654239E-015  0.9000782E+02  0.7816164E-02  0.1186339E+00
        -11   -1    0    0    0    0  0.00000000000E+00  0.00000000000E+00  0.45593999997E+02  0.45594000000E+02  0.51100000000E-03 0.  1.
         11   -1    0    0    0    0 -0.00000000000E+00 -0.00000000000E+00 -0.45593999997E+02  0.45594000000E+02  0.51100000000E-03 0. -1.
    9900012    2    1    2    0    0 -0.83556027539E+00 -0.66295782161E+00 -0.50512467344E+00  0.90007819936E+02  0.90000082359E+02 0.  0.
        -12    1    1    2    0    0  0.83556027539E+00  0.66295782161E+00  0.50512467344E+00  0.11801800637E+01  0.00000000000E+00 0.  1.
         11    1    3    3    0    0  0.55560433474E+01  0.22109621310E+02 -0.30154029895E+02  0.37801726036E+02  0.51100000000E-03 0. -1.
        -11    1    3    3    0    0  0.84080749565E+01 -0.30312010246E+00 -0.38394954146E+01  0.92482069382E+01  0.51100000000E-03 0.  1.
        -12    1    3    3    0    0 -0.14799678579E+02 -0.22469459029E+02  0.33488400636E+02  0.42957886962E+02  0.00000000000E+00 0.  1.
</event>
<event>
 7    1  0.1654239E-015  0.9000748E+02  0.7816164E-02  0.1186340E+00
        -11   -1    0    0    0    0  0.00000000000E+00  0.00000000000E+00  0.45593999997E+02  0.45594000000E+02  0.51100000000E-03 0.  1.
         11   -1    0    0    0    0 -0.00000000000E+00 -0.00000000000E+00 -0.45593999997E+02  0.45594000000E+02  0.51100000000E-03 0. -1.
    9900012    2    1    2    0    0 -0.51510616280E+00 -0.34914630397E+00 -0.10031845475E+01  0.90007484546E+02  0.89999742542E+02 0.  0.
        -12    1    1    2    0    0  0.51510616280E+00  0.34914630397E+00  0.10031845475E+01  0.11805154539E+01  0.00000000000E+00 0.  1.
         11    1    3    3    0    0 -0.33741501011E+02 -0.13401741996E+02 -0.14240463555E+02  0.38998543326E+02  0.51100000000E-03 0. -1.
        -11    1    3    3    0    0 -0.55634547963E+01  0.11820369318E+01  0.84163252201E+01  0.10157941280E+02  0.51100000000E-03 0.  1.
        -12    1    3    3    0    0  0.38789849644E+02  0.11870558761E+02  0.48209537874E+01  0.40850999940E+02  0.00000000000E+00 0.  1.
</event>
<event>
 7    1  0.1654239E-015  0.9000778E+02  0.7816164E-02  0.1186339E+00
        -11   -1    0    0    0    0  0.00000000000E+00  0.00000000000E+00  0.45593999997E+02  0.45594000000E+02  0.51100000000E-03 0.  1.
         11   -1    0    0    0    0 -0.00000000000E+00 -0.00000000000E+00 -0.45593999997E+02  0.45594000000E+02  0.51100000000E-03 0. -1.
    9900012    2    1    2    0    0  0.51832757819E+00  0.92061527283E-01 -0.10563001895E+01  0.90007784387E+02  0.90000046341E+02 0.  0.
        -12    1    1    2    0    0 -0.51832757819E+00 -0.92061527283E-01  0.10563001895E+01  0.11802156131E+01  0.00000000000E+00 0.  1.
         11    1    3    3    0    0 -0.38463049470E+01 -0.57289084965E+01 -0.40884165119E+02  0.41462385508E+02  0.51100000000E-03 0. -1.
        -11    1    3    3    0    0  0.96848443799E+01 -0.11313603208E+01  0.23112063198E+01  0.10020871307E+02  0.51100000000E-03 0.  1.
        -12    1    3    3    0    0 -0.53202118547E+01  0.69523303446E+01  0.37516658610E+02  0.38524527572E+02  0.00000000000E+00 0.  1.
</event>
<event>
 7    1  0.1654239E-015  0.9000713E+02  0.7816164E-02  0.1186340E+00
        -11   -1    0    0    0    0  0.00000000000E+00  0.00000000000E+00  0.45593999997E+02  0.45594000000E+02  0.51100000000E-03 0.  1.
         11   -1    0    0    0    0 -0.00000000000E+00 -0.00000000000E+00 -0.45593999997E+02  0.45594000000E+02  0.51100000000E-03 0. -1.
    9900012    2    1    2    0    0  0.11059043958E+01 -0.31361078817E+00 -0.27034029781E+00  0.90007127384E+02  0.89999380663E+02 0.  0.
        -12    1    1    2    0    0 -0.11059043958E+01  0.31361078817E+00  0.27034029781E+00  0.11808726162E+01  0.00000000000E+00 0.  1.
         11    1    3    3    0    0 -0.40881643084E+01 -0.24991870606E+02 -0.11866299870E+02  0.27966332556E+02  0.51100000000E-03 0. -1.
        -11    1    3    3    0    0 -0.22521960041E+02  0.15591265461E+01  0.12754496811E+02  0.25929649995E+02  0.51100000000E-03 0.  1.
         12    1    3    3    0    0  0.27716028745E+02  0.23119133271E+02 -0.11585372388E+01  0.36111144833E+02  0.00000000000E+00 0. -1.
</event>
<event>
 7    1  0.1654239E-015  0.9000792E+02  0.7816164E-02  0.1186339E+00
        -11   -1    0    0    0    0  0.00000000000E+00  0.00000000000E+00  0.45593999997E+02  0.45594000000E+02  0.51100000000E-03 0.  1.
         11   -1    0    0    0    0 -0.00000000000E+00 -0.00000000000E+00 -0.45593999997E+02  0.45594000000E+02  0.51100000000E-03 0. -1.
    9900012    2    1    2    0    0  0.31045762031E+00 -0.65755512502E+00 -0.92942362628E+00  0.90007919090E+02  0.90000182822E+02 0.  0.
        -12    1    1    2    0    0 -0.31045762031E+00  0.65755512502E+00  0.92942362628E+00  0.11800809097E+01  0.00000000000E+00 0.  1.
         11    1    3    3    0    0 -0.59877015394E+01 -0.37261145706E+01 -0.35058479487E+02  0.35760781364E+02  0.51100000000E-03 0. -1.
        -11    1    3    3    0    0 -0.11507943482E+01 -0.44793352431E+01 -0.88465391621E+01  0.99824860260E+01  0.51100000000E-03 0.  1.
        -12    1    3    3    0    0  0.74489535079E+01  0.75478946887E+01  0.42975595023E+02  0.44264651701E+02  0.00000000000E+00 0.  1.
</event>
<event>
 7    1  0.1654239E-015  0.9000770E+02  0.7816164E-02  0.1186339E+00
        -11   -1    0    0    0    0  0.00000000000E+00  0.00000000000E+00  0.45593999997E+02  0.45594000000E+02  0.51100000000E-03 0.  1.
         11   -1    0    0    0    0 -0.00000000000E+00 -0.00000000000E+00 -0.45593999997E+02  0.45594000000E+02  0.51100000000E-03 0. -1.
    9900012    2    1    2    0    0 -0.55686466875E-01  0.11725614182E+01  0.12294299448E+00  0.90007696547E+02  0.89999957341E+02 0.  0.
        -12    1    1    2    0    0  0.55686466875E-01 -0.11725614182E+01 -0.12294299448E+00  0.11803034533E+01  0.00000000000E+00 0.  1.
         11    1    3    3    0    0 -0.25266713716E+02 -0.24223266023E+02 -0.10902667391E+02  0.36661172858E+02  0.51100000000E-03 0. -1.
        -11    1    3    3    0    0 -0.81583459920E+01  0.12574225140E+01 -0.44166462115E+01  0.93619701303E+01  0.51100000000E-03 0.  1.
        -12    1    3    3    0    0  0.33369373241E+02  0.24138404927E+02  0.15442256597E+02  0.43984553558E+02  0.00000000000E+00 0.  1.
</event>
<event>
 7    1  0.1654239E-015  0.9000776E+02  0.7816164E-02  0.1186339E+00
        -11   -1    0    0    0    0  0.00000000000E+00  0.00000000000E+00  0.45593999997E+02  0.45594000000E+02  0.51100000000E-03 0.  1.
         11   -1    0    0    0    0 -0.00000000000E+00 -0.00000000000E+00 -0.45593999997E+02  0.45594000000E+02  0.51100000000E-03 0. -1.
    9900012    2    1    2    0    0  0.55978083237E+00  0.76618476631E+00 -0.70184032866E+00  0.90007757007E+02  0.90000018599E+02 0.  0.
        -12    1    1    2    0    0 -0.55978083237E+00 -0.76618476631E+00  0.70184032866E+00  0.11802429933E+01  0.00000000000E+00 0.  1.
         11    1    3    3    0    0  0.10639403748E+02 -0.13067137407E+02 -0.34634953643E+02  0.38516580926E+02  0.51100000000E-03 0. -1.
        -11    1    3    3    0    0 -0.10619512160E+02 -0.31100636182E+01 -0.24670210779E+01  0.11337227504E+02  0.51100000000E-03 0.  1.
        -12    1    3    3    0    0  0.53988924403E+00  0.16943385792E+02  0.36400134392E+02  0.40153948576E+02  0.00000000000E+00 0.  1.
</event>
<event>
 7    1  0.1654239E-015  0.9000767E+02  0.7816164E-02  0.1186339E+00
        -11   -1    0    0    0    0  0.00000000000E+00  0.00000000000E+00  0.45593999997E+02  0.45594000000E+02  0.51100000000E-03 0. -1.
         11   -1    0    0    0    0 -0.00000000000E+00 -0.00000000000E+00 -0.45593999997E+02  0.45594000000E+02  0.51100000000E-03 0.  1.
    9900012    2    1    2    0    0 -0.11309535199E+00 -0.10409618215E+01  0.54479199931E+00  0.90007665134E+02  0.89999925514E+02 0.  0.
        -12    1    1    2    0    0  0.11309535199E+00  0.10409618215E+01 -0.54479199931E+00  0.11803348657E+01  0.00000000000E+00 0.  1.
         11    1    3    3    0    0 -0.88920915767E+01 -0.16718390351E+02  0.33653547583E+02  0.38615218939E+02  0.51100000000E-03 0. -1.
        -11    1    3    3    0    0  0.11944065161E+02 -0.79311988597E+00  0.23210954299E+01  0.12193326699E+02  0.51100000000E-03 0.  1.
        -12    1    3    3    0    0 -0.31650689362E+01  0.16470548415E+02 -0.35429851014E+02  0.39199119497E+02  0.00000000000E+00 0.  1.
</event>
<event>
 7    1  0.1654239E-015  0.9000776E+02  0.7816164E-02  0.1186339E+00
        -11   -1    0    0    0    0  0.00000000000E+00  0.00000000000E+00  0.45593999997E+02  0.45594000000E+02  0.51100000000E-03 0.  1.
         11   -1    0    0    0    0 -0.00000000000E+00 -0.00000000000E+00 -0.45593999997E+02  0.45594000000E+02  0.51100000000E-03 0. -1.
    9900012    2    1    2    0    0  0.11745176145E+01 -0.92365268248E-01  0.70334519071E-01  0.90007758536E+02  0.90000020148E+02 0.  0.
        -12    1    1    2    0    0 -0.11745176145E+01  0.92365268248E-01 -0.70334519071E-01  0.11802414644E+01  0.00000000000E+00 0.  1.
         11    1    3    3    0    0  0.11257570972E+01  0.41761969229E+01 -0.34041500597E+02  0.34315181960E+02  0.51100000000E-03 0. -1.
        -11    1    3    3    0    0 -0.93387366465E+01  0.78981526394E+01 -0.53458004218E+01  0.13348048534E+02  0.51100000000E-03 0.  1.
        -12    1    3    3    0    0  0.93874971638E+01 -0.12166714831E+02  0.39457635538E+02  0.42344528041E+02  0.00000000000E+00 0.  1.
</event>
<event>
 7    1  0.1654239E-015  0.9000775E+02  0.7816164E-02  0.1186339E+00
        -11   -1    0    0    0    0  0.00000000000E+00  0.00000000000E+00  0.45593999997E+02  0.45594000000E+02  0.51100000000E-03 0.  1.
         11   -1    0    0    0    0 -0.00000000000E+00 -0.00000000000E+00 -0.45593999997E+02  0.45594000000E+02  0.51100000000E-03 0. -1.
    9900012    2    1    2    0    0  0.44682575297E+00 -0.50810887484E+00  0.96703559694E+00  0.90007751836E+02  0.90000013361E+02 0.  0.
        -12    1    1    2    0    0 -0.44682575297E+00  0.50810887484E+00 -0.96703559694E+00  0.11802481637E+01  0.00000000000E+00 0.  1.
         11    1    3    3    0    0  0.97395619845E+01 -0.33480644475E+02 -0.12780358221E+02  0.37136911270E+02  0.51100000000E-03 0. -1.
        -11    1    3    3    0    0  0.84487975585E+01 -0.27383262890E+01 -0.33399974021E+01  0.94887403778E+01  0.51100000000E-03 0.  1.
        -12    1    3    3    0    0 -0.17741533790E+02  0.35710861889E+02  0.17087391220E+02  0.43382100189E+02  0.00000000000E+00 0.  1.
</event>
<event>
 7    1  0.1654239E-015  0.9000665E+02  0.7816164E-02  0.1186341E+00
        -11   -1    0    0    0    0  0.00000000000E+00  0.00000000000E+00  0.45593999997E+02  0.45594000000E+02  0.51100000000E-03 0.  1.
         11   -1    0    0    0    0 -0.00000000000E+00 -0.00000000000E+00 -0.45593999997E+02  0.45594000000E+02  0.51100000000E-03 0. -1.
    9900012    2    1    2    0    0  0.46220802253E+00  0.14568726218E+00 -0.10773656628E+01  0.90006654239E+02  0.89998901269E+02 0.  0.
        -12    1    1    2    0    0 -0.46220802253E+00 -0.14568726218E+00  0.10773656628E+01  0.11813457605E+01  0.00000000000E+00 0.  1.
         11    1    3    3    0    0  0.68529859553E+01  0.11197173177E+02 -0.43163221099E+02  0.45115449234E+02  0.51100000000E-03 0. -1.
        -11    1    3    3    0    0  0.11542262180E+01  0.33045966212E-01  0.10685910300E+02  0.10748116551E+02  0.51100000000E-03 0.  1.
        -12    1    3    3    0    0 -0.75450041508E+01 -0.11084531881E+02  0.31399945136E+02  0.34143088455E+02  0.00000000000E+00 0.  1.
</event>
<event>
 7    1  0.1654239E-015  0.9000792E+02  0.7816164E-02  0.1186339E+00
        -11   -1    0    0    0    0  0.00000000000E+00  0.00000000000E+00  0.45593999997E+02  0.45594000000E+02  0.51100000000E-03 0.  1.
         11   -1    0    0    0    0 -0.00000000000E+00 -0.00000000000E+00 -0.45593999997E+02  0.45594000000E+02  0.51100000000E-03 0. -1.
    9900012    2    1    2    0    0  0.11878307380E+00  0.53118203210E+00 -0.10470517563E+01  0.90007923244E+02  0.90000187031E+02 0.  0.
        -12    1    1    2    0    0 -0.11878307380E+00 -0.53118203210E+00  0.10470517563E+01  0.11800767561E+01  0.00000000000E+00 0.  1.
         11    1    3    3    0    0 -0.77177687193E-01  0.30007978235E+02 -0.26885884794E+02  0.40290638063E+02  0.51100000000E-03 0. -1.
        -11    1    3    3    0    0 -0.69801591062E+01 -0.35006632123E+01 -0.45999542455E+01  0.90629379009E+01  0.51100000000E-03 0.  1.
        -12    1    3    3    0    0  0.71761198671E+01 -0.25976132990E+02  0.30438787283E+02  0.40654347280E+02  0.00000000000E+00 0.  1.
</event>
<event>
 7    1  0.1654239E-015  0.9000781E+02  0.7816164E-02  0.1186339E+00
        -11   -1    0    0    0    0  0.00000000000E+00  0.00000000000E+00  0.45593999997E+02  0.45594000000E+02  0.51100000000E-03 0.  1.
         11   -1    0    0    0    0 -0.00000000000E+00 -0.00000000000E+00 -0.45593999997E+02  0.45594000000E+02  0.51100000000E-03 0. -1.
    9900012    2    1    2    0    0 -0.11355269903E+01 -0.29589317055E+00 -0.12596590047E+00  0.90007812844E+02  0.90000075174E+02 0.  0.
        -12    1    1    2    0    0  0.11355269903E+01  0.29589317055E+00  0.12596590047E+00  0.11801871555E+01  0.00000000000E+00 0.  1.
         11    1    3    3    0    0  0.47377228206E+01  0.85729120811E+01  0.20835131429E+01  0.10014083401E+02  0.51100000000E-03 0. -1.
        -11    1    3    3    0    0  0.35294099436E+02  0.46735193998E+01  0.53496094973E+01  0.36001854961E+02  0.51100000000E-03 0.  1.
         12    1    3    3    0    0 -0.41167349247E+02 -0.13542324651E+02 -0.75590885407E+01  0.43991874483E+02  0.00000000000E+00 0. -1.
</event>
<event>
 7    1  0.1654239E-015  0.9000770E+02  0.7816164E-02  0.1186339E+00
        -11   -1    0    0    0    0  0.00000000000E+00  0.00000000000E+00  0.45593999997E+02  0.45594000000E+02  0.51100000000E-03 0. -1.
         11   -1    0    0    0    0 -0.00000000000E+00 -0.00000000000E+00 -0.45593999997E+02  0.45594000000E+02  0.51100000000E-03 0.  1.
    9900012    2    1    2    0    0 -0.65295227678E+00 -0.75893420429E+00 -0.62513066961E+00  0.90007696583E+02  0.89999957378E+02 0.  0.
        -12    1    1    2    0    0  0.65295227678E+00  0.75893420429E+00  0.62513066961E+00  0.11803034170E+01  0.00000000000E+00 0.  1.
         11    1    3    3    0    0  0.27500162880E+01 -0.75109854301E+01  0.50621163031E+01  0.94658604175E+01  0.51100000000E-03 0. -1.
        -11    1    3    3    0    0  0.23351800020E+02  0.11483433396E+02 -0.32993811647E+02  0.42021035375E+02  0.51100000000E-03 0.  1.
         12    1    3    3    0    0 -0.26754768585E+02 -0.47313821698E+01  0.27306564674E+02  0.38520800791E+02  0.00000000000E+00 0. -1.
</event>
<event>
 7    1  0.1703566E-015  0.9000777E+02  0.7816164E-02  0.1186339E+00
        -11   -1    0    0    0    0  0.00000000000E+00  0.00000000000E+00  0.45593999997E+02  0.45594000000E+02  0.51100000000E-03 0.  1.
         11   -1    0    0    0    0 -0.00000000000E+00 -0.00000000000E+00 -0.45593999997E+02  0.45594000000E+02  0.51100000000E-03 0. -1.
    9900012    2    1    2    0    0 -0.23994022142E+00 -0.26455070894E+00 -0.11248967801E+01  0.90007766484E+02  0.90000028201E+02 0.  0.
        -12    1    1    2    0    0  0.23994022142E+00  0.26455070894E+00  0.11248967801E+01  0.11802335164E+01  0.00000000000E+00 0.  1.
         11    1    3    3    0    0 -0.88194373834E+01 -0.28008374597E+01 -0.30287214445E+01  0.97365455930E+01  0.51100000000E-03 0. -1.
        -11    1    3    3    0    0 -0.81679897546E+01  0.25516849484E+01  0.38810368660E+02  0.39742569978E+02  0.51100000000E-03 0.  1.
         12    1    3    3    0    0  0.16747486917E+02 -0.15398197696E-01 -0.36906543995E+02  0.40528650913E+02  0.00000000000E+00 0. -1.
</event>
<event>
 7    1  0.1654239E-015  0.9000778E+02  0.7816164E-02  0.1186339E+00
        -11   -1    0    0    0    0  0.00000000000E+00  0.00000000000E+00  0.45593999997E+02  0.45594000000E+02  0.51100000000E-03 0. -1.
         11   -1    0    0    0    0 -0.00000000000E+00 -0.00000000000E+00 -0.45593999997E+02  0.45594000000E+02  0.51100000000E-03 0.  1.
    9900012    2    1    2    0    0 -0.10300086524E+01  0.54995754813E+00  0.17189894174E+00  0.90007779523E+02  0.90000041412E+02 0.  0.
        -12    1    1    2    0    0  0.10300086524E+01 -0.54995754813E+00 -0.17189894174E+00  0.11802204772E+01  0.00000000000E+00 0.  1.
         11    1    3    3    0    0  0.38089420019E+02 -0.69361979859E+01  0.19327977855E+02  0.43272225366E+02  0.51100000000E-03 0. -1.
        -11    1    3    3    0    0 -0.92380321989E+01  0.10587163689E+00  0.19145244061E+01  0.94349272214E+01  0.51100000000E-03 0.  1.
        -12    1    3    3    0    0 -0.29881396473E+02  0.73802838972E+01 -0.21070603319E+02  0.37300626936E+02  0.00000000000E+00 0.  1.
</event>
<event>
 7    1  0.1654239E-015  0.9000775E+02  0.7816164E-02  0.1186339E+00
        -11   -1    0    0    0    0  0.00000000000E+00  0.00000000000E+00  0.45593999997E+02  0.45594000000E+02  0.51100000000E-03 0.  1.
         11   -1    0    0    0    0 -0.00000000000E+00 -0.00000000000E+00 -0.45593999997E+02  0.45594000000E+02  0.51100000000E-03 0. -1.
    9900012    2    1    2    0    0 -0.24008066856E+00 -0.27128251676E+00 -0.11232828775E+01  0.90007746911E+02  0.90000008370E+02 0.  0.
        -12    1    1    2    0    0  0.24008066856E+00  0.27128251676E+00  0.11232828775E+01  0.11802530890E+01  0.00000000000E+00 0.  1.
         11    1    3    3    0    0  0.25413193120E+02 -0.10864097314E+01 -0.20871244021E+02  0.32903183704E+02  0.51100000000E-03 0. -1.
        -11    1    3    3    0    0  0.13919656757E+02 -0.10770067668E+01  0.53537466925E+01  0.14952571408E+02  0.51100000000E-03 0.  1.
        -12    1    3    3    0    0 -0.39572930545E+02  0.18921339815E+01  0.14394214451E+02  0.42151991799E+02  0.00000000000E+00 0.  1.
</event>
<event>
 7    1  0.1654239E-015  0.9000789E+02  0.7816164E-02  0.1186339E+00
        -11   -1    0    0    0    0  0.00000000000E+00  0.00000000000E+00  0.45593999997E+02  0.45594000000E+02  0.51100000000E-03 0. -1.
         11   -1    0    0    0    0 -0.00000000000E+00 -0.00000000000E+00 -0.45593999997E+02  0.45594000000E+02  0.51100000000E-03 0.  1.
    9900012    2    1    2    0    0 -0.10194579778E+01  0.54725207314E+00 -0.23209613535E+00  0.90007894913E+02  0.90000158326E+02 0.  0.
        -12    1    1    2    0    0  0.10194579778E+01 -0.54725207314E+00  0.23209613535E+00  0.11801050869E+01  0.00000000000E+00 0.  1.
         11    1    3    3    0    0 -0.13701508469E+02 -0.28452322357E+02  0.26711130974E+02  0.41361219760E+02  0.51100000000E-03 0. -1.
        -11    1    3    3    0    0  0.19405505189E+01 -0.31463451503E+01 -0.10188643006E+02  0.10838527146E+02  0.51100000000E-03 0.  1.
        -12    1    3    3    0    0  0.10741499972E+02  0.32145919580E+02 -0.16754584103E+02  0.37808148008E+02  0.00000000000E+00 0.  1.
</event>
<event>
 7    1  0.1654239E-015  0.9000789E+02  0.7816164E-02  0.1186339E+00
        -11   -1    0    0    0    0  0.00000000000E+00  0.00000000000E+00  0.45593999997E+02  0.45594000000E+02  0.51100000000E-03 0. -1.
         11   -1    0    0    0    0 -0.00000000000E+00 -0.00000000000E+00 -0.45593999997E+02  0.45594000000E+02  0.51100000000E-03 0.  1.
    9900012    2    1    2    0    0  0.99493150164E+00 -0.16191401563E+00  0.61363380434E+00  0.90007893527E+02  0.90000156922E+02 0.  0.
        -12    1    1    2    0    0 -0.99493150164E+00  0.16191401563E+00 -0.61363380434E+00  0.11801064728E+01  0.00000000000E+00 0.  1.
         11    1    3    3    0    0 -0.81856515989E+00 -0.79253659897E+01  0.36604093212E+01  0.87681281726E+01  0.51100000000E-03 0. -1.
        -11    1    3    3    0    0  0.15163573510E+02 -0.33657851482E+02  0.40794997136E+01  0.37140641434E+02  0.51100000000E-03 0.  1.
         12    1    3    3    0    0 -0.13350076849E+02  0.41421303456E+02 -0.71262752305E+01  0.44099123920E+02  0.00000000000E+00 0. -1.
</event>
<event>
 7    1  0.1654239E-015  0.9000830E+02  0.7816164E-02  0.1186338E+00
        -11   -1    0    0    0    0  0.00000000000E+00  0.00000000000E+00  0.45593999997E+02  0.45594000000E+02  0.51100000000E-03 0. -1.
         11   -1    0    0    0    0 -0.00000000000E+00 -0.00000000000E+00 -0.45593999997E+02  0.45594000000E+02  0.51100000000E-03 0.  1.
    9900012    2    1    2    0    0 -0.99489985433E+00 -0.14340856784E+00  0.61750179652E+00  0.90008296560E+02  0.90000565273E+02 0.  0.
        -12    1    1    2    0    0  0.99489985433E+00  0.14340856784E+00 -0.61750179652E+00  0.11797034399E+01  0.00000000000E+00 0.  1.
         11    1    3    3    0    0  0.21673449433E+01 -0.31333494679E+01  0.12914184116E+00  0.38120782872E+01  0.51100000000E-03 0. -1.
        -11    1    3    3    0    0 -0.67414742844E+01  0.17577572599E+01 -0.42487027834E+02  0.43054439034E+02  0.51100000000E-03 0.  1.
         12    1    3    3    0    0  0.35792294868E+01  0.12321836402E+01  0.42975387789E+02  0.43141779239E+02  0.00000000000E+00 0. -1.
</event>
<event>
 7    1  0.1654239E-015  0.9000770E+02  0.7816164E-02  0.1186339E+00
        -11   -1    0    0    0    0  0.00000000000E+00  0.00000000000E+00  0.45593999997E+02  0.45594000000E+02  0.51100000000E-03 0.  1.
         11   -1    0    0    0    0 -0.00000000000E+00 -0.00000000000E+00 -0.45593999997E+02  0.45594000000E+02  0.51100000000E-03 0. -1.
    9900012    2    1    2    0    0  0.25389156500E+00  0.83519212542E-01 -0.11496423827E+01  0.90007697499E+02  0.89999958306E+02 0.  0.
        -12    1    1    2    0    0 -0.25389156500E+00 -0.83519212542E-01  0.11496423827E+01  0.11803025009E+01  0.00000000000E+00 0.  1.
         11    1    3    3    0    0  0.78740346027E+01  0.36136315624E+02 -0.61635177472E+01  0.37494301955E+02  0.51100000000E-03 0. -1.
        -11    1    3    3    0    0 -0.81023116071E+01  0.25364533133E+01 -0.81194710866E+01  0.11747632092E+02  0.51100000000E-03 0.  1.
        -12    1    3    3    0    0  0.48216856939E+00 -0.38589249725E+02  0.13133346451E+02  0.40765763452E+02  0.00000000000E+00 0.  1.
</event>
<event>
 7    1  0.1654239E-015  0.9000775E+02  0.7816164E-02  0.1186339E+00
        -11   -1    0    0    0    0  0.00000000000E+00  0.00000000000E+00  0.45593999997E+02  0.45594000000E+02  0.51100000000E-03 0.  1.
         11   -1    0    0    0    0 -0.00000000000E+00 -0.00000000000E+00 -0.45593999997E+02  0.45594000000E+02  0.51100000000E-03 0. -1.
    9900012    2    1    2    0    0  0.84924313396E-01  0.35387703152E+00 -0.11227379029E+01  0.90007753631E+02  0.90000015179E+02 0.  0.
        -12    1    1    2    0    0 -0.84924313396E-01 -0.35387703152E+00  0.11227379029E+01  0.11802463688E+01  0.00000000000E+00 0.  1.
         11    1    3    3    0    0 -0.28938602125E+02 -0.13311348733E+02  0.19115436277E+02  0.37148816971E+02  0.51100000000E-03 0. -1.
        -11    1    3    3    0    0 -0.29911859219E+01  0.41622142418E+01  0.77463187002E+01  0.92885237945E+01  0.51100000000E-03 0.  1.
        -12    1    3    3    0    0  0.32014712361E+02  0.95030115226E+01 -0.27984492880E+02  0.43570412865E+02  0.00000000000E+00 0.  1.
</event>
<event>
 7    1  0.1654239E-015  0.9000775E+02  0.7816164E-02  0.1186339E+00
        -11   -1    0    0    0    0  0.00000000000E+00  0.00000000000E+00  0.45593999997E+02  0.45594000000E+02  0.51100000000E-03 0.  1.
         11   -1    0    0    0    0 -0.00000000000E+00 -0.00000000000E+00 -0.45593999997E+02  0.45594000000E+02  0.51100000000E-03 0. -1.
    9900012    2    1    2    0    0  0.73057015449E+00 -0.77445893799E+00  0.50939268813E+00  0.90007745660E+02  0.90000007102E+02 0.  0.
        -12    1    1    2    0    0 -0.73057015449E+00  0.77445893799E+00 -0.50939268813E+00  0.11802543404E+01  0.00000000000E+00 0.  1.
         11    1    3    3    0    0  0.32529751523E+02 -0.24823860822E+02 -0.73574162654E+01  0.41575718570E+02  0.51100000000E-03 0. -1.
        -11    1    3    3    0    0  0.14940748188E+00  0.23550649485E+01  0.94908370493E+01  0.97798078542E+01  0.51100000000E-03 0.  1.
        -12    1    3    3    0    0 -0.31948588850E+02  0.21694336935E+02 -0.16240280957E+01  0.38652219236E+02  0.00000000000E+00 0.  1.
</event>
<event>
 7    1  0.1654239E-015  0.9000770E+02  0.7816164E-02  0.1186339E+00
        -11   -1    0    0    0    0  0.00000000000E+00  0.00000000000E+00  0.45593999997E+02  0.45594000000E+02  0.51100000000E-03 0. -1.
         11   -1    0    0    0    0 -0.00000000000E+00 -0.00000000000E+00 -0.45593999997E+02  0.45594000000E+02  0.51100000000E-03 0.  1.
    9900012    2    1    2    0    0 -0.68776422739E-01  0.26930893358E+00  0.11471011773E+01  0.90007704016E+02  0.89999964909E+02 0.  0.
        -12    1    1    2    0    0  0.68776422739E-01 -0.26930893358E+00 -0.11471011773E+01  0.11802959837E+01  0.00000000000E+00 0.  1.
         11    1    3    3    0    0 -0.39775766907E+01 -0.17408753969E+01 -0.83330858151E+01  0.93963866959E+01  0.51100000000E-03 0. -1.
        -11    1    3    3    0    0  0.21123312870E+02  0.35944841039E+02  0.84868781078E+01  0.42547068574E+02  0.51100000000E-03 0.  1.
         12    1    3    3    0    0 -0.17214512602E+02 -0.33934656709E+02  0.99330888455E+00  0.38064248746E+02  0.00000000000E+00 0. -1.
</event>
<event>
 7    1  0.1654239E-015  0.9000767E+02  0.7816164E-02  0.1186339E+00
        -11   -1    0    0    0    0  0.00000000000E+00  0.00000000000E+00  0.45593999997E+02  0.45594000000E+02  0.51100000000E-03 0.  1.
         11   -1    0    0    0    0 -0.00000000000E+00 -0.00000000000E+00 -0.45593999997E+02  0.45594000000E+02  0.51100000000E-03 0. -1.
    9900012    2    1    2    0    0  0.10254056115E+01 -0.15946921386E+00  0.56238937429E+00  0.90007674237E+02  0.89999934737E+02 0.  0.
        -12    1    1    2    0    0 -0.10254056115E+01  0.15946921386E+00 -0.56238937429E+00  0.11803257629E+01  0.00000000000E+00 0.  1.
         11    1    3    3    0    0 -0.69822243221E+00  0.96896077414E+01 -0.51914808432E+00  0.97285933074E+01  0.51100000000E-03 0. -1.
        -11    1    3    3    0    0 -0.24071970834E+02  0.15954721449E+02  0.23692780460E+02  0.37354528006E+02  0.51100000000E-03 0.  1.
         12    1    3    3    0    0  0.25795598878E+02 -0.25803798405E+02 -0.22611243002E+02  0.42924552923E+02  0.00000000000E+00 0. -1.
</event>
<event>
 7    1  0.1654239E-015  0.9000783E+02  0.7816164E-02  0.1186339E+00
        -11   -1    0    0    0    0  0.00000000000E+00  0.00000000000E+00  0.45593999997E+02  0.45594000000E+02  0.51100000000E-03 0.  1.
         11   -1    0    0    0    0 -0.00000000000E+00 -0.00000000000E+00 -0.45593999997E+02  0.45594000000E+02  0.51100000000E-03 0. -1.
    9900012    2    1    2    0    0  0.25063136864E+00 -0.82879277357E+00 -0.80192103790E+00  0.90007834378E+02  0.90000096992E+02 0.  0.
        -12    1    1    2    0    0 -0.25063136864E+00  0.82879277357E+00  0.80192103790E+00  0.11801656221E+01  0.00000000000E+00 0.  1.
         11    1    3    3    0    0  0.51523803505E+01 -0.54288817786E+00  0.71940223963E+01  0.88654221191E+01  0.51100000000E-03 0. -1.
        -11    1    3    3    0    0 -0.92945947297E+00  0.34483693104E+02  0.16684485271E+02  0.38319199287E+02  0.51100000000E-03 0.  1.
         12    1    3    3    0    0 -0.39722895089E+01 -0.34769597700E+02 -0.24680428705E+02  0.42823212972E+02  0.00000000000E+00 0. -1.
</event>
<event>
 7    1  0.1654239E-015  0.9000782E+02  0.7816164E-02  0.1186339E+00
        -11   -1    0    0    0    0  0.00000000000E+00  0.00000000000E+00  0.45593999997E+02  0.45594000000E+02  0.51100000000E-03 0. -1.
         11   -1    0    0    0    0 -0.00000000000E+00 -0.00000000000E+00 -0.45593999997E+02  0.45594000000E+02  0.51100000000E-03 0.  1.
    9900012    2    1    2    0    0 -0.85363373412E+00 -0.74745349280E+00  0.32474419159E+00  0.90007815241E+02  0.90000077602E+02 0.  0.
        -12    1    1    2    0    0  0.85363373412E+00  0.74745349280E+00 -0.32474419159E+00  0.11801847592E+01  0.00000000000E+00 0.  1.
         11    1    3    3    0    0  0.36266384468E+01  0.67130757005E+01 -0.21770414582E+01  0.79345700298E+01  0.51100000000E-03 0. -1.
        -11    1    3    3    0    0 -0.23715119581E+02  0.19131828779E+01 -0.32963582809E+02  0.40652982146E+02  0.51100000000E-03 0.  1.
         12    1    3    3    0    0  0.19234847400E+02 -0.93737120712E+01  0.35465368459E+02  0.41420263065E+02  0.00000000000E+00 0. -1.
</event>
<event>
 7    1  0.1654239E-015  0.9000770E+02  0.7816164E-02  0.1186339E+00
        -11   -1    0    0    0    0  0.00000000000E+00  0.00000000000E+00  0.45593999997E+02  0.45594000000E+02  0.51100000000E-03 0.  1.
         11   -1    0    0    0    0 -0.00000000000E+00 -0.00000000000E+00 -0.45593999997E+02  0.45594000000E+02  0.51100000000E-03 0. -1.
    9900012    2    1    2    0    0 -0.57124418517E+00 -0.69396529205E+00  0.76498700702E+00  0.90007697977E+02  0.89999958790E+02 0.  0.
        -12    1    1    2    0    0  0.57124418517E+00  0.69396529205E+00 -0.76498700702E+00  0.11803020235E+01  0.00000000000E+00 0.  1.
         11    1    3    3    0    0  0.24711650442E+01  0.10392080664E+02 -0.26579182406E+00  0.10685159932E+02  0.51100000000E-03 0. -1.
        -11    1    3    3    0    0  0.33513689008E+02  0.11155316129E+02  0.73208714491E+01  0.36072199654E+02  0.51100000000E-03 0.  1.
         12    1    3    3    0    0 -0.36556098237E+02 -0.22241362085E+02 -0.62900926180E+01  0.43250338391E+02  0.00000000000E+00 0. -1.
</event>
<event>
 7    1  0.1654239E-015  0.9000778E+02  0.7816164E-02  0.1186339E+00
        -11   -1    0    0    0    0  0.00000000000E+00  0.00000000000E+00  0.45593999997E+02  0.45594000000E+02  0.51100000000E-03 0.  1.
         11   -1    0    0    0    0 -0.00000000000E+00 -0.00000000000E+00 -0.45593999997E+02  0.45594000000E+02  0.51100000000E-03 0. -1.
    9900012    2    1    2    0    0 -0.50647341438E-01  0.10912878707E+01 -0.44660297600E+00  0.90007776043E+02  0.90000037887E+02 0.  0.
        -12    1    1    2    0    0  0.50647341438E-01 -0.10912878707E+01  0.44660297600E+00  0.11802239567E+01  0.00000000000E+00 0.  1.
         11    1    3    3    0    0 -0.38280886269E+00 -0.73964825834E+01  0.66783992129E+01  0.99727385175E+01  0.51100000000E-03 0. -1.
        -11    1    3    3    0    0  0.30946552556E+02  0.14449620340E+02  0.19235510633E+02  0.39198029448E+02  0.51100000000E-03 0.  1.
         12    1    3    3    0    0 -0.30614391034E+02 -0.59618498860E+01 -0.26360512822E+02  0.40837008077E+02  0.00000000000E+00 0. -1.
</event>
<event>
 7    1  0.1654239E-015  0.9000754E+02  0.7816164E-02  0.1186339E+00
        -11   -1    0    0    0    0  0.00000000000E+00  0.00000000000E+00  0.45593999997E+02  0.45594000000E+02  0.51100000000E-03 0. -1.
         11   -1    0    0    0    0 -0.00000000000E+00 -0.00000000000E+00 -0.45593999997E+02  0.45594000000E+02  0.51100000000E-03 0.  1.
    9900012    2    1    2    0    0 -0.62506801255E+00  0.77193432494E+00  0.63788215961E+00  0.90007539805E+02  0.89999798530E+02 0.  0.
        -12    1    1    2    0    0  0.62506801255E+00 -0.77193432494E+00 -0.63788215961E+00  0.11804601950E+01  0.00000000000E+00 0.  1.
         11    1    3    3    0    0 -0.26110423614E+02  0.24553099991E+02 -0.17411648177E+02  0.39846887369E+02  0.51100000000E-03 0. -1.
        -11    1    3    3    0    0  0.55534874338E+01  0.59663173475E+01 -0.29277113173E+01  0.86608116933E+01  0.51100000000E-03 0.  1.
        -12    1    3    3    0    0  0.19931868167E+02 -0.29747483014E+02  0.20977241654E+02  0.41499840743E+02  0.00000000000E+00 0.  1.
</event>
<event>
 7    1  0.1654239E-015  0.9000764E+02  0.7816164E-02  0.1186339E+00
        -11   -1    0    0    0    0  0.00000000000E+00  0.00000000000E+00  0.45593999997E+02  0.45594000000E+02  0.51100000000E-03 0.  1.
         11   -1    0    0    0    0 -0.00000000000E+00 -0.00000000000E+00 -0.45593999997E+02  0.45594000000E+02  0.51100000000E-03 0. -1.
    9900012    2    1    2    0    0  0.30411818966E+00  0.11254302985E+01  0.18484036153E+00  0.90007641076E+02  0.89999901138E+02 0.  0.
        -12    1    1    2    0    0 -0.30411818966E+00 -0.11254302985E+01 -0.18484036153E+00  0.11803589240E+01  0.00000000000E+00 0.  1.
         11    1    3    3    0    0  0.26187072109E+02 -0.15797723597E+02 -0.19227356364E+02  0.36125088920E+02  0.51100000000E-03 0. -1.
        -11    1    3    3    0    0  0.19063224268E+01  0.72679990003E+01 -0.98499685296E+01  0.12388694643E+02  0.51100000000E-03 0.  1.
        -12    1    3    3    0    0 -0.27789276346E+02  0.96551548950E+01  0.29262165255E+02  0.41493857513E+02  0.00000000000E+00 0.  1.
</event>
<event>
 7    1  0.1654239E-015  0.9000777E+02  0.7816164E-02  0.1186339E+00
        -11   -1    0    0    0    0  0.00000000000E+00  0.00000000000E+00  0.45593999997E+02  0.45594000000E+02  0.51100000000E-03 0. -1.
         11   -1    0    0    0    0 -0.00000000000E+00 -0.00000000000E+00 -0.45593999997E+02  0.45594000000E+02  0.51100000000E-03 0.  1.
    9900012    2    1    2    0    0  0.58994237264E+00  0.10063543820E+01  0.17932845636E+00  0.90007771276E+02  0.90000033057E+02 0.  0.
        -12    1    1    2    0    0 -0.58994237264E+00 -0.10063543820E+01 -0.17932845636E+00  0.11802287238E+01  0.00000000000E+00 0.  1.
         11    1    3    3    0    0  0.34245959725E+01 -0.42462917646E+01  0.61144811067E+01  0.81942498614E+01  0.51100000000E-03 0. -1.
        -11    1    3    3    0    0  0.32435337275E+02 -0.17029164207E+02  0.86096835374E+01  0.37632036733E+02  0.51100000000E-03 0.  1.
         12    1    3    3    0    0 -0.35269990875E+02  0.22281810354E+02 -0.14544836188E+02  0.44181484682E+02  0.00000000000E+00 0. -1.
</event>
<event>
 7    1  0.1654239E-015  0.9000742E+02  0.7816164E-02  0.1186340E+00
        -11   -1    0    0    0    0  0.00000000000E+00  0.00000000000E+00  0.45593999997E+02  0.45594000000E+02  0.51100000000E-03 0. -1.
         11   -1    0    0    0    0 -0.00000000000E+00 -0.00000000000E+00 -0.45593999997E+02  0.45594000000E+02  0.51100000000E-03 0.  1.
    9900012    2    1    2    0    0  0.40567503244E+00  0.52610128340E+00  0.97591282798E+00  0.90007423598E+02  0.89999680789E+02 0.  0.
        -12    1    1    2    0    0 -0.40567503244E+00 -0.52610128340E+00 -0.97591282798E+00  0.11805764017E+01  0.00000000000E+00 0.  1.
         11    1    3    3    0    0  0.35582756897E+02  0.13994865048E+02  0.10196000039E+02  0.39572051415E+02  0.51100000000E-03 0. -1.
        -11    1    3    3    0    0  0.31938993353E+01 -0.31051632086E+01 -0.97137172350E+01  0.10686408859E+02  0.51100000000E-03 0.  1.
        -12    1    3    3    0    0 -0.38370981200E+02 -0.10363600556E+02  0.49363002359E+00  0.39748963324E+02  0.00000000000E+00 0.  1.
</event>
<event>
 7    1  0.1654239E-015  0.9000778E+02  0.7816164E-02  0.1186339E+00
        -11   -1    0    0    0    0  0.00000000000E+00  0.00000000000E+00  0.45593999997E+02  0.45594000000E+02  0.51100000000E-03 0.  1.
         11   -1    0    0    0    0 -0.00000000000E+00 -0.00000000000E+00 -0.45593999997E+02  0.45594000000E+02  0.51100000000E-03 0. -1.
    9900012    2    1    2    0    0  0.10424583455E+01 -0.30349200986E-01 -0.55251933330E+00  0.90007780491E+02  0.90000042393E+02 0.  0.
        -12    1    1    2    0    0 -0.10424583455E+01  0.30349200986E-01  0.55251933330E+00  0.11802195091E+01  0.00000000000E+00 0.  1.
         11    1    3    3    0    0  0.29414588423E+02  0.78608324760E+01  0.94761458052E+01  0.31887427599E+02  0.51100000000E-03 0. -1.
        -11    1    3    3    0    0  0.46652991810E+01  0.12715465970E+02  0.74298040135E+01  0.15448303441E+02  0.51100000000E-03 0.  1.
        -12    1    3    3    0    0 -0.33037429258E+02 -0.20606647647E+02 -0.17458469152E+02  0.42672049451E+02  0.00000000000E+00 0.  1.
</event>
<event>
 7    1  0.1654239E-015  0.9000767E+02  0.7816164E-02  0.1186339E+00
        -11   -1    0    0    0    0  0.00000000000E+00  0.00000000000E+00  0.45593999997E+02  0.45594000000E+02  0.51100000000E-03 0.  1.
         11   -1    0    0    0    0 -0.00000000000E+00 -0.00000000000E+00 -0.45593999997E+02  0.45594000000E+02  0.51100000000E-03 0. -1.
    9900012    2    1    2    0    0  0.18727129985E+00 -0.80334986822E+00 -0.84423153443E+00  0.90007674437E+02  0.89999934940E+02 0.  0.
        -12    1    1    2    0    0 -0.18727129985E+00  0.80334986822E+00  0.84423153443E+00  0.11803255628E+01  0.00000000000E+00 0.  1.
         11    1    3    3    0    0  0.19318797068E+01  0.10523058032E+01  0.92717951127E+01  0.95292020431E+01  0.51100000000E-03 0. -1.
        -11    1    3    3    0    0 -0.12232968284E+01 -0.47101488972E+01  0.34966070203E+02  0.35303088016E+02  0.51100000000E-03 0.  1.
         12    1    3    3    0    0 -0.52131157849E+00  0.28544932258E+01 -0.45082096850E+02  0.45175384378E+02  0.00000000000E+00 0. -1.
</event>
<event>
 7    1  0.1654239E-015  0.9000781E+02  0.7816164E-02  0.1186339E+00
        -11   -1    0    0    0    0  0.00000000000E+00  0.00000000000E+00  0.45593999997E+02  0.45594000000E+02  0.51100000000E-03 0.  1.
         11   -1    0    0    0    0 -0.00000000000E+00 -0.00000000000E+00 -0.45593999997E+02  0.45594000000E+02  0.51100000000E-03 0. -1.
    9900012    2    1    2    0    0  0.90228229208E+00  0.14961095510E+00 -0.74589632655E+00  0.90007805905E+02  0.90000068143E+02 0.  0.
        -12    1    1    2    0    0 -0.90228229208E+00 -0.14961095510E+00  0.74589632655E+00  0.11801940952E+01  0.00000000000E+00 0.  1.
         11    1    3    3    0    0  0.97060928920E+01  0.33622012608E+02 -0.12041549540E+02  0.37008740678E+02  0.51100000000E-03 0. -1.
        -11    1    3    3    0    0 -0.68517626806E+01  0.70028885518E+01 -0.26411596531E+01  0.10147059893E+02  0.51100000000E-03 0.  1.
        -12    1    3    3    0    0 -0.19520479193E+01 -0.40475290204E+02  0.13936812866E+02  0.42852005333E+02  0.00000000000E+00 0.  1.
</event>
<event>
 7    1  0.1654239E-015  0.9000780E+02  0.7816164E-02  0.1186339E+00
        -11   -1    0    0    0    0  0.00000000000E+00  0.00000000000E+00  0.45593999997E+02  0.45594000000E+02  0.51100000000E-03 0. -1.
         11   -1    0    0    0    0 -0.00000000000E+00 -0.00000000000E+00 -0.45593999997E+02  0.45594000000E+02  0.51100000000E-03 0.  1.
    9900012    2    1    2    0    0 -0.76761622472E-01 -0.11446311738E+01  0.27712817381E+00  0.90007799638E+02  0.90000061793E+02 0.  0.
        -12    1    1    2    0    0  0.76761622472E-01  0.11446311738E+01 -0.27712817381E+00  0.11802003624E+01  0.00000000000E+00 0.  1.
         11    1    3    3    0    0 -0.96272066200E+01 -0.20522810662E+01  0.32736942715E+01  0.10373622286E+02  0.51100000000E-03 0. -1.
        -11    1    3    3    0    0 -0.18685309667E+02  0.30609320841E+02 -0.11732676185E+02  0.37732307250E+02  0.51100000000E-03 0.  1.
         12    1    3    3    0    0  0.28235754664E+02 -0.29701670949E+02  0.87361100871E+01  0.41901870102E+02  0.00000000000E+00 0. -1.
</event>
<event>
 7    1  0.1654239E-015  0.9000778E+02  0.7816164E-02  0.1186339E+00
        -11   -1    0    0    0    0  0.00000000000E+00  0.00000000000E+00  0.45593999997E+02  0.45594000000E+02  0.51100000000E-03 0.  1.
         11   -1    0    0    0    0 -0.00000000000E+00 -0.00000000000E+00 -0.45593999997E+02  0.45594000000E+02  0.51100000000E-03 0. -1.
    9900012    2    1    2    0    0  0.10612983950E+01 -0.15369698694E+00  0.49288077446E+00  0.90007784551E+02  0.90000046508E+02 0.  0.
        -12    1    1    2    0    0 -0.10612983950E+01  0.15369698694E+00 -0.49288077446E+00  0.11802154485E+01  0.00000000000E+00 0.  1.
         11    1    3    3    0    0 -0.12068103657E+02  0.37749954772E+02 -0.95745416551E+01  0.40772172610E+02  0.51100000000E-03 0. -1.
        -11    1    3    3    0    0  0.10778488447E+02 -0.28398093361E+01 -0.33187619614E+01  0.11629897312E+02  0.51100000000E-03 0.  1.
        -12    1    3    3    0    0  0.23509136053E+01 -0.35063842423E+02  0.13386184391E+02  0.37605714629E+02  0.00000000000E+00 0.  1.
</event>
<event>
 7    1  0.1654239E-015  0.9000765E+02  0.7816164E-02  0.1186339E+00
        -11   -1    0    0    0    0  0.00000000000E+00  0.00000000000E+00  0.45593999997E+02  0.45594000000E+02  0.51100000000E-03 0.  1.
         11   -1    0    0    0    0 -0.00000000000E+00 -0.00000000000E+00 -0.45593999997E+02  0.45594000000E+02  0.51100000000E-03 0. -1.
    9900012    2    1    2    0    0  0.39390889259E+00  0.46298125005E+00 -0.10117914268E+01  0.90007645077E+02  0.89999905192E+02 0.  0.
        -12    1    1    2    0    0 -0.39390889259E+00 -0.46298125005E+00  0.10117914268E+01  0.11803549233E+01  0.00000000000E+00 0.  1.
         11    1    3    3    0    0  0.80765816362E+01 -0.51348022253E+01 -0.15239632950E+01  0.96912243398E+01  0.51100000000E-03 0. -1.
        -11    1    3    3    0    0 -0.18240638001E+02 -0.17466220307E+02  0.31433622524E+02  0.40321983480E+02  0.51100000000E-03 0.  1.
         12    1    3    3    0    0  0.10557965257E+02  0.23064003783E+02 -0.30921450656E+02  0.39994437257E+02  0.00000000000E+00 0. -1.
</event>
<event>
 7    1  0.1654239E-015  0.9000768E+02  0.7816164E-02  0.1186339E+00
        -11   -1    0    0    0    0  0.00000000000E+00  0.00000000000E+00  0.45593999997E+02  0.45594000000E+02  0.51100000000E-03 0. -1.
         11   -1    0    0    0    0 -0.00000000000E+00 -0.00000000000E+00 -0.45593999997E+02  0.45594000000E+02  0.51100000000E-03 0.  1.
    9900012    2    1    2    0    0  0.77602025704E+00  0.49314382930E+00  0.74011087694E+00  0.90007676999E+02  0.89999937536E+02 0.  0.
        -12    1    1    2    0    0 -0.77602025704E+00 -0.49314382930E+00 -0.74011087694E+00  0.11803230007E+01  0.00000000000E+00 0.  1.
         11    1    3    3    0    0 -0.10016564201E+02  0.23364162327E+01  0.39557867867E+00  0.10293050177E+02  0.51100000000E-03 0. -1.
        -11    1    3    3    0    0  0.74741879517E+01 -0.19721038998E+02 -0.34485947968E+02  0.40423550960E+02  0.51100000000E-03 0.  1.
         12    1    3    3    0    0  0.33183965061E+01  0.17877766595E+02  0.34830480166E+02  0.39291075862E+02  0.00000000000E+00 0. -1.
</event>
<event>
 7    1  0.1654239E-015  0.9000773E+02  0.7816164E-02  0.1186339E+00
        -11   -1    0    0    0    0  0.00000000000E+00  0.00000000000E+00  0.45593999997E+02  0.45594000000E+02  0.51100000000E-03 0. -1.
         11   -1    0    0    0    0 -0.00000000000E+00 -0.00000000000E+00 -0.45593999997E+02  0.45594000000E+02  0.51100000000E-03 0.  1.
    9900012    2    1    2    0    0 -0.37140091774E+00 -0.68969868432E+00  0.88284606066E+00  0.90007728809E+02  0.89999990030E+02 0.  0.
        -12    1    1    2    0    0  0.37140091774E+00  0.68969868432E+00 -0.88284606066E+00  0.11802711907E+01  0.00000000000E+00 0.  1.
         11    1    3    3    0    0  0.43153282076E+01 -0.73279704798E+01  0.28025573772E+00  0.85088044067E+01  0.51100000000E-03 0. -1.
        -11    1    3    3    0    0  0.11801235283E+02 -0.27770067631E+02 -0.21826216852E+02  0.37240160483E+02  0.51100000000E-03 0.  1.
         12    1    3    3    0    0 -0.16487964408E+02  0.34408339427E+02  0.22428807175E+02  0.44258763920E+02  0.00000000000E+00 0. -1.
</event>
<event>
 7    1  0.1654239E-015  0.9000773E+02  0.7816164E-02  0.1186339E+00
        -11   -1    0    0    0    0  0.00000000000E+00  0.00000000000E+00  0.45593999997E+02  0.45594000000E+02  0.51100000000E-03 0.  1.
         11   -1    0    0    0    0 -0.00000000000E+00 -0.00000000000E+00 -0.45593999997E+02  0.45594000000E+02  0.51100000000E-03 0. -1.
    9900012    2    1    2    0    0 -0.32698157055E+00  0.96542794973E+00  0.59504080597E+00  0.90007728152E+02  0.89999989364E+02 0.  0.
        -12    1    1    2    0    0  0.32698157055E+00 -0.96542794973E+00 -0.59504080597E+00  0.11802718477E+01  0.00000000000E+00 0.  1.
         11    1    3    3    0    0  0.53051606013E+01 -0.32462655038E+02 -0.15790886317E+02  0.36487268904E+02  0.51100000000E-03 0. -1.
        -11    1    3    3    0    0  0.12502993543E+01 -0.81739965233E+01  0.56269337592E+01  0.10001992373E+02  0.51100000000E-03 0.  1.
        -12    1    3    3    0    0 -0.68824415262E+01  0.41602079511E+02  0.10758993363E+02  0.43518466876E+02  0.00000000000E+00 0.  1.
</event>
<event>
 7    1  0.1654239E-015  0.9000781E+02  0.7816164E-02  0.1186339E+00
        -11   -1    0    0    0    0  0.00000000000E+00  0.00000000000E+00  0.45593999997E+02  0.45594000000E+02  0.51100000000E-03 0. -1.
         11   -1    0    0    0    0 -0.00000000000E+00 -0.00000000000E+00 -0.45593999997E+02  0.45594000000E+02  0.51100000000E-03 0.  1.
    9900012    2    1    2    0    0  0.39396604381E+00 -0.11122680495E+01 -0.22216606485E-01  0.90007812288E+02  0.90000074610E+02 0.  0.
        -12    1    1    2    0    0 -0.39396604381E+00  0.11122680495E+01  0.22216606485E-01  0.11801877118E+01  0.00000000000E+00 0.  1.
         11    1    3    3    0    0  0.24683540584E+02 -0.26288871118E+02  0.17742249885E+02  0.40189169582E+02  0.51100000000E-03 0. -1.
        -11    1    3    3    0    0 -0.37369926346E+00 -0.51252120312E+01 -0.87971180665E+01  0.10188068317E+02  0.51100000000E-03 0.  1.
        -12    1    3    3    0    0 -0.23915875277E+02  0.30301815100E+02 -0.89673484251E+01  0.39630574389E+02  0.00000000000E+00 0.  1.
</event>
<event>
 7    1  0.1654239E-015  0.9000770E+02  0.7816164E-02  0.1186339E+00
        -11   -1    0    0    0    0  0.00000000000E+00  0.00000000000E+00  0.45593999997E+02  0.45594000000E+02  0.51100000000E-03 0. -1.
         11   -1    0    0    0    0 -0.00000000000E+00 -0.00000000000E+00 -0.45593999997E+02  0.45594000000E+02  0.51100000000E-03 0.  1.
    9900012    2    1    2    0    0  0.27299416114E+00  0.45982499466E+00  0.10522073645E+01  0.90007701235E+02  0.89999962091E+02 0.  0.
        -12    1    1    2    0    0 -0.27299416114E+00 -0.45982499466E+00 -0.10522073645E+01  0.11802987654E+01  0.00000000000E+00 0.  1.
         11    1    3    3    0    0 -0.41906119291E+01  0.38876274221E+02  0.21733313610E+02  0.44735476374E+02  0.51100000000E-03 0. -1.
        -11    1    3    3    0    0  0.38799308121E+01 -0.57758782557E+01 -0.70177087723E+01  0.98824526007E+01  0.51100000000E-03 0.  1.
        -12    1    3    3    0    0  0.58367527818E+00 -0.32640570971E+02 -0.13663397473E+02  0.35389772260E+02  0.00000000000E+00 0.  1.
</event>
<event>
 7    1  0.1654239E-015  0.9000776E+02  0.7816164E-02  0.1186339E+00
        -11   -1    0    0    0    0  0.00000000000E+00  0.00000000000E+00  0.45593999997E+02  0.45594000000E+02  0.51100000000E-03 0.  1.
         11   -1    0    0    0    0 -0.00000000000E+00 -0.00000000000E+00 -0.45593999997E+02  0.45594000000E+02  0.51100000000E-03 0. -1.
    9900012    2    1    2    0    0 -0.11581762659E+01  0.12116549684E+00  0.19215323502E+00  0.90007755870E+02  0.90000017448E+02 0.  0.
        -12    1    1    2    0    0  0.11581762659E+01 -0.12116549684E+00 -0.19215323502E+00  0.11802441299E+01  0.00000000000E+00 0.  1.
         11    1    3    3    0    0  0.83865425355E+01  0.65374512195E-01 -0.54681814978E+01  0.10011961780E+02  0.51100000000E-03 0. -1.
        -11    1    3    3    0    0  0.77833780985E+01 -0.35064545668E+02  0.16255800435E+02  0.39425301338E+02  0.51100000000E-03 0.  1.
         12    1    3    3    0    0 -0.17328096900E+02  0.35120336652E+02 -0.10595465702E+02  0.40570492753E+02  0.00000000000E+00 0. -1.
</event>
<event>
 7    1  0.1654239E-015  0.9000780E+02  0.7816164E-02  0.1186339E+00
        -11   -1    0    0    0    0  0.00000000000E+00  0.00000000000E+00  0.45593999997E+02  0.45594000000E+02  0.51100000000E-03 0.  1.
         11   -1    0    0    0    0 -0.00000000000E+00 -0.00000000000E+00 -0.45593999997E+02  0.45594000000E+02  0.51100000000E-03 0. -1.
    9900012    2    1    2    0    0 -0.29422173974E+00 -0.10286243157E+01 -0.49824132057E+00  0.90007797124E+02  0.90000059246E+02 0.  0.
        -12    1    1    2    0    0  0.29422173974E+00  0.10286243157E+01  0.49824132057E+00  0.11802028760E+01  0.00000000000E+00 0.  1.
         11    1    3    3    0    0 -0.26481901836E+02 -0.36095710194E+01 -0.31541403539E+02  0.41342233434E+02  0.51100000000E-03 0. -1.
        -11    1    3    3    0    0  0.92977802507E+01 -0.73297338595E+01 -0.14345019988E+00  0.11840367151E+02  0.51100000000E-03 0.  1.
        -12    1    3    3    0    0  0.16889899845E+02  0.99106805632E+01  0.31186612419E+02  0.36825196540E+02  0.00000000000E+00 0.  1.
</event>
<event>
 7    1  0.1654239E-015  0.9000792E+02  0.7816164E-02  0.1186339E+00
        -11   -1    0    0    0    0  0.00000000000E+00  0.00000000000E+00  0.45593999997E+02  0.45594000000E+02  0.51100000000E-03 0. -1.
         11   -1    0    0    0    0 -0.00000000000E+00 -0.00000000000E+00 -0.45593999997E+02  0.45594000000E+02  0.51100000000E-03 0.  1.
    9900012    2    1    2    0    0  0.18745368693E+00  0.99028957938E+00  0.61381731417E+00  0.90007922023E+02  0.90000185794E+02 0.  0.
        -12    1    1    2    0    0 -0.18745368693E+00 -0.99028957938E+00 -0.61381731417E+00  0.11800779766E+01  0.00000000000E+00 0.  1.
         11    1    3    3    0    0  0.33792161955E+02  0.21287047979E+02 -0.68003425724E+01  0.40512877960E+02  0.51100000000E-03 0. -1.
        -11    1    3    3    0    0 -0.44820979623E+01 -0.31659721803E+01  0.14030905151E+02  0.15065818318E+02  0.51100000000E-03 0.  1.
        -12    1    3    3    0    0 -0.29122610306E+02 -0.17130786219E+02 -0.66167452640E+01  0.34429225745E+02  0.00000000000E+00 0.  1.
</event>
<event>
 7    1  0.1654239E-015  0.9000768E+02  0.7816164E-02  0.1186339E+00
        -11   -1    0    0    0    0  0.00000000000E+00  0.00000000000E+00  0.45593999997E+02  0.45594000000E+02  0.51100000000E-03 0. -1.
         11   -1    0    0    0    0 -0.00000000000E+00 -0.00000000000E+00 -0.45593999997E+02  0.45594000000E+02  0.51100000000E-03 0.  1.
    9900012    2    1    2    0    0  0.41601478414E+00  0.68129103535E+00  0.86943751194E+00  0.90007683363E+02  0.89999943984E+02 0.  0.
        -12    1    1    2    0    0 -0.41601478414E+00 -0.68129103535E+00 -0.86943751194E+00  0.11803166366E+01  0.00000000000E+00 0.  1.
         11    1    3    3    0    0 -0.19047547615E+02  0.16290214184E+02  0.33667376339E+02  0.41972281068E+02  0.51100000000E-03 0. -1.
        -11    1    3    3    0    0  0.43699084468E+01 -0.79705901037E+01  0.20324590803E+01  0.93143596994E+01  0.51100000000E-03 0.  1.
        -12    1    3    3    0    0  0.15093653952E+02 -0.76383330449E+01 -0.34830397907E+02  0.38721042596E+02  0.00000000000E+00 0.  1.
</event>
<event>
 7    1  0.1654239E-015  0.9000766E+02  0.7816164E-02  0.1186339E+00
        -11   -1    0    0    0    0  0.00000000000E+00  0.00000000000E+00  0.45593999997E+02  0.45594000000E+02  0.51100000000E-03 0.  1.
         11   -1    0    0    0    0 -0.00000000000E+00 -0.00000000000E+00 -0.45593999997E+02  0.45594000000E+02  0.51100000000E-03 0. -1.
    9900012    2    1    2    0    0 -0.74989278986E-01 -0.99212362567E+00  0.63503222871E+00  0.90007661654E+02  0.89999921987E+02 0.  0.
        -12    1    1    2    0    0  0.74989278986E-01  0.99212362567E+00 -0.63503222871E+00  0.11803383464E+01  0.00000000000E+00 0.  1.
         11    1    3    3    0    0 -0.30113926728E+02  0.88647593362E+01  0.10847821071E+02  0.33213066153E+02  0.51100000000E-03 0. -1.
        -11    1    3    3    0    0 -0.10663201324E+02 -0.66997200014E+01  0.45395827490E+01  0.13386482823E+02  0.51100000000E-03 0.  1.
        -12    1    3    3    0    0  0.40702138773E+02 -0.31571629605E+01 -0.14752371591E+02  0.43408112677E+02  0.00000000000E+00 0.  1.
</event>
<event>
 7    1  0.1654239E-015  0.9000799E+02  0.7816164E-02  0.1186339E+00
        -11   -1    0    0    0    0  0.00000000000E+00  0.00000000000E+00  0.45593999997E+02  0.45594000000E+02  0.51100000000E-03 0.  1.
         11   -1    0    0    0    0 -0.00000000000E+00 -0.00000000000E+00 -0.45593999997E+02  0.45594000000E+02  0.51100000000E-03 0. -1.
    9900012    2    1    2    0    0 -0.40190979559E+00 -0.11064014475E+01 -0.82325915058E-01  0.90007985931E+02  0.90000250545E+02 0.  0.
        -12    1    1    2    0    0  0.40190979559E+00  0.11064014475E+01  0.82325915058E-01  0.11800140691E+01  0.00000000000E+00 0.  1.
         11    1    3    3    0    0  0.74911087367E+00  0.86005943282E+01  0.39592993672E+01  0.94977598221E+01  0.51100000000E-03 0. -1.
        -11    1    3    3    0    0  0.31719324438E+02 -0.19139630684E+02 -0.20736960447E+02  0.42455418199E+02  0.51100000000E-03 0.  1.
         12    1    3    3    0    0 -0.32870345108E+02  0.94326349085E+01  0.16695335165E+02  0.38054807910E+02  0.00000000000E+00 0. -1.
</event>
<event>
 7    1  0.1654239E-015  0.9000776E+02  0.7816164E-02  0.1186339E+00
        -11   -1    0    0    0    0  0.00000000000E+00  0.00000000000E+00  0.45593999997E+02  0.45594000000E+02  0.51100000000E-03 0.  1.
         11   -1    0    0    0    0 -0.00000000000E+00 -0.00000000000E+00 -0.45593999997E+02  0.45594000000E+02  0.51100000000E-03 0. -1.
    9900012    2    1    2    0    0  0.98102719557E+00 -0.25615502790E+00 -0.60410181993E+00  0.90007759022E+02  0.90000020641E+02 0.  0.
        -12    1    1    2    0    0 -0.98102719557E+00  0.25615502790E+00  0.60410181993E+00  0.11802409778E+01  0.00000000000E+00 0.  1.
         11    1    3    3    0    0 -0.57856177799E+01  0.86636923467E+01 -0.31933248435E+01  0.10896341679E+02  0.51100000000E-03 0. -1.
        -11    1    3    3    0    0 -0.12175795112E+02  0.14052123092E+02  0.32159740026E+02  0.37147826703E+02  0.51100000000E-03 0.  1.
         12    1    3    3    0    0  0.18942440087E+02 -0.22971970467E+02 -0.29570517002E+02  0.41963590640E+02  0.00000000000E+00 0. -1.
</event>
<event>
 7    1  0.1654239E-015  0.9000780E+02  0.7816164E-02  0.1186339E+00
        -11   -1    0    0    0    0  0.00000000000E+00  0.00000000000E+00  0.45593999997E+02  0.45594000000E+02  0.51100000000E-03 0. -1.
         11   -1    0    0    0    0 -0.00000000000E+00 -0.00000000000E+00 -0.45593999997E+02  0.45594000000E+02  0.51100000000E-03 0.  1.
    9900012    2    1    2    0    0 -0.83399853074E+00  0.25323394051E+00  0.79572580441E+00  0.90007804875E+02  0.90000067099E+02 0.  0.
        -12    1    1    2    0    0  0.83399853074E+00 -0.25323394051E+00 -0.79572580441E+00  0.11801951253E+01  0.00000000000E+00 0.  1.
         11    1    3    3    0    0 -0.55807414783E+01  0.20720175505E+00 -0.71063651272E+01  0.90381432605E+01  0.51100000000E-03 0. -1.
        -11    1    3    3    0    0 -0.19900611691E+02  0.31928849896E+02 -0.64885244253E+01  0.38178354481E+02  0.51100000000E-03 0.  1.
         12    1    3    3    0    0  0.24647354639E+02 -0.31882817711E+02  0.14390615357E+02  0.42791307134E+02  0.00000000000E+00 0. -1.
</event>
<event>
 7    1  0.2245179E-015  0.9000772E+02  0.7816164E-02  0.1186339E+00
        -11   -1    0    0    0    0  0.00000000000E+00  0.00000000000E+00  0.45593999997E+02  0.45594000000E+02  0.51100000000E-03 0.  1.
         11   -1    0    0    0    0 -0.00000000000E+00 -0.00000000000E+00 -0.45593999997E+02  0.45594000000E+02  0.51100000000E-03 0. -1.
    9900012    2    1    2    0    0  0.33394698809E-01  0.11093971603E+01  0.40147008679E+00  0.90007722280E+02  0.89999983414E+02 0.  0.
        -12    1    1    2    0    0 -0.33394698809E-01 -0.11093971603E+01 -0.40147008679E+00  0.11802777197E+01  0.00000000000E+00 0.  1.
         11    1    3    3    0    0  0.40502830973E+01 -0.37388879555E+01 -0.73219631778E+01  0.91648906895E+01  0.51100000000E-03 0. -1.
        -11    1    3    3    0    0  0.33724604147E+02 -0.72558866225E+01 -0.12061446433E+02  0.36544155564E+02  0.51100000000E-03 0.  1.
         12    1    3    3    0    0 -0.37741492546E+02  0.12104171738E+02  0.19784879697E+02  0.44298676027E+02  0.00000000000E+00 0. -1.
</event>
<event>
 7    1  0.1654239E-015  0.9000771E+02  0.7816164E-02  0.1186339E+00
        -11   -1    0    0    0    0  0.00000000000E+00  0.00000000000E+00  0.45593999997E+02  0.45594000000E+02  0.51100000000E-03 0.  1.
         11   -1    0    0    0    0 -0.00000000000E+00 -0.00000000000E+00 -0.45593999997E+02  0.45594000000E+02  0.51100000000E-03 0. -1.
    9900012    2    1    2    0    0 -0.89455031486E-02 -0.55781136085E+00  0.10401186718E+01  0.90007711735E+02  0.89999972730E+02 0.  0.
        -12    1    1    2    0    0  0.89455031486E-02  0.55781136085E+00 -0.10401186718E+01  0.11802882647E+01  0.00000000000E+00 0.  1.
         11    1    3    3    0    0  0.52478981380E+01 -0.30521916080E+01  0.10312455341E+02  0.11966747423E+02  0.51100000000E-03 0. -1.
        -11    1    3    3    0    0  0.23219704809E+02 -0.18453294854E+02  0.16825875416E+02  0.34099690118E+02  0.51100000000E-03 0.  1.
         12    1    3    3    0    0 -0.28476548450E+02  0.20947675101E+02 -0.26098212085E+02  0.43941274194E+02  0.00000000000E+00 0. -1.
</event>
<event>
 7    1  0.1654239E-015  0.9000778E+02  0.7816164E-02  0.1186339E+00
        -11   -1    0    0    0    0  0.00000000000E+00  0.00000000000E+00  0.45593999997E+02  0.45594000000E+02  0.51100000000E-03 0. -1.
         11   -1    0    0    0    0 -0.00000000000E+00 -0.00000000000E+00 -0.45593999997E+02  0.45594000000E+02  0.51100000000E-03 0.  1.
    9900012    2    1    2    0    0 -0.65951979828E+00 -0.54470814019E+00  0.81317197034E+00  0.90007778845E+02  0.90000040725E+02 0.  0.
        -12    1    1    2    0    0  0.65951979828E+00  0.54470814019E+00 -0.81317197034E+00  0.11802211554E+01  0.00000000000E+00 0.  1.
         11    1    3    3    0    0 -0.25056131541E+02  0.12030225396E+02  0.27259683836E+02  0.38931046916E+02  0.51100000000E-03 0. -1.
        -11    1    3    3    0    0  0.13853695337E+01 -0.69134464864E+01  0.70987758173E+01  0.10005379025E+02  0.51100000000E-03 0.  1.
        -12    1    3    3    0    0  0.23011242209E+02 -0.56614870503E+01 -0.33545287683E+02  0.41071352904E+02  0.00000000000E+00 0.  1.
</event>
<event>
 7    1  0.1654239E-015  0.9000773E+02  0.7816164E-02  0.1186339E+00
        -11   -1    0    0    0    0  0.00000000000E+00  0.00000000000E+00  0.45593999997E+02  0.45594000000E+02  0.51100000000E-03 0. -1.
         11   -1    0    0    0    0 -0.00000000000E+00 -0.00000000000E+00 -0.45593999997E+02  0.45594000000E+02  0.51100000000E-03 0.  1.
    9900012    2    1    2    0    0 -0.29515455222E+00 -0.11869691476E-02  0.11427644875E+01  0.90007733804E+02  0.89999995091E+02 0.  0.
        -12    1    1    2    0    0  0.29515455222E+00  0.11869691476E-02 -0.11427644875E+01  0.11802661956E+01  0.00000000000E+00 0.  1.
         11    1    3    3    0    0  0.10167310628E+02  0.19868494348E+01  0.77380264688E+01  0.12930538657E+02  0.51100000000E-03 0. -1.
        -11    1    3    3    0    0 -0.26174613047E+02 -0.31241391872E+02  0.67084579083E+01  0.41305427513E+02  0.51100000000E-03 0.  1.
         12    1    3    3    0    0  0.15712147868E+02  0.29253355468E+02 -0.13303719890E+02  0.35771767634E+02  0.00000000000E+00 0. -1.
</event>
<event>
 7    1  0.1654239E-015  0.9000764E+02  0.7816164E-02  0.1186339E+00
        -11   -1    0    0    0    0  0.00000000000E+00  0.00000000000E+00  0.45593999997E+02  0.45594000000E+02  0.51100000000E-03 0.  1.
         11   -1    0    0    0    0 -0.00000000000E+00 -0.00000000000E+00 -0.45593999997E+02  0.45594000000E+02  0.51100000000E-03 0. -1.
    9900012    2    1    2    0    0 -0.92849155327E+00  0.39909518108E+00  0.60981683751E+00  0.90007639842E+02  0.89999899888E+02 0.  0.
        -12    1    1    2    0    0  0.92849155327E+00 -0.39909518108E+00 -0.60981683751E+00  0.11803601583E+01  0.00000000000E+00 0.  1.
         11    1    3    3    0    0  0.79449934425E+01 -0.29767619680E+01  0.35213924662E+01  0.91860893626E+01  0.51100000000E-03 0. -1.
        -11    1    3    3    0    0  0.16385562992E+02  0.29851813729E+02  0.18163193890E+02  0.38594288049E+02  0.51100000000E-03 0.  1.
         12    1    3    3    0    0 -0.25259047988E+02 -0.26475956580E+02 -0.21074769519E+02  0.42227262430E+02  0.00000000000E+00 0. -1.
</event>
<event>
 7    1  0.1654239E-015  0.9000722E+02  0.7816164E-02  0.1186340E+00
        -11   -1    0    0    0    0  0.00000000000E+00  0.00000000000E+00  0.45593999997E+02  0.45594000000E+02  0.51100000000E-03 0. -1.
         11   -1    0    0    0    0 -0.00000000000E+00 -0.00000000000E+00 -0.45593999997E+02  0.45594000000E+02  0.51100000000E-03 0.  1.
    9900012    2    1    2    0    0  0.11226838114E+01 -0.26142625738E+00 -0.25587030027E+00  0.90007223883E+02  0.89999478437E+02 0.  0.
        -12    1    1    2    0    0 -0.11226838114E+01  0.26142625738E+00  0.25587030027E+00  0.11807761172E+01  0.00000000000E+00 0.  1.
         11    1    3    3    0    0  0.25772570386E+02  0.28500604059E+02  0.23967113330E+01  0.38500052487E+02  0.51100000000E-03 0. -1.
        -11    1    3    3    0    0 -0.39979455171E+01  0.70853994810E+01  0.48356827450E+01  0.94641577562E+01  0.51100000000E-03 0.  1.
        -12    1    3    3    0    0 -0.20651941058E+02 -0.35847429797E+02 -0.74882643782E+01  0.42043013640E+02  0.00000000000E+00 0.  1.
</event>
<event>
 7    1  0.1654239E-015  0.9000771E+02  0.7816164E-02  0.1186339E+00
        -11   -1    0    0    0    0  0.00000000000E+00  0.00000000000E+00  0.45593999997E+02  0.45594000000E+02  0.51100000000E-03 0. -1.
         11   -1    0    0    0    0 -0.00000000000E+00 -0.00000000000E+00 -0.45593999997E+02  0.45594000000E+02  0.51100000000E-03 0.  1.
    9900012    2    1    2    0    0  0.11479747250E+01  0.28947983318E-02 -0.27429548517E+00  0.90007706663E+02  0.89999967591E+02 0.  0.
        -12    1    1    2    0    0 -0.11479747250E+01 -0.28947983318E-02  0.27429548517E+00  0.11802933374E+01  0.00000000000E+00 0.  1.
         11    1    3    3    0    0 -0.56189208131E+01 -0.17731010061E+01  0.76108915578E+01  0.96250625373E+01  0.51100000000E-03 0. -1.
        -11    1    3    3    0    0 -0.33128924320E+02 -0.15430491790E+02 -0.37599096867E+01  0.36739115730E+02  0.51100000000E-03 0.  1.
         12    1    3    3    0    0  0.39895819859E+02  0.17206487594E+02 -0.41252773563E+01  0.43643528395E+02  0.00000000000E+00 0. -1.
</event>
<event>
 7    1  0.1654239E-015  0.9000774E+02  0.7816164E-02  0.1186339E+00
        -11   -1    0    0    0    0  0.00000000000E+00  0.00000000000E+00  0.45593999997E+02  0.45594000000E+02  0.51100000000E-03 0.  1.
         11   -1    0    0    0    0 -0.00000000000E+00 -0.00000000000E+00 -0.45593999997E+02  0.45594000000E+02  0.51100000000E-03 0. -1.
    9900012    2    1    2    0    0  0.23772351689E+00 -0.92359268775E-01 -0.11523778110E+01  0.90007738451E+02  0.89999999798E+02 0.  0.
        -12    1    1    2    0    0 -0.23772351689E+00  0.92359268775E-01  0.11523778110E+01  0.11802615491E+01  0.00000000000E+00 0.  1.
         11    1    3    3    0    0 -0.20484486026E+01 -0.10140595354E+02  0.30071378734E+01  0.10773611013E+02  0.51100000000E-03 0. -1.
        -11    1    3    3    0    0 -0.92037865582E+01  0.11119811107E+02  0.35291822220E+02  0.38129681378E+02  0.51100000000E-03 0.  1.
         12    1    3    3    0    0  0.11489958678E+02 -0.10715750222E+01 -0.39451337905E+02  0.41104446060E+02  0.00000000000E+00 0. -1.
</event>
<event>
 7    1  0.1654239E-015  0.9000771E+02  0.7816164E-02  0.1186339E+00
        -11   -1    0    0    0    0  0.00000000000E+00  0.00000000000E+00  0.45593999997E+02  0.45594000000E+02  0.51100000000E-03 0.  1.
         11   -1    0    0    0    0 -0.00000000000E+00 -0.00000000000E+00 -0.45593999997E+02  0.45594000000E+02  0.51100000000E-03 0. -1.
    9900012    2    1    2    0    0  0.95853201452E+00 -0.52042580971E+00 -0.45106232849E+00  0.90007710260E+02  0.89999971235E+02 0.  0.
        -12    1    1    2    0    0 -0.95853201452E+00  0.52042580971E+00  0.45106232849E+00  0.11802897400E+01  0.00000000000E+00 0.  1.
         11    1    3    3    0    0  0.13704941954E+02 -0.32234100824E+02  0.17533236837E+02  0.39169849171E+02  0.51100000000E-03 0. -1.
        -11    1    3    3    0    0  0.16157959298E+00  0.44748198886E+00  0.81054559991E+01  0.81194067092E+01  0.51100000000E-03 0.  1.
        -12    1    3    3    0    0 -0.12907989532E+02  0.31266193025E+02 -0.26089755164E+02  0.42718454380E+02  0.00000000000E+00 0.  1.
</event>
<event>
 7    1  0.1654239E-015  0.9000785E+02  0.7816164E-02  0.1186339E+00
        -11   -1    0    0    0    0  0.00000000000E+00  0.00000000000E+00  0.45593999997E+02  0.45594000000E+02  0.51100000000E-03 0.  1.
         11   -1    0    0    0    0 -0.00000000000E+00 -0.00000000000E+00 -0.45593999997E+02  0.45594000000E+02  0.51100000000E-03 0. -1.
    9900012    2    1    2    0    0 -0.40369872985E+00 -0.10471509945E+00 -0.11039998889E+01  0.90007850149E+02  0.90000112971E+02 0.  0.
        -12    1    1    2    0    0  0.40369872985E+00  0.10471509945E+00  0.11039998889E+01  0.11801498511E+01  0.00000000000E+00 0.  1.
         11    1    3    3    0    0 -0.13064681855E+02  0.36397266359E+02 -0.41623379428E+01  0.38894369359E+02  0.51100000000E-03 0. -1.
        -11    1    3    3    0    0  0.10713291367E+02  0.32523123359E+01  0.25279900193E-01  0.11196105876E+02  0.51100000000E-03 0.  1.
        -12    1    3    3    0    0  0.19476917575E+01 -0.39754293795E+02  0.30330581538E+01  0.39917374914E+02  0.00000000000E+00 0.  1.
</event>
<event>
 7    1  0.1654239E-015  0.9000779E+02  0.7816164E-02  0.1186339E+00
        -11   -1    0    0    0    0  0.00000000000E+00  0.00000000000E+00  0.45593999997E+02  0.45594000000E+02  0.51100000000E-03 0.  1.
         11   -1    0    0    0    0 -0.00000000000E+00 -0.00000000000E+00 -0.45593999997E+02  0.45594000000E+02  0.51100000000E-03 0. -1.
    9900012    2    1    2    0    0  0.17061099172E+00 -0.10352801369E+01 -0.54035396249E+00  0.90007790071E+02  0.90000052100E+02 0.  0.
        -12    1    1    2    0    0 -0.17061099172E+00  0.10352801369E+01  0.54035396249E+00  0.11802099293E+01  0.00000000000E+00 0.  1.
         11    1    3    3    0    0  0.87275902069E+01  0.41277142959E+01 -0.63381694998E+01  0.11549080006E+02  0.51100000000E-03 0. -1.
        -11    1    3    3    0    0 -0.33500240111E+02  0.19642606978E+02 -0.96859596094E+01  0.40023941712E+02  0.51100000000E-03 0.  1.
         12    1    3    3    0    0  0.24943260896E+02 -0.24805601411E+02  0.15483775147E+02  0.38434768352E+02  0.00000000000E+00 0. -1.
</event>
<event>
 7    1  0.1654239E-015  0.9000744E+02  0.7816164E-02  0.1186340E+00
        -11   -1    0    0    0    0  0.00000000000E+00  0.00000000000E+00  0.45593999997E+02  0.45594000000E+02  0.51100000000E-03 0.  1.
         11   -1    0    0    0    0 -0.00000000000E+00 -0.00000000000E+00 -0.45593999997E+02  0.45594000000E+02  0.51100000000E-03 0. -1.
    9900012    2    1    2    0    0  0.24941913970E+00 -0.38224904816E+00 -0.10887626482E+01  0.90007437276E+02  0.89999694647E+02 0.  0.
        -12    1    1    2    0    0 -0.24941913970E+00  0.38224904816E+00  0.10887626482E+01  0.11805627244E+01  0.00000000000E+00 0.  1.
         11    1    3    3    0    0  0.67050713214E+01 -0.54731781713E+01 -0.37042572233E+02  0.38040318330E+02  0.51100000000E-03 0. -1.
        -11    1    3    3    0    0  0.92334761301E+01 -0.65720042130E+01  0.33767298601E+00  0.11338533597E+02  0.51100000000E-03 0.  1.
        -12    1    3    3    0    0 -0.15689128312E+02  0.11662933336E+02  0.35616136599E+02  0.40628585349E+02  0.00000000000E+00 0.  1.
</event>
<event>
 7    1  0.1654239E-015  0.9000781E+02  0.7816164E-02  0.1186339E+00
        -11   -1    0    0    0    0  0.00000000000E+00  0.00000000000E+00  0.45593999997E+02  0.45594000000E+02  0.51100000000E-03 0. -1.
         11   -1    0    0    0    0 -0.00000000000E+00 -0.00000000000E+00 -0.45593999997E+02  0.45594000000E+02  0.51100000000E-03 0.  1.
    9900012    2    1    2    0    0  0.89730755057E+00 -0.48898041491E+00  0.59041519307E+00  0.90007808157E+02  0.90000070424E+02 0.  0.
        -12    1    1    2    0    0 -0.89730755057E+00  0.48898041491E+00 -0.59041519307E+00  0.11801918432E+01  0.00000000000E+00 0.  1.
         11    1    3    3    0    0  0.12044842093E+01  0.22793787129E+02  0.29266262473E+02  0.37114978557E+02  0.51100000000E-03 0. -1.
        -11    1    3    3    0    0 -0.40069915273E+01 -0.27618419674E+01  0.87716804437E+01  0.10031257659E+02  0.51100000000E-03 0.  1.
        -12    1    3    3    0    0  0.36998148686E+01 -0.20520925577E+02 -0.37447527724E+02  0.42861571941E+02  0.00000000000E+00 0.  1.
</event>
<event>
 7    1  0.1654239E-015  0.9000784E+02  0.7816164E-02  0.1186339E+00
        -11   -1    0    0    0    0  0.00000000000E+00  0.00000000000E+00  0.45593999997E+02  0.45594000000E+02  0.51100000000E-03 0.  1.
         11   -1    0    0    0    0 -0.00000000000E+00 -0.00000000000E+00 -0.45593999997E+02  0.45594000000E+02  0.51100000000E-03 0. -1.
    9900012    2    1    2    0    0 -0.89271801861E+00 -0.71782107505E+00  0.28382716268E+00  0.90007843055E+02  0.90000105783E+02 0.  0.
        -12    1    1    2    0    0  0.89271801861E+00  0.71782107505E+00 -0.28382716268E+00  0.11801569450E+01  0.00000000000E+00 0.  1.
         11    1    3    3    0    0 -0.41075961692E-01  0.94336549723E+01 -0.92133658535E+00  0.94786283151E+01  0.51100000000E-03 0. -1.
        -11    1    3    3    0    0 -0.32080113975E+02  0.51686625093E+01  0.22701921803E+02  0.39638693704E+02  0.51100000000E-03 0.  1.
         12    1    3    3    0    0  0.31228471918E+02 -0.15320138557E+02 -0.21496758055E+02  0.40890521036E+02  0.00000000000E+00 0. -1.
</event>
<event>
 7    1  0.1654239E-015  0.9000773E+02  0.7816164E-02  0.1186339E+00
        -11   -1    0    0    0    0  0.00000000000E+00  0.00000000000E+00  0.45593999997E+02  0.45594000000E+02  0.51100000000E-03 0. -1.
         11   -1    0    0    0    0 -0.00000000000E+00 -0.00000000000E+00 -0.45593999997E+02  0.45594000000E+02  0.51100000000E-03 0.  1.
    9900012    2    1    2    0    0 -0.14960871884E+00 -0.71350545279E+00  0.92820750998E+00  0.90007728005E+02  0.89999989215E+02 0.  0.
        -12    1    1    2    0    0  0.14960871884E+00  0.71350545279E+00 -0.92820750998E+00  0.11802719947E+01  0.00000000000E+00 0.  1.
         11    1    3    3    0    0 -0.33320625879E+01 -0.22049091096E+02 -0.11240284564E+02  0.24972165637E+02  0.51100000000E-03 0. -1.
        -11    1    3    3    0    0 -0.23868006773E+02  0.26954584582E+02  0.97612449169E+01  0.37302992908E+02  0.51100000000E-03 0.  1.
         12    1    3    3    0    0  0.27050460642E+02 -0.56189989389E+01  0.24072471574E+01  0.27732569461E+02  0.00000000000E+00 0. -1.
</event>
<event>
 7    1  0.1654239E-015  0.9000778E+02  0.7816164E-02  0.1186339E+00
        -11   -1    0    0    0    0  0.00000000000E+00  0.00000000000E+00  0.45593999997E+02  0.45594000000E+02  0.51100000000E-03 0.  1.
         11   -1    0    0    0    0 -0.00000000000E+00 -0.00000000000E+00 -0.45593999997E+02  0.45594000000E+02  0.51100000000E-03 0. -1.
    9900012    2    1    2    0    0 -0.10794912104E+01  0.43970980658E+00  0.18513200703E+00  0.90007779746E+02  0.90000041639E+02 0.  0.
        -12    1    1    2    0    0  0.10794912104E+01 -0.43970980658E+00 -0.18513200703E+00  0.11802202537E+01  0.00000000000E+00 0.  1.
         11    1    3    3    0    0  0.35118790267E-01 -0.18826097873E+02 -0.33234046991E+02  0.38195877711E+02  0.51100000000E-03 0. -1.
        -11    1    3    3    0    0  0.62630997459E+01  0.43882473778E+01 -0.55518561076E+01  0.94501978803E+01  0.51100000000E-03 0.  1.
        -12    1    3    3    0    0 -0.73777097466E+01  0.14877560302E+02  0.38971035106E+02  0.42361704155E+02  0.00000000000E+00 0.  1.
</event>
<event>
 7    1  0.1654239E-015  0.9000790E+02  0.7816164E-02  0.1186339E+00
        -11   -1    0    0    0    0  0.00000000000E+00  0.00000000000E+00  0.45593999997E+02  0.45594000000E+02  0.51100000000E-03 0.  1.
         11   -1    0    0    0    0 -0.00000000000E+00 -0.00000000000E+00 -0.45593999997E+02  0.45594000000E+02  0.51100000000E-03 0. -1.
    9900012    2    1    2    0    0 -0.16304711400E-01  0.60656809093E+00 -0.10121443237E+01  0.90007903892E+02  0.90000167423E+02 0.  0.
        -12    1    1    2    0    0  0.16304711400E-01 -0.60656809093E+00  0.10121443237E+01  0.11800961082E+01  0.00000000000E+00 0.  1.
         11    1    3    3    0    0 -0.50061808469E+01 -0.54880957991E+01  0.64710330365E+01  0.98516653919E+01  0.51100000000E-03 0. -1.
        -11    1    3    3    0    0  0.56179368729E+00 -0.15107388506E+02  0.31848847041E+02  0.35254756526E+02  0.51100000000E-03 0.  1.
         12    1    3    3    0    0  0.44280824482E+01  0.21202052396E+02 -0.39332024401E+02  0.44901481974E+02  0.00000000000E+00 0. -1.
</event>
<event>
 7    1  0.1654239E-015  0.9000774E+02  0.7816164E-02  0.1186339E+00
        -11   -1    0    0    0    0  0.00000000000E+00  0.00000000000E+00  0.45593999997E+02  0.45594000000E+02  0.51100000000E-03 0.  1.
         11   -1    0    0    0    0 -0.00000000000E+00 -0.00000000000E+00 -0.45593999997E+02  0.45594000000E+02  0.51100000000E-03 0. -1.
    9900012    2    1    2    0    0  0.88420891496E+00  0.40027907608E+00 -0.67153072879E+00  0.90007744831E+02  0.90000006263E+02 0.  0.
        -12    1    1    2    0    0 -0.88420891496E+00 -0.40027907608E+00  0.67153072879E+00  0.11802551689E+01  0.00000000000E+00 0.  1.
         11    1    3    3    0    0 -0.79545551126E+00  0.73512043499E+01  0.16470739733E+00  0.73959504901E+01  0.51100000000E-03 0. -1.
        -11    1    3    3    0    0 -0.17147184795E+01  0.30717182360E+02 -0.23327271230E+02  0.38608899685E+02  0.51100000000E-03 0.  1.
         12    1    3    3    0    0  0.33943829058E+01 -0.37668107634E+02  0.22491033104E+02  0.44002894656E+02  0.00000000000E+00 0. -1.
</event>
<event>
 7    1  0.1654239E-015  0.9000787E+02  0.7816164E-02  0.1186339E+00
        -11   -1    0    0    0    0  0.00000000000E+00  0.00000000000E+00  0.45593999997E+02  0.45594000000E+02  0.51100000000E-03 0.  1.
         11   -1    0    0    0    0 -0.00000000000E+00 -0.00000000000E+00 -0.45593999997E+02  0.45594000000E+02  0.51100000000E-03 0. -1.
    9900012    2    1    2    0    0 -0.45034274649E+00  0.46287830649E+00 -0.98774749698E+00  0.90007868637E+02  0.90000131703E+02 0.  0.
        -12    1    1    2    0    0  0.45034274649E+00 -0.46287830649E+00  0.98774749698E+00  0.11801313629E+01  0.00000000000E+00 0.  1.
         11    1    3    3    0    0  0.18114615273E+01  0.79711117580E+01  0.17041105831E+01  0.83500903386E+01  0.51100000000E-03 0. -1.
        -11    1    3    3    0    0 -0.87064565092E+00 -0.17886495005E+02  0.36733249623E+02  0.40865833596E+02  0.51100000000E-03 0.  1.
         12    1    3    3    0    0 -0.13911586229E+01  0.10378261553E+02 -0.39425107703E+02  0.40791944702E+02  0.00000000000E+00 0. -1.
</event>
<event>
 7    1  0.1654239E-015  0.9000764E+02  0.7816164E-02  0.1186339E+00
        -11   -1    0    0    0    0  0.00000000000E+00  0.00000000000E+00  0.45593999997E+02  0.45594000000E+02  0.51100000000E-03 0.  1.
         11   -1    0    0    0    0 -0.00000000000E+00 -0.00000000000E+00 -0.45593999997E+02  0.45594000000E+02  0.51100000000E-03 0. -1.
    9900012    2    1    2    0    0 -0.34084440094E+00 -0.29065795099E+00  0.10920601389E+01  0.90007638912E+02  0.89999898946E+02 0.  0.
        -12    1    1    2    0    0  0.34084440094E+00  0.29065795099E+00 -0.10920601389E+01  0.11803610876E+01  0.00000000000E+00 0.  1.
         11    1    3    3    0    0 -0.16121653178E+01  0.71827005222E+01  0.57249299611E+01  0.93255073387E+01  0.51100000000E-03 0. -1.
        -11    1    3    3    0    0 -0.21998562127E+02 -0.31441888087E+02  0.15825949619E+02  0.41508911618E+02  0.51100000000E-03 0.  1.
         12    1    3    3    0    0  0.23269883044E+02  0.23968529614E+02 -0.20458819441E+02  0.39173219955E+02  0.00000000000E+00 0. -1.
</event>
<event>
 7    1  0.1654239E-015  0.9000774E+02  0.7816164E-02  0.1186339E+00
        -11   -1    0    0    0    0  0.00000000000E+00  0.00000000000E+00  0.45593999997E+02  0.45594000000E+02  0.51100000000E-03 0. -1.
         11   -1    0    0    0    0 -0.00000000000E+00 -0.00000000000E+00 -0.45593999997E+02  0.45594000000E+02  0.51100000000E-03 0.  1.
    9900012    2    1    2    0    0  0.59758930971E+00  0.10165063195E+01 -0.51148951721E-01  0.90007739734E+02  0.90000001098E+02 0.  0.
        -12    1    1    2    0    0 -0.59758930971E+00 -0.10165063195E+01  0.51148951721E-01  0.11802602662E+01  0.00000000000E+00 0.  1.
         11    1    3    3    0    0 -0.59674639718E+01  0.19749440920E-01  0.78845942313E+01  0.98882679347E+01  0.51100000000E-03 0. -1.
        -11    1    3    3    0    0  0.32496702218E+02  0.17422372922E+02  0.16970295439E+02  0.40590216319E+02  0.51100000000E-03 0.  1.
         12    1    3    3    0    0 -0.25931648937E+02 -0.16425616043E+02 -0.24906038622E+02  0.39529255480E+02  0.00000000000E+00 0. -1.
</event>
<event>
 7    1  0.1654239E-015  0.9000789E+02  0.7816164E-02  0.1186339E+00
        -11   -1    0    0    0    0  0.00000000000E+00  0.00000000000E+00  0.45593999997E+02  0.45594000000E+02  0.51100000000E-03 0. -1.
         11   -1    0    0    0    0 -0.00000000000E+00 -0.00000000000E+00 -0.45593999997E+02  0.45594000000E+02  0.51100000000E-03 0.  1.
    9900012    2    1    2    0    0  0.59827435508E+00  0.41341423379E+00  0.92941627119E+00  0.90007890625E+02  0.90000153981E+02 0.  0.
        -12    1    1    2    0    0 -0.59827435508E+00 -0.41341423379E+00 -0.92941627119E+00  0.11801093754E+01  0.00000000000E+00 0.  1.
         11    1    3    3    0    0 -0.41816297668E+01  0.35919086763E+02 -0.13298108659E+02  0.38529294253E+02  0.51100000000E-03 0. -1.
        -11    1    3    3    0    0  0.73223673809E+01  0.98404694991E+00 -0.61450054378E+01  0.96097088693E+01  0.51100000000E-03 0.  1.
        -12    1    3    3    0    0 -0.25424632591E+01 -0.36489719480E+02  0.20372530368E+02  0.41868887503E+02  0.00000000000E+00 0.  1.
</event>
<event>
 7    1  0.1654239E-015  0.9000770E+02  0.7816164E-02  0.1186339E+00
        -11   -1    0    0    0    0  0.00000000000E+00  0.00000000000E+00  0.45593999997E+02  0.45594000000E+02  0.51100000000E-03 0.  1.
         11   -1    0    0    0    0 -0.00000000000E+00 -0.00000000000E+00 -0.45593999997E+02  0.45594000000E+02  0.51100000000E-03 0. -1.
    9900012    2    1    2    0    0 -0.49516525446E+00 -0.45244562357E+00 -0.97118813148E+00  0.90007702555E+02  0.89999963429E+02 0.  0.
        -12    1    1    2    0    0  0.49516525446E+00  0.45244562357E+00  0.97118813148E+00  0.11802974448E+01  0.00000000000E+00 0.  1.
         11    1    3    3    0    0  0.30911545742E+01  0.10206852946E+02  0.43552139720E+01  0.11519677629E+02  0.51100000000E-03 0. -1.
        -11    1    3    3    0    0  0.60151933848E+01  0.15406554086E+02  0.29572712945E+02  0.33883474017E+02  0.51100000000E-03 0.  1.
         12    1    3    3    0    0 -0.96015132135E+01 -0.26065852656E+02 -0.34899115049E+02  0.44604550909E+02  0.00000000000E+00 0. -1.
</event>
<event>
 7    1  0.1654239E-015  0.9000775E+02  0.7816164E-02  0.1186339E+00
        -11   -1    0    0    0    0  0.00000000000E+00  0.00000000000E+00  0.45593999997E+02  0.45594000000E+02  0.51100000000E-03 0. -1.
         11   -1    0    0    0    0 -0.00000000000E+00 -0.00000000000E+00 -0.45593999997E+02  0.45594000000E+02  0.51100000000E-03 0.  1.
    9900012    2    1    2    0    0 -0.70909574389E-01 -0.10873297237E+01 -0.45351444200E+00  0.90007750262E+02  0.90000011765E+02 0.  0.
        -12    1    1    2    0    0  0.70909574389E-01  0.10873297237E+01  0.45351444200E+00  0.11802497384E+01  0.00000000000E+00 0.  1.
         11    1    3    3    0    0 -0.66529699997E+01  0.69805044219E+01 -0.21958180869E+01  0.98899478832E+01  0.51100000000E-03 0. -1.
        -11    1    3    3    0    0 -0.27705814014E+02 -0.28853078984E+02  0.11158979544E+01  0.40016965471E+02  0.51100000000E-03 0.  1.
         12    1    3    3    0    0  0.34287874440E+02  0.20785244838E+02  0.62640569056E+00  0.40100836907E+02  0.00000000000E+00 0. -1.
</event>
<event>
 7    1  0.1654239E-015  0.9000786E+02  0.7816164E-02  0.1186339E+00
        -11   -1    0    0    0    0  0.00000000000E+00  0.00000000000E+00  0.45593999997E+02  0.45594000000E+02  0.51100000000E-03 0. -1.
         11   -1    0    0    0    0 -0.00000000000E+00 -0.00000000000E+00 -0.45593999997E+02  0.45594000000E+02  0.51100000000E-03 0.  1.
    9900012    2    1    2    0    0  0.99460871869E+00  0.56422422832E+00  0.29176538015E+00  0.90007863347E+02  0.90000126343E+02 0.  0.
        -12    1    1    2    0    0 -0.99460871869E+00 -0.56422422832E+00 -0.29176538015E+00  0.11801366532E+01  0.00000000000E+00 0.  1.
         11    1    3    3    0    0 -0.27040166289E+02 -0.14163615397E+02 -0.15302426345E+02  0.34145905265E+02  0.51100000000E-03 0. -1.
        -11    1    3    3    0    0 -0.49517216394E+01 -0.12170098491E+01 -0.99621064838E+01  0.11191256678E+02  0.51100000000E-03 0.  1.
        -12    1    3    3    0    0  0.32986496647E+02  0.15944849475E+02  0.25556298209E+02  0.44670701404E+02  0.00000000000E+00 0.  1.
</event>
<event>
 7    1  0.1654239E-015  0.9000770E+02  0.7816164E-02  0.1186339E+00
        -11   -1    0    0    0    0  0.00000000000E+00  0.00000000000E+00  0.45593999997E+02  0.45594000000E+02  0.51100000000E-03 0. -1.
         11   -1    0    0    0    0 -0.00000000000E+00 -0.00000000000E+00 -0.45593999997E+02  0.45594000000E+02  0.51100000000E-03 0.  1.
    9900012    2    1    2    0    0 -0.25349645850E+00 -0.47106485593E+00  0.10521173322E+01  0.90007697736E+02  0.89999958546E+02 0.  0.
        -12    1    1    2    0    0  0.25349645850E+00  0.47106485593E+00 -0.10521173322E+01  0.11803022637E+01  0.00000000000E+00 0.  1.
         11    1    3    3    0    0  0.32384616828E+02  0.43700973197E+00 -0.22815478627E+02  0.39616921257E+02  0.51100000000E-03 0. -1.
        -11    1    3    3    0    0 -0.31837923215E+01  0.96922507335E+01 -0.12201164049E+01  0.10274480139E+02  0.51100000000E-03 0.  1.
        -12    1    3    3    0    0 -0.29454320965E+02 -0.10600325321E+02  0.25087712364E+02  0.40116296341E+02  0.00000000000E+00 0.  1.
</event>
<event>
 7    1  0.1654239E-015  0.9000781E+02  0.7816164E-02  0.1186339E+00
        -11   -1    0    0    0    0  0.00000000000E+00  0.00000000000E+00  0.45593999997E+02  0.45594000000E+02  0.51100000000E-03 0. -1.
         11   -1    0    0    0    0 -0.00000000000E+00 -0.00000000000E+00 -0.45593999997E+02  0.45594000000E+02  0.51100000000E-03 0.  1.
    9900012    2    1    2    0    0 -0.21453286484E+00  0.78893258770E+00  0.85112019312E+00  0.90007811642E+02  0.90000073955E+02 0.  0.
        -12    1    1    2    0    0  0.21453286484E+00 -0.78893258770E+00 -0.85112019312E+00  0.11801883583E+01  0.00000000000E+00 0.  1.
         11    1    3    3    0    0  0.51471052751E+00  0.68876099507E+01 -0.36890266334E+01  0.78302628004E+01  0.51100000000E-03 0. -1.
        -11    1    3    3    0    0  0.34992178641E+02  0.13393859898E+02  0.14677358383E+02  0.40240190089E+02  0.51100000000E-03 0.  1.
         12    1    3    3    0    0 -0.35721422034E+02 -0.19492537261E+02 -0.10137211557E+02  0.41937358752E+02  0.00000000000E+00 0. -1.
</event>
<event>
 7    1  0.1654239E-015  0.9000772E+02  0.7816164E-02  0.1186339E+00
        -11   -1    0    0    0    0  0.00000000000E+00  0.00000000000E+00  0.45593999997E+02  0.45594000000E+02  0.51100000000E-03 0.  1.
         11   -1    0    0    0    0 -0.00000000000E+00 -0.00000000000E+00 -0.45593999997E+02  0.45594000000E+02  0.51100000000E-03 0. -1.
    9900012    2    1    2    0    0  0.88151491668E+00  0.80677598454E-01 -0.78069092452E+00  0.90007722176E+02  0.89999983308E+02 0.  0.
        -12    1    1    2    0    0 -0.88151491668E+00 -0.80677598454E-01  0.78069092452E+00  0.11802778244E+01  0.00000000000E+00 0.  1.
         11    1    3    3    0    0  0.56779441879E+01  0.97138140767E+01 -0.24587709627E+01  0.11517065122E+02  0.51100000000E-03 0. -1.
        -11    1    3    3    0    0  0.85081656021E+01  0.88619931854E+01  0.35581762455E+02  0.37642869508E+02  0.51100000000E-03 0.  1.
         12    1    3    3    0    0 -0.13304594873E+02 -0.18495129664E+02 -0.33903682416E+02  0.40847787546E+02  0.00000000000E+00 0. -1.
</event>
<event>
 7    1  0.1654239E-015  0.9000786E+02  0.7816164E-02  0.1186339E+00
        -11   -1    0    0    0    0  0.00000000000E+00  0.00000000000E+00  0.45593999997E+02  0.45594000000E+02  0.51100000000E-03 0. -1.
         11   -1    0    0    0    0 -0.00000000000E+00 -0.00000000000E+00 -0.45593999997E+02  0.45594000000E+02  0.51100000000E-03 0.  1.
    9900012    2    1    2    0    0 -0.40467913926E+00 -0.36858207786E-01  0.11079755939E+01  0.90007858631E+02  0.90000121565E+02 0.  0.
        -12    1    1    2    0    0  0.40467913926E+00  0.36858207786E-01 -0.11079755939E+01  0.11801413686E+01  0.00000000000E+00 0.  1.
         11    1    3    3    0    0  0.17557189978E+01  0.60322847453E+01 -0.76421578251E+01  0.98931079511E+01  0.51100000000E-03 0. -1.
        -11    1    3    3    0    0  0.19077695769E+02  0.31285210585E+02  0.49763369591E+01  0.36979545792E+02  0.51100000000E-03 0.  1.
         12    1    3    3    0    0 -0.21238093906E+02 -0.37354353538E+02  0.37737964598E+01  0.43135204888E+02  0.00000000000E+00 0. -1.
</event>
<event>
 7    1  0.1654239E-015  0.9000766E+02  0.7816164E-02  0.1186339E+00
        -11   -1    0    0    0    0  0.00000000000E+00  0.00000000000E+00  0.45593999997E+02  0.45594000000E+02  0.51100000000E-03 0.  1.
         11   -1    0    0    0    0 -0.00000000000E+00 -0.00000000000E+00 -0.45593999997E+02  0.45594000000E+02  0.51100000000E-03 0. -1.
    9900012    2    1    2    0    0 -0.66869662471E+00  0.97262323033E+00  0.71664079992E-02  0.90007660014E+02  0.89999920327E+02 0.  0.
        -12    1    1    2    0    0  0.66869662471E+00 -0.97262323033E+00 -0.71664079992E-02  0.11803399855E+01  0.00000000000E+00 0.  1.
         11    1    3    3    0    0 -0.18679083994E+02 -0.21859313028E+01  0.32239660677E+02  0.37324016334E+02  0.51100000000E-03 0. -1.
        -11    1    3    3    0    0 -0.31628918886E+00 -0.83486988471E+01  0.49146468014E+01  0.96930162867E+01  0.51100000000E-03 0.  1.
        -12    1    3    3    0    0  0.18326676558E+02  0.11507253380E+02 -0.37147141070E+02  0.42990627394E+02  0.00000000000E+00 0.  1.
</event>
<event>
 7    1  0.1654239E-015  0.9000764E+02  0.7816164E-02  0.1186339E+00
        -11   -1    0    0    0    0  0.00000000000E+00  0.00000000000E+00  0.45593999997E+02  0.45594000000E+02  0.51100000000E-03 0. -1.
         11   -1    0    0    0    0 -0.00000000000E+00 -0.00000000000E+00 -0.45593999997E+02  0.45594000000E+02  0.51100000000E-03 0.  1.
    9900012    2    1    2    0    0 -0.11431231040E+01 -0.20189925214E+00  0.21393375172E+00  0.90007635061E+02  0.89999895044E+02 0.  0.
        -12    1    1    2    0    0  0.11431231040E+01  0.20189925214E+00 -0.21393375172E+00  0.11803649389E+01  0.00000000000E+00 0.  1.
         11    1    3    3    0    0  0.16807186767E+02 -0.16509380678E+01  0.32409675566E+02  0.36545782165E+02  0.51100000000E-03 0. -1.
        -11    1    3    3    0    0  0.76308190747E+01  0.78232062363E+01  0.11101367218E+01  0.10984733013E+02  0.51100000000E-03 0.  1.
        -12    1    3    3    0    0 -0.25581128946E+02 -0.63741674206E+01 -0.33305878536E+02  0.42477119883E+02  0.00000000000E+00 0.  1.
</event>
<event>
 7    1  0.1654239E-015  0.9000746E+02  0.7816164E-02  0.1186340E+00
        -11   -1    0    0    0    0  0.00000000000E+00  0.00000000000E+00  0.45593999997E+02  0.45594000000E+02  0.51100000000E-03 0. -1.
         11   -1    0    0    0    0 -0.00000000000E+00 -0.00000000000E+00 -0.45593999997E+02  0.45594000000E+02  0.51100000000E-03 0.  1.
    9900012    2    1    2    0    0  0.35775638792E+00  0.11078769100E+01  0.19565999672E+00  0.90007464649E+02  0.89999722382E+02 0.  0.
        -12    1    1    2    0    0 -0.35775638792E+00 -0.11078769100E+01 -0.19565999672E+00  0.11805353511E+01  0.00000000000E+00 0.  1.
         11    1    3    3    0    0 -0.29312767455E+02  0.22176677334E+02 -0.40300649423E+00  0.36758750903E+02  0.51100000000E-03 0. -1.
        -11    1    3    3    0    0 -0.13642954669E+00  0.97349093742E+01  0.33510343339E+01  0.10296431659E+02  0.51100000000E-03 0.  1.
        -12    1    3    3    0    0  0.29806953390E+02 -0.30803709798E+02 -0.27523678429E+01  0.42952282087E+02  0.00000000000E+00 0.  1.
</event>
<event>
 7    1  0.1654239E-015  0.9000771E+02  0.7816164E-02  0.1186339E+00
        -11   -1    0    0    0    0  0.00000000000E+00  0.00000000000E+00  0.45593999997E+02  0.45594000000E+02  0.51100000000E-03 0. -1.
         11   -1    0    0    0    0 -0.00000000000E+00 -0.00000000000E+00 -0.45593999997E+02  0.45594000000E+02  0.51100000000E-03 0.  1.
    9900012    2    1    2    0    0  0.39009500802E+00 -0.19454450654E+00  0.10968404064E+01  0.90007711663E+02  0.89999972657E+02 0.  0.
        -12    1    1    2    0    0 -0.39009500802E+00  0.19454450654E+00 -0.10968404064E+01  0.11802883366E+01  0.00000000000E+00 0.  1.
         11    1    3    3    0    0  0.22906581033E+02 -0.13745356477E+02  0.22461435707E+02  0.34902182934E+02  0.51100000000E-03 0. -1.
        -11    1    3    3    0    0  0.84306389754E+01 -0.16250411477E+01  0.65117241406E+01  0.10775851883E+02  0.51100000000E-03 0.  1.
        -12    1    3    3    0    0 -0.30947125001E+02  0.15175853118E+02 -0.27876319441E+02  0.44329676846E+02  0.00000000000E+00 0.  1.
</event>
<event>
 7    1  0.1654239E-015  0.9000788E+02  0.7816164E-02  0.1186339E+00
        -11   -1    0    0    0    0  0.00000000000E+00  0.00000000000E+00  0.45593999997E+02  0.45594000000E+02  0.51100000000E-03 0. -1.
         11   -1    0    0    0    0 -0.00000000000E+00 -0.00000000000E+00 -0.45593999997E+02  0.45594000000E+02  0.51100000000E-03 0.  1.
    9900012    2    1    2    0    0  0.51778769384E+00  0.94668072219E+00 -0.47788529277E+00  0.90007880159E+02  0.90000143377E+02 0.  0.
        -12    1    1    2    0    0 -0.51778769384E+00 -0.94668072219E+00  0.47788529277E+00  0.11801198408E+01  0.00000000000E+00 0.  1.
         11    1    3    3    0    0  0.32930327067E+02  0.38410734084E+01  0.23260432185E+02  0.40499481371E+02  0.51100000000E-03 0. -1.
        -11    1    3    3    0    0 -0.68517457918E+01 -0.13564998163E+02 -0.47356995828E+01  0.15917991279E+02  0.51100000000E-03 0.  1.
        -12    1    3    3    0    0 -0.25560793581E+02  0.10670605477E+02 -0.19002617895E+02  0.33590407509E+02  0.00000000000E+00 0.  1.
</event>
<event>
 7    1  0.1654239E-015  0.9000784E+02  0.7816164E-02  0.1186339E+00
        -11   -1    0    0    0    0  0.00000000000E+00  0.00000000000E+00  0.45593999997E+02  0.45594000000E+02  0.51100000000E-03 0.  1.
         11   -1    0    0    0    0 -0.00000000000E+00 -0.00000000000E+00 -0.45593999997E+02  0.45594000000E+02  0.51100000000E-03 0. -1.
    9900012    2    1    2    0    0 -0.11650030615E+01  0.85036031831E-01 -0.16829500389E+00  0.90007836254E+02  0.90000098892E+02 0.  0.
        -12    1    1    2    0    0  0.11650030615E+01 -0.85036031831E-01  0.16829500389E+00  0.11801637464E+01  0.00000000000E+00 0.  1.
         11    1    3    3    0    0 -0.31515042603E+02 -0.26480924255E+02  0.73231324740E+01  0.41809873585E+02  0.51100000000E-03 0. -1.
        -11    1    3    3    0    0  0.74382395013E+01 -0.47196092720E+01 -0.78316207903E+00  0.88439505687E+01  0.51100000000E-03 0.  1.
        -12    1    3    3    0    0  0.22911800040E+02  0.31285569559E+02 -0.67082653989E+01  0.39354012100E+02  0.00000000000E+00 0.  1.
</event>
<event>
 7    1  0.1654239E-015  0.9000770E+02  0.7816164E-02  0.1186339E+00
        -11   -1    0    0    0    0  0.00000000000E+00  0.00000000000E+00  0.45593999997E+02  0.45594000000E+02  0.51100000000E-03 0. -1.
         11   -1    0    0    0    0 -0.00000000000E+00 -0.00000000000E+00 -0.45593999997E+02  0.45594000000E+02  0.51100000000E-03 0.  1.
    9900012    2    1    2    0    0  0.59376102090E+00  0.19858565883E+00 -0.10005623612E+01  0.90007697728E+02  0.89999958538E+02 0.  0.
        -12    1    1    2    0    0 -0.59376102090E+00 -0.19858565883E+00  0.10005623612E+01  0.11803022717E+01  0.00000000000E+00 0.  1.
         11    1    3    3    0    0  0.27308206570E+02 -0.25569952439E+02 -0.10866450361E+02  0.38956903849E+02  0.51100000000E-03 0. -1.
        -11    1    3    3    0    0 -0.50386745519E+01 -0.78400644214E+01 -0.15807040200E+01  0.94526968021E+01  0.51100000000E-03 0.  1.
        -12    1    3    3    0    0 -0.21675770997E+02  0.33608602519E+02  0.11446592019E+02  0.41598097077E+02  0.00000000000E+00 0.  1.
</event>
<event>
 7    1  0.1654239E-015  0.9000776E+02  0.7816164E-02  0.1186339E+00
        -11   -1    0    0    0    0  0.00000000000E+00  0.00000000000E+00  0.45593999997E+02  0.45594000000E+02  0.51100000000E-03 0.  1.
         11   -1    0    0    0    0 -0.00000000000E+00 -0.00000000000E+00 -0.45593999997E+02  0.45594000000E+02  0.51100000000E-03 0. -1.
    9900012    2    1    2    0    0  0.50910733749E+00  0.10499746855E+01 -0.17701617470E+00  0.90007757717E+02  0.90000019319E+02 0.  0.
        -12    1    1    2    0    0 -0.50910733749E+00 -0.10499746855E+01  0.17701617470E+00  0.11802422833E+01  0.00000000000E+00 0.  1.
         11    1    3    3    0    0 -0.12308584444E+02 -0.60228550546E+01 -0.33841715737E+02  0.36510789615E+02  0.51100000000E-03 0. -1.
        -11    1    3    3    0    0  0.35187544373E+01 -0.54560724638E+01 -0.72357926642E+01  0.97214739243E+01  0.51100000000E-03 0.  1.
        -12    1    3    3    0    0  0.92989373440E+01  0.12528902204E+02  0.40900492226E+02  0.43775494178E+02  0.00000000000E+00 0.  1.
</event>
<event>
 7    1  0.1654239E-015  0.9000750E+02  0.7816164E-02  0.1186340E+00
        -11   -1    0    0    0    0  0.00000000000E+00  0.00000000000E+00  0.45593999997E+02  0.45594000000E+02  0.51100000000E-03 0.  1.
         11   -1    0    0    0    0 -0.00000000000E+00 -0.00000000000E+00 -0.45593999997E+02  0.45594000000E+02  0.51100000000E-03 0. -1.
    9900012    2    1    2    0    0  0.47064498280E+00 -0.92318139661E+00 -0.56551762360E+00  0.90007499778E+02  0.89999757975E+02 0.  0.
        -12    1    1    2    0    0 -0.47064498280E+00  0.92318139661E+00  0.56551762360E+00  0.11805002217E+01  0.00000000000E+00 0.  1.
         11    1    3    3    0    0  0.18559171560E+02  0.16198160290E+02 -0.27677159312E+02  0.37051968822E+02  0.51100000000E-03 0. -1.
        -11    1    3    3    0    0 -0.12085272652E+01 -0.27466065404E+01 -0.96056774179E+01  0.10063469807E+02  0.51100000000E-03 0.  1.
        -12    1    3    3    0    0 -0.16879999312E+02 -0.14374735146E+02  0.36717319106E+02  0.42892061149E+02  0.00000000000E+00 0.  1.
</event>
<event>
 7    1  0.1654239E-015  0.9000809E+02  0.7816164E-02  0.1186338E+00
        -11   -1    0    0    0    0  0.00000000000E+00  0.00000000000E+00  0.45593999997E+02  0.45594000000E+02  0.51100000000E-03 0.  1.
         11   -1    0    0    0    0 -0.00000000000E+00 -0.00000000000E+00 -0.45593999997E+02  0.45594000000E+02  0.51100000000E-03 0. -1.
    9900012    2    1    2    0    0 -0.67562805230E+00  0.74442617049E+00 -0.61768863563E+00  0.90008092021E+02  0.90000358035E+02 0.  0.
        -12    1    1    2    0    0  0.67562805230E+00 -0.74442617049E+00  0.61768863563E+00  0.11799079790E+01  0.00000000000E+00 0.  1.
         11    1    3    3    0    0  0.33837236216E+01  0.37935534075E+02  0.19549203454E+01  0.38136282526E+02  0.51100000000E-03 0. -1.
        -11    1    3    3    0    0  0.48822181690E+01  0.57780450134E+01  0.17670291963E+01  0.77681562077E+01  0.51100000000E-03 0.  1.
        -12    1    3    3    0    0 -0.89415698429E+01 -0.42969152918E+02 -0.43396381773E+01  0.44103653287E+02  0.00000000000E+00 0.  1.
</event>
<event>
 7    1  0.1654239E-015  0.9000773E+02  0.7816164E-02  0.1186339E+00
        -11   -1    0    0    0    0  0.00000000000E+00  0.00000000000E+00  0.45593999997E+02  0.45594000000E+02  0.51100000000E-03 0. -1.
         11   -1    0    0    0    0 -0.00000000000E+00 -0.00000000000E+00 -0.45593999997E+02  0.45594000000E+02  0.51100000000E-03 0.  1.
    9900012    2    1    2    0    0  0.39596248189E+00  0.86922628214E+00  0.69332299001E+00  0.90007729952E+02  0.89999991188E+02 0.  0.
        -12    1    1    2    0    0 -0.39596248189E+00 -0.86922628214E+00 -0.69332299001E+00  0.11802700475E+01  0.00000000000E+00 0.  1.
         11    1    3    3    0    0  0.49952639056E+01 -0.17588044684E+02  0.33952933656E+02  0.38562853647E+02  0.51100000000E-03 0. -1.
        -11    1    3    3    0    0  0.34942599163E+01 -0.93629040854E+01 -0.59590104428E+01  0.11635447176E+02  0.51100000000E-03 0.  1.
        -12    1    3    3    0    0 -0.80935613400E+01  0.27820175052E+02 -0.27300600223E+02  0.39809429129E+02  0.00000000000E+00 0.  1.
</event>
<event>
 7    1  0.1774996E-015  0.9000753E+02  0.7816164E-02  0.1186339E+00
        -11   -1    0    0    0    0  0.00000000000E+00  0.00000000000E+00  0.45593999997E+02  0.45594000000E+02  0.51100000000E-03 0.  1.
         11   -1    0    0    0    0 -0.00000000000E+00 -0.00000000000E+00 -0.45593999997E+02  0.45594000000E+02  0.51100000000E-03 0. -1.
    9900012    2    1    2    0    0 -0.72414502602E+00 -0.73083395074E+00 -0.57879085166E+00  0.90007532664E+02  0.89999791295E+02 0.  0.
        -12    1    1    2    0    0  0.72414502602E+00  0.73083395074E+00  0.57879085166E+00  0.11804673364E+01  0.00000000000E+00 0.  1.
         11    1    3    3    0    0 -0.81114474544E+01 -0.61135866056E+00  0.48699916867E+01  0.94808311084E+01  0.51100000000E-03 0. -1.
        -11    1    3    3    0    0  0.27706596715E+02 -0.30962912090E+02  0.57168733322E+01  0.41940911620E+02  0.51100000000E-03 0.  1.
         12    1    3    3    0    0 -0.20319294286E+02  0.30843436799E+02 -0.11165655871E+02  0.38585789935E+02  0.00000000000E+00 0. -1.
</event>
<event>
 7    1  0.1654239E-015  0.9000771E+02  0.7816164E-02  0.1186339E+00
        -11   -1    0    0    0    0  0.00000000000E+00  0.00000000000E+00  0.45593999997E+02  0.45594000000E+02  0.51100000000E-03 0. -1.
         11   -1    0    0    0    0 -0.00000000000E+00 -0.00000000000E+00 -0.45593999997E+02  0.45594000000E+02  0.51100000000E-03 0.  1.
    9900012    2    1    2    0    0  0.60691959069E+00 -0.59676736937E+00  0.81767638079E+00  0.90007713024E+02  0.89999974036E+02 0.  0.
        -12    1    1    2    0    0 -0.60691959069E+00  0.59676736937E+00 -0.81767638079E+00  0.11802869763E+01  0.00000000000E+00 0.  1.
         11    1    3    3    0    0 -0.19116356146E+02 -0.87914114253E+01  0.35344761384E+02  0.41133637630E+02  0.51100000000E-03 0. -1.
        -11    1    3    3    0    0 -0.68542525593E+01  0.30777254115E+01 -0.69756477581E+01  0.10252455011E+02  0.51100000000E-03 0.  1.
        -12    1    3    3    0    0  0.26577528296E+02  0.51169186445E+01 -0.27551437245E+02  0.38621620382E+02  0.00000000000E+00 0.  1.
</event>
<event>
 7    1  0.1654239E-015  0.9000777E+02  0.7816164E-02  0.1186339E+00
        -11   -1    0    0    0    0  0.00000000000E+00  0.00000000000E+00  0.45593999997E+02  0.45594000000E+02  0.51100000000E-03 0.  1.
         11   -1    0    0    0    0 -0.00000000000E+00 -0.00000000000E+00 -0.45593999997E+02  0.45594000000E+02  0.51100000000E-03 0. -1.
    9900012    2    1    2    0    0 -0.15624275287E+00  0.90506042492E+00 -0.74122069455E+00  0.90007765155E+02  0.90000026855E+02 0.  0.
        -12    1    1    2    0    0  0.15624275287E+00 -0.90506042492E+00  0.74122069455E+00  0.11802348447E+01  0.00000000000E+00 0.  1.
         11    1    3    3    0    0  0.35553988343E+02 -0.10970101533E+02  0.88521313905E+01  0.38246430489E+02  0.51100000000E-03 0. -1.
        -11    1    3    3    0    0  0.27611162482E+01  0.60903139564E+01  0.68068543722E+01  0.95419575418E+01  0.51100000000E-03 0.  1.
        -12    1    3    3    0    0 -0.38471347345E+02  0.57848480012E+01 -0.16400206457E+02  0.42219377124E+02  0.00000000000E+00 0.  1.
</event>
<event>
 7    1  0.1654239E-015  0.9000764E+02  0.7816164E-02  0.1186339E+00
        -11   -1    0    0    0    0  0.00000000000E+00  0.00000000000E+00  0.45593999997E+02  0.45594000000E+02  0.51100000000E-03 0. -1.
         11   -1    0    0    0    0 -0.00000000000E+00 -0.00000000000E+00 -0.45593999997E+02  0.45594000000E+02  0.51100000000E-03 0.  1.
    9900012    2    1    2    0    0 -0.35524737560E-01  0.43466657603E+00  0.10968382704E+01  0.90007639364E+02  0.89999899404E+02 0.  0.
        -12    1    1    2    0    0  0.35524737560E-01 -0.43466657603E+00 -0.10968382704E+01  0.11803606359E+01  0.00000000000E+00 0.  1.
         11    1    3    3    0    0 -0.19325707716E+02  0.33410715835E+02  0.75668558100E+01  0.39332127052E+02  0.51100000000E-03 0. -1.
        -11    1    3    3    0    0  0.57595762077E+01  0.58972539193E+01  0.23679614392E+01  0.85765706153E+01  0.51100000000E-03 0.  1.
        -12    1    3    3    0    0  0.13530606771E+02 -0.38873303178E+02 -0.88379789788E+01  0.42098941697E+02  0.00000000000E+00 0.  1.
</event>
<event>
 7    1  0.1654239E-015  0.9000795E+02  0.7816164E-02  0.1186339E+00
        -11   -1    0    0    0    0  0.00000000000E+00  0.00000000000E+00  0.45593999997E+02  0.45594000000E+02  0.51100000000E-03 0. -1.
         11   -1    0    0    0    0 -0.00000000000E+00 -0.00000000000E+00 -0.45593999997E+02  0.45594000000E+02  0.51100000000E-03 0.  1.
    9900012    2    1    2    0    0 -0.71288945530E+00  0.79179679746E-01  0.93703186041E+00  0.90007953601E+02  0.90000217788E+02 0.  0.
        -12    1    1    2    0    0  0.71288945530E+00 -0.79179679746E-01 -0.93703186041E+00  0.11800463993E+01  0.00000000000E+00 0.  1.
         11    1    3    3    0    0 -0.13262495477E+02  0.37762810325E+02  0.84808689047E+01  0.40912696900E+02  0.51100000000E-03 0. -1.
        -11    1    3    3    0    0  0.17811061709E+01  0.72769721012E+00 -0.89734589042E+01  0.91774096230E+01  0.51100000000E-03 0.  1.
        -12    1    3    3    0    0  0.10768499851E+02 -0.38411327856E+02  0.14296218599E+01  0.39917847078E+02  0.00000000000E+00 0.  1.
</event>
<event>
 7    1  0.1654239E-015  0.9000772E+02  0.7816164E-02  0.1186339E+00
        -11   -1    0    0    0    0  0.00000000000E+00  0.00000000000E+00  0.45593999997E+02  0.45594000000E+02  0.51100000000E-03 0.  1.
         11   -1    0    0    0    0 -0.00000000000E+00 -0.00000000000E+00 -0.45593999997E+02  0.45594000000E+02  0.51100000000E-03 0. -1.
    9900012    2    1    2    0    0  0.21547429125E+00 -0.10398061595E+01  0.51519890617E+00  0.90007722095E+02  0.89999983227E+02 0.  0.
        -12    1    1    2    0    0 -0.21547429125E+00  0.10398061595E+01 -0.51519890617E+00  0.11802779048E+01  0.00000000000E+00 0.  1.
         11    1    3    3    0    0 -0.48250534988E+01  0.37769291116E+02 -0.59436227061E+00  0.38080884436E+02  0.51100000000E-03 0. -1.
        -11    1    3    3    0    0  0.65588941575E+01  0.25540388409E+01  0.72247035500E+01  0.10086552861E+02  0.51100000000E-03 0.  1.
        -12    1    3    3    0    0 -0.15183663674E+01 -0.41363136116E+02 -0.61151423732E+01  0.41840284799E+02  0.00000000000E+00 0.  1.
</event>
<event>
 7    1  0.1654239E-015  0.9000774E+02  0.7816164E-02  0.1186339E+00
        -11   -1    0    0    0    0  0.00000000000E+00  0.00000000000E+00  0.45593999997E+02  0.45594000000E+02  0.51100000000E-03 0.  1.
         11   -1    0    0    0    0 -0.00000000000E+00 -0.00000000000E+00 -0.45593999997E+02  0.45594000000E+02  0.51100000000E-03 0. -1.
    9900012    2    1    2    0    0  0.66066118958E+00 -0.96725870284E+00  0.14472171825E+00  0.90007742833E+02  0.90000004238E+02 0.  0.
        -12    1    1    2    0    0 -0.66066118958E+00  0.96725870284E+00 -0.14472171825E+00  0.11802571675E+01  0.00000000000E+00 0.  1.
         11    1    3    3    0    0  0.16981826522E+02 -0.21089856932E+02 -0.26877850311E+02  0.38152107872E+02  0.51100000000E-03 0. -1.
        -11    1    3    3    0    0  0.65572876673E+01  0.34100314758E+01 -0.51331310190E+01  0.89986315924E+01  0.51100000000E-03 0.  1.
        -12    1    3    3    0    0 -0.22878453000E+02  0.16712566753E+02  0.32155703049E+02  0.42857003368E+02  0.00000000000E+00 0.  1.
</event>
<event>
 7    1  0.1654239E-015  0.9000777E+02  0.7816164E-02  0.1186339E+00
        -11   -1    0    0    0    0  0.00000000000E+00  0.00000000000E+00  0.45593999997E+02  0.45594000000E+02  0.51100000000E-03 0. -1.
         11   -1    0    0    0    0 -0.00000000000E+00 -0.00000000000E+00 -0.45593999997E+02  0.45594000000E+02  0.51100000000E-03 0.  1.
    9900012    2    1    2    0    0 -0.24932249264E+00  0.11506741975E+01  0.82021080301E-01  0.90007771094E+02  0.90000032872E+02 0.  0.
        -12    1    1    2    0    0  0.24932249264E+00 -0.11506741975E+01 -0.82021080301E-01  0.11802289065E+01  0.00000000000E+00 0.  1.
         11    1    3    3    0    0  0.50310787857E+01  0.40397065212E+02  0.15177187023E+02  0.43446307527E+02  0.51100000000E-03 0. -1.
        -11    1    3    3    0    0  0.50654954584E+01 -0.58846235561E+01 -0.75430126138E+01  0.10825205688E+02  0.51100000000E-03 0.  1.
        -12    1    3    3    0    0 -0.10345896737E+02 -0.33361767459E+02 -0.75521533293E+01  0.35736257879E+02  0.00000000000E+00 0.  1.
</event>
<event>
 7    1  0.1654239E-015  0.9000780E+02  0.7816164E-02  0.1186339E+00
        -11   -1    0    0    0    0  0.00000000000E+00  0.00000000000E+00  0.45593999997E+02  0.45594000000E+02  0.51100000000E-03 0.  1.
         11   -1    0    0    0    0 -0.00000000000E+00 -0.00000000000E+00 -0.45593999997E+02  0.45594000000E+02  0.51100000000E-03 0. -1.
    9900012    2    1    2    0    0  0.43644894127E+00  0.81350194466E+00 -0.73524967585E+00  0.90007802907E+02  0.90000065105E+02 0.  0.
        -12    1    1    2    0    0 -0.43644894127E+00 -0.81350194466E+00  0.73524967585E+00  0.11801970929E+01  0.00000000000E+00 0.  1.
         11    1    3    3    0    0 -0.52467367838E+01 -0.13686338951E+01 -0.24929264576E+00  0.54280339628E+01  0.51100000000E-03 0. -1.
        -11    1    3    3    0    0  0.74082162511E+01 -0.44159855784E+01  0.41325447116E+02  0.42215816659E+02  0.51100000000E-03 0.  1.
         12    1    3    3    0    0 -0.17250305260E+01  0.65981214181E+01 -0.41811404146E+02  0.42363952285E+02  0.00000000000E+00 0. -1.
</event>
<event>
 7    1  0.1654239E-015  0.9000771E+02  0.7816164E-02  0.1186339E+00
        -11   -1    0    0    0    0  0.00000000000E+00  0.00000000000E+00  0.45593999997E+02  0.45594000000E+02  0.51100000000E-03 0.  1.
         11   -1    0    0    0    0 -0.00000000000E+00 -0.00000000000E+00 -0.45593999997E+02  0.45594000000E+02  0.51100000000E-03 0. -1.
    9900012    2    1    2    0    0 -0.94933087604E+00 -0.60209581002E+00 -0.35962534890E+00  0.90007712379E+02  0.89999973382E+02 0.  0.
        -12    1    1    2    0    0  0.94933087604E+00  0.60209581002E+00  0.35962534890E+00  0.11802876210E+01  0.00000000000E+00 0.  1.
         11    1    3    3    0    0 -0.44279536848E+01  0.18893982331E+02 -0.36321047835E+02  0.41180187691E+02  0.51100000000E-03 0. -1.
        -11    1    3    3    0    0  0.53339263589E+01 -0.70995989874E+01 -0.17820868141E+01  0.90570916887E+01  0.51100000000E-03 0.  1.
        -12    1    3    3    0    0 -0.18553035502E+01 -0.12396479153E+02  0.37743509300E+02  0.39770432999E+02  0.00000000000E+00 0.  1.
</event>
<event>
 7    1  0.1654239E-015  0.9000771E+02  0.7816164E-02  0.1186339E+00
        -11   -1    0    0    0    0  0.00000000000E+00  0.00000000000E+00  0.45593999997E+02  0.45594000000E+02  0.51100000000E-03 0.  1.
         11   -1    0    0    0    0 -0.00000000000E+00 -0.00000000000E+00 -0.45593999997E+02  0.45594000000E+02  0.51100000000E-03 0. -1.
    9900012    2    1    2    0    0 -0.17983350359E+00  0.60097048580E+00 -0.99979013243E+00  0.90007709391E+02  0.89999970355E+02 0.  0.
        -12    1    1    2    0    0  0.17983350359E+00 -0.60097048580E+00  0.99979013243E+00  0.11802906094E+01  0.00000000000E+00 0.  1.
         11    1    3    3    0    0 -0.75739659567E+01 -0.83251004072E+01 -0.40338683333E+02  0.41879369985E+02  0.51100000000E-03 0. -1.
        -11    1    3    3    0    0 -0.11501214785E+01 -0.74303883442E+01  0.46617753011E+01  0.88467847029E+01  0.51100000000E-03 0.  1.
        -12    1    3    3    0    0  0.85442539316E+01  0.16356459237E+02  0.34677117899E+02  0.39281554702E+02  0.00000000000E+00 0.  1.
</event>
<event>
 7    1  0.1654239E-015  0.9000776E+02  0.7816164E-02  0.1186339E+00
        -11   -1    0    0    0    0  0.00000000000E+00  0.00000000000E+00  0.45593999997E+02  0.45594000000E+02  0.51100000000E-03 0. -1.
         11   -1    0    0    0    0 -0.00000000000E+00 -0.00000000000E+00 -0.45593999997E+02  0.45594000000E+02  0.51100000000E-03 0.  1.
    9900012    2    1    2    0    0  0.93832603270E+00 -0.46093882650E+00  0.54775843396E+00  0.90007762885E+02  0.90000024555E+02 0.  0.
        -12    1    1    2    0    0 -0.93832603270E+00  0.46093882650E+00 -0.54775843396E+00  0.11802371149E+01  0.00000000000E+00 0.  1.
         11    1    3    3    0    0 -0.35915775144E+01 -0.43573239815E+01 -0.86516861935E+01  0.10331378203E+02  0.51100000000E-03 0. -1.
        -11    1    3    3    0    0  0.22140443042E+02  0.22462130669E+02 -0.22643011350E+02  0.38825925560E+02  0.51100000000E-03 0.  1.
         12    1    3    3    0    0 -0.17610539495E+02 -0.18565745514E+02  0.31842455978E+02  0.40850459122E+02  0.00000000000E+00 0. -1.
</event>
<event>
 7    1  0.1654239E-015  0.9000768E+02  0.7816164E-02  0.1186339E+00
        -11   -1    0    0    0    0  0.00000000000E+00  0.00000000000E+00  0.45593999997E+02  0.45594000000E+02  0.51100000000E-03 0. -1.
         11   -1    0    0    0    0 -0.00000000000E+00 -0.00000000000E+00 -0.45593999997E+02  0.45594000000E+02  0.51100000000E-03 0.  1.
    9900012    2    1    2    0    0  0.37474908961E+00  0.80176581078E+00 -0.78094927481E+00  0.90007683489E+02  0.89999944111E+02 0.  0.
        -12    1    1    2    0    0 -0.37474908961E+00 -0.80176581078E+00  0.78094927481E+00  0.11803165106E+01  0.00000000000E+00 0.  1.
         11    1    3    3    0    0  0.27286778299E+02 -0.16807311755E+02  0.20111745319E+02  0.37835648513E+02  0.51100000000E-03 0. -1.
        -11    1    3    3    0    0  0.73111516104E+01 -0.29388318932E+01 -0.38092516389E+01  0.87521465411E+01  0.51100000000E-03 0.  1.
        -12    1    3    3    0    0 -0.34223180820E+02  0.20547909459E+02 -0.17083442955E+02  0.43419888435E+02  0.00000000000E+00 0.  1.
</event>
<event>
 7    1  0.1654239E-015  0.9000779E+02  0.7816164E-02  0.1186339E+00
        -11   -1    0    0    0    0  0.00000000000E+00  0.00000000000E+00  0.45593999997E+02  0.45594000000E+02  0.51100000000E-03 0. -1.
         11   -1    0    0    0    0 -0.00000000000E+00 -0.00000000000E+00 -0.45593999997E+02  0.45594000000E+02  0.51100000000E-03 0.  1.
    9900012    2    1    2    0    0 -0.77539893914E+00 -0.30370423362E+00  0.83630630898E+00  0.90007793230E+02  0.90000055301E+02 0.  0.
        -12    1    1    2    0    0  0.77539893914E+00  0.30370423362E+00 -0.83630630898E+00  0.11802067695E+01  0.00000000000E+00 0.  1.
         11    1    3    3    0    0  0.24699609441E+02 -0.16664840747E+02 -0.36158238186E+01  0.30014359993E+02  0.51100000000E-03 0. -1.
        -11    1    3    3    0    0 -0.11786034793E+02 -0.18301795215E+02 -0.30401503851E+01  0.21979737006E+02  0.51100000000E-03 0.  1.
        -12    1    3    3    0    0 -0.13688973587E+02  0.34662931728E+02  0.74922805127E+01  0.38013696231E+02  0.00000000000E+00 0.  1.
</event>
<event>
 7    1  0.1654239E-015  0.9000777E+02  0.7816164E-02  0.1186339E+00
        -11   -1    0    0    0    0  0.00000000000E+00  0.00000000000E+00  0.45593999997E+02  0.45594000000E+02  0.51100000000E-03 0. -1.
         11   -1    0    0    0    0 -0.00000000000E+00 -0.00000000000E+00 -0.45593999997E+02  0.45594000000E+02  0.51100000000E-03 0.  1.
    9900012    2    1    2    0    0 -0.28286331887E+00 -0.82798672972E+00  0.79206595159E+00  0.90007770296E+02  0.90000032064E+02 0.  0.
        -12    1    1    2    0    0  0.28286331887E+00  0.82798672972E+00 -0.79206595159E+00  0.11802297037E+01  0.00000000000E+00 0.  1.
         11    1    3    3    0    0 -0.30181530924E+01 -0.56749128277E+00  0.75853591705E+01  0.81834569988E+01  0.51100000000E-03 0. -1.
        -11    1    3    3    0    0 -0.21321137292E+02 -0.33959719926E+02 -0.46084938140E+01  0.40362007982E+02  0.51100000000E-03 0.  1.
         12    1    3    3    0    0  0.24056427066E+02  0.33699224479E+02 -0.21847994049E+01  0.41462305315E+02  0.00000000000E+00 0. -1.
</event>
<event>
 7    1  0.1654239E-015  0.9000769E+02  0.7816164E-02  0.1186339E+00
        -11   -1    0    0    0    0  0.00000000000E+00  0.00000000000E+00  0.45593999997E+02  0.45594000000E+02  0.51100000000E-03 0. -1.
         11   -1    0    0    0    0 -0.00000000000E+00 -0.00000000000E+00 -0.45593999997E+02  0.45594000000E+02  0.51100000000E-03 0.  1.
    9900012    2    1    2    0    0 -0.10127393824E+01 -0.39331733035E+00  0.46129443690E+00  0.90007689813E+02  0.89999950519E+02 0.  0.
        -12    1    1    2    0    0  0.10127393824E+01  0.39331733035E+00 -0.46129443690E+00  0.11803101866E+01  0.00000000000E+00 0.  1.
         11    1    3    3    0    0 -0.25691119131E+02 -0.21045846361E+01  0.26600380878E+02  0.37041100710E+02  0.51100000000E-03 0. -1.
        -11    1    3    3    0    0 -0.82406303031E+01 -0.40358341922E+01  0.18692860577E+01  0.93643032867E+01  0.51100000000E-03 0.  1.
        -12    1    3    3    0    0  0.32919010051E+02  0.57471014979E+01 -0.28008372499E+02  0.43602285817E+02  0.00000000000E+00 0.  1.
</event>
<event>
 7    1  0.1654239E-015  0.9000762E+02  0.7816164E-02  0.1186339E+00
        -11   -1    0    0    0    0  0.00000000000E+00  0.00000000000E+00  0.45593999997E+02  0.45594000000E+02  0.51100000000E-03 0.  1.
         11   -1    0    0    0    0 -0.00000000000E+00 -0.00000000000E+00 -0.45593999997E+02  0.45594000000E+02  0.51100000000E-03 0. -1.
    9900012    2    1    2    0    0 -0.11667627592E+00  0.17241384812E+00 -0.11618748105E+01  0.90007621686E+02  0.89999881492E+02 0.  0.
        -12    1    1    2    0    0  0.11667627592E+00 -0.17241384812E+00  0.11618748105E+01  0.11803783138E+01  0.00000000000E+00 0.  1.
         11    1    3    3    0    0  0.87886551052E+01  0.26927256405E+01 -0.27985045428E+01  0.96084784368E+01  0.51100000000E-03 0. -1.
        -11    1    3    3    0    0 -0.32180263228E-01 -0.37243282802E+02 -0.15905450725E+02  0.40497487730E+02  0.51100000000E-03 0.  1.
         12    1    3    3    0    0 -0.88731511179E+01  0.34722971009E+02  0.17542080457E+02  0.39901655520E+02  0.00000000000E+00 0. -1.
</event>
<event>
 7    1  0.1654239E-015  0.9000768E+02  0.7816164E-02  0.1186339E+00
        -11   -1    0    0    0    0  0.00000000000E+00  0.00000000000E+00  0.45593999997E+02  0.45594000000E+02  0.51100000000E-03 0. -1.
         11   -1    0    0    0    0 -0.00000000000E+00 -0.00000000000E+00 -0.45593999997E+02  0.45594000000E+02  0.51100000000E-03 0.  1.
    9900012    2    1    2    0    0  0.67515165564E+00  0.94837276055E+00  0.19473088769E+00  0.90007677684E+02  0.89999938229E+02 0.  0.
        -12    1    1    2    0    0 -0.67515165564E+00 -0.94837276055E+00 -0.19473088769E+00  0.11803223160E+01  0.00000000000E+00 0.  1.
         11    1    3    3    0    0  0.44841072538E+01 -0.10105687040E+02  0.21646532246E+01  0.11265782363E+02  0.51100000000E-03 0. -1.
        -11    1    3    3    0    0  0.19874041499E+02  0.33055546085E+02 -0.18110894692E+02  0.42610458333E+02  0.51100000000E-03 0.  1.
         12    1    3    3    0    0 -0.23682997097E+02 -0.22001486285E+02  0.16140972356E+02  0.36131436988E+02  0.00000000000E+00 0. -1.
</event>
<event>
 7    1  0.1654239E-015  0.9000774E+02  0.7816164E-02  0.1186339E+00
        -11   -1    0    0    0    0  0.00000000000E+00  0.00000000000E+00  0.45593999997E+02  0.45594000000E+02  0.51100000000E-03 0. -1.
         11   -1    0    0    0    0 -0.00000000000E+00 -0.00000000000E+00 -0.45593999997E+02  0.45594000000E+02  0.51100000000E-03 0.  1.
    9900012    2    1    2    0    0  0.10569438752E+01  0.20204774014E+00  0.48483621860E+00  0.90007737401E+02  0.89999998734E+02 0.  0.
        -12    1    1    2    0    0 -0.10569438752E+01 -0.20204774014E+00 -0.48483621860E+00  0.11802625994E+01  0.00000000000E+00 0.  1.
         11    1    3    3    0    0  0.53875640470E+01  0.73856962445E+01 -0.60896269525E+01  0.10984439542E+02  0.51100000000E-03 0. -1.
        -11    1    3    3    0    0  0.12850028347E+01  0.13555550748E+02 -0.32051333672E+02  0.34823730110E+02  0.51100000000E-03 0.  1.
         12    1    3    3    0    0 -0.56156230066E+01 -0.20739199253E+02  0.38625796843E+02  0.44199567748E+02  0.00000000000E+00 0. -1.
</event>
<event>
 7    1  0.1654239E-015  0.9000773E+02  0.7816164E-02  0.1186339E+00
        -11   -1    0    0    0    0  0.00000000000E+00  0.00000000000E+00  0.45593999997E+02  0.45594000000E+02  0.51100000000E-03 0.  1.
         11   -1    0    0    0    0 -0.00000000000E+00 -0.00000000000E+00 -0.45593999997E+02  0.45594000000E+02  0.51100000000E-03 0. -1.
    9900012    2    1    2    0    0 -0.10126032566E+01 -0.10859354185E-01  0.60626100348E+00  0.90007730673E+02  0.89999991917E+02 0.  0.
        -12    1    1    2    0    0  0.10126032566E+01  0.10859354185E-01 -0.60626100348E+00  0.11802693274E+01  0.00000000000E+00 0.  1.
         11    1    3    3    0    0  0.21903193894E+02  0.36344311745E+02 -0.61701281937E+01  0.42880407894E+02  0.51100000000E-03 0. -1.
        -11    1    3    3    0    0  0.23760347902E+01 -0.88806692998E+01  0.11042117443E+00  0.91936946672E+01  0.51100000000E-03 0.  1.
        -12    1    3    3    0    0 -0.25291831940E+02 -0.27474501799E+02  0.66659680227E+01  0.37933628112E+02  0.00000000000E+00 0.  1.
</event>
<event>
 7    1  0.1654239E-015  0.9000798E+02  0.7816164E-02  0.1186339E+00
        -11   -1    0    0    0    0  0.00000000000E+00  0.00000000000E+00  0.45593999997E+02  0.45594000000E+02  0.51100000000E-03 0. -1.
         11   -1    0    0    0    0 -0.00000000000E+00 -0.00000000000E+00 -0.45593999997E+02  0.45594000000E+02  0.51100000000E-03 0.  1.
    9900012    2    1    2    0    0  0.49026894241E+00  0.15832036125E+00  0.10616072787E+01  0.90007983480E+02  0.90000248062E+02 0.  0.
        -12    1    1    2    0    0 -0.49026894241E+00 -0.15832036125E+00 -0.10616072787E+01  0.11800165197E+01  0.00000000000E+00 0.  1.
         11    1    3    3    0    0  0.64155417651E+01 -0.31715105859E+02 -0.16126760102E+02  0.36153554562E+02  0.51100000000E-03 0. -1.
        -11    1    3    3    0    0 -0.90038576793E+01 -0.55311948101E+01 -0.33317794472E+01  0.11079906303E+02  0.51100000000E-03 0.  1.
        -12    1    3    3    0    0  0.30785848566E+01  0.37404621031E+02  0.20520146828E+02  0.42774522616E+02  0.00000000000E+00 0.  1.
</event>
<event>
 7    1  0.1654239E-015  0.9000775E+02  0.7816164E-02  0.1186339E+00
        -11   -1    0    0    0    0  0.00000000000E+00  0.00000000000E+00  0.45593999997E+02  0.45594000000E+02  0.51100000000E-03 0.  1.
         11   -1    0    0    0    0 -0.00000000000E+00 -0.00000000000E+00 -0.45593999997E+02  0.45594000000E+02  0.51100000000E-03 0. -1.
    9900012    2    1    2    0    0  0.17706858679E-01 -0.35448582619E+00 -0.11256164407E+01  0.90007751676E+02  0.90000013199E+02 0.  0.
        -12    1    1    2    0    0 -0.17706858679E-01  0.35448582619E+00  0.11256164407E+01  0.11802483236E+01  0.00000000000E+00 0.  1.
         11    1    3    3    0    0  0.87439470656E+01 -0.53065323271E+01 -0.77677016683E+01  0.12843406289E+02  0.51100000000E-03 0. -1.
        -11    1    3    3    0    0 -0.11675711669E+02  0.40018320335E+02  0.38039433645E+01  0.41859983168E+02  0.51100000000E-03 0.  1.
         12    1    3    3    0    0  0.29494714624E+01 -0.35066273834E+02  0.28381418631E+01  0.35304362220E+02  0.00000000000E+00 0. -1.
</event>
<event>
 7    1  0.1654239E-015  0.9000752E+02  0.7816164E-02  0.1186339E+00
        -11   -1    0    0    0    0  0.00000000000E+00  0.00000000000E+00  0.45593999997E+02  0.45594000000E+02  0.51100000000E-03 0.  1.
         11   -1    0    0    0    0 -0.00000000000E+00 -0.00000000000E+00 -0.45593999997E+02  0.45594000000E+02  0.51100000000E-03 0. -1.
    9900012    2    1    2    0    0  0.49225573178E+00  0.58855290766E+00  0.89711599341E+00  0.90007522412E+02  0.89999780907E+02 0.  0.
        -12    1    1    2    0    0 -0.49225573178E+00 -0.58855290766E+00 -0.89711599341E+00  0.11804775882E+01  0.00000000000E+00 0.  1.
         11    1    3    3    0    0  0.16377162167E+02  0.26615831804E+02 -0.11918126736E+02  0.33446310535E+02  0.51100000000E-03 0. -1.
        -11    1    3    3    0    0  0.15321471361E+02 -0.33645064109E+01 -0.67915613151E+00  0.15701230569E+02  0.51100000000E-03 0.  1.
        -12    1    3    3    0    0 -0.31206377796E+02 -0.22662772486E+02  0.13494398861E+02  0.40859981308E+02  0.00000000000E+00 0.  1.
</event>
<event>
 7    1  0.1654239E-015  0.9000787E+02  0.7816164E-02  0.1186339E+00
        -11   -1    0    0    0    0  0.00000000000E+00  0.00000000000E+00  0.45593999997E+02  0.45594000000E+02  0.51100000000E-03 0.  1.
         11   -1    0    0    0    0 -0.00000000000E+00 -0.00000000000E+00 -0.45593999997E+02  0.45594000000E+02  0.51100000000E-03 0. -1.
    9900012    2    1    2    0    0 -0.30573128399E+00 -0.10951604664E+01 -0.31599338182E+00  0.90007872938E+02  0.90000136061E+02 0.  0.
        -12    1    1    2    0    0  0.30573128399E+00  0.10951604664E+01  0.31599338182E+00  0.11801270620E+01  0.00000000000E+00 0.  1.
         11    1    3    3    0    0 -0.85405778703E+01 -0.26941419669E+01 -0.15104621165E+01  0.90819253115E+01  0.51100000000E-03 0. -1.
        -11    1    3    3    0    0 -0.85819373622E+01  0.38762986069E+02  0.47244672614E+01  0.39981737444E+02  0.51100000000E-03 0.  1.
         12    1    3    3    0    0  0.16816783949E+02 -0.37164004568E+02 -0.35299985267E+01  0.40944210183E+02  0.00000000000E+00 0. -1.
</event>
<event>
 7    1  0.1654239E-015  0.9000762E+02  0.7816164E-02  0.1186339E+00
        -11   -1    0    0    0    0  0.00000000000E+00  0.00000000000E+00  0.45593999997E+02  0.45594000000E+02  0.51100000000E-03 0. -1.
         11   -1    0    0    0    0 -0.00000000000E+00 -0.00000000000E+00 -0.45593999997E+02  0.45594000000E+02  0.51100000000E-03 0.  1.
    9900012    2    1    2    0    0 -0.94090719859E-01 -0.87914474569E+00  0.78201294065E+00  0.90007621761E+02  0.89999881568E+02 0.  0.
        -12    1    1    2    0    0  0.94090719859E-01  0.87914474569E+00 -0.78201294065E+00  0.11803782389E+01  0.00000000000E+00 0.  1.
         11    1    3    3    0    0 -0.98635306423E+00  0.39022089795E+02  0.12454505838E+02  0.40973297405E+02  0.51100000000E-03 0. -1.
        -11    1    3    3    0    0  0.36472416011E+00 -0.62606488232E+01  0.79187480064E+01  0.10101253271E+02  0.51100000000E-03 0.  1.
        -12    1    3    3    0    0  0.52753818426E+00 -0.33640585717E+02 -0.19591240904E+02  0.38933071085E+02  0.00000000000E+00 0.  1.
</event>
<event>
 7    1  0.1654239E-015  0.9000781E+02  0.7816164E-02  0.1186339E+00
        -11   -1    0    0    0    0  0.00000000000E+00  0.00000000000E+00  0.45593999997E+02  0.45594000000E+02  0.51100000000E-03 0.  1.
         11   -1    0    0    0    0 -0.00000000000E+00 -0.00000000000E+00 -0.45593999997E+02  0.45594000000E+02  0.51100000000E-03 0. -1.
    9900012    2    1    2    0    0  0.47756663782E+00 -0.30433314322E+00 -0.10354470708E+01  0.90007813916E+02  0.90000076260E+02 0.  0.
        -12    1    1    2    0    0 -0.47756663782E+00  0.30433314322E+00  0.10354470708E+01  0.11801860837E+01  0.00000000000E+00 0.  1.
         11    1    3    3    0    0  0.32695763466E+02  0.96536785349E+01 -0.14878871473E+02  0.37196602996E+02  0.51100000000E-03 0. -1.
        -11    1    3    3    0    0  0.23226958547E+01  0.10360223404E+02  0.51716027126E+01  0.11809937336E+02  0.51100000000E-03 0.  1.
        -12    1    3    3    0    0 -0.34540892682E+02 -0.20318235082E+02  0.86718216897E+01  0.41001273584E+02  0.00000000000E+00 0.  1.
</event>
<event>
 7    1  0.1654239E-015  0.9000788E+02  0.7816164E-02  0.1186339E+00
        -11   -1    0    0    0    0  0.00000000000E+00  0.00000000000E+00  0.45593999997E+02  0.45594000000E+02  0.51100000000E-03 0.  1.
         11   -1    0    0    0    0 -0.00000000000E+00 -0.00000000000E+00 -0.45593999997E+02  0.45594000000E+02  0.51100000000E-03 0. -1.
    9900012    2    1    2    0    0  0.85167252349E-01 -0.21024289179E+00 -0.11581113039E+01  0.90007882495E+02  0.90000145743E+02 0.  0.
        -12    1    1    2    0    0 -0.85167252349E-01  0.21024289179E+00  0.11581113039E+01  0.11801175055E+01  0.00000000000E+00 0.  1.
         11    1    3    3    0    0 -0.69015585907E+01  0.10452084031E+02 -0.40425477825E+01  0.13161297976E+02  0.51100000000E-03 0. -1.
        -11    1    3    3    0    0 -0.31649056018E+02 -0.19426754530E+02  0.26242325641E+01  0.37228324367E+02  0.51100000000E-03 0.  1.
         12    1    3    3    0    0  0.38635781861E+02  0.87644276063E+01  0.26020391450E+00  0.39618260151E+02  0.00000000000E+00 0. -1.
</event>
<event>
 7    1  0.1654239E-015  0.9000757E+02  0.7816164E-02  0.1186339E+00
        -11   -1    0    0    0    0  0.00000000000E+00  0.00000000000E+00  0.45593999997E+02  0.45594000000E+02  0.51100000000E-03 0. -1.
         11   -1    0    0    0    0 -0.00000000000E+00 -0.00000000000E+00 -0.45593999997E+02  0.45594000000E+02  0.51100000000E-03 0.  1.
    9900012    2    1    2    0    0  0.41636287726E-01  0.96270722377E+00 -0.68181949923E+00  0.90007569312E+02  0.89999828427E+02 0.  0.
        -12    1    1    2    0    0 -0.41636287726E-01 -0.96270722377E+00  0.68181949923E+00  0.11804306878E+01  0.00000000000E+00 0.  1.
         11    1    3    3    0    0  0.42944286396E+00 -0.31813052627E+01  0.82063465627E+01  0.88118810998E+01  0.51100000000E-03 0. -1.
        -11    1    3    3    0    0  0.30612361500E+02 -0.23887360398E+02 -0.24306430625E+01  0.38905406943E+02  0.51100000000E-03 0.  1.
         12    1    3    3    0    0 -0.31000168076E+02  0.28031372885E+02 -0.64575229995E+01  0.42290281270E+02  0.00000000000E+00 0. -1.
</event>
<event>
 7    1  0.1654239E-015  0.9000739E+02  0.7816164E-02  0.1186340E+00
        -11   -1    0    0    0    0  0.00000000000E+00  0.00000000000E+00  0.45593999997E+02  0.45594000000E+02  0.51100000000E-03 0.  1.
         11   -1    0    0    0    0 -0.00000000000E+00 -0.00000000000E+00 -0.45593999997E+02  0.45594000000E+02  0.51100000000E-03 0. -1.
    9900012    2    1    2    0    0  0.89863354958E+00 -0.25910151067E+00 -0.72053525506E+00  0.90007387065E+02  0.89999643773E+02 0.  0.
        -12    1    1    2    0    0 -0.89863354958E+00  0.25910151067E+00  0.72053525506E+00  0.11806129353E+01  0.00000000000E+00 0.  1.
         11    1    3    3    0    0 -0.98760024808E+01 -0.77307189969E+00 -0.66376143564E+01  0.11924386348E+02  0.51100000000E-03 0. -1.
        -11    1    3    3    0    0  0.18761163430E+02 -0.14712203843E+02  0.36149285496E+02  0.43303591505E+02  0.51100000000E-03 0.  1.
         12    1    3    3    0    0 -0.79865273996E+01  0.15226174232E+02 -0.30232206394E+02  0.34779409212E+02  0.00000000000E+00 0. -1.
</event>
<event>
 7    1  0.1654239E-015  0.9000776E+02  0.7816164E-02  0.1186339E+00
        -11   -1    0    0    0    0  0.00000000000E+00  0.00000000000E+00  0.45593999997E+02  0.45594000000E+02  0.51100000000E-03 0. -1.
         11   -1    0    0    0    0 -0.00000000000E+00 -0.00000000000E+00 -0.45593999997E+02  0.45594000000E+02  0.51100000000E-03 0.  1.
    9900012    2    1    2    0    0 -0.70960029109E+00  0.87007026003E+00  0.36389648462E+00  0.90007756177E+02  0.90000017758E+02 0.  0.
        -12    1    1    2    0    0  0.70960029109E+00 -0.87007026003E+00 -0.36389648462E+00  0.11802438231E+01  0.00000000000E+00 0.  1.
         11    1    3    3    0    0  0.26800726794E+01  0.24595631291E+02  0.27594637949E+02  0.37062000917E+02  0.51100000000E-03 0. -1.
        -11    1    3    3    0    0 -0.10930539501E+01  0.67872264016E+01  0.50020658702E+01  0.85018746401E+01  0.51100000000E-03 0.  1.
        -12    1    3    3    0    0 -0.22966190205E+01 -0.30512787433E+02 -0.32232807335E+02  0.44443880620E+02  0.00000000000E+00 0.  1.
</event>
<event>
 7    1  0.1654239E-015  0.9000778E+02  0.7816164E-02  0.1186339E+00
        -11   -1    0    0    0    0  0.00000000000E+00  0.00000000000E+00  0.45593999997E+02  0.45594000000E+02  0.51100000000E-03 0. -1.
         11   -1    0    0    0    0 -0.00000000000E+00 -0.00000000000E+00 -0.45593999997E+02  0.45594000000E+02  0.51100000000E-03 0.  1.
    9900012    2    1    2    0    0  0.78318331782E+00  0.71123596607E-01  0.88004687981E+00  0.90007780874E+02  0.90000042781E+02 0.  0.
        -12    1    1    2    0    0 -0.78318331782E+00 -0.71123596607E-01 -0.88004687981E+00  0.11802191263E+01  0.00000000000E+00 0.  1.
         11    1    3    3    0    0 -0.17194327274E+01 -0.92673518893E+01 -0.39316521868E+01  0.10212646529E+02  0.51100000000E-03 0. -1.
        -11    1    3    3    0    0 -0.55219134089E+01 -0.97753193974E+01 -0.33993744393E+02  0.35799763339E+02  0.51100000000E-03 0.  1.
         12    1    3    3    0    0  0.80245294541E+01  0.19113794883E+02  0.38805443460E+02  0.43995371006E+02  0.00000000000E+00 0. -1.
</event>
<event>
 7    1  0.1654239E-015  0.9000771E+02  0.7816164E-02  0.1186339E+00
        -11   -1    0    0    0    0  0.00000000000E+00  0.00000000000E+00  0.45593999997E+02  0.45594000000E+02  0.51100000000E-03 0. -1.
         11   -1    0    0    0    0 -0.00000000000E+00 -0.00000000000E+00 -0.45593999997E+02  0.45594000000E+02  0.51100000000E-03 0.  1.
    9900012    2    1    2    0    0 -0.24609760571E+00  0.36836520561E+00  0.10940014194E+01  0.90007705095E+02  0.89999966003E+02 0.  0.
        -12    1    1    2    0    0  0.24609760571E+00 -0.36836520561E+00 -0.10940014194E+01  0.11802949046E+01  0.00000000000E+00 0.  1.
         11    1    3    3    0    0 -0.16418332007E+01 -0.34987576142E+02  0.87852938359E+01  0.36111043859E+02  0.51100000000E-03 0. -1.
        -11    1    3    3    0    0  0.13133687324E+02 -0.21201218461E+01  0.19846039180E+01  0.13450922361E+02  0.51100000000E-03 0.  1.
         12    1    3    3    0    0 -0.11737951729E+02  0.37476063194E+02 -0.96758963346E+01  0.40445738876E+02  0.00000000000E+00 0. -1.
</event>
<event>
 7    1  0.1654239E-015  0.9000785E+02  0.7816164E-02  0.1186339E+00
        -11   -1    0    0    0    0  0.00000000000E+00  0.00000000000E+00  0.45593999997E+02  0.45594000000E+02  0.51100000000E-03 0. -1.
         11   -1    0    0    0    0 -0.00000000000E+00 -0.00000000000E+00 -0.45593999997E+02  0.45594000000E+02  0.51100000000E-03 0.  1.
    9900012    2    1    2    0    0  0.96437145983E+00  0.61776699795E+00  0.28478992039E+00  0.90007850147E+02  0.90000112969E+02 0.  0.
        -12    1    1    2    0    0 -0.96437145983E+00 -0.61776699795E+00 -0.28478992039E+00  0.11801498528E+01  0.00000000000E+00 0.  1.
         11    1    3    3    0    0 -0.58478966365E+01  0.28641132316E+01  0.22021848751E+02  0.22964382473E+02  0.51100000000E-03 0. -1.
        -11    1    3    3    0    0  0.32889040715E+02  0.83520595773E+01 -0.18666216014E+02  0.38728200563E+02  0.51100000000E-03 0.  1.
         12    1    3    3    0    0 -0.26076772619E+02 -0.10598405811E+02 -0.30708428172E+01  0.28315267111E+02  0.00000000000E+00 0. -1.
</event>
<event>
 7    1  0.1799942E-015  0.9000772E+02  0.7816164E-02  0.1186339E+00
        -11   -1    0    0    0    0  0.00000000000E+00  0.00000000000E+00  0.45593999997E+02  0.45594000000E+02  0.51100000000E-03 0.  1.
         11   -1    0    0    0    0 -0.00000000000E+00 -0.00000000000E+00 -0.45593999997E+02  0.45594000000E+02  0.51100000000E-03 0. -1.
    9900012    2    1    2    0    0  0.36516739064E+00 -0.11222889512E+01  0.13064680018E-01  0.90007724439E+02  0.89999985602E+02 0.  0.
        -12    1    1    2    0    0 -0.36516739064E+00  0.11222889512E+01 -0.13064680018E-01  0.11802755606E+01  0.00000000000E+00 0.  1.
         11    1    3    3    0    0 -0.45673615036E+01  0.65254039676E+01 -0.55105796572E+01  0.96854621193E+01  0.51100000000E-03 0. -1.
        -11    1    3    3    0    0 -0.16042939308E+02  0.27080926543E+02  0.19945656145E+02  0.37263677803E+02  0.51100000000E-03 0.  1.
         12    1    3    3    0    0  0.20975468202E+02 -0.34728619462E+02 -0.14422011807E+02  0.43058584517E+02  0.00000000000E+00 0. -1.
</event>
<event>
 7    1  0.1654239E-015  0.9000775E+02  0.7816164E-02  0.1186339E+00
        -11   -1    0    0    0    0  0.00000000000E+00  0.00000000000E+00  0.45593999997E+02  0.45594000000E+02  0.51100000000E-03 0. -1.
         11   -1    0    0    0    0 -0.00000000000E+00 -0.00000000000E+00 -0.45593999997E+02  0.45594000000E+02  0.51100000000E-03 0.  1.
    9900012    2    1    2    0    0  0.10805838744E+01 -0.36674461639E+00  0.30136316612E+00  0.90007753042E+02  0.90000014583E+02 0.  0.
        -12    1    1    2    0    0 -0.10805838744E+01  0.36674461639E+00 -0.30136316612E+00  0.11802469577E+01  0.00000000000E+00 0.  1.
         11    1    3    3    0    0 -0.38533747785E+00  0.66712589333E+01 -0.10984261054E+00  0.66832811094E+01  0.51100000000E-03 0. -1.
        -11    1    3    3    0    0  0.32913007885E+02  0.15692420733E+00 -0.25750657042E+02  0.41789796023E+02  0.51100000000E-03 0.  1.
         12    1    3    3    0    0 -0.31447086533E+02 -0.71949277570E+01  0.26161862818E+02  0.41534675910E+02  0.00000000000E+00 0. -1.
</event>
<event>
 7    1  0.1654239E-015  0.9000776E+02  0.7816164E-02  0.1186339E+00
        -11   -1    0    0    0    0  0.00000000000E+00  0.00000000000E+00  0.45593999997E+02  0.45594000000E+02  0.51100000000E-03 0. -1.
         11   -1    0    0    0    0 -0.00000000000E+00 -0.00000000000E+00 -0.45593999997E+02  0.45594000000E+02  0.51100000000E-03 0.  1.
    9900012    2    1    2    0    0 -0.56349658872E+00 -0.34876901341E+00  0.97662220286E+00  0.90007763093E+02  0.90000024766E+02 0.  0.
        -12    1    1    2    0    0  0.56349658872E+00  0.34876901341E+00 -0.97662220286E+00  0.11802369073E+01  0.00000000000E+00 0.  1.
         11    1    3    3    0    0  0.70801717156E+01 -0.35001687115E+01  0.62525939074E+01  0.10073477223E+02  0.51100000000E-03 0. -1.
        -11    1    3    3    0    0  0.81313344832E+01  0.26334658015E+02  0.26026959431E+02  0.37908250167E+02  0.51100000000E-03 0.  1.
         12    1    3    3    0    0 -0.15775002788E+02 -0.23183258317E+02 -0.31302931136E+02  0.42026035702E+02  0.00000000000E+00 0. -1.
</event>
<event>
 7    1  0.1654239E-015  0.9000764E+02  0.7816164E-02  0.1186339E+00
        -11   -1    0    0    0    0  0.00000000000E+00  0.00000000000E+00  0.45593999997E+02  0.45594000000E+02  0.51100000000E-03 0.  1.
         11   -1    0    0    0    0 -0.00000000000E+00 -0.00000000000E+00 -0.45593999997E+02  0.45594000000E+02  0.51100000000E-03 0. -1.
    9900012    2    1    2    0    0 -0.39596972793E+00 -0.64312586211E-01 -0.11101014136E+01  0.90007638495E+02  0.89999898523E+02 0.  0.
        -12    1    1    2    0    0  0.39596972793E+00  0.64312586211E-01  0.11101014136E+01  0.11803615051E+01  0.00000000000E+00 0.  1.
         11    1    3    3    0    0 -0.86284892867E+01 -0.39565538014E+01 -0.56193617717E+01  0.11030973318E+02  0.51100000000E-03 0. -1.
        -11    1    3    3    0    0 -0.23303413379E+02 -0.26212787402E+02 -0.60799558560E+00  0.35078896183E+02  0.51100000000E-03 0.  1.
         12    1    3    3    0    0  0.31535932938E+02  0.30105028617E+02  0.51172559436E+01  0.43897768995E+02  0.00000000000E+00 0. -1.
</event>
<event>
 7    1  0.1654239E-015  0.9000776E+02  0.7816164E-02  0.1186339E+00
        -11   -1    0    0    0    0  0.00000000000E+00  0.00000000000E+00  0.45593999997E+02  0.45594000000E+02  0.51100000000E-03 0. -1.
         11   -1    0    0    0    0 -0.00000000000E+00 -0.00000000000E+00 -0.45593999997E+02  0.45594000000E+02  0.51100000000E-03 0.  1.
    9900012    2    1    2    0    0  0.60075209879E+00  0.31732287586E+00  0.96507904017E+00  0.90007756616E+02  0.90000018203E+02 0.  0.
        -12    1    1    2    0    0 -0.60075209879E+00 -0.31732287586E+00 -0.96507904017E+00  0.11802433840E+01  0.00000000000E+00 0.  1.
         11    1    3    3    0    0  0.30910294370E+02 -0.91847241582E+01 -0.24254055846E+02  0.40349283527E+02  0.51100000000E-03 0. -1.
        -11    1    3    3    0    0  0.43094957478E+01 -0.50975063176E+00  0.92974625037E+01  0.10260331797E+02  0.51100000000E-03 0.  1.
        -12    1    3    3    0    0 -0.34619038019E+02  0.10011797666E+02  0.15921672383E+02  0.39398141292E+02  0.00000000000E+00 0.  1.
</event>
<event>
 7    1  0.1654239E-015  0.9000773E+02  0.7816164E-02  0.1186339E+00
        -11   -1    0    0    0    0  0.00000000000E+00  0.00000000000E+00  0.45593999997E+02  0.45594000000E+02  0.51100000000E-03 0. -1.
         11   -1    0    0    0    0 -0.00000000000E+00 -0.00000000000E+00 -0.45593999997E+02  0.45594000000E+02  0.51100000000E-03 0.  1.
    9900012    2    1    2    0    0  0.45122672249E-01 -0.11098466728E+01  0.39906328863E+00  0.90007725794E+02  0.89999986975E+02 0.  0.
        -12    1    1    2    0    0 -0.45122672249E-01  0.11098466728E+01 -0.39906328863E+00  0.11802742059E+01  0.00000000000E+00 0.  1.
         11    1    3    3    0    0  0.13891229462E+02  0.24138851288E+02 -0.28208862615E+02  0.39640765983E+02  0.51100000000E-03 0. -1.
        -11    1    3    3    0    0  0.75406538523E+01  0.90524203533E+00  0.41166394985E+01  0.86387293443E+01  0.51100000000E-03 0.  1.
        -12    1    3    3    0    0 -0.21386760642E+02 -0.26153939996E+02  0.24491286405E+02  0.41728230466E+02  0.00000000000E+00 0.  1.
</event>
<event>
 7    1  0.1654239E-015  0.9000774E+02  0.7816164E-02  0.1186339E+00
        -11   -1    0    0    0    0  0.00000000000E+00  0.00000000000E+00  0.45593999997E+02  0.45594000000E+02  0.51100000000E-03 0. -1.
         11   -1    0    0    0    0 -0.00000000000E+00 -0.00000000000E+00 -0.45593999997E+02  0.45594000000E+02  0.51100000000E-03 0.  1.
    9900012    2    1    2    0    0  0.10608623016E+01  0.46345441640E+00  0.22976288978E+00  0.90007741637E+02  0.90000003026E+02 0.  0.
        -12    1    1    2    0    0 -0.10608623016E+01 -0.46345441640E+00 -0.22976288978E+00  0.11802583635E+01  0.00000000000E+00 0.  1.
         11    1    3    3    0    0 -0.31734600264E+02 -0.11877940656E+02  0.18947408299E+02  0.38822346782E+02  0.51100000000E-03 0. -1.
        -11    1    3    3    0    0  0.13890744557E+01 -0.90795104609E+01 -0.98740826793E+00  0.92380741176E+01  0.51100000000E-03 0.  1.
        -12    1    3    3    0    0  0.31406388109E+02  0.21420905533E+02 -0.17730237141E+02  0.41947320737E+02  0.00000000000E+00 0.  1.
</event>
<event>
 7    1  0.1655234E-015  0.9000776E+02  0.7816164E-02  0.1186339E+00
        -11   -1    0    0    0    0  0.00000000000E+00  0.00000000000E+00  0.45593999997E+02  0.45594000000E+02  0.51100000000E-03 0.  1.
         11   -1    0    0    0    0 -0.00000000000E+00 -0.00000000000E+00 -0.45593999997E+02  0.45594000000E+02  0.51100000000E-03 0. -1.
    9900012    2    1    2    0    0 -0.73643061525E+00 -0.90432283309E+00  0.18123314050E+00  0.90007756259E+02  0.90000017841E+02 0.  0.
        -12    1    1    2    0    0  0.73643061525E+00  0.90432283309E+00 -0.18123314050E+00  0.11802437412E+01  0.00000000000E+00 0.  1.
         11    1    3    3    0    0  0.18833129682E+01 -0.95580433845E+01 -0.26588044959E+01  0.10098133624E+02  0.51100000000E-03 0. -1.
        -11    1    3    3    0    0 -0.31636410414E+02 -0.18973302386E+02 -0.93030944909E+01  0.38044661054E+02  0.51100000000E-03 0.  1.
         12    1    3    3    0    0  0.29016666831E+02  0.27627022937E+02  0.12143132127E+02  0.41864961581E+02  0.00000000000E+00 0. -1.
</event>
<event>
 7    1  0.1654239E-015  0.9000763E+02  0.7816164E-02  0.1186339E+00
        -11   -1    0    0    0    0  0.00000000000E+00  0.00000000000E+00  0.45593999997E+02  0.45594000000E+02  0.51100000000E-03 0.  1.
         11   -1    0    0    0    0 -0.00000000000E+00 -0.00000000000E+00 -0.45593999997E+02  0.45594000000E+02  0.51100000000E-03 0. -1.
    9900012    2    1    2    0    0  0.67441217069E+00 -0.58129157692E+00  0.77494208008E+00  0.90007632726E+02  0.89999892678E+02 0.  0.
        -12    1    1    2    0    0 -0.67441217069E+00  0.58129157692E+00 -0.77494208008E+00  0.11803672737E+01  0.00000000000E+00 0.  1.
         11    1    3    3    0    0 -0.25651525995E+02  0.11536330465E+02 -0.28753390371E+02  0.40222446029E+02  0.51100000000E-03 0. -1.
        -11    1    3    3    0    0  0.31102358202E+01 -0.13107937487E+02  0.17746366913E+01  0.13588264336E+02  0.51100000000E-03 0.  1.
        -12    1    3    3    0    0  0.23215702345E+02  0.99031544488E+00  0.27753695760E+02  0.36196922361E+02  0.00000000000E+00 0.  1.
</event>
<event>
 7    1  0.1654239E-015  0.9000775E+02  0.7816164E-02  0.1186339E+00
        -11   -1    0    0    0    0  0.00000000000E+00  0.00000000000E+00  0.45593999997E+02  0.45594000000E+02  0.51100000000E-03 0. -1.
         11   -1    0    0    0    0 -0.00000000000E+00 -0.00000000000E+00 -0.45593999997E+02  0.45594000000E+02  0.51100000000E-03 0.  1.
    9900012    2    1    2    0    0  0.23176929872E+00 -0.11408514475E+01  0.19422991595E+00  0.90007752444E+02  0.90000013976E+02 0.  0.
        -12    1    1    2    0    0 -0.23176929872E+00  0.11408514475E+01 -0.19422991595E+00  0.11802475560E+01  0.00000000000E+00 0.  1.
         11    1    3    3    0    0 -0.57274496032E+01  0.54654914577E+01 -0.54124460085E+01  0.95900911303E+01  0.51100000000E-03 0. -1.
        -11    1    3    3    0    0  0.32618186145E+02 -0.22677089178E+02 -0.15677879317E+02  0.42708223343E+02  0.51100000000E-03 0.  1.
         12    1    3    3    0    0 -0.26658967243E+02  0.16070746273E+02  0.21284555241E+02  0.37709437971E+02  0.00000000000E+00 0. -1.
</event>
<event>
 7    1  0.1654239E-015  0.9000766E+02  0.7816164E-02  0.1186339E+00
        -11   -1    0    0    0    0  0.00000000000E+00  0.00000000000E+00  0.45593999997E+02  0.45594000000E+02  0.51100000000E-03 0. -1.
         11   -1    0    0    0    0 -0.00000000000E+00 -0.00000000000E+00 -0.45593999997E+02  0.45594000000E+02  0.51100000000E-03 0.  1.
    9900012    2    1    2    0    0 -0.35103493765E+00  0.10578455958E+01 -0.38850515986E+00  0.90007661451E+02  0.89999921782E+02 0.  0.
        -12    1    1    2    0    0  0.35103493765E+00 -0.10578455958E+01  0.38850515986E+00  0.11803385494E+01  0.00000000000E+00 0.  1.
         11    1    3    3    0    0  0.16626545998E+02 -0.83438110213E+01 -0.18316468301E+01  0.18692676228E+02  0.51100000000E-03 0. -1.
        -11    1    3    3    0    0 -0.76429425651E+01 -0.20303827818E+02 -0.23083198528E+02  0.31677974204E+02  0.51100000000E-03 0.  1.
        -12    1    3    3    0    0 -0.93346383704E+01  0.29705484435E+02  0.24526340198E+02  0.39637011019E+02  0.00000000000E+00 0.  1.
</event>
<event>
 7    1  0.1654239E-015  0.9000775E+02  0.7816164E-02  0.1186339E+00
        -11   -1    0    0    0    0  0.00000000000E+00  0.00000000000E+00  0.45593999997E+02  0.45594000000E+02  0.51100000000E-03 0. -1.
         11   -1    0    0    0    0 -0.00000000000E+00 -0.00000000000E+00 -0.45593999997E+02  0.45594000000E+02  0.51100000000E-03 0.  1.
    9900012    2    1    2    0    0  0.88867304271E+00  0.30976090313E+00 -0.71225098302E+00  0.90007748732E+02  0.90000010215E+02 0.  0.
        -12    1    1    2    0    0 -0.88867304271E+00 -0.30976090313E+00  0.71225098302E+00  0.11802512685E+01  0.00000000000E+00 0.  1.
         11    1    3    3    0    0 -0.12816169278E+02 -0.34397789932E+02  0.11057558964E+02  0.38337080714E+02  0.51100000000E-03 0. -1.
        -11    1    3    3    0    0 -0.90206061121E+01  0.18490133028E+01  0.19810597510E+01  0.94188525215E+01  0.51100000000E-03 0.  1.
        -12    1    3    3    0    0  0.22725448433E+02  0.32858537532E+02 -0.13750869698E+02  0.42251815496E+02  0.00000000000E+00 0.  1.
</event>
<event>
 7    1  0.1654239E-015  0.9000776E+02  0.7816164E-02  0.1186339E+00
        -11   -1    0    0    0    0  0.00000000000E+00  0.00000000000E+00  0.45593999997E+02  0.45594000000E+02  0.51100000000E-03 0.  1.
         11   -1    0    0    0    0 -0.00000000000E+00 -0.00000000000E+00 -0.45593999997E+02  0.45594000000E+02  0.51100000000E-03 0. -1.
    9900012    2    1    2    0    0  0.29365153078E+00  0.11162129644E+01 -0.24660804309E+00  0.90007755055E+02  0.90000016622E+02 0.  0.
        -12    1    1    2    0    0 -0.29365153078E+00 -0.11162129644E+01  0.24660804309E+00  0.11802449451E+01  0.00000000000E+00 0.  1.
         11    1    3    3    0    0  0.10634261982E+02 -0.33184896805E+02  0.85244895441E+01  0.35874668307E+02  0.51100000000E-03 0. -1.
        -11    1    3    3    0    0  0.48250007092E+01 -0.73909785920E+01 -0.33395067984E+01  0.94371342212E+01  0.51100000000E-03 0.  1.
        -12    1    3    3    0    0 -0.15165611161E+02  0.41692088361E+02 -0.54315907889E+01  0.44695952527E+02  0.00000000000E+00 0.  1.
</event>
<event>
 7    1  0.1654239E-015  0.9000777E+02  0.7816164E-02  0.1186339E+00
        -11   -1    0    0    0    0  0.00000000000E+00  0.00000000000E+00  0.45593999997E+02  0.45594000000E+02  0.51100000000E-03 0. -1.
         11   -1    0    0    0    0 -0.00000000000E+00 -0.00000000000E+00 -0.45593999997E+02  0.45594000000E+02  0.51100000000E-03 0.  1.
    9900012    2    1    2    0    0  0.10824156676E+01 -0.21477509951E+00 -0.41855981694E+00  0.90007769369E+02  0.90000031125E+02 0.  0.
        -12    1    1    2    0    0 -0.10824156676E+01  0.21477509951E+00  0.41855981694E+00  0.11802306305E+01  0.00000000000E+00 0.  1.
         11    1    3    3    0    0  0.77798303620E+00  0.89172699119E+01  0.35025044422E+01  0.96119976028E+01  0.51100000000E-03 0. -1.
        -11    1    3    3    0    0  0.33399055342E+01 -0.35430726776E+02  0.23211052374E+02  0.42488166840E+02  0.51100000000E-03 0.  1.
         12    1    3    3    0    0 -0.30354729028E+01  0.26298681765E+02 -0.27132116633E+02  0.37907604927E+02  0.00000000000E+00 0. -1.
</event>
<event>
 7    1  0.1654239E-015  0.9000769E+02  0.7816164E-02  0.1186339E+00
        -11   -1    0    0    0    0  0.00000000000E+00  0.00000000000E+00  0.45593999997E+02  0.45594000000E+02  0.51100000000E-03 0.  1.
         11   -1    0    0    0    0 -0.00000000000E+00 -0.00000000000E+00 -0.45593999997E+02  0.45594000000E+02  0.51100000000E-03 0. -1.
    9900012    2    1    2    0    0 -0.37739772342E+00 -0.11079983102E+01 -0.15183492130E+00  0.90007685152E+02  0.89999945796E+02 0.  0.
        -12    1    1    2    0    0  0.37739772342E+00  0.11079983102E+01  0.15183492130E+00  0.11803148480E+01  0.00000000000E+00 0.  1.
         11    1    3    3    0    0  0.64453245033E+01 -0.10842352829E+02 -0.40063596939E+02  0.42002269257E+02  0.51100000000E-03 0. -1.
        -11    1    3    3    0    0  0.55015819673E+01 -0.43762103435E+01  0.59109791503E+01  0.91846772338E+01  0.51100000000E-03 0.  1.
        -12    1    3    3    0    0 -0.12324304194E+02  0.14110564862E+02  0.34000782867E+02  0.38820738661E+02  0.00000000000E+00 0.  1.
</event>
<event>
 7    1  0.1654239E-015  0.9000765E+02  0.7816164E-02  0.1186339E+00
        -11   -1    0    0    0    0  0.00000000000E+00  0.00000000000E+00  0.45593999997E+02  0.45594000000E+02  0.51100000000E-03 0.  1.
         11   -1    0    0    0    0 -0.00000000000E+00 -0.00000000000E+00 -0.45593999997E+02  0.45594000000E+02  0.51100000000E-03 0. -1.
    9900012    2    1    2    0    0 -0.11265620772E+00 -0.80045239825E+00 -0.86011877872E+00  0.90007652688E+02  0.89999912904E+02 0.  0.
        -12    1    1    2    0    0  0.11265620772E+00  0.80045239825E+00  0.86011877872E+00  0.11803473118E+01  0.00000000000E+00 0.  1.
         11    1    3    3    0    0  0.71312248847E+00  0.27790651730E+02 -0.24716510366E+02  0.37198585353E+02  0.51100000000E-03 0. -1.
        -11    1    3    3    0    0  0.32736662214E+01  0.25343767600E+01 -0.74182811949E+01  0.84953429735E+01  0.51100000000E-03 0.  1.
        -12    1    3    3    0    0 -0.40994449176E+01 -0.31125480889E+02  0.31274672783E+02  0.44313724362E+02  0.00000000000E+00 0.  1.
</event>
<event>
 7    1  0.1654239E-015  0.9000759E+02  0.7816164E-02  0.1186339E+00
        -11   -1    0    0    0    0  0.00000000000E+00  0.00000000000E+00  0.45593999997E+02  0.45594000000E+02  0.51100000000E-03 0.  1.
         11   -1    0    0    0    0 -0.00000000000E+00 -0.00000000000E+00 -0.45593999997E+02  0.45594000000E+02  0.51100000000E-03 0. -1.
    9900012    2    1    2    0    0 -0.75782435329E+00 -0.56062296611E+00 -0.71046926107E+00  0.90007592260E+02  0.89999851678E+02 0.  0.
        -12    1    1    2    0    0  0.75782435329E+00  0.56062296611E+00  0.71046926107E+00  0.11804077395E+01  0.00000000000E+00 0.  1.
         11    1    3    3    0    0 -0.31608520188E+01 -0.34365229209E+02  0.22586288533E+02  0.41244398335E+02  0.51100000000E-03 0. -1.
        -11    1    3    3    0    0 -0.19868408962E+01  0.65714307825E+01  0.55663650014E+01  0.88383063347E+01  0.51100000000E-03 0.  1.
        -12    1    3    3    0    0  0.43898685618E+01  0.27233175460E+02 -0.28863122795E+02  0.39924887591E+02  0.00000000000E+00 0.  1.
</event>
<event>
 7    1  0.1654239E-015  0.9000771E+02  0.7816164E-02  0.1186339E+00
        -11   -1    0    0    0    0  0.00000000000E+00  0.00000000000E+00  0.45593999997E+02  0.45594000000E+02  0.51100000000E-03 0. -1.
         11   -1    0    0    0    0 -0.00000000000E+00 -0.00000000000E+00 -0.45593999997E+02  0.45594000000E+02  0.51100000000E-03 0.  1.
    9900012    2    1    2    0    0 -0.18178541423E+00 -0.11265392887E+01  0.30157920411E+00  0.90007709052E+02  0.89999970011E+02 0.  0.
        -12    1    1    2    0    0  0.18178541423E+00  0.11265392887E+01 -0.30157920411E+00  0.11802909481E+01  0.00000000000E+00 0.  1.
         11    1    3    3    0    0  0.25606554852E+02  0.12229165689E+02  0.23480400020E+02  0.36831743512E+02  0.51100000000E-03 0. -1.
        -11    1    3    3    0    0  0.56841901051E+00  0.64879193498E+01  0.62055040057E+01  0.89958033486E+01  0.51100000000E-03 0.  1.
        -12    1    3    3    0    0 -0.26356759276E+02 -0.19843624328E+02 -0.29384324821E+02  0.44180162191E+02  0.00000000000E+00 0.  1.
</event>
<event>
 7    1  0.1654239E-015  0.9000768E+02  0.7816164E-02  0.1186339E+00
        -11   -1    0    0    0    0  0.00000000000E+00  0.00000000000E+00  0.45593999997E+02  0.45594000000E+02  0.51100000000E-03 0. -1.
         11   -1    0    0    0    0 -0.00000000000E+00 -0.00000000000E+00 -0.45593999997E+02  0.45594000000E+02  0.51100000000E-03 0.  1.
    9900012    2    1    2    0    0  0.99712479816E+00  0.60213489673E+00  0.19061913483E+00  0.90007678031E+02  0.89999938581E+02 0.  0.
        -12    1    1    2    0    0 -0.99712479816E+00 -0.60213489673E+00 -0.19061913483E+00  0.11803219694E+01  0.00000000000E+00 0.  1.
         11    1    3    3    0    0  0.48615035558E+01 -0.66292874745E+01 -0.68327749390E+01  0.10689643720E+02  0.51100000000E-03 0. -1.
        -11    1    3    3    0    0 -0.29958589708E+01 -0.27785548810E+02 -0.20591928485E+02  0.34713677602E+02  0.51100000000E-03 0.  1.
         12    1    3    3    0    0 -0.86851978686E+00  0.35016971181E+02  0.27615322559E+02  0.44604356708E+02  0.00000000000E+00 0. -1.
</event>
<event>
 7    1  0.1654239E-015  0.9000768E+02  0.7816164E-02  0.1186339E+00
        -11   -1    0    0    0    0  0.00000000000E+00  0.00000000000E+00  0.45593999997E+02  0.45594000000E+02  0.51100000000E-03 0.  1.
         11   -1    0    0    0    0 -0.00000000000E+00 -0.00000000000E+00 -0.45593999997E+02  0.45594000000E+02  0.51100000000E-03 0. -1.
    9900012    2    1    2    0    0  0.10945156556E+01  0.35765523590E+00 -0.25936189848E+00  0.90007682084E+02  0.89999942688E+02 0.  0.
        -12    1    1    2    0    0 -0.10945156556E+01 -0.35765523590E+00  0.25936189848E+00  0.11803179159E+01  0.00000000000E+00 0.  1.
         11    1    3    3    0    0 -0.13611936919E+02 -0.52280882538E-01 -0.16718320335E+02  0.21558984091E+02  0.51100000000E-03 0. -1.
        -11    1    3    3    0    0 -0.67036292317E+01 -0.79393255122E+01 -0.21611664124E+02  0.23979899102E+02  0.51100000000E-03 0.  1.
        -12    1    3    3    0    0  0.21410081806E+02  0.83492616307E+01  0.38070622560E+02  0.44468798891E+02  0.00000000000E+00 0.  1.
</event>
<event>
 7    1  0.1654239E-015  0.9000772E+02  0.7816164E-02  0.1186339E+00
        -11   -1    0    0    0    0  0.00000000000E+00  0.00000000000E+00  0.45593999997E+02  0.45594000000E+02  0.51100000000E-03 0.  1.
         11   -1    0    0    0    0 -0.00000000000E+00 -0.00000000000E+00 -0.45593999997E+02  0.45594000000E+02  0.51100000000E-03 0. -1.
    9900012    2    1    2    0    0  0.27470659071E+00 -0.56400701181E+00 -0.99974947933E+00  0.90007717558E+02  0.89999978630E+02 0.  0.
        -12    1    1    2    0    0 -0.27470659071E+00  0.56400701181E+00  0.99974947933E+00  0.11802824415E+01  0.00000000000E+00 0.  1.
         11    1    3    3    0    0  0.65524572956E+01  0.14465983151E+02 -0.25165646178E+02  0.29757505154E+02  0.51100000000E-03 0. -1.
        -11    1    3    3    0    0  0.70417877663E+01 -0.15726476414E+02 -0.12464777040E+02  0.21266863950E+02  0.51100000000E-03 0.  1.
        -12    1    3    3    0    0 -0.13319538471E+02  0.69648625164E+00  0.36630673739E+02  0.38983348455E+02  0.00000000000E+00 0.  1.
</event>
<event>
 7    1  0.1654239E-015  0.9000779E+02  0.7816164E-02  0.1186339E+00
        -11   -1    0    0    0    0  0.00000000000E+00  0.00000000000E+00  0.45593999997E+02  0.45594000000E+02  0.51100000000E-03 0. -1.
         11   -1    0    0    0    0 -0.00000000000E+00 -0.00000000000E+00 -0.45593999997E+02  0.45594000000E+02  0.51100000000E-03 0.  1.
    9900012    2    1    2    0    0 -0.10647428304E+01  0.26609750502E+00  0.43405873229E+00  0.90007791476E+02  0.90000053523E+02 0.  0.
        -12    1    1    2    0    0  0.10647428304E+01 -0.26609750502E+00 -0.43405873229E+00  0.11802085240E+01  0.00000000000E+00 0.  1.
         11    1    3    3    0    0 -0.10664629651E+02  0.14939608994E+02  0.33370546540E+02  0.38085687852E+02  0.51100000000E-03 0. -1.
        -11    1    3    3    0    0  0.12435419000E+02 -0.47214757447E+01  0.37370531162E+01  0.13816567778E+02  0.51100000000E-03 0.  1.
        -12    1    3    3    0    0 -0.28355321786E+01 -0.99520357446E+01 -0.36673540924E+02  0.38105535846E+02  0.00000000000E+00 0.  1.
</event>
<event>
 7    1  0.1654239E-015  0.9000811E+02  0.7816164E-02  0.1186338E+00
        -11   -1    0    0    0    0  0.00000000000E+00  0.00000000000E+00  0.45593999997E+02  0.45594000000E+02  0.51100000000E-03 0. -1.
         11   -1    0    0    0    0 -0.00000000000E+00 -0.00000000000E+00 -0.45593999997E+02  0.45594000000E+02  0.51100000000E-03 0.  1.
    9900012    2    1    2    0    0  0.10483386125E+01  0.36333088536E+00 -0.40138855216E+00  0.90008111892E+02  0.90000378168E+02 0.  0.
        -12    1    1    2    0    0 -0.10483386125E+01 -0.36333088536E+00  0.40138855216E+00  0.11798881085E+01  0.00000000000E+00 0.  1.
         11    1    3    3    0    0 -0.15290794765E+02 -0.31571979257E+01 -0.68138830256E+01  0.17035413274E+02  0.51100000000E-03 0. -1.
        -11    1    3    3    0    0 -0.68662313077E+01 -0.30152152213E+02 -0.28098838380E+01  0.31051455085E+02  0.51100000000E-03 0.  1.
         12    1    3    3    0    0  0.23205364685E+02  0.33672681024E+02  0.92223783114E+01  0.41921243532E+02  0.00000000000E+00 0. -1.
</event>
<event>
 7    1  0.1654239E-015  0.9000769E+02  0.7816164E-02  0.1186339E+00
        -11   -1    0    0    0    0  0.00000000000E+00  0.00000000000E+00  0.45593999997E+02  0.45594000000E+02  0.51100000000E-03 0. -1.
         11   -1    0    0    0    0 -0.00000000000E+00 -0.00000000000E+00 -0.45593999997E+02  0.45594000000E+02  0.51100000000E-03 0.  1.
    9900012    2    1    2    0    0 -0.67131059723E+00  0.24460695021E+00  0.93948564083E+00  0.90007693367E+02  0.89999954120E+02 0.  0.
        -12    1    1    2    0    0  0.67131059723E+00 -0.24460695021E+00 -0.93948564083E+00  0.11803066328E+01  0.00000000000E+00 0.  1.
         11    1    3    3    0    0 -0.59287052812E+00 -0.56930825953E+01 -0.66881028136E+01  0.88030338183E+01  0.51100000000E-03 0. -1.
        -11    1    3    3    0    0  0.37842259718E+02 -0.36191754149E+01 -0.84156387203E+01  0.38935305657E+02  0.51100000000E-03 0.  1.
         12    1    3    3    0    0 -0.37920699788E+02  0.95568649604E+01  0.16043227175E+02  0.42269353892E+02  0.00000000000E+00 0. -1.
</event>
<event>
 7    1  0.1654239E-015  0.9000773E+02  0.7816164E-02  0.1186339E+00
        -11   -1    0    0    0    0  0.00000000000E+00  0.00000000000E+00  0.45593999997E+02  0.45594000000E+02  0.51100000000E-03 0. -1.
         11   -1    0    0    0    0 -0.00000000000E+00 -0.00000000000E+00 -0.45593999997E+02  0.45594000000E+02  0.51100000000E-03 0.  1.
    9900012    2    1    2    0    0  0.12104000374E-01  0.11217909566E+01  0.36670975665E+00  0.90007729903E+02  0.89999991137E+02 0.  0.
        -12    1    1    2    0    0 -0.12104000374E-01 -0.11217909566E+01 -0.36670975665E+00  0.11802700974E+01  0.00000000000E+00 0.  1.
         11    1    3    3    0    0 -0.24570080061E+02 -0.90471971345E+01  0.28400536021E+02  0.38628112260E+02  0.51100000000E-03 0. -1.
        -11    1    3    3    0    0  0.67785453637E+01  0.17107144710E+01  0.78049270325E+01  0.10478172908E+02  0.51100000000E-03 0.  1.
        -12    1    3    3    0    0  0.17803638698E+02  0.84582736201E+01 -0.35838753297E+02  0.40901444735E+02  0.00000000000E+00 0.  1.
</event>
<event>
 7    1  0.1654239E-015  0.9000771E+02  0.7816164E-02  0.1186339E+00
        -11   -1    0    0    0    0  0.00000000000E+00  0.00000000000E+00  0.45593999997E+02  0.45594000000E+02  0.51100000000E-03 0. -1.
         11   -1    0    0    0    0 -0.00000000000E+00 -0.00000000000E+00 -0.45593999997E+02  0.45594000000E+02  0.51100000000E-03 0.  1.
    9900012    2    1    2    0    0 -0.75656311006E+00  0.56030538013E+00  0.71187045953E+00  0.90007707913E+02  0.89999968858E+02 0.  0.
        -12    1    1    2    0    0  0.75656311006E+00 -0.56030538013E+00 -0.71187045953E+00  0.11802920866E+01  0.00000000000E+00 0.  1.
         11    1    3    3    0    0  0.87126665758E+00 -0.70676025847E+01 -0.32120997942E+01  0.78120226083E+01  0.51100000000E-03 0. -1.
        -11    1    3    3    0    0 -0.12930772896E+02  0.78907199987E+01 -0.36871802074E+02  0.39862239504E+02  0.51100000000E-03 0.  1.
         12    1    3    3    0    0  0.11302943129E+02 -0.26281203392E+00  0.40795772328E+02  0.42333445801E+02  0.00000000000E+00 0. -1.
</event>
<event>
 7    1  0.1654239E-015  0.9000776E+02  0.7816164E-02  0.1186339E+00
        -11   -1    0    0    0    0  0.00000000000E+00  0.00000000000E+00  0.45593999997E+02  0.45594000000E+02  0.51100000000E-03 0. -1.
         11   -1    0    0    0    0 -0.00000000000E+00 -0.00000000000E+00 -0.45593999997E+02  0.45594000000E+02  0.51100000000E-03 0.  1.
    9900012    2    1    2    0    0 -0.14586750186E+00 -0.10723301216E+01  0.47095076515E+00  0.90007761108E+02  0.90000022755E+02 0.  0.
        -12    1    1    2    0    0  0.14586750186E+00  0.10723301216E+01 -0.47095076515E+00  0.11802388915E+01  0.00000000000E+00 0.  1.
         11    1    3    3    0    0 -0.23524298751E+02 -0.32405964423E+02  0.11101057594E+02  0.41554453935E+02  0.51100000000E-03 0. -1.
        -11    1    3    3    0    0  0.50385925799E+01 -0.27895414660E+01  0.40338511743E+01  0.70314232084E+01  0.51100000000E-03 0.  1.
        -12    1    3    3    0    0  0.18339838669E+02  0.34123175767E+02 -0.14663958003E+02  0.41421883965E+02  0.00000000000E+00 0.  1.
</event>
<event>
 7    1  0.1654239E-015  0.9000775E+02  0.7816164E-02  0.1186339E+00
        -11   -1    0    0    0    0  0.00000000000E+00  0.00000000000E+00  0.45593999997E+02  0.45594000000E+02  0.51100000000E-03 0. -1.
         11   -1    0    0    0    0 -0.00000000000E+00 -0.00000000000E+00 -0.45593999997E+02  0.45594000000E+02  0.51100000000E-03 0.  1.
    9900012    2    1    2    0    0 -0.63821883807E+00 -0.64384145983E+00  0.75573857775E+00  0.90007747523E+02  0.90000008991E+02 0.  0.
        -12    1    1    2    0    0  0.63821883807E+00  0.64384145983E+00 -0.75573857775E+00  0.11802524766E+01  0.00000000000E+00 0.  1.
         11    1    3    3    0    0  0.10232126289E+02  0.36588887110E+02 -0.20303674654E+02  0.43077630773E+02  0.51100000000E-03 0. -1.
        -11    1    3    3    0    0 -0.55710970065E+01 -0.34909990494E+01  0.80200775845E+01  0.10370431088E+02  0.51100000000E-03 0.  1.
        -12    1    3    3    0    0 -0.52992481201E+01 -0.33741729520E+02  0.13039335647E+02  0.36559685663E+02  0.00000000000E+00 0.  1.
</event>
<event>
 7    1  0.1654239E-015  0.9000774E+02  0.7816164E-02  0.1186339E+00
        -11   -1    0    0    0    0  0.00000000000E+00  0.00000000000E+00  0.45593999997E+02  0.45594000000E+02  0.51100000000E-03 0.  1.
         11   -1    0    0    0    0 -0.00000000000E+00 -0.00000000000E+00 -0.45593999997E+02  0.45594000000E+02  0.51100000000E-03 0. -1.
    9900012    2    1    2    0    0  0.71572335464E+00  0.93228657233E+00 -0.10765448239E+00  0.90007742545E+02  0.90000003946E+02 0.  0.
        -12    1    1    2    0    0 -0.71572335464E+00 -0.93228657233E+00  0.10765448239E+00  0.11802574553E+01  0.00000000000E+00 0.  1.
         11    1    3    3    0    0 -0.37645447570E+01  0.67775858698E+01  0.45879652465E+01  0.90087120508E+01  0.51100000000E-03 0. -1.
        -11    1    3    3    0    0  0.14579377816E+01  0.58933832667E+01  0.37042333363E+02  0.37536542331E+02  0.51100000000E-03 0.  1.
         12    1    3    3    0    0  0.30223303301E+01 -0.11738682564E+02 -0.41737953092E+02  0.43462488163E+02  0.00000000000E+00 0. -1.
</event>
<event>
 7    1  0.1654239E-015  0.9000795E+02  0.7816164E-02  0.1186339E+00
        -11   -1    0    0    0    0  0.00000000000E+00  0.00000000000E+00  0.45593999997E+02  0.45594000000E+02  0.51100000000E-03 0.  1.
         11   -1    0    0    0    0 -0.00000000000E+00 -0.00000000000E+00 -0.45593999997E+02  0.45594000000E+02  0.51100000000E-03 0. -1.
    9900012    2    1    2    0    0 -0.95577456394E+00 -0.95405676962E-01 -0.68550829794E+00  0.90007945388E+02  0.90000209467E+02 0.  0.
        -12    1    1    2    0    0  0.95577456394E+00  0.95405676962E-01  0.68550829794E+00  0.11800546118E+01  0.00000000000E+00 0.  1.
         11    1    3    3    0    0  0.56634658125E+01  0.58761785421E+01  0.47301802715E+01  0.94328640895E+01  0.51100000000E-03 0. -1.
        -11    1    3    3    0    0 -0.28233655225E+02  0.17479079780E+02 -0.26379956000E+02  0.42409428152E+02  0.51100000000E-03 0.  1.
         12    1    3    3    0    0  0.21614414848E+02 -0.23450663999E+02  0.20964267431E+02  0.38165653147E+02  0.00000000000E+00 0. -1.
</event>
<event>
 7    1  0.1654239E-015  0.9000769E+02  0.7816164E-02  0.1186339E+00
        -11   -1    0    0    0    0  0.00000000000E+00  0.00000000000E+00  0.45593999997E+02  0.45594000000E+02  0.51100000000E-03 0.  1.
         11   -1    0    0    0    0 -0.00000000000E+00 -0.00000000000E+00 -0.45593999997E+02  0.45594000000E+02  0.51100000000E-03 0. -1.
    9900012    2    1    2    0    0 -0.78223327293E+00 -0.71939850767E+00  0.51353153807E+00  0.90007687437E+02  0.89999948111E+02 0.  0.
        -12    1    1    2    0    0  0.78223327293E+00  0.71939850767E+00 -0.51353153807E+00  0.11803125631E+01  0.00000000000E+00 0.  1.
         11    1    3    3    0    0  0.12660846304E+02  0.58440072376E+01 -0.35515127181E+02  0.38154602719E+02  0.51100000000E-03 0. -1.
        -11    1    3    3    0    0  0.82275176554E+01 -0.79226394246E+01  0.21637607314E+01  0.11625064429E+02  0.51100000000E-03 0.  1.
        -12    1    3    3    0    0 -0.21670597232E+02  0.13592336793E+01  0.33864897988E+02  0.40228020288E+02  0.00000000000E+00 0.  1.
</event>
<event>
 7    1  0.1654239E-015  0.9000772E+02  0.7816164E-02  0.1186339E+00
        -11   -1    0    0    0    0  0.00000000000E+00  0.00000000000E+00  0.45593999997E+02  0.45594000000E+02  0.51100000000E-03 0.  1.
         11   -1    0    0    0    0 -0.00000000000E+00 -0.00000000000E+00 -0.45593999997E+02  0.45594000000E+02  0.51100000000E-03 0. -1.
    9900012    2    1    2    0    0 -0.10863378174E+01 -0.11996856737E+00 -0.44558670966E+00  0.90007716209E+02  0.89999977263E+02 0.  0.
        -12    1    1    2    0    0  0.10863378174E+01  0.11996856737E+00  0.44558670966E+00  0.11802837907E+01  0.00000000000E+00 0.  1.
         11    1    3    3    0    0 -0.14169132328E+02 -0.23207872865E+02 -0.25357128781E+02  0.37180016865E+02  0.51100000000E-03 0. -1.
        -11    1    3    3    0    0 -0.12464436506E+02  0.15208315837E+01  0.31837860718E+01  0.12954211675E+02  0.51100000000E-03 0.  1.
        -12    1    3    3    0    0  0.25547231017E+02  0.21567072714E+02  0.21727755999E+02  0.39873487668E+02  0.00000000000E+00 0.  1.
</event>
<event>
 7    1  0.1654239E-015  0.9000655E+02  0.7816164E-02  0.1186341E+00
        -11   -1    0    0    0    0  0.00000000000E+00  0.00000000000E+00  0.45593999997E+02  0.45594000000E+02  0.51100000000E-03 0.  1.
         11   -1    0    0    0    0 -0.00000000000E+00 -0.00000000000E+00 -0.45593999997E+02  0.45594000000E+02  0.51100000000E-03 0. -1.
    9900012    2    1    2    0    0 -0.19119900251E+00  0.42086185735E+00 -0.10872589726E+01  0.90006554345E+02  0.89998800055E+02 0.  0.
        -12    1    1    2    0    0  0.19119900251E+00 -0.42086185735E+00  0.10872589726E+01  0.11814456548E+01  0.00000000000E+00 0.  1.
         11    1    3    3    0    0 -0.32252395635E+00 -0.36183877886E+02 -0.20425442938E+02  0.41552084906E+02  0.51100000000E-03 0. -1.
        -11    1    3    3    0    0 -0.71778401686E+01  0.57542075545E+00  0.59099313174E+01  0.93155669162E+01  0.51100000000E-03 0.  1.
        -12    1    3    3    0    0  0.73091651224E+01  0.36029318988E+02  0.13428252648E+02  0.39138902523E+02  0.00000000000E+00 0.  1.
</event>
<event>
 7    1  0.1654239E-015  0.9000748E+02  0.7816164E-02  0.1186340E+00
        -11   -1    0    0    0    0  0.00000000000E+00  0.00000000000E+00  0.45593999997E+02  0.45594000000E+02  0.51100000000E-03 0.  1.
         11   -1    0    0    0    0 -0.00000000000E+00 -0.00000000000E+00 -0.45593999997E+02  0.45594000000E+02  0.51100000000E-03 0. -1.
    9900012    2    1    2    0    0 -0.46008019244E+00 -0.10517481165E+01  0.27529703616E+00  0.90007476242E+02  0.89999734128E+02 0.  0.
        -12    1    1    2    0    0  0.46008019244E+00  0.10517481165E+01 -0.27529703616E+00  0.11805237576E+01  0.00000000000E+00 0.  1.
         11    1    3    3    0    0  0.14225046855E+01 -0.19968171459E+01  0.65673845529E+01  0.70100883320E+01  0.51100000000E-03 0. -1.
        -11    1    3    3    0    0 -0.33670639567E+02 -0.14282225959E+02  0.17425590583E+02  0.40513518171E+02  0.51100000000E-03 0.  1.
         12    1    3    3    0    0  0.31788054689E+02  0.15227294989E+02 -0.23717678100E+02  0.42483869739E+02  0.00000000000E+00 0. -1.
</event>
<event>
 7    1  0.1654239E-015  0.9000773E+02  0.7816164E-02  0.1186339E+00
        -11   -1    0    0    0    0  0.00000000000E+00  0.00000000000E+00  0.45593999997E+02  0.45594000000E+02  0.51100000000E-03 0. -1.
         11   -1    0    0    0    0 -0.00000000000E+00 -0.00000000000E+00 -0.45593999997E+02  0.45594000000E+02  0.51100000000E-03 0.  1.
    9900012    2    1    2    0    0  0.78579457963E+00  0.84333210024E+00 -0.25366602061E+00  0.90007733673E+02  0.89999994957E+02 0.  0.
        -12    1    1    2    0    0 -0.78579457963E+00 -0.84333210024E+00  0.25366602061E+00  0.11802663270E+01  0.00000000000E+00 0.  1.
         11    1    3    3    0    0 -0.11631898831E+02 -0.86137693141E+01  0.35590408016E+02  0.38421025953E+02  0.51100000000E-03 0. -1.
        -11    1    3    3    0    0  0.29237084713E+01  0.85146517252E+01  0.45458642512E+01  0.10085248994E+02  0.51100000000E-03 0.  1.
        -12    1    3    3    0    0  0.94939849398E+01  0.94244968911E+00 -0.40389938288E+02  0.41501458726E+02  0.00000000000E+00 0.  1.
</event>
<event>
 7    1  0.1654239E-015  0.9000771E+02  0.7816164E-02  0.1186339E+00
        -11   -1    0    0    0    0  0.00000000000E+00  0.00000000000E+00  0.45593999997E+02  0.45594000000E+02  0.51100000000E-03 0.  1.
         11   -1    0    0    0    0 -0.00000000000E+00 -0.00000000000E+00 -0.45593999997E+02  0.45594000000E+02  0.51100000000E-03 0. -1.
    9900012    2    1    2    0    0 -0.10780772923E+01 -0.16314687737E+00 -0.45190945456E+00  0.90007707787E+02  0.89999968730E+02 0.  0.
        -12    1    1    2    0    0  0.10780772923E+01  0.16314687737E+00  0.45190945456E+00  0.11802922125E+01  0.00000000000E+00 0.  1.
         11    1    3    3    0    0 -0.15529407029E+02 -0.13777493632E+02 -0.37898362400E+02  0.43211892881E+02  0.51100000000E-03 0. -1.
        -11    1    3    3    0    0 -0.45855861184E+01  0.55465832277E+01  0.73965635635E+01  0.10319948564E+02  0.51100000000E-03 0.  1.
        -12    1    3    3    0    0  0.19036915855E+02  0.80677635270E+01  0.30049889382E+02  0.36475866343E+02  0.00000000000E+00 0.  1.
</event>
<event>
 7    1  0.1654239E-015  0.9000775E+02  0.7816164E-02  0.1186339E+00
        -11   -1    0    0    0    0  0.00000000000E+00  0.00000000000E+00  0.45593999997E+02  0.45594000000E+02  0.51100000000E-03 0.  1.
         11   -1    0    0    0    0 -0.00000000000E+00 -0.00000000000E+00 -0.45593999997E+02  0.45594000000E+02  0.51100000000E-03 0. -1.
    9900012    2    1    2    0    0  0.39409454779E+00 -0.40078665765E+00 -0.10378130395E+01  0.90007747331E+02  0.90000008796E+02 0.  0.
        -12    1    1    2    0    0 -0.39409454779E+00  0.40078665765E+00  0.10378130395E+01  0.11802526689E+01  0.00000000000E+00 0.  1.
         11    1    3    3    0    0  0.30113029567E+02  0.21553955984E+02 -0.19701500467E+01  0.37084350604E+02  0.51100000000E-03 0. -1.
        -11    1    3    3    0    0  0.24235435757E+01  0.75917616647E+01  0.44414175480E+01  0.91232997722E+01  0.51100000000E-03 0.  1.
        -12    1    3    3    0    0 -0.32142478595E+02 -0.29546504306E+02 -0.35090805407E+01  0.43800096954E+02  0.00000000000E+00 0.  1.
</event>
<event>
 7    1  0.1654239E-015  0.9000774E+02  0.7816164E-02  0.1186339E+00
        -11   -1    0    0    0    0  0.00000000000E+00  0.00000000000E+00  0.45593999997E+02  0.45594000000E+02  0.51100000000E-03 0. -1.
         11   -1    0    0    0    0 -0.00000000000E+00 -0.00000000000E+00 -0.45593999997E+02  0.45594000000E+02  0.51100000000E-03 0.  1.
    9900012    2    1    2    0    0  0.70676345095E+00  0.77918988508E+00  0.53513047844E+00  0.90007738977E+02  0.90000000332E+02 0.  0.
        -12    1    1    2    0    0 -0.70676345095E+00 -0.77918988508E+00 -0.53513047844E+00  0.11802610226E+01  0.00000000000E+00 0.  1.
         11    1    3    3    0    0 -0.34523287701E+01 -0.61795898345E+01 -0.66415783875E+01  0.97065167901E+01  0.51100000000E-03 0. -1.
        -11    1    3    3    0    0 -0.21944978290E+02 -0.27454130860E+02 -0.48120387068E+01  0.35474879707E+02  0.51100000000E-03 0.  1.
         12    1    3    3    0    0  0.26104070511E+02  0.34412910580E+02  0.11988747573E+02  0.44826342480E+02  0.00000000000E+00 0. -1.
</event>
<event>
 7    1  0.1654239E-015  0.9000773E+02  0.7816164E-02  0.1186339E+00
        -11   -1    0    0    0    0  0.00000000000E+00  0.00000000000E+00  0.45593999997E+02  0.45594000000E+02  0.51100000000E-03 0.  1.
         11   -1    0    0    0    0 -0.00000000000E+00 -0.00000000000E+00 -0.45593999997E+02  0.45594000000E+02  0.51100000000E-03 0. -1.
    9900012    2    1    2    0    0 -0.63375559019E+00  0.91606882810E+00 -0.39013041819E+00  0.90007733086E+02  0.89999994362E+02 0.  0.
        -12    1    1    2    0    0  0.63375559019E+00 -0.91606882810E+00  0.39013041819E+00  0.11802669144E+01  0.00000000000E+00 0.  1.
         11    1    3    3    0    0 -0.25236158699E+01 -0.10311916363E+02  0.15041425723E+01  0.10722252622E+02  0.51100000000E-03 0. -1.
        -11    1    3    3    0    0 -0.65618638574E+01 -0.29402969617E+02  0.15976699832E+02  0.34100551570E+02  0.51100000000E-03 0.  1.
         12    1    3    3    0    0  0.84517241371E+01  0.40630954809E+02 -0.17870972823E+02  0.45184928894E+02  0.00000000000E+00 0. -1.
</event>
<event>
 7    1  0.1654239E-015  0.9000758E+02  0.7816164E-02  0.1186339E+00
        -11   -1    0    0    0    0  0.00000000000E+00  0.00000000000E+00  0.45593999997E+02  0.45594000000E+02  0.51100000000E-03 0.  1.
         11   -1    0    0    0    0 -0.00000000000E+00 -0.00000000000E+00 -0.45593999997E+02  0.45594000000E+02  0.51100000000E-03 0. -1.
    9900012    2    1    2    0    0  0.23586332678E+00 -0.30976716462E+00 -0.11143579280E+01  0.90007584481E+02  0.89999843796E+02 0.  0.
        -12    1    1    2    0    0 -0.23586332678E+00  0.30976716462E+00  0.11143579280E+01  0.11804155188E+01  0.00000000000E+00 0.  1.
         11    1    3    3    0    0  0.13560243846E+01  0.88270832660E+01 -0.98609330843E+01  0.13303916817E+02  0.51100000000E-03 0. -1.
        -11    1    3    3    0    0 -0.27122271037E+02  0.21443257483E+02  0.11581786673E+02  0.36463250821E+02  0.51100000000E-03 0.  1.
         12    1    3    3    0    0  0.26002109979E+02 -0.30580107913E+02 -0.28352115163E+01  0.40240416843E+02  0.00000000000E+00 0. -1.
</event>
<event>
 7    1  0.1654239E-015  0.9000768E+02  0.7816164E-02  0.1186339E+00
        -11   -1    0    0    0    0  0.00000000000E+00  0.00000000000E+00  0.45593999997E+02  0.45594000000E+02  0.51100000000E-03 0.  1.
         11   -1    0    0    0    0 -0.00000000000E+00 -0.00000000000E+00 -0.45593999997E+02  0.45594000000E+02  0.51100000000E-03 0. -1.
    9900012    2    1    2    0    0 -0.43590466266E+00 -0.96494031278E+00  0.52157012635E+00  0.90007678824E+02  0.89999939384E+02 0.  0.
        -12    1    1    2    0    0  0.43590466266E+00  0.96494031278E+00 -0.52157012635E+00  0.11803211761E+01  0.00000000000E+00 0.  1.
         11    1    3    3    0    0  0.20833263484E+02 -0.14251477365E+02 -0.24943511836E+02  0.35486733542E+02  0.51100000000E-03 0. -1.
        -11    1    3    3    0    0  0.95459203683E+01 -0.26584745870E+01 -0.21942181880E+01  0.10149220489E+02  0.51100000000E-03 0.  1.
        -12    1    3    3    0    0 -0.30815088515E+02  0.15945011639E+02  0.27659300150E+02  0.44371724794E+02  0.00000000000E+00 0.  1.
</event>
<event>
 7    1  0.1654239E-015  0.9000756E+02  0.7816164E-02  0.1186339E+00
        -11   -1    0    0    0    0  0.00000000000E+00  0.00000000000E+00  0.45593999997E+02  0.45594000000E+02  0.51100000000E-03 0.  1.
         11   -1    0    0    0    0 -0.00000000000E+00 -0.00000000000E+00 -0.45593999997E+02  0.45594000000E+02  0.51100000000E-03 0. -1.
    9900012    2    1    2    0    0 -0.38633399653E+00  0.98802640154E+00 -0.51767951669E+00  0.90007558469E+02  0.89999817440E+02 0.  0.
        -12    1    1    2    0    0  0.38633399653E+00 -0.98802640154E+00  0.51767951669E+00  0.11804415314E+01  0.00000000000E+00 0.  1.
         11    1    3    3    0    0  0.19187320451E+02  0.35796702808E+02  0.10117255837E+02  0.41855896406E+02  0.51100000000E-03 0. -1.
        -11    1    3    3    0    0  0.31097143765E+01  0.86326689024E-01  0.30334124217E+01  0.43450393533E+01  0.51100000000E-03 0.  1.
        -12    1    3    3    0    0 -0.22683368824E+02 -0.34895003096E+02 -0.13668347775E+02  0.43806622709E+02  0.00000000000E+00 0.  1.
</event>
<event>
 7    1  0.1654239E-015  0.9000787E+02  0.7816164E-02  0.1186339E+00
        -11   -1    0    0    0    0  0.00000000000E+00  0.00000000000E+00  0.45593999997E+02  0.45594000000E+02  0.51100000000E-03 0.  1.
         11   -1    0    0    0    0 -0.00000000000E+00 -0.00000000000E+00 -0.45593999997E+02  0.45594000000E+02  0.51100000000E-03 0. -1.
    9900012    2    1    2    0    0  0.10396229004E+01  0.46640091505E+00  0.30718543112E+00  0.90007869296E+02  0.90000132371E+02 0.  0.
        -12    1    1    2    0    0 -0.10396229004E+01 -0.46640091505E+00 -0.30718543112E+00  0.11801307037E+01  0.00000000000E+00 0.  1.
         11    1    3    3    0    0  0.15887420128E+02 -0.87725591820E+01  0.49497231532E+01  0.18811370829E+02  0.51100000000E-03 0. -1.
        -11    1    3    3    0    0  0.13247554639E+02  0.12958757058E+02  0.24385364402E+02  0.30627978805E+02  0.51100000000E-03 0.  1.
         12    1    3    3    0    0 -0.28095351866E+02 -0.37197969605E+01 -0.29027902124E+02  0.40568519663E+02  0.00000000000E+00 0. -1.
</event>
<event>
 7    1  0.1654239E-015  0.9000799E+02  0.7816164E-02  0.1186339E+00
        -11   -1    0    0    0    0  0.00000000000E+00  0.00000000000E+00  0.45593999997E+02  0.45594000000E+02  0.51100000000E-03 0. -1.
         11   -1    0    0    0    0 -0.00000000000E+00 -0.00000000000E+00 -0.45593999997E+02  0.45594000000E+02  0.51100000000E-03 0.  1.
    9900012    2    1    2    0    0  0.72495623324E+00  0.82414055836E-01  0.92739908794E+00  0.90007990388E+02  0.90000255060E+02 0.  0.
        -12    1    1    2    0    0 -0.72495623324E+00 -0.82414055836E-01 -0.92739908794E+00  0.11800096123E+01  0.00000000000E+00 0.  1.
         11    1    3    3    0    0 -0.45344771428E+01  0.81452951488E+01 -0.41648996060E+01  0.10210470362E+02  0.51100000000E-03 0. -1.
        -11    1    3    3    0    0 -0.22628368831E+02  0.26692324858E+02  0.40266932439E+01  0.35224104545E+02  0.51100000000E-03 0.  1.
         12    1    3    3    0    0  0.27887802208E+02 -0.34755205951E+02  0.10656054500E+01  0.44573415481E+02  0.00000000000E+00 0. -1.
</event>
<event>
 7    1  0.1654239E-015  0.9000784E+02  0.7816164E-02  0.1186339E+00
        -11   -1    0    0    0    0  0.00000000000E+00  0.00000000000E+00  0.45593999997E+02  0.45594000000E+02  0.51100000000E-03 0.  1.
         11   -1    0    0    0    0 -0.00000000000E+00 -0.00000000000E+00 -0.45593999997E+02  0.45594000000E+02  0.51100000000E-03 0. -1.
    9900012    2    1    2    0    0  0.96005391934E+00  0.67226365986E+00  0.13831257087E+00  0.90007842246E+02  0.90000104964E+02 0.  0.
        -12    1    1    2    0    0 -0.96005391934E+00 -0.67226365986E+00 -0.13831257087E+00  0.11801577537E+01  0.00000000000E+00 0.  1.
         11    1    3    3    0    0  0.13713715489E+02 -0.19608148490E+01 -0.18343802922E+02  0.22987081008E+02  0.51100000000E-03 0. -1.
        -11    1    3    3    0    0 -0.86604003009E+01  0.29788517046E+02 -0.43262386047E+01  0.31322110751E+02  0.51100000000E-03 0.  1.
         12    1    3    3    0    0 -0.40932612686E+01 -0.27155438537E+02  0.22808354097E+02  0.35698650487E+02  0.00000000000E+00 0. -1.
</event>
<event>
 7    1  0.1654239E-015  0.9000774E+02  0.7816164E-02  0.1186339E+00
        -11   -1    0    0    0    0  0.00000000000E+00  0.00000000000E+00  0.45593999997E+02  0.45594000000E+02  0.51100000000E-03 0.  1.
         11   -1    0    0    0    0 -0.00000000000E+00 -0.00000000000E+00 -0.45593999997E+02  0.45594000000E+02  0.51100000000E-03 0. -1.
    9900012    2    1    2    0    0  0.70371426720E+00 -0.93185345406E+00 -0.17162228928E+00  0.90007737809E+02  0.89999999148E+02 0.  0.
        -12    1    1    2    0    0 -0.70371426720E+00  0.93185345406E+00  0.17162228928E+00  0.11802621912E+01  0.00000000000E+00 0.  1.
         11    1    3    3    0    0  0.28461619309E+00 -0.12300000352E+01  0.65804522866E+01  0.67004670749E+01  0.51100000000E-03 0. -1.
        -11    1    3    3    0    0  0.40843762986E+02 -0.81174878519E+01 -0.13545719207E+01  0.41664630675E+02  0.51100000000E-03 0.  1.
         12    1    3    3    0    0 -0.40424664912E+02  0.84156344330E+01 -0.53975026552E+01  0.41642640059E+02  0.00000000000E+00 0. -1.
</event>
<event>
 7    1  0.1654239E-015  0.9000728E+02  0.7816164E-02  0.1186340E+00
        -11   -1    0    0    0    0  0.00000000000E+00  0.00000000000E+00  0.45593999997E+02  0.45594000000E+02  0.51100000000E-03 0.  1.
         11   -1    0    0    0    0 -0.00000000000E+00 -0.00000000000E+00 -0.45593999997E+02  0.45594000000E+02  0.51100000000E-03 0. -1.
    9900012    2    1    2    0    0  0.10919574805E+01  0.44206855632E+00 -0.79404062789E-01  0.90007279562E+02  0.89999534851E+02 0.  0.
        -12    1    1    2    0    0 -0.10919574805E+01 -0.44206855632E+00  0.79404062789E-01  0.11807204381E+01  0.00000000000E+00 0.  1.
         11    1    3    3    0    0  0.35209936578E+02 -0.50622989598E+01  0.48146653248E+01  0.35896343923E+02  0.51100000000E-03 0. -1.
        -11    1    3    3    0    0  0.90090269542E+01  0.42597279170E+01  0.26493540209E+01  0.10311494827E+02  0.51100000000E-03 0.  1.
        -12    1    3    3    0    0 -0.43127006052E+02  0.12446395992E+01 -0.75434234085E+01  0.43799440812E+02  0.00000000000E+00 0.  1.
</event>
<event>
 7    1  0.1654239E-015  0.9000770E+02  0.7816164E-02  0.1186339E+00
        -11   -1    0    0    0    0  0.00000000000E+00  0.00000000000E+00  0.45593999997E+02  0.45594000000E+02  0.51100000000E-03 0.  1.
         11   -1    0    0    0    0 -0.00000000000E+00 -0.00000000000E+00 -0.45593999997E+02  0.45594000000E+02  0.51100000000E-03 0. -1.
    9900012    2    1    2    0    0 -0.32089350866E+00 -0.65360230027E-01 -0.11339594359E+01  0.90007699781E+02  0.89999960619E+02 0.  0.
        -12    1    1    2    0    0  0.32089350866E+00  0.65360230027E-01  0.11339594359E+01  0.11803002185E+01  0.00000000000E+00 0.  1.
         11    1    3    3    0    0 -0.12168794550E+02  0.56133753150E+01  0.59621030763E+01  0.14667522510E+02  0.51100000000E-03 0. -1.
        -11    1    3    3    0    0  0.94097406436E+01  0.24861947062E+02 -0.27720771594E+02  0.38407041134E+02  0.51100000000E-03 0.  1.
         12    1    3    3    0    0  0.24381603976E+01 -0.30540682607E+02  0.20624709082E+02  0.36933136137E+02  0.00000000000E+00 0. -1.
</event>
<event>
 7    1  0.1654239E-015  0.9000807E+02  0.7816164E-02  0.1186338E+00
        -11   -1    0    0    0    0  0.00000000000E+00  0.00000000000E+00  0.45593999997E+02  0.45594000000E+02  0.51100000000E-03 0.  1.
         11   -1    0    0    0    0 -0.00000000000E+00 -0.00000000000E+00 -0.45593999997E+02  0.45594000000E+02  0.51100000000E-03 0. -1.
    9900012    2    1    2    0    0  0.82966335470E+00  0.60423432546E+00 -0.58205114111E+00  0.90008074607E+02  0.90000340391E+02 0.  0.
        -12    1    1    2    0    0 -0.82966335470E+00 -0.60423432546E+00  0.58205114111E+00  0.11799253930E+01  0.00000000000E+00 0.  1.
         11    1    3    3    0    0 -0.76043583991E+01  0.39621177207E+02 -0.38565393505E+00  0.40346160650E+02  0.51100000000E-03 0. -1.
        -11    1    3    3    0    0  0.45552931182E+01  0.44706370144E+00 -0.80285780691E+01  0.92416788203E+01  0.51100000000E-03 0.  1.
        -12    1    3    3    0    0  0.38787286356E+01 -0.39464006583E+02  0.78321808630E+01  0.40420235137E+02  0.00000000000E+00 0.  1.
</event>
<event>
 7    1  0.1714308E-015  0.9000671E+02  0.7816164E-02  0.1186341E+00
        -11   -1    0    0    0    0  0.00000000000E+00  0.00000000000E+00  0.45593999997E+02  0.45594000000E+02  0.51100000000E-03 0. -1.
         11   -1    0    0    0    0 -0.00000000000E+00 -0.00000000000E+00 -0.45593999997E+02  0.45594000000E+02  0.51100000000E-03 0.  1.
    9900012    2    1    2    0    0 -0.11487948222E+00  0.81874865334E+00  0.84373907509E+00  0.90006711602E+02  0.89998959389E+02 0.  0.
        -12    1    1    2    0    0  0.11487948222E+00 -0.81874865334E+00 -0.84373907509E+00  0.11812883982E+01  0.00000000000E+00 0.  1.
         11    1    3    3    0    0  0.17780632196E+00  0.42825804507E+01  0.85905568739E+01  0.96005092609E+01  0.51100000000E-03 0. -1.
        -11    1    3    3    0    0  0.31383379651E+02 -0.26122256350E+02 -0.76565248611E+00  0.40839625600E+02  0.51100000000E-03 0.  1.
         12    1    3    3    0    0 -0.31676065455E+02  0.22658424553E+02 -0.69811653127E+01  0.39566576741E+02  0.00000000000E+00 0. -1.
</event>
<event>
 7    1  0.1654239E-015  0.9000770E+02  0.7816164E-02  0.1186339E+00
        -11   -1    0    0    0    0  0.00000000000E+00  0.00000000000E+00  0.45593999997E+02  0.45594000000E+02  0.51100000000E-03 0. -1.
         11   -1    0    0    0    0 -0.00000000000E+00 -0.00000000000E+00 -0.45593999997E+02  0.45594000000E+02  0.51100000000E-03 0.  1.
    9900012    2    1    2    0    0  0.31868058451E+00 -0.12011743240E+00  0.11301019492E+01  0.90007696680E+02  0.89999957476E+02 0.  0.
        -12    1    1    2    0    0 -0.31868058451E+00  0.12011743240E+00 -0.11301019492E+01  0.11803033204E+01  0.00000000000E+00 0.  1.
         11    1    3    3    0    0  0.17228008657E+02  0.19581655882E+01  0.26653231309E+02  0.31796751945E+02  0.51100000000E-03 0. -1.
        -11    1    3    3    0    0  0.39497212678E+00 -0.34120988010E+01  0.14333579865E+02  0.14739400707E+02  0.51100000000E-03 0.  1.
        -12    1    3    3    0    0 -0.17304300199E+02  0.13338157804E+01 -0.39856709225E+02  0.43471544028E+02  0.00000000000E+00 0.  1.
</event>
<event>
 7    1  0.1654239E-015  0.9000780E+02  0.7816164E-02  0.1186339E+00
        -11   -1    0    0    0    0  0.00000000000E+00  0.00000000000E+00  0.45593999997E+02  0.45594000000E+02  0.51100000000E-03 0.  1.
         11   -1    0    0    0    0 -0.00000000000E+00 -0.00000000000E+00 -0.45593999997E+02  0.45594000000E+02  0.51100000000E-03 0. -1.
    9900012    2    1    2    0    0 -0.33939104428E+00 -0.55429056128E+00 -0.98511882822E+00  0.90007795182E+02  0.90000057278E+02 0.  0.
        -12    1    1    2    0    0  0.33939104428E+00  0.55429056128E+00  0.98511882822E+00  0.11802048182E+01  0.00000000000E+00 0.  1.
         11    1    3    3    0    0 -0.13291986917E-01  0.90722720653E+01 -0.39003951227E+01  0.98751900983E+01  0.51100000000E-03 0. -1.
        -11    1    3    3    0    0  0.17569704259E+02  0.25612826847E+02  0.20141293570E+02  0.37018686008E+02  0.51100000000E-03 0.  1.
         12    1    3    3    0    0 -0.17895803316E+02 -0.35239389474E+02 -0.17226017276E+02  0.43113919075E+02  0.00000000000E+00 0. -1.
</event>
<event>
 7    1  0.1654239E-015  0.9000772E+02  0.7816164E-02  0.1186339E+00
        -11   -1    0    0    0    0  0.00000000000E+00  0.00000000000E+00  0.45593999997E+02  0.45594000000E+02  0.51100000000E-03 0.  1.
         11   -1    0    0    0    0 -0.00000000000E+00 -0.00000000000E+00 -0.45593999997E+02  0.45594000000E+02  0.51100000000E-03 0. -1.
    9900012    2    1    2    0    0  0.71812278619E+00  0.60384453053E+00  0.71605944537E+00  0.90007716270E+02  0.89999977325E+02 0.  0.
        -12    1    1    2    0    0 -0.71812278619E+00 -0.60384453053E+00 -0.71605944537E+00  0.11802837296E+01  0.00000000000E+00 0.  1.
         11    1    3    3    0    0 -0.11846117321E+02 -0.36313766887E+02  0.13043099078E+01  0.38219384947E+02  0.51100000000E-03 0. -1.
        -11    1    3    3    0    0 -0.76288303449E+01 -0.19003324490E+01 -0.15885605207E+01  0.80208379012E+01  0.51100000000E-03 0.  1.
        -12    1    3    3    0    0  0.20193070452E+02  0.38817943866E+02  0.10003100583E+01  0.43767493423E+02  0.00000000000E+00 0.  1.
</event>
<event>
 7    1  0.1654239E-015  0.9000781E+02  0.7816164E-02  0.1186339E+00
        -11   -1    0    0    0    0  0.00000000000E+00  0.00000000000E+00  0.45593999997E+02  0.45594000000E+02  0.51100000000E-03 0.  1.
         11   -1    0    0    0    0 -0.00000000000E+00 -0.00000000000E+00 -0.45593999997E+02  0.45594000000E+02  0.51100000000E-03 0. -1.
    9900012    2    1    2    0    0 -0.77756309836E+00 -0.39989264449E+00 -0.79266664164E+00  0.90007814038E+02  0.90000076384E+02 0.  0.
        -12    1    1    2    0    0  0.77756309836E+00  0.39989264449E+00  0.79266664164E+00  0.11801859615E+01  0.00000000000E+00 0.  1.
         11    1    3    3    0    0 -0.74957727541E+01  0.74282895659E+01 -0.31411943135E+00  0.10557687547E+02  0.51100000000E-03 0. -1.
        -11    1    3    3    0    0  0.10603893206E+02  0.34382753344E+02  0.62818217763E+01  0.36525026540E+02  0.51100000000E-03 0.  1.
         12    1    3    3    0    0 -0.38856835503E+01 -0.42210935555E+02 -0.67603689866E+01  0.42925099952E+02  0.00000000000E+00 0. -1.
</event>
<event>
 7    1  0.1654239E-015  0.9000770E+02  0.7816164E-02  0.1186339E+00
        -11   -1    0    0    0    0  0.00000000000E+00  0.00000000000E+00  0.45593999997E+02  0.45594000000E+02  0.51100000000E-03 0.  1.
         11   -1    0    0    0    0 -0.00000000000E+00 -0.00000000000E+00 -0.45593999997E+02  0.45594000000E+02  0.51100000000E-03 0. -1.
    9900012    2    1    2    0    0 -0.30138596668E+00 -0.10817872091E+01 -0.36333546507E+00  0.90007699307E+02  0.89999960137E+02 0.  0.
        -12    1    1    2    0    0  0.30138596668E+00  0.10817872091E+01  0.36333546507E+00  0.11803006934E+01  0.00000000000E+00 0.  1.
         11    1    3    3    0    0 -0.15029865959E+02 -0.10778171540E+02 -0.30738133417E+02  0.35873370328E+02  0.51100000000E-03 0. -1.
        -11    1    3    3    0    0 -0.20954068465E+01 -0.38547568922E+01 -0.85538074629E+01  0.96134022554E+01  0.51100000000E-03 0.  1.
        -12    1    3    3    0    0  0.16823886838E+02  0.13551141223E+02  0.38928605415E+02  0.44520926723E+02  0.00000000000E+00 0.  1.
</event>
<event>
 7    1  0.1654239E-015  0.9000776E+02  0.7816164E-02  0.1186339E+00
        -11   -1    0    0    0    0  0.00000000000E+00  0.00000000000E+00  0.45593999997E+02  0.45594000000E+02  0.51100000000E-03 0. -1.
         11   -1    0    0    0    0 -0.00000000000E+00 -0.00000000000E+00 -0.45593999997E+02  0.45594000000E+02  0.51100000000E-03 0.  1.
    9900012    2    1    2    0    0  0.41061980680E+00  0.10531638192E+01  0.33941072915E+00  0.90007761762E+02  0.90000023417E+02 0.  0.
        -12    1    1    2    0    0 -0.41061980680E+00 -0.10531638192E+01 -0.33941072915E+00  0.11802382381E+01  0.00000000000E+00 0.  1.
         11    1    3    3    0    0  0.70232915288E+01  0.57157918558E+01 -0.37478831219E+00  0.90629667867E+01  0.51100000000E-03 0. -1.
        -11    1    3    3    0    0  0.22865699876E+02 -0.22810266570E+02  0.23110817693E+02  0.39714712469E+02  0.51100000000E-03 0.  1.
         12    1    3    3    0    0 -0.29478371598E+02  0.18147638533E+02 -0.22396618652E+02  0.41230082506E+02  0.00000000000E+00 0. -1.
</event>
<event>
 7    1  0.1654239E-015  0.9000766E+02  0.7816164E-02  0.1186339E+00
        -11   -1    0    0    0    0  0.00000000000E+00  0.00000000000E+00  0.45593999997E+02  0.45594000000E+02  0.51100000000E-03 0.  1.
         11   -1    0    0    0    0 -0.00000000000E+00 -0.00000000000E+00 -0.45593999997E+02  0.45594000000E+02  0.51100000000E-03 0. -1.
    9900012    2    1    2    0    0 -0.83304088748E+00 -0.83617771874E+00 -0.77217558766E-02  0.90007656862E+02  0.89999917133E+02 0.  0.
        -12    1    1    2    0    0  0.83304088748E+00  0.83617771874E+00  0.77217558766E-02  0.11803431378E+01  0.00000000000E+00 0.  1.
         11    1    3    3    0    0  0.76566835142E+01  0.92990670963E+01  0.91782961201E+01  0.15143928527E+02  0.51100000000E-03 0. -1.
        -11    1    3    3    0    0  0.28271639940E+02 -0.41375988395E+01 -0.21363319082E+02  0.35676277153E+02  0.51100000000E-03 0.  1.
         12    1    3    3    0    0 -0.36761364341E+02 -0.59976459755E+01  0.12177301206E+02  0.39187451182E+02  0.00000000000E+00 0. -1.
</event>
<event>
 7    1  0.1654239E-015  0.9000772E+02  0.7816164E-02  0.1186339E+00
        -11   -1    0    0    0    0  0.00000000000E+00  0.00000000000E+00  0.45593999997E+02  0.45594000000E+02  0.51100000000E-03 0. -1.
         11   -1    0    0    0    0 -0.00000000000E+00 -0.00000000000E+00 -0.45593999997E+02  0.45594000000E+02  0.51100000000E-03 0.  1.
    9900012    2    1    2    0    0 -0.89396855292E+00 -0.77023139544E+00  0.25205937145E-01  0.90007715494E+02  0.89999976538E+02 0.  0.
        -12    1    1    2    0    0  0.89396855292E+00  0.77023139544E+00 -0.25205937145E-01  0.11802845061E+01  0.00000000000E+00 0.  1.
         11    1    3    3    0    0 -0.16529122842E+02 -0.13881469164E+02  0.29290821634E+02  0.36384877632E+02  0.51100000000E-03 0. -1.
        -11    1    3    3    0    0 -0.74715891293E+01 -0.72034544927E+01  0.10477474271E+01  0.10431307477E+02  0.51100000000E-03 0.  1.
        -12    1    3    3    0    0  0.23106743418E+02  0.20314692261E+02 -0.30313363124E+02  0.43191530384E+02  0.00000000000E+00 0.  1.
</event>
<event>
 7    1  0.1654239E-015  0.9000778E+02  0.7816164E-02  0.1186339E+00
        -11   -1    0    0    0    0  0.00000000000E+00  0.00000000000E+00  0.45593999997E+02  0.45594000000E+02  0.51100000000E-03 0. -1.
         11   -1    0    0    0    0 -0.00000000000E+00 -0.00000000000E+00 -0.45593999997E+02  0.45594000000E+02  0.51100000000E-03 0.  1.
    9900012    2    1    2    0    0  0.10497382711E+01 -0.46489843268E-01 -0.53741314924E+00  0.90007777717E+02  0.90000039583E+02 0.  0.
        -12    1    1    2    0    0 -0.10497382711E+01  0.46489843268E-01  0.53741314924E+00  0.11802222826E+01  0.00000000000E+00 0.  1.
         11    1    3    3    0    0 -0.10214878340E+02  0.32952746484E+02  0.11804143101E+02  0.36463201107E+02  0.51100000000E-03 0. -1.
        -11    1    3    3    0    0 -0.20907090553E+01  0.45061263911E+01  0.75515542197E+01  0.90389275250E+01  0.51100000000E-03 0.  1.
        -12    1    3    3    0    0  0.13355325666E+02 -0.37505362719E+02 -0.19893110470E+02  0.44505649085E+02  0.00000000000E+00 0.  1.
</event>
<event>
 7    1  0.1654239E-015  0.9000801E+02  0.7816164E-02  0.1186339E+00
        -11   -1    0    0    0    0  0.00000000000E+00  0.00000000000E+00  0.45593999997E+02  0.45594000000E+02  0.51100000000E-03 0. -1.
         11   -1    0    0    0    0 -0.00000000000E+00 -0.00000000000E+00 -0.45593999997E+02  0.45594000000E+02  0.51100000000E-03 0.  1.
    9900012    2    1    2    0    0 -0.86345307076E+00  0.17516873941E+00 -0.78494861947E+00  0.90008008632E+02  0.90000273546E+02 0.  0.
        -12    1    1    2    0    0  0.86345307076E+00 -0.17516873941E+00  0.78494861947E+00  0.11799913677E+01  0.00000000000E+00 0.  1.
         11    1    3    3    0    0  0.33363585024E+01  0.99667368097E+00  0.86805790526E+01  0.93529193000E+01  0.51100000000E-03 0. -1.
        -11    1    3    3    0    0 -0.42539166678E+01 -0.31535562274E+02 -0.29980476317E+02  0.43719749032E+02  0.51100000000E-03 0.  1.
         12    1    3    3    0    0  0.54105094644E-01  0.30714057333E+02  0.20514948645E+02  0.36935340300E+02  0.00000000000E+00 0. -1.
</event>
<event>
 7    1  0.1654239E-015  0.9000673E+02  0.7816164E-02  0.1186341E+00
        -11   -1    0    0    0    0  0.00000000000E+00  0.00000000000E+00  0.45593999997E+02  0.45594000000E+02  0.51100000000E-03 0.  1.
         11   -1    0    0    0    0 -0.00000000000E+00 -0.00000000000E+00 -0.45593999997E+02  0.45594000000E+02  0.51100000000E-03 0. -1.
    9900012    2    1    2    0    0  0.88219434952E+00 -0.67061275405E+00 -0.40915395541E+00  0.90006731489E+02  0.89998979539E+02 0.  0.
        -12    1    1    2    0    0 -0.88219434952E+00  0.67061275405E+00  0.40915395541E+00  0.11812685112E+01  0.00000000000E+00 0.  1.
         11    1    3    3    0    0  0.59935834907E+01  0.73357909811E+01  0.37360452346E+01  0.10183069608E+02  0.51100000000E-03 0. -1.
        -11    1    3    3    0    0  0.11021445608E+02 -0.33002514292E+02  0.21197399853E+02  0.40742704546E+02  0.51100000000E-03 0.  1.
         12    1    3    3    0    0 -0.16132834749E+02  0.24996110557E+02 -0.25342599043E+02  0.39080957336E+02  0.00000000000E+00 0. -1.
</event>
<event>
 7    1  0.1654239E-015  0.9000747E+02  0.7816164E-02  0.1186340E+00
        -11   -1    0    0    0    0  0.00000000000E+00  0.00000000000E+00  0.45593999997E+02  0.45594000000E+02  0.51100000000E-03 0.  1.
         11   -1    0    0    0    0 -0.00000000000E+00 -0.00000000000E+00 -0.45593999997E+02  0.45594000000E+02  0.51100000000E-03 0. -1.
    9900012    2    1    2    0    0 -0.22289599214E+00 -0.74218995618E+00 -0.89057836678E+00  0.90007466908E+02  0.89999724671E+02 0.  0.
        -12    1    1    2    0    0  0.22289599214E+00  0.74218995618E+00  0.89057836678E+00  0.11805330922E+01  0.00000000000E+00 0.  1.
         11    1    3    3    0    0  0.42731354600E+02  0.25610743089E+01 -0.70287273402E+01  0.43381226076E+02  0.51100000000E-03 0. -1.
        -11    1    3    3    0    0 -0.49742537734E+01 -0.53123586571E+00  0.69180156601E+01  0.85372333388E+01  0.51100000000E-03 0.  1.
        -12    1    3    3    0    0 -0.37979996818E+02 -0.27720283994E+01 -0.77986668663E+00  0.38089007493E+02  0.00000000000E+00 0.  1.
</event>
<event>
 7    1  0.1654239E-015  0.9000765E+02  0.7816164E-02  0.1186339E+00
        -11   -1    0    0    0    0  0.00000000000E+00  0.00000000000E+00  0.45593999997E+02  0.45594000000E+02  0.51100000000E-03 0. -1.
         11   -1    0    0    0    0 -0.00000000000E+00 -0.00000000000E+00 -0.45593999997E+02  0.45594000000E+02  0.51100000000E-03 0.  1.
    9900012    2    1    2    0    0 -0.59456949206E+00  0.17528061697E+00  0.10044842655E+01  0.90007650554E+02  0.89999910741E+02 0.  0.
        -12    1    1    2    0    0  0.59456949206E+00 -0.17528061697E+00 -0.10044842655E+01  0.11803494462E+01  0.00000000000E+00 0.  1.
         11    1    3    3    0    0  0.14268581202E+02  0.56835585848E+01  0.77616949870E+01  0.17208694228E+02  0.51100000000E-03 0. -1.
        -11    1    3    3    0    0 -0.22163243404E+01 -0.35978155513E+02 -0.14597406953E+02  0.38889896602E+02  0.51100000000E-03 0.  1.
         12    1    3    3    0    0 -0.12646826353E+02  0.30469877545E+02  0.78401962313E+01  0.33909059724E+02  0.00000000000E+00 0. -1.
</event>
<event>
 7    1  0.1654239E-015  0.9000768E+02  0.7816164E-02  0.1186339E+00
        -11   -1    0    0    0    0  0.00000000000E+00  0.00000000000E+00  0.45593999997E+02  0.45594000000E+02  0.51100000000E-03 0. -1.
         11   -1    0    0    0    0 -0.00000000000E+00 -0.00000000000E+00 -0.45593999997E+02  0.45594000000E+02  0.51100000000E-03 0.  1.
    9900012    2    1    2    0    0 -0.89153949419E+00 -0.51960868852E+00  0.57300075688E+00  0.90007675584E+02  0.89999936102E+02 0.  0.
        -12    1    1    2    0    0  0.89153949419E+00  0.51960868852E+00 -0.57300075688E+00  0.11803244157E+01  0.00000000000E+00 0.  1.
         11    1    3    3    0    0  0.12532363089E+02 -0.24247614779E+02  0.24529728342E+02  0.36697609185E+02  0.51100000000E-03 0. -1.
        -11    1    3    3    0    0  0.10197405768E+02  0.76079634628E+01  0.39808014838E+01  0.13330977953E+02  0.51100000000E-03 0.  1.
        -12    1    3    3    0    0 -0.23621308352E+02  0.16120042628E+02 -0.27937529069E+02  0.39979088447E+02  0.00000000000E+00 0.  1.
</event>
<event>
 7    1  0.1654239E-015  0.9000774E+02  0.7816164E-02  0.1186339E+00
        -11   -1    0    0    0    0  0.00000000000E+00  0.00000000000E+00  0.45593999997E+02  0.45594000000E+02  0.51100000000E-03 0.  1.
         11   -1    0    0    0    0 -0.00000000000E+00 -0.00000000000E+00 -0.45593999997E+02  0.45594000000E+02  0.51100000000E-03 0. -1.
    9900012    2    1    2    0    0 -0.89569914328E+00  0.74252047147E+00 -0.19851449573E+00  0.90007736635E+02  0.89999997959E+02 0.  0.
        -12    1    1    2    0    0  0.89569914328E+00 -0.74252047147E+00  0.19851449573E+00  0.11802633650E+01  0.00000000000E+00 0.  1.
         11    1    3    3    0    0  0.49521558526E+01  0.25270491078E+02  0.19669035371E+02  0.32403588066E+02  0.51100000000E-03 0. -1.
        -11    1    3    3    0    0  0.87542583853E+01  0.11697617894E+02 -0.23523695317E+01  0.14798815728E+02  0.51100000000E-03 0.  1.
        -12    1    3    3    0    0 -0.14602113381E+02 -0.36225588500E+02 -0.17515180335E+02  0.42805332840E+02  0.00000000000E+00 0.  1.
</event>
<event>
 7    1  0.1654239E-015  0.9000772E+02  0.7816164E-02  0.1186339E+00
        -11   -1    0    0    0    0  0.00000000000E+00  0.00000000000E+00  0.45593999997E+02  0.45594000000E+02  0.51100000000E-03 0. -1.
         11   -1    0    0    0    0 -0.00000000000E+00 -0.00000000000E+00 -0.45593999997E+02  0.45594000000E+02  0.51100000000E-03 0.  1.
    9900012    2    1    2    0    0  0.60170837672E+00 -0.93494161686E+00 -0.39608909190E+00  0.90007722335E+02  0.89999983470E+02 0.  0.
        -12    1    1    2    0    0 -0.60170837672E+00  0.93494161686E+00  0.39608909190E+00  0.11802776649E+01  0.00000000000E+00 0.  1.
         11    1    3    3    0    0  0.10204395462E+02 -0.74386806180E+00 -0.59355576027E+01  0.11828519381E+02  0.51100000000E-03 0. -1.
        -11    1    3    3    0    0  0.49960922289E+01 -0.29152383073E+02 -0.20998017065E+02  0.36273118108E+02  0.51100000000E-03 0.  1.
         12    1    3    3    0    0 -0.14598779314E+02  0.28961309518E+02  0.26537485575E+02  0.41906084846E+02  0.00000000000E+00 0. -1.
</event>
<event>
 7    1  0.1654239E-015  0.9000774E+02  0.7816164E-02  0.1186339E+00
        -11   -1    0    0    0    0  0.00000000000E+00  0.00000000000E+00  0.45593999997E+02  0.45594000000E+02  0.51100000000E-03 0. -1.
         11   -1    0    0    0    0 -0.00000000000E+00 -0.00000000000E+00 -0.45593999997E+02  0.45594000000E+02  0.51100000000E-03 0.  1.
    9900012    2    1    2    0    0 -0.66427435052E+00  0.79711821814E+00  0.56246485607E+00  0.90007735377E+02  0.89999996684E+02 0.  0.
        -12    1    1    2    0    0  0.66427435052E+00 -0.79711821814E+00 -0.56246485607E+00  0.11802646232E+01  0.00000000000E+00 0.  1.
         11    1    3    3    0    0 -0.28731239897E+02  0.13163397415E+02  0.21355385054E+02  0.38141993243E+02  0.51100000000E-03 0. -1.
        -11    1    3    3    0    0 -0.11977754097E+01  0.10007064983E+02 -0.12220579043E+01  0.10152312115E+02  0.51100000000E-03 0.  1.
        -12    1    3    3    0    0  0.29264740956E+02 -0.22373344180E+02 -0.19570862293E+02  0.41713430018E+02  0.00000000000E+00 0.  1.
</event>
<event>
 7    1  0.1654239E-015  0.9000785E+02  0.7816164E-02  0.1186339E+00
        -11   -1    0    0    0    0  0.00000000000E+00  0.00000000000E+00  0.45593999997E+02  0.45594000000E+02  0.51100000000E-03 0. -1.
         11   -1    0    0    0    0 -0.00000000000E+00 -0.00000000000E+00 -0.45593999997E+02  0.45594000000E+02  0.51100000000E-03 0.  1.
    9900012    2    1    2    0    0 -0.82900655276E+00 -0.28462594339E+00  0.79024284983E+00  0.90007852741E+02  0.90000115597E+02 0.  0.
        -12    1    1    2    0    0  0.82900655276E+00  0.28462594339E+00 -0.79024284983E+00  0.11801472594E+01  0.00000000000E+00 0.  1.
         11    1    3    3    0    0  0.62134112816E+01 -0.37330668468E+01  0.56892697728E+01  0.92146654115E+01  0.51100000000E-03 0. -1.
        -11    1    3    3    0    0  0.26724682842E+02  0.82709411507E+01  0.23400838513E+02  0.36472131606E+02  0.51100000000E-03 0.  1.
         12    1    3    3    0    0 -0.33767100677E+02 -0.48225002472E+01 -0.28299865436E+02  0.44321055723E+02  0.00000000000E+00 0. -1.
</event>
<event>
 7    1  0.1654239E-015  0.9000771E+02  0.7816164E-02  0.1186339E+00
        -11   -1    0    0    0    0  0.00000000000E+00  0.00000000000E+00  0.45593999997E+02  0.45594000000E+02  0.51100000000E-03 0.  1.
         11   -1    0    0    0    0 -0.00000000000E+00 -0.00000000000E+00 -0.45593999997E+02  0.45594000000E+02  0.51100000000E-03 0. -1.
    9900012    2    1    2    0    0  0.53755059193E-01 -0.87721196276E+00 -0.78783722408E+00  0.90007712778E+02  0.89999973787E+02 0.  0.
        -12    1    1    2    0    0 -0.53755059193E-01  0.87721196276E+00  0.78783722408E+00  0.11802872217E+01  0.00000000000E+00 0.  1.
         11    1    3    3    0    0  0.11747669528E+02 -0.48508988254E+01 -0.37690153929E+02  0.39775453011E+02  0.51100000000E-03 0. -1.
        -11    1    3    3    0    0  0.44634545202E+01  0.85229549480E+01 -0.77335485062E-01  0.96212872495E+01  0.51100000000E-03 0.  1.
        -12    1    3    3    0    0 -0.16157368989E+02 -0.45492680853E+01  0.36979652190E+02  0.40610972518E+02  0.00000000000E+00 0.  1.
</event>
<event>
 7    1  0.1654239E-015  0.9000774E+02  0.7816164E-02  0.1186339E+00
        -11   -1    0    0    0    0  0.00000000000E+00  0.00000000000E+00  0.45593999997E+02  0.45594000000E+02  0.51100000000E-03 0.  1.
         11   -1    0    0    0    0 -0.00000000000E+00 -0.00000000000E+00 -0.45593999997E+02  0.45594000000E+02  0.51100000000E-03 0. -1.
    9900012    2    1    2    0    0  0.56284605092E+00  0.34912627954E+00 -0.97689557788E+00  0.90007741636E+02  0.90000003025E+02 0.  0.
        -12    1    1    2    0    0 -0.56284605092E+00 -0.34912627954E+00  0.97689557788E+00  0.11802583642E+01  0.00000000000E+00 0.  1.
         11    1    3    3    0    0 -0.91978488762E+01 -0.78532094363E+01 -0.27536764674E+02  0.30075683390E+02  0.51100000000E-03 0. -1.
        -11    1    3    3    0    0 -0.14206454908E+02  0.53575480340E+01 -0.84751242883E+01  0.17388341323E+02  0.51100000000E-03 0.  1.
        -12    1    3    3    0    0  0.23967149835E+02  0.28447876818E+01  0.35034993384E+02  0.42543716923E+02  0.00000000000E+00 0.  1.
</event>
<event>
 7    1  0.1654239E-015  0.9000780E+02  0.7816164E-02  0.1186339E+00
        -11   -1    0    0    0    0  0.00000000000E+00  0.00000000000E+00  0.45593999997E+02  0.45594000000E+02  0.51100000000E-03 0.  1.
         11   -1    0    0    0    0 -0.00000000000E+00 -0.00000000000E+00 -0.45593999997E+02  0.45594000000E+02  0.51100000000E-03 0. -1.
    9900012    2    1    2    0    0 -0.10576203770E+01  0.49214269876E+00 -0.17915163358E+00  0.90007804844E+02  0.90000067068E+02 0.  0.
        -12    1    1    2    0    0  0.10576203770E+01 -0.49214269876E+00  0.17915163358E+00  0.11801951557E+01  0.00000000000E+00 0.  1.
         11    1    3    3    0    0  0.48465329750E+01 -0.85021595646E+01 -0.13840485672E+01  0.98838853614E+01  0.51100000000E-03 0. -1.
        -11    1    3    3    0    0 -0.52174129554E+01 -0.32676163199E+02  0.14851950560E+02  0.36270283637E+02  0.51100000000E-03 0.  1.
         12    1    3    3    0    0 -0.68674039664E+00  0.41670465463E+02 -0.13647053627E+02  0.43853635846E+02  0.00000000000E+00 0. -1.
</event>
<event>
 7    1  0.1654239E-015  0.9000702E+02  0.7816164E-02  0.1186340E+00
        -11   -1    0    0    0    0  0.00000000000E+00  0.00000000000E+00  0.45593999997E+02  0.45594000000E+02  0.51100000000E-03 0.  1.
         11   -1    0    0    0    0 -0.00000000000E+00 -0.00000000000E+00 -0.45593999997E+02  0.45594000000E+02  0.51100000000E-03 0. -1.
    9900012    2    1    2    0    0  0.13398173667E+00  0.51269588732E-01 -0.11722380149E+01  0.90007016664E+02  0.89999268481E+02 0.  0.
        -12    1    1    2    0    0 -0.13398173667E+00 -0.51269588732E-01  0.11722380149E+01  0.11809833360E+01  0.00000000000E+00 0.  1.
         11    1    3    3    0    0  0.30816799379E+02  0.46545018935E+01 -0.27867425305E+02  0.41808287518E+02  0.51100000000E-03 0. -1.
        -11    1    3    3    0    0 -0.74699845651E+01 -0.83737369290E+01 -0.16782989231E+01  0.11346225236E+02  0.51100000000E-03 0.  1.
        -12    1    3    3    0    0 -0.23212833077E+02  0.37705046242E+01  0.28373486213E+02  0.36852503910E+02  0.00000000000E+00 0.  1.
</event>
<event>
 7    1  0.1654239E-015  0.9000767E+02  0.7816164E-02  0.1186339E+00
        -11   -1    0    0    0    0  0.00000000000E+00  0.00000000000E+00  0.45593999997E+02  0.45594000000E+02  0.51100000000E-03 0. -1.
         11   -1    0    0    0    0 -0.00000000000E+00 -0.00000000000E+00 -0.45593999997E+02  0.45594000000E+02  0.51100000000E-03 0.  1.
    9900012    2    1    2    0    0  0.11544425185E+01  0.18301511813E+00  0.16417736838E+00  0.90007666882E+02  0.89999927284E+02 0.  0.
        -12    1    1    2    0    0 -0.11544425185E+01 -0.18301511813E+00 -0.16417736838E+00  0.11803331183E+01  0.00000000000E+00 0.  1.
         11    1    3    3    0    0  0.81845267042E+01  0.47457917144E+01  0.60581081450E+00  0.94802965867E+01  0.51100000000E-03 0. -1.
        -11    1    3    3    0    0  0.30833766680E+02  0.14008636421E+02 -0.13380167321E+02  0.36414172239E+02  0.51100000000E-03 0.  1.
         12    1    3    3    0    0 -0.37863850866E+02 -0.18571413017E+02  0.12938533875E+02  0.44113198056E+02  0.00000000000E+00 0. -1.
</event>
<event>
 7    1  0.1654239E-015  0.9000779E+02  0.7816164E-02  0.1186339E+00
        -11   -1    0    0    0    0  0.00000000000E+00  0.00000000000E+00  0.45593999997E+02  0.45594000000E+02  0.51100000000E-03 0.  1.
         11   -1    0    0    0    0 -0.00000000000E+00 -0.00000000000E+00 -0.45593999997E+02  0.45594000000E+02  0.51100000000E-03 0. -1.
    9900012    2    1    2    0    0  0.43779894111E+00  0.10602670367E+01 -0.27758639923E+00  0.90007793107E+02  0.90000055176E+02 0.  0.
        -12    1    1    2    0    0 -0.43779894111E+00 -0.10602670367E+01  0.27758639923E+00  0.11802068933E+01  0.00000000000E+00 0.  1.
         11    1    3    3    0    0 -0.27961672073E+02  0.74395773103E+01  0.26670763609E+02  0.39351391938E+02  0.51100000000E-03 0. -1.
        -11    1    3    3    0    0  0.37999098764E+01  0.59415019375E+01  0.48866258077E+01  0.85802023512E+01  0.51100000000E-03 0.  1.
        -12    1    3    3    0    0  0.24599561138E+02 -0.12320812211E+02 -0.31834975816E+02  0.42076198818E+02  0.00000000000E+00 0.  1.
</event>
<event>
 7    1  0.1654239E-015  0.9000771E+02  0.7816164E-02  0.1186339E+00
        -11   -1    0    0    0    0  0.00000000000E+00  0.00000000000E+00  0.45593999997E+02  0.45594000000E+02  0.51100000000E-03 0.  1.
         11   -1    0    0    0    0 -0.00000000000E+00 -0.00000000000E+00 -0.45593999997E+02  0.45594000000E+02  0.51100000000E-03 0. -1.
    9900012    2    1    2    0    0  0.61436903916E-01  0.87638782063E+00 -0.78819380224E+00  0.90007712080E+02  0.89999973079E+02 0.  0.
        -12    1    1    2    0    0 -0.61436903916E-01 -0.87638782063E+00  0.78819380224E+00  0.11802879205E+01  0.00000000000E+00 0.  1.
         11    1    3    3    0    0  0.94093996037E+01  0.31797166459E+01  0.27002650099E+01  0.10292659046E+02  0.51100000000E-03 0. -1.
        -11    1    3    3    0    0  0.20606497373E+02 -0.28130754652E+02  0.12514956276E+02  0.37048498244E+02  0.51100000000E-03 0.  1.
         12    1    3    3    0    0 -0.29954460073E+02  0.25827425827E+02 -0.16003415088E+02  0.42666554789E+02  0.00000000000E+00 0. -1.
</event>
<event>
 7    1  0.1654239E-015  0.9000776E+02  0.7816164E-02  0.1186339E+00
        -11   -1    0    0    0    0  0.00000000000E+00  0.00000000000E+00  0.45593999997E+02  0.45594000000E+02  0.51100000000E-03 0. -1.
         11   -1    0    0    0    0 -0.00000000000E+00 -0.00000000000E+00 -0.45593999997E+02  0.45594000000E+02  0.51100000000E-03 0.  1.
    9900012    2    1    2    0    0  0.34085959001E+00  0.72525072564E+00 -0.86648508727E+00  0.90007758380E+02  0.90000019991E+02 0.  0.
        -12    1    1    2    0    0 -0.34085959001E+00 -0.72525072564E+00  0.86648508727E+00  0.11802416200E+01  0.00000000000E+00 0.  1.
         11    1    3    3    0    0  0.16694263233E+02  0.29019160562E+02  0.24207722834E+02  0.41313725924E+02  0.51100000000E-03 0. -1.
        -11    1    3    3    0    0 -0.85047173723E+00  0.25313086827E+01 -0.11184984516E+02  0.11499334968E+02  0.51100000000E-03 0.  1.
        -12    1    3    3    0    0 -0.15502931906E+02 -0.30825218519E+02 -0.13889223405E+02  0.37194697488E+02  0.00000000000E+00 0.  1.
</event>
<event>
 7    1  0.1654239E-015  0.9000774E+02  0.7816164E-02  0.1186339E+00
        -11   -1    0    0    0    0  0.00000000000E+00  0.00000000000E+00  0.45593999997E+02  0.45594000000E+02  0.51100000000E-03 0.  1.
         11   -1    0    0    0    0 -0.00000000000E+00 -0.00000000000E+00 -0.45593999997E+02  0.45594000000E+02  0.51100000000E-03 0. -1.
    9900012    2    1    2    0    0  0.55977604458E+00  0.10267807312E+01  0.15929999097E+00  0.90007743936E+02  0.90000005356E+02 0.  0.
        -12    1    1    2    0    0 -0.55977604458E+00 -0.10267807312E+01 -0.15929999097E+00  0.11802560642E+01  0.00000000000E+00 0.  1.
         11    1    3    3    0    0 -0.25296738189E+02  0.19361529476E+02 -0.16471300082E+02  0.35862201735E+02  0.51100000000E-03 0. -1.
        -11    1    3    3    0    0 -0.39809308418E+01  0.27062055925E+01 -0.85375569530E+01  0.98010835148E+01  0.51100000000E-03 0.  1.
        -12    1    3    3    0    0  0.29837445075E+02 -0.21040954338E+02  0.25168157026E+02  0.44344458686E+02  0.00000000000E+00 0.  1.
</event>
<event>
 7    1  0.1654239E-015  0.9000773E+02  0.7816164E-02  0.1186339E+00
        -11   -1    0    0    0    0  0.00000000000E+00  0.00000000000E+00  0.45593999997E+02  0.45594000000E+02  0.51100000000E-03 0. -1.
         11   -1    0    0    0    0 -0.00000000000E+00 -0.00000000000E+00 -0.45593999997E+02  0.45594000000E+02  0.51100000000E-03 0.  1.
    9900012    2    1    2    0    0 -0.40616057848E+00 -0.82271430882E+00  0.74242877274E+00  0.90007734889E+02  0.89999996190E+02 0.  0.
        -12    1    1    2    0    0  0.40616057848E+00  0.82271430882E+00 -0.74242877274E+00  0.11802651109E+01  0.00000000000E+00 0.  1.
         11    1    3    3    0    0 -0.14255721172E+01 -0.29114202241E+00 -0.91618796948E+01  0.92766944189E+01  0.51100000000E-03 0. -1.
        -11    1    3    3    0    0 -0.23680293587E+02  0.23619956673E+02 -0.16457661734E+02  0.37276175872E+02  0.51100000000E-03 0.  1.
         12    1    3    3    0    0  0.24699705126E+02 -0.24151528959E+02  0.26361970202E+02  0.43454864599E+02  0.00000000000E+00 0. -1.
</event>
<event>
 7    1  0.1654239E-015  0.9000773E+02  0.7816164E-02  0.1186339E+00
        -11   -1    0    0    0    0  0.00000000000E+00  0.00000000000E+00  0.45593999997E+02  0.45594000000E+02  0.51100000000E-03 0.  1.
         11   -1    0    0    0    0 -0.00000000000E+00 -0.00000000000E+00 -0.45593999997E+02  0.45594000000E+02  0.51100000000E-03 0. -1.
    9900012    2    1    2    0    0  0.78984535372E+00 -0.62973051611E+00 -0.61042375171E+00  0.90007731657E+02  0.89999992914E+02 0.  0.
        -12    1    1    2    0    0 -0.78984535372E+00  0.62973051611E+00  0.61042375171E+00  0.11802683434E+01  0.00000000000E+00 0.  1.
         11    1    3    3    0    0 -0.55618546095E+01  0.40307562568E+01  0.63667799916E+01  0.93657413172E+01  0.51100000000E-03 0. -1.
        -11    1    3    3    0    0  0.76023036089E+01  0.41698501900E+01  0.35856339587E+02  0.36889832740E+02  0.51100000000E-03 0.  1.
         12    1    3    3    0    0 -0.12506036457E+01 -0.88303369629E+01 -0.42833543330E+02  0.43752157599E+02  0.00000000000E+00 0. -1.
</event>
<event>
 7    1  0.1654239E-015  0.9000776E+02  0.7816164E-02  0.1186339E+00
        -11   -1    0    0    0    0  0.00000000000E+00  0.00000000000E+00  0.45593999997E+02  0.45594000000E+02  0.51100000000E-03 0.  1.
         11   -1    0    0    0    0 -0.00000000000E+00 -0.00000000000E+00 -0.45593999997E+02  0.45594000000E+02  0.51100000000E-03 0. -1.
    9900012    2    1    2    0    0 -0.56544098655E+00  0.19759623616E+00 -0.10169602566E+01  0.90007755981E+02  0.90000017560E+02 0.  0.
        -12    1    1    2    0    0  0.56544098655E+00 -0.19759623616E+00  0.10169602566E+01  0.11802440194E+01  0.00000000000E+00 0.  1.
         11    1    3    3    0    0  0.81898042116E+01  0.11734726930E+02  0.23097274305E+00  0.14311885194E+02  0.51100000000E-03 0. -1.
        -11    1    3    3    0    0  0.63020865964E+01 -0.37860809314E+02  0.15098859798E+02  0.41244790518E+02  0.51100000000E-03 0.  1.
         12    1    3    3    0    0 -0.15057331795E+02  0.26323678620E+02 -0.16346792798E+02  0.34451080268E+02  0.00000000000E+00 0. -1.
</event>
<event>
 7    1  0.1654239E-015  0.9000772E+02  0.7816164E-02  0.1186339E+00
        -11   -1    0    0    0    0  0.00000000000E+00  0.00000000000E+00  0.45593999997E+02  0.45594000000E+02  0.51100000000E-03 0. -1.
         11   -1    0    0    0    0 -0.00000000000E+00 -0.00000000000E+00 -0.45593999997E+02  0.45594000000E+02  0.51100000000E-03 0.  1.
    9900012    2    1    2    0    0 -0.17118045253E+00 -0.14533747347E+00  0.11587207154E+01  0.90007720616E+02  0.89999981728E+02 0.  0.
        -12    1    1    2    0    0  0.17118045253E+00  0.14533747347E+00 -0.11587207154E+01  0.11802793842E+01  0.00000000000E+00 0.  1.
         11    1    3    3    0    0  0.30409477741E+02 -0.19304410780E+02  0.68502412305E+01  0.36665002621E+02  0.51100000000E-03 0. -1.
        -11    1    3    3    0    0  0.72267357331E+01 -0.45449973742E+00  0.57434493903E+01  0.92422665255E+01  0.51100000000E-03 0.  1.
        -12    1    3    3    0    0 -0.37807393926E+02  0.19613573044E+02 -0.11434969905E+02  0.44100451469E+02  0.00000000000E+00 0.  1.
</event>
<event>
 7    1  0.1654239E-015  0.9000773E+02  0.7816164E-02  0.1186339E+00
        -11   -1    0    0    0    0  0.00000000000E+00  0.00000000000E+00  0.45593999997E+02  0.45594000000E+02  0.51100000000E-03 0.  1.
         11   -1    0    0    0    0 -0.00000000000E+00 -0.00000000000E+00 -0.45593999997E+02  0.45594000000E+02  0.51100000000E-03 0. -1.
    9900012    2    1    2    0    0 -0.49380539618E+00 -0.97735495006E+00 -0.44043121508E+00  0.90007726251E+02  0.89999987437E+02 0.  0.
        -12    1    1    2    0    0  0.49380539618E+00  0.97735495006E+00  0.44043121508E+00  0.11802737491E+01  0.00000000000E+00 0.  1.
         11    1    3    3    0    0  0.88701001829E+01 -0.12129169632E+02  0.97783696434E+00  0.15058273428E+02  0.51100000000E-03 0. -1.
        -11    1    3    3    0    0 -0.10515236671E+02  0.23508292800E+02  0.30962146892E+02  0.40272379779E+02  0.51100000000E-03 0.  1.
         12    1    3    3    0    0  0.11513310922E+01 -0.12356478118E+02 -0.32380415071E+02  0.34677073045E+02  0.00000000000E+00 0. -1.
</event>
<event>
 7    1  0.1654239E-015  0.9000781E+02  0.7816164E-02  0.1186339E+00
        -11   -1    0    0    0    0  0.00000000000E+00  0.00000000000E+00  0.45593999997E+02  0.45594000000E+02  0.51100000000E-03 0. -1.
         11   -1    0    0    0    0 -0.00000000000E+00 -0.00000000000E+00 -0.45593999997E+02  0.45594000000E+02  0.51100000000E-03 0.  1.
    9900012    2    1    2    0    0 -0.44814686120E+00 -0.10747498462E+01  0.19214041551E+00  0.90007813243E+02  0.90000075578E+02 0.  0.
        -12    1    1    2    0    0  0.44814686120E+00  0.10747498462E+01 -0.19214041551E+00  0.11801867566E+01  0.00000000000E+00 0.  1.
         11    1    3    3    0    0  0.51321456786E+01  0.10086542869E+02  0.39003487677E+01  0.11970379571E+02  0.51100000000E-03 0. -1.
        -11    1    3    3    0    0  0.30507348994E+02 -0.27716864154E+01 -0.21011002925E+02  0.37146235777E+02  0.51100000000E-03 0.  1.
         12    1    3    3    0    0 -0.36087641533E+02 -0.83896062995E+01  0.17302794573E+02  0.40891197895E+02  0.00000000000E+00 0. -1.
</event>
<event>
 7    1  0.1654239E-015  0.9000773E+02  0.7816164E-02  0.1186339E+00
        -11   -1    0    0    0    0  0.00000000000E+00  0.00000000000E+00  0.45593999997E+02  0.45594000000E+02  0.51100000000E-03 0.  1.
         11   -1    0    0    0    0 -0.00000000000E+00 -0.00000000000E+00 -0.45593999997E+02  0.45594000000E+02  0.51100000000E-03 0. -1.
    9900012    2    1    2    0    0  0.96155550781E+00  0.68042568618E+00 -0.73957291289E-01  0.90007729781E+02  0.89999991014E+02 0.  0.
        -12    1    1    2    0    0 -0.96155550781E+00 -0.68042568618E+00  0.73957291289E-01  0.11802702190E+01  0.00000000000E+00 0.  1.
         11    1    3    3    0    0  0.40928903846E+01  0.57410402875E+01  0.83033343940E+01  0.10892963674E+02  0.51100000000E-03 0. -1.
        -11    1    3    3    0    0 -0.97788025672E+01  0.26093872724E+02  0.21688308736E+02  0.35311441623E+02  0.51100000000E-03 0.  1.
         12    1    3    3    0    0  0.66474676903E+01 -0.31154487325E+02 -0.30065600421E+02  0.43803324484E+02  0.00000000000E+00 0. -1.
</event>
<event>
 7    1  0.1654239E-015  0.9000767E+02  0.7816164E-02  0.1186339E+00
        -11   -1    0    0    0    0  0.00000000000E+00  0.00000000000E+00  0.45593999997E+02  0.45594000000E+02  0.51100000000E-03 0.  1.
         11   -1    0    0    0    0 -0.00000000000E+00 -0.00000000000E+00 -0.45593999997E+02  0.45594000000E+02  0.51100000000E-03 0. -1.
    9900012    2    1    2    0    0  0.24462785438E+00  0.11152038143E+01 -0.29943935141E+00  0.90007666886E+02  0.89999927289E+02 0.  0.
        -12    1    1    2    0    0 -0.24462785438E+00 -0.11152038143E+01  0.29943935141E+00  0.11803331139E+01  0.00000000000E+00 0.  1.
         11    1    3    3    0    0  0.29173163470E+01 -0.61280448121E+01 -0.93625668217E+01  0.11563793739E+02  0.51100000000E-03 0. -1.
        -11    1    3    3    0    0 -0.26373317878E+02 -0.25741976478E+02  0.85076321077E+01  0.37823022793E+02  0.51100000000E-03 0.  1.
         12    1    3    3    0    0  0.23700629385E+02  0.32985225104E+02  0.55549536251E+00  0.40620850354E+02  0.00000000000E+00 0. -1.
</event>
<event>
 7    1  0.1654239E-015  0.9000777E+02  0.7816164E-02  0.1186339E+00
        -11   -1    0    0    0    0  0.00000000000E+00  0.00000000000E+00  0.45593999997E+02  0.45594000000E+02  0.51100000000E-03 0.  1.
         11   -1    0    0    0    0 -0.00000000000E+00 -0.00000000000E+00 -0.45593999997E+02  0.45594000000E+02  0.51100000000E-03 0. -1.
    9900012    2    1    2    0    0 -0.32766748274E+00 -0.83991793358E+00 -0.76165266843E+00  0.90007769979E+02  0.90000031743E+02 0.  0.
        -12    1    1    2    0    0  0.32766748274E+00  0.83991793358E+00  0.76165266843E+00  0.11802300207E+01  0.00000000000E+00 0.  1.
         11    1    3    3    0    0 -0.26908575908E+01 -0.40585733431E+01 -0.15351104886E+02  0.16104941901E+02  0.51100000000E-03 0. -1.
        -11    1    3    3    0    0 -0.26951876166E+02  0.50193861405E+00 -0.16081151089E+02  0.31388835465E+02  0.51100000000E-03 0.  1.
        -12    1    3    3    0    0  0.29315066274E+02  0.27167167955E+01  0.30670603306E+02  0.42513992614E+02  0.00000000000E+00 0.  1.
</event>
<event>
 7    1  0.1654239E-015  0.9000787E+02  0.7816164E-02  0.1186339E+00
        -11   -1    0    0    0    0  0.00000000000E+00  0.00000000000E+00  0.45593999997E+02  0.45594000000E+02  0.51100000000E-03 0.  1.
         11   -1    0    0    0    0 -0.00000000000E+00 -0.00000000000E+00 -0.45593999997E+02  0.45594000000E+02  0.51100000000E-03 0. -1.
    9900012    2    1    2    0    0 -0.90011228643E+00 -0.48599684956E+00 -0.58848929569E+00  0.90007866653E+02  0.90000129693E+02 0.  0.
        -12    1    1    2    0    0  0.90011228643E+00  0.48599684956E+00  0.58848929569E+00  0.11801333472E+01  0.00000000000E+00 0.  1.
         11    1    3    3    0    0 -0.10420712969E+02  0.35792836319E+02 -0.13424781079E+02  0.39622507970E+02  0.51100000000E-03 0. -1.
        -11    1    3    3    0    0  0.69421144041E+01 -0.22222896575E+01  0.14459430355E+02  0.16192796243E+02  0.51100000000E-03 0.  1.
        -12    1    3    3    0    0  0.25784862787E+01 -0.34056543511E+02 -0.16231385720E+01  0.34192562440E+02  0.00000000000E+00 0.  1.
</event>
<event>
 7    1  0.1654239E-015  0.9000737E+02  0.7816164E-02  0.1186340E+00
        -11   -1    0    0    0    0  0.00000000000E+00  0.00000000000E+00  0.45593999997E+02  0.45594000000E+02  0.51100000000E-03 0.  1.
         11   -1    0    0    0    0 -0.00000000000E+00 -0.00000000000E+00 -0.45593999997E+02  0.45594000000E+02  0.51100000000E-03 0. -1.
    9900012    2    1    2    0    0  0.31622940251E+00  0.95235906378E+00 -0.62200276455E+00  0.90007374632E+02  0.89999631176E+02 0.  0.
        -12    1    1    2    0    0 -0.31622940251E+00 -0.95235906378E+00  0.62200276455E+00  0.11806253684E+01  0.00000000000E+00 0.  1.
         11    1    3    3    0    0 -0.29594582798E+00 -0.21650077077E+01  0.93211815274E+01  0.95738846679E+01  0.51100000000E-03 0. -1.
        -11    1    3    3    0    0 -0.19215609486E+01 -0.19419749555E+01  0.35014605694E+02  0.35121023267E+02  0.51100000000E-03 0.  1.
         12    1    3    3    0    0  0.25337361791E+01  0.50593417269E+01 -0.44957789985E+02  0.45312466696E+02  0.00000000000E+00 0. -1.
</event>
<event>
 7    1  0.1654239E-015  0.9000807E+02  0.7816164E-02  0.1186338E+00
        -11   -1    0    0    0    0  0.00000000000E+00  0.00000000000E+00  0.45593999997E+02  0.45594000000E+02  0.51100000000E-03 0.  1.
         11   -1    0    0    0    0 -0.00000000000E+00 -0.00000000000E+00 -0.45593999997E+02  0.45594000000E+02  0.51100000000E-03 0. -1.
    9900012    2    1    2    0    0 -0.45608806723E+00  0.10562252686E+01 -0.26192377943E+00  0.90008071100E+02  0.90000336838E+02 0.  0.
        -12    1    1    2    0    0  0.45608806723E+00 -0.10562252686E+01  0.26192377943E+00  0.11799289001E+01  0.00000000000E+00 0.  1.
         11    1    3    3    0    0  0.45613152709E+01 -0.11658532387E+01  0.76003975066E+01  0.89404056560E+01  0.51100000000E-03 0. -1.
        -11    1    3    3    0    0  0.15898018443E+02  0.14948114918E+02 -0.37033158165E+02  0.42984275426E+02  0.51100000000E-03 0.  1.
         12    1    3    3    0    0 -0.20915421781E+02 -0.12726036411E+02  0.29170836879E+02  0.38083390017E+02  0.00000000000E+00 0. -1.
</event>
<event>
 7    1  0.1654239E-015  0.9000780E+02  0.7816164E-02  0.1186339E+00
        -11   -1    0    0    0    0  0.00000000000E+00  0.00000000000E+00  0.45593999997E+02  0.45594000000E+02  0.51100000000E-03 0.  1.
         11   -1    0    0    0    0 -0.00000000000E+00 -0.00000000000E+00 -0.45593999997E+02  0.45594000000E+02  0.51100000000E-03 0. -1.
    9900012    2    1    2    0    0 -0.10152170967E+00  0.13733364129E+00 -0.11677812691E+01  0.90007796510E+02  0.90000058623E+02 0.  0.
        -12    1    1    2    0    0  0.10152170967E+00 -0.13733364129E+00  0.11677812691E+01  0.11802034905E+01  0.00000000000E+00 0.  1.
         11    1    3    3    0    0  0.26767438008E+02 -0.24339779088E+02  0.21363442017E+02  0.42015678485E+02  0.51100000000E-03 0. -1.
        -11    1    3    3    0    0  0.31121881132E+01  0.65565331928E+01 -0.56514698434E+01  0.91985299920E+01  0.51100000000E-03 0.  1.
        -12    1    3    3    0    0 -0.29981147830E+02  0.17920579536E+02 -0.16879753442E+02  0.38793588032E+02  0.00000000000E+00 0.  1.
</event>
<event>
 7    1  0.1654239E-015  0.9000792E+02  0.7816164E-02  0.1186339E+00
        -11   -1    0    0    0    0  0.00000000000E+00  0.00000000000E+00  0.45593999997E+02  0.45594000000E+02  0.51100000000E-03 0. -1.
         11   -1    0    0    0    0 -0.00000000000E+00 -0.00000000000E+00 -0.45593999997E+02  0.45594000000E+02  0.51100000000E-03 0.  1.
    9900012    2    1    2    0    0  0.11207122667E+01  0.27530194902E+00  0.24656876473E+00  0.90007922332E+02  0.90000186106E+02 0.  0.
        -12    1    1    2    0    0 -0.11207122667E+01 -0.27530194902E+00 -0.24656876473E+00  0.11800776685E+01  0.00000000000E+00 0.  1.
         11    1    3    3    0    0 -0.27293640611E+02 -0.24630572937E+02  0.13303713512E+02  0.39097272725E+02  0.51100000000E-03 0. -1.
        -11    1    3    3    0    0  0.10773069809E+02  0.65257754144E+00  0.86970974880E+01  0.13860894471E+02  0.51100000000E-03 0.  1.
        -12    1    3    3    0    0  0.17641283069E+02  0.24253297345E+02 -0.21754242235E+02  0.37049755136E+02  0.00000000000E+00 0.  1.
</event>
<event>
 7    1  0.1654239E-015  0.9000769E+02  0.7816164E-02  0.1186339E+00
        -11   -1    0    0    0    0  0.00000000000E+00  0.00000000000E+00  0.45593999997E+02  0.45594000000E+02  0.51100000000E-03 0.  1.
         11   -1    0    0    0    0 -0.00000000000E+00 -0.00000000000E+00 -0.45593999997E+02  0.45594000000E+02  0.51100000000E-03 0. -1.
    9900012    2    1    2    0    0  0.11716367170E+01  0.10581484396E+00 -0.95906792065E-01  0.90007691781E+02  0.89999952513E+02 0.  0.
        -12    1    1    2    0    0 -0.11716367170E+01 -0.10581484396E+00  0.95906792065E-01  0.11803082185E+01  0.00000000000E+00 0.  1.
         11    1    3    3    0    0 -0.58535604896E+01 -0.63638321457E+01  0.64768647890E+01  0.10803347062E+02  0.51100000000E-03 0. -1.
        -11    1    3    3    0    0 -0.60514665671E+01 -0.53569376207E+01  0.34009953629E+02  0.34957030400E+02  0.51100000000E-03 0.  1.
         12    1    3    3    0    0  0.13076663774E+02  0.11826584610E+02 -0.40582725210E+02  0.44247314319E+02  0.00000000000E+00 0. -1.
</event>
<event>
 7    1  0.1654239E-015  0.9000775E+02  0.7816164E-02  0.1186339E+00
        -11   -1    0    0    0    0  0.00000000000E+00  0.00000000000E+00  0.45593999997E+02  0.45594000000E+02  0.51100000000E-03 0. -1.
         11   -1    0    0    0    0 -0.00000000000E+00 -0.00000000000E+00 -0.45593999997E+02  0.45594000000E+02  0.51100000000E-03 0.  1.
    9900012    2    1    2    0    0 -0.80000440601E+00  0.68839365812E-01  0.86500671853E+00  0.90007753191E+02  0.90000014733E+02 0.  0.
        -12    1    1    2    0    0  0.80000440601E+00 -0.68839365812E-01 -0.86500671853E+00  0.11802468094E+01  0.00000000000E+00 0.  1.
         11    1    3    3    0    0  0.27460436765E+00  0.32695964432E+01 -0.87767999625E+01  0.93700526307E+01  0.51100000000E-03 0. -1.
        -11    1    3    3    0    0  0.26890676156E+02  0.12653108503E+02  0.30287163736E+02  0.42432557150E+02  0.51100000000E-03 0.  1.
         12    1    3    3    0    0 -0.27965284930E+02 -0.15853865580E+02 -0.20645357055E+02  0.38205143410E+02  0.00000000000E+00 0. -1.
</event>
<event>
 7    1  0.1654239E-015  0.9000773E+02  0.7816164E-02  0.1186339E+00
        -11   -1    0    0    0    0  0.00000000000E+00  0.00000000000E+00  0.45593999997E+02  0.45594000000E+02  0.51100000000E-03 0.  1.
         11   -1    0    0    0    0 -0.00000000000E+00 -0.00000000000E+00 -0.45593999997E+02  0.45594000000E+02  0.51100000000E-03 0. -1.
    9900012    2    1    2    0    0 -0.88117440462E+00  0.61317464723E+00  0.49048870979E+00  0.90007732804E+02  0.89999994077E+02 0.  0.
        -12    1    1    2    0    0  0.88117440462E+00 -0.61317464723E+00 -0.49048870979E+00  0.11802671959E+01  0.00000000000E+00 0.  1.
         11    1    3    3    0    0 -0.20449589853E+01 -0.30925289705E+02 -0.20131663820E+02  0.36957263008E+02  0.51100000000E-03 0. -1.
        -11    1    3    3    0    0  0.37383256453E+01 -0.78379129399E+01  0.35838370877E+00  0.86911677597E+01  0.51100000000E-03 0.  1.
        -12    1    3    3    0    0 -0.25745410645E+01  0.39376377292E+02  0.20263768821E+02  0.44359302037E+02  0.00000000000E+00 0.  1.
</event>
<event>
 7    1  0.1654239E-015  0.9000776E+02  0.7816164E-02  0.1186339E+00
        -11   -1    0    0    0    0  0.00000000000E+00  0.00000000000E+00  0.45593999997E+02  0.45594000000E+02  0.51100000000E-03 0.  1.
         11   -1    0    0    0    0 -0.00000000000E+00 -0.00000000000E+00 -0.45593999997E+02  0.45594000000E+02  0.51100000000E-03 0. -1.
    9900012    2    1    2    0    0  0.20417065754E+00  0.10597610383E+01 -0.47768262630E+00  0.90007762817E+02  0.90000024487E+02 0.  0.
        -12    1    1    2    0    0 -0.20417065754E+00 -0.10597610383E+01  0.47768262630E+00  0.11802371826E+01  0.00000000000E+00 0.  1.
         11    1    3    3    0    0  0.59741619231E+01 -0.37222593594E+01  0.47734681254E+01  0.85048117926E+01  0.51100000000E-03 0. -1.
        -11    1    3    3    0    0  0.11351385963E+02 -0.24752514349E+02  0.24189271342E+02  0.36423368573E+02  0.51100000000E-03 0.  1.
         12    1    3    3    0    0 -0.17121377228E+02  0.29534534747E+02 -0.29440422094E+02  0.45079582451E+02  0.00000000000E+00 0. -1.
</event>
<event>
 7    1  0.1654239E-015  0.9000767E+02  0.7816164E-02  0.1186339E+00
        -11   -1    0    0    0    0  0.00000000000E+00  0.00000000000E+00  0.45593999997E+02  0.45594000000E+02  0.51100000000E-03 0. -1.
         11   -1    0    0    0    0 -0.00000000000E+00 -0.00000000000E+00 -0.45593999997E+02  0.45594000000E+02  0.51100000000E-03 0.  1.
    9900012    2    1    2    0    0  0.10012416412E+01 -0.15134649183E+00  0.60644661046E+00  0.90007674589E+02  0.89999935093E+02 0.  0.
        -12    1    1    2    0    0 -0.10012416412E+01  0.15134649183E+00 -0.60644661046E+00  0.11803254111E+01  0.00000000000E+00 0.  1.
         11    1    3    3    0    0  0.43965484376E+01  0.22513663335E+01  0.89654006242E+01  0.10236048903E+02  0.51100000000E-03 0. -1.
        -11    1    3    3    0    0  0.68803869684E+01 -0.39749892148E+02 -0.10597976303E+01  0.40354885973E+02  0.51100000000E-03 0.  1.
         12    1    3    3    0    0 -0.10275693765E+02  0.37347179323E+02 -0.72991563834E+01  0.39416739713E+02  0.00000000000E+00 0. -1.
</event>
<event>
 7    1  0.1654239E-015  0.9000753E+02  0.7816164E-02  0.1186339E+00
        -11   -1    0    0    0    0  0.00000000000E+00  0.00000000000E+00  0.45593999997E+02  0.45594000000E+02  0.51100000000E-03 0.  1.
         11   -1    0    0    0    0 -0.00000000000E+00 -0.00000000000E+00 -0.45593999997E+02  0.45594000000E+02  0.51100000000E-03 0. -1.
    9900012    2    1    2    0    0  0.94215702469E+00  0.31541146154E+00  0.63747389217E+00  0.90007526700E+02  0.89999785252E+02 0.  0.
        -12    1    1    2    0    0 -0.94215702469E+00 -0.31541146154E+00 -0.63747389217E+00  0.11804733002E+01  0.00000000000E+00 0.  1.
         11    1    3    3    0    0 -0.20449463537E+02  0.27027103428E+02  0.32214823469E+01  0.34044424322E+02  0.51100000000E-03 0. -1.
        -11    1    3    3    0    0 -0.10387999583E+02  0.28099375008E+01 -0.62293463966E+01  0.12434268811E+02  0.51100000000E-03 0.  1.
        -12    1    3    3    0    0  0.31779620145E+02 -0.29521629467E+02  0.36453379419E+01  0.43528833566E+02  0.00000000000E+00 0.  1.
</event>
<event>
 7    1  0.1654239E-015  0.9000784E+02  0.7816164E-02  0.1186339E+00
        -11   -1    0    0    0    0  0.00000000000E+00  0.00000000000E+00  0.45593999997E+02  0.45594000000E+02  0.51100000000E-03 0. -1.
         11   -1    0    0    0    0 -0.00000000000E+00 -0.00000000000E+00 -0.45593999997E+02  0.45594000000E+02  0.51100000000E-03 0.  1.
    9900012    2    1    2    0    0 -0.18097196797E-01 -0.88990681577E+00  0.77492452527E+00  0.90007843371E+02  0.90000106103E+02 0.  0.
        -12    1    1    2    0    0  0.18097196797E-01  0.88990681577E+00 -0.77492452527E+00  0.11801566291E+01  0.00000000000E+00 0.  1.
         11    1    3    3    0    0  0.15295826652E+02  0.18338115074E+01  0.32775717065E+02  0.36215643126E+02  0.51100000000E-03 0. -1.
        -11    1    3    3    0    0  0.79630316774E+01  0.60328167032E+01  0.33789290778E+01  0.10546180012E+02  0.51100000000E-03 0.  1.
        -12    1    3    3    0    0 -0.23276955527E+02 -0.87565350264E+01 -0.35379721618E+02  0.43246020233E+02  0.00000000000E+00 0.  1.
</event>
<event>
 7    1  0.1654239E-015  0.9000778E+02  0.7816164E-02  0.1186339E+00
        -11   -1    0    0    0    0  0.00000000000E+00  0.00000000000E+00  0.45593999997E+02  0.45594000000E+02  0.51100000000E-03 0.  1.
         11   -1    0    0    0    0 -0.00000000000E+00 -0.00000000000E+00 -0.45593999997E+02  0.45594000000E+02  0.51100000000E-03 0. -1.
    9900012    2    1    2    0    0  0.15483631790E-01  0.11749757789E+01 -0.11003906034E+00  0.90007781199E+02  0.90000043111E+02 0.  0.
        -12    1    1    2    0    0 -0.15483631790E-01 -0.11749757789E+01  0.11003906034E+00  0.11802188012E+01  0.00000000000E+00 0.  1.
         11    1    3    3    0    0  0.58905055373E+01  0.29918565433E+00 -0.87699528741E+01  0.10568805099E+02  0.51100000000E-03 0. -1.
        -11    1    3    3    0    0  0.13769904223E+02  0.27696146684E+02  0.27360387610E+02  0.41295007130E+02  0.51100000000E-03 0.  1.
         12    1    3    3    0    0 -0.19644926128E+02 -0.26820356560E+02 -0.18700473796E+02  0.38143968970E+02  0.00000000000E+00 0. -1.
</event>
<event>
 7    1  0.1654239E-015  0.9000778E+02  0.7816164E-02  0.1186339E+00
        -11   -1    0    0    0    0  0.00000000000E+00  0.00000000000E+00  0.45593999997E+02  0.45594000000E+02  0.51100000000E-03 0.  1.
         11   -1    0    0    0    0 -0.00000000000E+00 -0.00000000000E+00 -0.45593999997E+02  0.45594000000E+02  0.51100000000E-03 0. -1.
    9900012    2    1    2    0    0 -0.23343091102E+00 -0.93957718701E+00 -0.67499954719E+00  0.90007779822E+02  0.90000041715E+02 0.  0.
        -12    1    1    2    0    0  0.23343091102E+00  0.93957718701E+00  0.67499954719E+00  0.11802201783E+01  0.00000000000E+00 0.  1.
         11    1    3    3    0    0  0.58680338662E+01  0.44248907354E+01 -0.76145337488E+01  0.10582750302E+02  0.51100000000E-03 0. -1.
        -11    1    3    3    0    0 -0.26243194872E+02 -0.23949558724E+02 -0.20187763142E+02  0.40863583068E+02  0.51100000000E-03 0.  1.
         12    1    3    3    0    0  0.20141730095E+02  0.18585090802E+02  0.27127297344E+02  0.38561446452E+02  0.00000000000E+00 0. -1.
</event>
<event>
 7    1  0.1654239E-015  0.9000767E+02  0.7816164E-02  0.1186339E+00
        -11   -1    0    0    0    0  0.00000000000E+00  0.00000000000E+00  0.45593999997E+02  0.45594000000E+02  0.51100000000E-03 0. -1.
         11   -1    0    0    0    0 -0.00000000000E+00 -0.00000000000E+00 -0.45593999997E+02  0.45594000000E+02  0.51100000000E-03 0.  1.
    9900012    2    1    2    0    0 -0.10912302210E+01  0.43918532589E+00  0.97544048830E-01  0.90007668696E+02  0.89999929123E+02 0.  0.
        -12    1    1    2    0    0  0.10912302210E+01 -0.43918532589E+00 -0.97544048830E-01  0.11803313039E+01  0.00000000000E+00 0.  1.
         11    1    3    3    0    0 -0.16282590212E+01 -0.47460095717E+01  0.75792777177E+01  0.90896251451E+01  0.51100000000E-03 0. -1.
        -11    1    3    3    0    0  0.31044951285E+01 -0.31768751391E+02 -0.24416293338E+02  0.40187645310E+02  0.51100000000E-03 0.  1.
         12    1    3    3    0    0 -0.25674663283E+01  0.36953946288E+02  0.16934559670E+02  0.40730398241E+02  0.00000000000E+00 0. -1.
</event>
<event>
 7    1  0.1654239E-015  0.9000765E+02  0.7816164E-02  0.1186339E+00
        -11   -1    0    0    0    0  0.00000000000E+00  0.00000000000E+00  0.45593999997E+02  0.45594000000E+02  0.51100000000E-03 0. -1.
         11   -1    0    0    0    0 -0.00000000000E+00 -0.00000000000E+00 -0.45593999997E+02  0.45594000000E+02  0.51100000000E-03 0.  1.
    9900012    2    1    2    0    0 -0.46445554930E-01  0.99716911246E+00 -0.62986023932E+00  0.90007649480E+02  0.89999909653E+02 0.  0.
        -12    1    1    2    0    0  0.46445554930E-01 -0.99716911246E+00  0.62986023932E+00  0.11803505198E+01  0.00000000000E+00 0.  1.
         11    1    3    3    0    0 -0.84472298883E+01  0.29827532290E+02  0.34807959204E+01  0.31195405364E+02  0.51100000000E-03 0. -1.
        -11    1    3    3    0    0 -0.82152251623E+01  0.81998110075E+01  0.10523316132E+02  0.15667386754E+02  0.51100000000E-03 0.  1.
        -12    1    3    3    0    0  0.16616009496E+02 -0.37030174186E+02 -0.14633972292E+02  0.43144857362E+02  0.00000000000E+00 0.  1.
</event>
<event>
 7    1  0.1654239E-015  0.9000777E+02  0.7816164E-02  0.1186339E+00
        -11   -1    0    0    0    0  0.00000000000E+00  0.00000000000E+00  0.45593999997E+02  0.45594000000E+02  0.51100000000E-03 0.  1.
         11   -1    0    0    0    0 -0.00000000000E+00 -0.00000000000E+00 -0.45593999997E+02  0.45594000000E+02  0.51100000000E-03 0. -1.
    9900012    2    1    2    0    0  0.46130687264E+00  0.69349141295E+00 -0.83619186266E+00  0.90007766463E+02  0.90000028180E+02 0.  0.
        -12    1    1    2    0    0 -0.46130687264E+00 -0.69349141295E+00  0.83619186266E+00  0.11802335370E+01  0.00000000000E+00 0.  1.
         11    1    3    3    0    0 -0.16260608315E+02 -0.45003907114E+00 -0.33915828114E+02  0.37615067657E+02  0.51100000000E-03 0. -1.
        -11    1    3    3    0    0  0.19086062683E+01  0.88868955850E+01 -0.53065248353E+01  0.10525155444E+02  0.51100000000E-03 0.  1.
        -12    1    3    3    0    0  0.14813308919E+02 -0.77433651009E+01  0.38386161087E+02  0.41867543362E+02  0.00000000000E+00 0.  1.
</event>
<event>
 7    1  0.1654239E-015  0.9000768E+02  0.7816164E-02  0.1186339E+00
        -11   -1    0    0    0    0  0.00000000000E+00  0.00000000000E+00  0.45593999997E+02  0.45594000000E+02  0.51100000000E-03 0. -1.
         11   -1    0    0    0    0 -0.00000000000E+00 -0.00000000000E+00 -0.45593999997E+02  0.45594000000E+02  0.51100000000E-03 0.  1.
    9900012    2    1    2    0    0 -0.98685747088E+00 -0.12885994722E+00  0.63455995204E+00  0.90007678482E+02  0.89999939038E+02 0.  0.
        -12    1    1    2    0    0  0.98685747088E+00  0.12885994722E+00 -0.63455995204E+00  0.11803215183E+01  0.00000000000E+00 0.  1.
         11    1    3    3    0    0  0.12165795751E+02 -0.14569865724E+02 -0.35103953346E+01  0.19303120192E+02  0.51100000000E-03 0. -1.
        -11    1    3    3    0    0  0.22278827151E+02 -0.85872896475E+01 -0.10359639890E+02  0.26027097834E+02  0.51100000000E-03 0.  1.
         12    1    3    3    0    0 -0.35431480373E+02  0.23028295424E+02  0.14504595177E+02  0.44677460456E+02  0.00000000000E+00 0. -1.
</event>
<event>
 7    1  0.1654239E-015  0.9000785E+02  0.7816164E-02  0.1186339E+00
        -11   -1    0    0    0    0  0.00000000000E+00  0.00000000000E+00  0.45593999997E+02  0.45594000000E+02  0.51100000000E-03 0.  1.
         11   -1    0    0    0    0 -0.00000000000E+00 -0.00000000000E+00 -0.45593999997E+02  0.45594000000E+02  0.51100000000E-03 0. -1.
    9900012    2    1    2    0    0 -0.32289749358E+00  0.29608525716E+00 -0.10958222902E+01  0.90007849263E+02  0.90000112073E+02 0.  0.
        -12    1    1    2    0    0  0.32289749358E+00 -0.29608525716E+00  0.10958222902E+01  0.11801507372E+01  0.00000000000E+00 0.  1.
         11    1    3    3    0    0  0.27357309801E+02 -0.16879151651E+02  0.19094295524E+02  0.37388772136E+02  0.51100000000E-03 0. -1.
        -11    1    3    3    0    0 -0.87251857593E+00 -0.90013268496E+01  0.17334686133E+01  0.92081533118E+01  0.51100000000E-03 0.  1.
        -12    1    3    3    0    0 -0.26807688719E+02  0.26176563758E+02 -0.21923586428E+02  0.43410923815E+02  0.00000000000E+00 0.  1.
</event>
<event>
 7    1  0.1654239E-015  0.9000764E+02  0.7816164E-02  0.1186339E+00
        -11   -1    0    0    0    0  0.00000000000E+00  0.00000000000E+00  0.45593999997E+02  0.45594000000E+02  0.51100000000E-03 0.  1.
         11   -1    0    0    0    0 -0.00000000000E+00 -0.00000000000E+00 -0.45593999997E+02  0.45594000000E+02  0.51100000000E-03 0. -1.
    9900012    2    1    2    0    0 -0.22160387528E+00  0.38875959018E+00 -0.10922496970E+01  0.90007639167E+02  0.89999899204E+02 0.  0.
        -12    1    1    2    0    0  0.22160387528E+00 -0.38875959018E+00  0.10922496970E+01  0.11803608334E+01  0.00000000000E+00 0.  1.
         11    1    3    3    0    0 -0.11456590109E+02  0.30501059680E+02 -0.17913453597E+02  0.37181445891E+02  0.51100000000E-03 0. -1.
        -11    1    3    3    0    0 -0.76898479075E+00  0.89860914196E+01  0.14566129388E+01  0.91358030914E+01  0.51100000000E-03 0.  1.
        -12    1    3    3    0    0  0.12003971024E+02 -0.39098391510E+02  0.15364590962E+02  0.43690390184E+02  0.00000000000E+00 0.  1.
</event>
<event>
 7    1  0.1654239E-015  0.9000773E+02  0.7816164E-02  0.1186339E+00
        -11   -1    0    0    0    0  0.00000000000E+00  0.00000000000E+00  0.45593999997E+02  0.45594000000E+02  0.51100000000E-03 0.  1.
         11   -1    0    0    0    0 -0.00000000000E+00 -0.00000000000E+00 -0.45593999997E+02  0.45594000000E+02  0.51100000000E-03 0. -1.
    9900012    2    1    2    0    0  0.51748760505E+00 -0.10309412211E+01 -0.24978801966E+00  0.90007734234E+02  0.89999995526E+02 0.  0.
        -12    1    1    2    0    0 -0.51748760505E+00  0.10309412211E+01  0.24978801966E+00  0.11802657657E+01  0.00000000000E+00 0.  1.
         11    1    3    3    0    0  0.16301098915E+01  0.79331690921E+01 -0.45030520682E+01  0.92666017661E+01  0.51100000000E-03 0. -1.
        -11    1    3    3    0    0  0.27489089816E+02 -0.23919070763E+02  0.23312889045E+02  0.43258095208E+02  0.51100000000E-03 0.  1.
         12    1    3    3    0    0 -0.28601712102E+02  0.14954960450E+02 -0.19059624997E+02  0.37483037261E+02  0.00000000000E+00 0. -1.
</event>
<event>
 7    1  0.1654239E-015  0.9000772E+02  0.7816164E-02  0.1186339E+00
        -11   -1    0    0    0    0  0.00000000000E+00  0.00000000000E+00  0.45593999997E+02  0.45594000000E+02  0.51100000000E-03 0.  1.
         11   -1    0    0    0    0 -0.00000000000E+00 -0.00000000000E+00 -0.45593999997E+02  0.45594000000E+02  0.51100000000E-03 0. -1.
    9900012    2    1    2    0    0 -0.53487264874E+00  0.89430928086E+00 -0.55424146442E+00  0.90007719762E+02  0.89999980862E+02 0.  0.
        -12    1    1    2    0    0  0.53487264874E+00 -0.89430928086E+00  0.55424146442E+00  0.11802802384E+01  0.00000000000E+00 0.  1.
         11    1    3    3    0    0  0.18180341839E+01  0.14633201700E+01 -0.82943683358E+01  0.86164436147E+01  0.51100000000E-03 0. -1.
        -11    1    3    3    0    0 -0.11275910398E+01  0.14695136997E+02  0.41651784182E+02  0.44182458495E+02  0.51100000000E-03 0.  1.
         12    1    3    3    0    0 -0.12253157928E+01 -0.15264147886E+02 -0.33911657310E+02  0.37208817652E+02  0.00000000000E+00 0. -1.
</event>
<event>
 7    1  0.1654239E-015  0.9000761E+02  0.7816164E-02  0.1186339E+00
        -11   -1    0    0    0    0  0.00000000000E+00  0.00000000000E+00  0.45593999997E+02  0.45594000000E+02  0.51100000000E-03 0.  1.
         11   -1    0    0    0    0 -0.00000000000E+00 -0.00000000000E+00 -0.45593999997E+02  0.45594000000E+02  0.51100000000E-03 0. -1.
    9900012    2    1    2    0    0  0.88521600746E+00  0.57448630213E+00 -0.52884759877E+00  0.90007609525E+02  0.89999869170E+02 0.  0.
        -12    1    1    2    0    0 -0.88521600746E+00 -0.57448630213E+00  0.52884759877E+00  0.11803904752E+01  0.00000000000E+00 0.  1.
         11    1    3    3    0    0 -0.19154078881E+02 -0.32618215641E+02 -0.79829762033E+01  0.38659470233E+02  0.51100000000E-03 0. -1.
        -11    1    3    3    0    0 -0.19423187904E+01 -0.51735620388E+01  0.43303916625E+01  0.70207292118E+01  0.51100000000E-03 0.  1.
        -12    1    3    3    0    0  0.21981613679E+02  0.38366263982E+02  0.31237369420E+01  0.44327410080E+02  0.00000000000E+00 0.  1.
</event>
<event>
 7    1  0.1654239E-015  0.9000770E+02  0.7816164E-02  0.1186339E+00
        -11   -1    0    0    0    0  0.00000000000E+00  0.00000000000E+00  0.45593999997E+02  0.45594000000E+02  0.51100000000E-03 0.  1.
         11   -1    0    0    0    0 -0.00000000000E+00 -0.00000000000E+00 -0.45593999997E+02  0.45594000000E+02  0.51100000000E-03 0. -1.
    9900012    2    1    2    0    0  0.37525767454E+00 -0.47772563096E+00 -0.10119652045E+01  0.90007697634E+02  0.89999958442E+02 0.  0.
        -12    1    1    2    0    0 -0.37525767454E+00  0.47772563096E+00  0.10119652045E+01  0.11803023663E+01  0.00000000000E+00 0.  1.
         11    1    3    3    0    0  0.22684380577E+01  0.90733820981E+00  0.19039910217E+02  0.19196021858E+02  0.51100000000E-03 0. -1.
        -11    1    3    3    0    0 -0.16270738212E+02  0.28394516328E+02 -0.12023018378E+01  0.32747992449E+02  0.51100000000E-03 0.  1.
         12    1    3    3    0    0  0.14377557829E+02 -0.29779580169E+02 -0.18849573583E+02  0.38063683327E+02  0.00000000000E+00 0. -1.
</event>
<event>
 7    1  0.1654239E-015  0.9000770E+02  0.7816164E-02  0.1186339E+00
        -11   -1    0    0    0    0  0.00000000000E+00  0.00000000000E+00  0.45593999997E+02  0.45594000000E+02  0.51100000000E-03 0.  1.
         11   -1    0    0    0    0 -0.00000000000E+00 -0.00000000000E+00 -0.45593999997E+02  0.45594000000E+02  0.51100000000E-03 0. -1.
    9900012    2    1    2    0    0 -0.58509484794E+00 -0.91334970724E+00  0.46535791758E+00  0.90007702724E+02  0.89999963600E+02 0.  0.
        -12    1    1    2    0    0  0.58509484794E+00  0.91334970724E+00 -0.46535791758E+00  0.11802972762E+01  0.00000000000E+00 0.  1.
         11    1    3    3    0    0 -0.83132258595E+01  0.31369689490E+01  0.70071385706E+01  0.11315930787E+02  0.51100000000E-03 0. -1.
        -11    1    3    3    0    0 -0.71315896142E+01 -0.25090809573E+02  0.26240850956E+02  0.36999872360E+02  0.51100000000E-03 0.  1.
         12    1    3    3    0    0  0.14859720626E+02  0.21040490917E+02 -0.32782631609E+02  0.41691899577E+02  0.00000000000E+00 0. -1.
</event>
<event>
 7    1  0.1654239E-015  0.9000781E+02  0.7816164E-02  0.1186339E+00
        -11   -1    0    0    0    0  0.00000000000E+00  0.00000000000E+00  0.45593999997E+02  0.45594000000E+02  0.51100000000E-03 0. -1.
         11   -1    0    0    0    0 -0.00000000000E+00 -0.00000000000E+00 -0.45593999997E+02  0.45594000000E+02  0.51100000000E-03 0.  1.
    9900012    2    1    2    0    0 -0.52336485446E+00  0.81136595985E+00  0.67868725603E+00  0.90007812776E+02  0.90000075105E+02 0.  0.
        -12    1    1    2    0    0  0.52336485446E+00 -0.81136595985E+00 -0.67868725603E+00  0.11801872238E+01  0.00000000000E+00 0.  1.
         11    1    3    3    0    0  0.94695159543E+01  0.36808206821E+01  0.48851257421E+01  0.11273181764E+02  0.51100000000E-03 0. -1.
        -11    1    3    3    0    0  0.78102336070E+01 -0.32623552653E+02 -0.21645322117E+02  0.39922623993E+02  0.51100000000E-03 0.  1.
         12    1    3    3    0    0 -0.17803114416E+02  0.29754097930E+02  0.17438883631E+02  0.38812007019E+02  0.00000000000E+00 0. -1.
</event>
<event>
 7    1  0.1654239E-015  0.9000771E+02  0.7816164E-02  0.1186339E+00
        -11   -1    0    0    0    0  0.00000000000E+00  0.00000000000E+00  0.45593999997E+02  0.45594000000E+02  0.51100000000E-03 0. -1.
         11   -1    0    0    0    0 -0.00000000000E+00 -0.00000000000E+00 -0.45593999997E+02  0.45594000000E+02  0.51100000000E-03 0.  1.
    9900012    2    1    2    0    0  0.47491902769E+00 -0.67608588718E+00  0.84287836745E+00  0.90007710141E+02  0.89999971115E+02 0.  0.
        -12    1    1    2    0    0 -0.47491902769E+00  0.67608588718E+00 -0.84287836745E+00  0.11802898593E+01  0.00000000000E+00 0.  1.
         11    1    3    3    0    0  0.21388254145E+02 -0.80313581170E+01  0.28902180566E+02  0.36841500652E+02  0.51100000000E-03 0. -1.
        -11    1    3    3    0    0  0.19403998221E+01  0.17705282569E+01  0.89415308338E+01  0.93193827956E+01  0.51100000000E-03 0.  1.
        -12    1    3    3    0    0 -0.22853734939E+02  0.55847439729E+01 -0.37000833033E+02  0.43846826693E+02  0.00000000000E+00 0.  1.
</event>
<event>
 7    1  0.1654239E-015  0.9000770E+02  0.7816164E-02  0.1186339E+00
        -11   -1    0    0    0    0  0.00000000000E+00  0.00000000000E+00  0.45593999997E+02  0.45594000000E+02  0.51100000000E-03 0.  1.
         11   -1    0    0    0    0 -0.00000000000E+00 -0.00000000000E+00 -0.45593999997E+02  0.45594000000E+02  0.51100000000E-03 0. -1.
    9900012    2    1    2    0    0  0.43045716542E-01  0.10072393600E+01 -0.61378536329E+00  0.90007696423E+02  0.89999957216E+02 0.  0.
        -12    1    1    2    0    0 -0.43045716542E-01 -0.10072393600E+01  0.61378536329E+00  0.11803035772E+01  0.00000000000E+00 0.  1.
         11    1    3    3    0    0  0.14340163530E+01  0.55800209263E+01 -0.72293753270E+01  0.92442903631E+01  0.51100000000E-03 0. -1.
        -11    1    3    3    0    0 -0.36874132441E+01 -0.11598252843E+02  0.42457479526E+02  0.44167341480E+02  0.51100000000E-03 0.  1.
         12    1    3    3    0    0  0.22964426076E+01  0.70254712771E+01 -0.35841889562E+02  0.36596064580E+02  0.00000000000E+00 0. -1.
</event>
<event>
 7    1  0.1654239E-015  0.9000777E+02  0.7816164E-02  0.1186339E+00
        -11   -1    0    0    0    0  0.00000000000E+00  0.00000000000E+00  0.45593999997E+02  0.45594000000E+02  0.51100000000E-03 0.  1.
         11   -1    0    0    0    0 -0.00000000000E+00 -0.00000000000E+00 -0.45593999997E+02  0.45594000000E+02  0.51100000000E-03 0. -1.
    9900012    2    1    2    0    0 -0.79040592875E+00  0.28839953274E+00 -0.82765830236E+00  0.90007773713E+02  0.90000035526E+02 0.  0.
        -12    1    1    2    0    0  0.79040592875E+00 -0.28839953274E+00  0.82765830236E+00  0.11802262868E+01  0.00000000000E+00 0.  1.
         11    1    3    3    0    0  0.22748115189E+02 -0.95854594449E+01  0.22546370577E+02  0.33431969787E+02  0.51100000000E-03 0. -1.
        -11    1    3    3    0    0 -0.11266899089E+02 -0.14775675829E+02  0.25521439785E+01  0.18755720472E+02  0.51100000000E-03 0.  1.
         12    1    3    3    0    0 -0.12271622028E+02  0.24649534807E+02 -0.25926172858E+02  0.37820083454E+02  0.00000000000E+00 0. -1.
</event>
<event>
 7    1  0.1654239E-015  0.9000775E+02  0.7816164E-02  0.1186339E+00
        -11   -1    0    0    0    0  0.00000000000E+00  0.00000000000E+00  0.45593999997E+02  0.45594000000E+02  0.51100000000E-03 0. -1.
         11   -1    0    0    0    0 -0.00000000000E+00 -0.00000000000E+00 -0.45593999997E+02  0.45594000000E+02  0.51100000000E-03 0.  1.
    9900012    2    1    2    0    0 -0.87413395782E+00 -0.31011827020E+00  0.72987114294E+00  0.90007747738E+02  0.90000009208E+02 0.  0.
        -12    1    1    2    0    0  0.87413395782E+00  0.31011827020E+00 -0.72987114294E+00  0.11802522625E+01  0.00000000000E+00 0.  1.
         11    1    3    3    0    0 -0.25137306074E+00 -0.32461708279E+01  0.88075293736E+01  0.93900685507E+01  0.51100000000E-03 0. -1.
        -11    1    3    3    0    0 -0.20074732385E+02  0.29042119856E+02  0.17321992225E+02  0.39325450041E+02  0.51100000000E-03 0.  1.
         12    1    3    3    0    0  0.19451971488E+02 -0.26106067299E+02 -0.25399650455E+02  0.41292229145E+02  0.00000000000E+00 0. -1.
</event>
<event>
 7    1  0.1654239E-015  0.9000774E+02  0.7816164E-02  0.1186339E+00
        -11   -1    0    0    0    0  0.00000000000E+00  0.00000000000E+00  0.45593999997E+02  0.45594000000E+02  0.51100000000E-03 0.  1.
         11   -1    0    0    0    0 -0.00000000000E+00 -0.00000000000E+00 -0.45593999997E+02  0.45594000000E+02  0.51100000000E-03 0. -1.
    9900012    2    1    2    0    0  0.16663415682E+00  0.11677963856E+01  0.38851519519E-01  0.90007735292E+02  0.89999996598E+02 0.  0.
        -12    1    1    2    0    0 -0.16663415682E+00 -0.11677963856E+01 -0.38851519519E-01  0.11802647080E+01  0.00000000000E+00 0.  1.
         11    1    3    3    0    0 -0.33084402586E+02  0.14489202828E+02 -0.21376063859E+02  0.41969641402E+02  0.51100000000E-03 0. -1.
        -11    1    3    3    0    0  0.49545791042E+01  0.67023298870E+01  0.42939126502E+01  0.93758608204E+01  0.51100000000E-03 0.  1.
        -12    1    3    3    0    0  0.28296457639E+02 -0.20023736329E+02  0.17121002728E+02  0.38662233069E+02  0.00000000000E+00 0.  1.
</event>
<event>
 7    1  0.1654239E-015  0.9000775E+02  0.7816164E-02  0.1186339E+00
        -11   -1    0    0    0    0  0.00000000000E+00  0.00000000000E+00  0.45593999997E+02  0.45594000000E+02  0.51100000000E-03 0. -1.
         11   -1    0    0    0    0 -0.00000000000E+00 -0.00000000000E+00 -0.45593999997E+02  0.45594000000E+02  0.51100000000E-03 0.  1.
    9900012    2    1    2    0    0 -0.48584014589E+00  0.69702365266E+00 -0.81920890686E+00  0.90007751783E+02  0.90000013307E+02 0.  0.
        -12    1    1    2    0    0  0.48584014589E+00 -0.69702365266E+00  0.81920890686E+00  0.11802482166E+01  0.00000000000E+00 0.  1.
         11    1    3    3    0    0 -0.16241926525E+02  0.14945188627E+00 -0.14641847681E+02  0.21867926671E+02  0.51100000000E-03 0. -1.
        -11    1    3    3    0    0 -0.43872552499E+01 -0.29741194948E+02  0.93902829484E+01  0.31495461573E+02  0.51100000000E-03 0.  1.
         12    1    3    3    0    0  0.20143341629E+02  0.30288766714E+02  0.44323558259E+01  0.36644363540E+02  0.00000000000E+00 0. -1.
</event>
<event>
 7    1  0.1654239E-015  0.9000772E+02  0.7816164E-02  0.1186339E+00
        -11   -1    0    0    0    0  0.00000000000E+00  0.00000000000E+00  0.45593999997E+02  0.45594000000E+02  0.51100000000E-03 0. -1.
         11   -1    0    0    0    0 -0.00000000000E+00 -0.00000000000E+00 -0.45593999997E+02  0.45594000000E+02  0.51100000000E-03 0.  1.
    9900012    2    1    2    0    0 -0.98842708175E+00 -0.11279014643E+00  0.63510148750E+00  0.90007718842E+02  0.89999979930E+02 0.  0.
        -12    1    1    2    0    0  0.98842708175E+00  0.11279014643E+00 -0.63510148750E+00  0.11802811582E+01  0.00000000000E+00 0.  1.
         11    1    3    3    0    0 -0.21698486203E+02  0.28036197636E+02 -0.22271066042E+01  0.35522002836E+02  0.51100000000E-03 0. -1.
        -11    1    3    3    0    0 -0.48210186749E+01  0.67634383229E+01 -0.61126215393E+01  0.10312636004E+02  0.51100000000E-03 0.  1.
        -12    1    3    3    0    0  0.25531077796E+02 -0.34912426105E+02  0.89748296311E+01  0.44173080002E+02  0.00000000000E+00 0.  1.
</event>
<event>
 7    1  0.1654239E-015  0.9000776E+02  0.7816164E-02  0.1186339E+00
        -11   -1    0    0    0    0  0.00000000000E+00  0.00000000000E+00  0.45593999997E+02  0.45594000000E+02  0.51100000000E-03 0.  1.
         11   -1    0    0    0    0 -0.00000000000E+00 -0.00000000000E+00 -0.45593999997E+02  0.45594000000E+02  0.51100000000E-03 0. -1.
    9900012    2    1    2    0    0 -0.11096713200E+01  0.33188766095E+00  0.22679242725E+00  0.90007764997E+02  0.90000026695E+02 0.  0.
        -12    1    1    2    0    0  0.11096713200E+01 -0.33188766095E+00 -0.22679242725E+00  0.11802350033E+01  0.00000000000E+00 0.  1.
         11    1    3    3    0    0 -0.19577425077E+01  0.10738009671E+02 -0.36654790403E+01  0.11514049864E+02  0.51100000000E-03 0. -1.
        -11    1    3    3    0    0  0.29166402993E+02  0.20874707756E+02  0.54037189003E+01  0.36271650991E+02  0.51100000000E-03 0.  1.
         12    1    3    3    0    0 -0.28318331805E+02 -0.31280829766E+02 -0.15114474328E+01  0.42222064142E+02  0.00000000000E+00 0. -1.
</event>
<event>
 7    1  0.1654239E-015  0.9000772E+02  0.7816164E-02  0.1186339E+00
        -11   -1    0    0    0    0  0.00000000000E+00  0.00000000000E+00  0.45593999997E+02  0.45594000000E+02  0.51100000000E-03 0. -1.
         11   -1    0    0    0    0 -0.00000000000E+00 -0.00000000000E+00 -0.45593999997E+02  0.45594000000E+02  0.51100000000E-03 0.  1.
    9900012    2    1    2    0    0  0.20994334890E+00 -0.10365765915E+00  0.11568224616E+01  0.90007720657E+02  0.89999981770E+02 0.  0.
        -12    1    1    2    0    0 -0.20994334890E+00  0.10365765915E+00 -0.11568224616E+01  0.11802793430E+01  0.00000000000E+00 0.  1.
         11    1    3    3    0    0 -0.20526687202E+01 -0.90776086354E+01  0.51025481546E+01  0.10613784685E+02  0.51100000000E-03 0. -1.
        -11    1    3    3    0    0 -0.10696698373E+02 -0.31796798628E+02 -0.12436275422E+02  0.35778718615E+02  0.51100000000E-03 0.  1.
         12    1    3    3    0    0  0.12959310442E+02  0.40770749604E+02  0.84905497288E+01  0.43615217357E+02  0.00000000000E+00 0. -1.
</event>
<event>
 7    1  0.1654239E-015  0.9000767E+02  0.7816164E-02  0.1186339E+00
        -11   -1    0    0    0    0  0.00000000000E+00  0.00000000000E+00  0.45593999997E+02  0.45594000000E+02  0.51100000000E-03 0.  1.
         11   -1    0    0    0    0 -0.00000000000E+00 -0.00000000000E+00 -0.45593999997E+02  0.45594000000E+02  0.51100000000E-03 0. -1.
    9900012    2    1    2    0    0 -0.48849239567E-01  0.10191298981E+01 -0.59343365083E+00  0.90007671446E+02  0.89999931909E+02 0.  0.
        -12    1    1    2    0    0  0.48849239567E-01 -0.10191298981E+01  0.59343365083E+00  0.11803285540E+01  0.00000000000E+00 0.  1.
         11    1    3    3    0    0  0.31883010618E+02  0.12604178285E+01 -0.16766204994E+02  0.36044703486E+02  0.51100000000E-03 0. -1.
        -11    1    3    3    0    0  0.21393022624E+01  0.40668222424E+01 -0.98537621526E+01  0.10872547362E+02  0.51100000000E-03 0.  1.
        -12    1    3    3    0    0 -0.34071162120E+02 -0.43081101727E+01  0.26026533496E+02  0.43090420598E+02  0.00000000000E+00 0.  1.
</event>
<event>
 7    1  0.1654239E-015  0.9000765E+02  0.7816164E-02  0.1186339E+00
        -11   -1    0    0    0    0  0.00000000000E+00  0.00000000000E+00  0.45593999997E+02  0.45594000000E+02  0.51100000000E-03 0. -1.
         11   -1    0    0    0    0 -0.00000000000E+00 -0.00000000000E+00 -0.45593999997E+02  0.45594000000E+02  0.51100000000E-03 0.  1.
    9900012    2    1    2    0    0 -0.64331000019E-01  0.70291012503E+00  0.94604948552E+00  0.90007648040E+02  0.89999908194E+02 0.  0.
        -12    1    1    2    0    0  0.64331000019E-01 -0.70291012503E+00 -0.94604948552E+00  0.11803519604E+01  0.00000000000E+00 0.  1.
         11    1    3    3    0    0 -0.34399232897E+02 -0.11197921458E+02 -0.17011445103E+02  0.39976117041E+02  0.51100000000E-03 0. -1.
        -11    1    3    3    0    0  0.14025407471E+01  0.33518178703E+01 -0.69653091866E+01  0.78560381815E+01  0.51100000000E-03 0.  1.
        -12    1    3    3    0    0  0.32932361150E+02  0.85490137127E+01  0.24922803775E+02  0.42175492817E+02  0.00000000000E+00 0.  1.
</event>
<event>
 7    1  0.1654239E-015  0.9000784E+02  0.7816164E-02  0.1186339E+00
        -11   -1    0    0    0    0  0.00000000000E+00  0.00000000000E+00  0.45593999997E+02  0.45594000000E+02  0.51100000000E-03 0. -1.
         11   -1    0    0    0    0 -0.00000000000E+00 -0.00000000000E+00 -0.45593999997E+02  0.45594000000E+02  0.51100000000E-03 0.  1.
    9900012    2    1    2    0    0 -0.41070765112E+00  0.11556162643E-01 -0.11063292362E+01  0.90007839546E+02  0.90000102227E+02 0.  0.
        -12    1    1    2    0    0  0.41070765112E+00 -0.11556162643E-01  0.11063292362E+01  0.11801604545E+01  0.00000000000E+00 0.  1.
         11    1    3    3    0    0 -0.20747149251E+02  0.12631112671E+02  0.31675852326E+02  0.39916773795E+02  0.51100000000E-03 0. -1.
        -11    1    3    3    0    0  0.35422472619E+00 -0.89158001767E+01  0.25946714906E+01  0.92924317782E+01  0.51100000000E-03 0.  1.
        -12    1    3    3    0    0  0.19982216873E+02 -0.37037563317E+01 -0.35376853053E+02  0.40798633973E+02  0.00000000000E+00 0.  1.
</event>
<event>
 7    1  0.1654239E-015  0.9000785E+02  0.7816164E-02  0.1186339E+00
        -11   -1    0    0    0    0  0.00000000000E+00  0.00000000000E+00  0.45593999997E+02  0.45594000000E+02  0.51100000000E-03 0. -1.
         11   -1    0    0    0    0 -0.00000000000E+00 -0.00000000000E+00 -0.45593999997E+02  0.45594000000E+02  0.51100000000E-03 0.  1.
    9900012    2    1    2    0    0  0.84728689102E+00 -0.24969131046E+00 -0.78263630874E+00  0.90007847290E+02  0.90000110075E+02 0.  0.
        -12    1    1    2    0    0 -0.84728689102E+00  0.24969131046E+00  0.78263630874E+00  0.11801527096E+01  0.00000000000E+00 0.  1.
         11    1    3    3    0    0 -0.30872978776E+02 -0.14753103417E+02  0.14986136715E+02  0.37354774431E+02  0.51100000000E-03 0. -1.
        -11    1    3    3    0    0 -0.27649314393E+01 -0.83889909605E+01 -0.32054022547E+01  0.93965216477E+01  0.51100000000E-03 0.  1.
        -12    1    3    3    0    0  0.34485197106E+02  0.22892403067E+02 -0.12563370769E+02  0.43256551211E+02  0.00000000000E+00 0.  1.
</event>
<event>
 7    1  0.1654239E-015  0.9000773E+02  0.7816164E-02  0.1186339E+00
        -11   -1    0    0    0    0  0.00000000000E+00  0.00000000000E+00  0.45593999997E+02  0.45594000000E+02  0.51100000000E-03 0.  1.
         11   -1    0    0    0    0 -0.00000000000E+00 -0.00000000000E+00 -0.45593999997E+02  0.45594000000E+02  0.51100000000E-03 0. -1.
    9900012    2    1    2    0    0  0.64255795964E+00  0.96484543939E+00 -0.22187841766E+00  0.90007729910E+02  0.89999991145E+02 0.  0.
        -12    1    1    2    0    0 -0.64255795964E+00 -0.96484543939E+00  0.22187841766E+00  0.11802700901E+01  0.00000000000E+00 0.  1.
         11    1    3    3    0    0 -0.43328603520E+01  0.51272645022E+00 -0.78956878533E+01  0.90210007306E+01  0.51100000000E-03 0. -1.
        -11    1    3    3    0    0 -0.30977609079E+02  0.20704744815E+02  0.12816692499E+02  0.39402618301E+02  0.51100000000E-03 0.  1.
         12    1    3    3    0    0  0.35953027390E+02 -0.20252625826E+02 -0.51428830629E+01  0.41584110879E+02  0.00000000000E+00 0. -1.
</event>
<event>
 7    1  0.1654239E-015  0.9000776E+02  0.7816164E-02  0.1186339E+00
        -11   -1    0    0    0    0  0.00000000000E+00  0.00000000000E+00  0.45593999997E+02  0.45594000000E+02  0.51100000000E-03 0.  1.
         11   -1    0    0    0    0 -0.00000000000E+00 -0.00000000000E+00 -0.45593999997E+02  0.45594000000E+02  0.51100000000E-03 0. -1.
    9900012    2    1    2    0    0 -0.10020631143E+01  0.56370794165E+00 -0.26659859297E+00  0.90007757678E+02  0.90000019280E+02 0.  0.
        -12    1    1    2    0    0  0.10020631143E+01 -0.56370794165E+00  0.26659859297E+00  0.11802423218E+01  0.00000000000E+00 0.  1.
         11    1    3    3    0    0  0.14264568726E+01 -0.13079086577E+01 -0.86031462552E+01  0.88181364253E+01  0.51100000000E-03 0. -1.
        -11    1    3    3    0    0  0.94366650400E+01  0.36535842575E+02  0.20041346696E+02  0.42726736564E+02  0.51100000000E-03 0.  1.
         12    1    3    3    0    0 -0.11865185027E+02 -0.34664225976E+02 -0.11704799033E+02  0.38462884689E+02  0.00000000000E+00 0. -1.
</event>
<event>
 7    1  0.1654239E-015  0.9000764E+02  0.7816164E-02  0.1186339E+00
        -11   -1    0    0    0    0  0.00000000000E+00  0.00000000000E+00  0.45593999997E+02  0.45594000000E+02  0.51100000000E-03 0.  1.
         11   -1    0    0    0    0 -0.00000000000E+00 -0.00000000000E+00 -0.45593999997E+02  0.45594000000E+02  0.51100000000E-03 0. -1.
    9900012    2    1    2    0    0  0.58007811302E+00  0.34615689581E+00 -0.96795840152E+00  0.90007636208E+02  0.89999896206E+02 0.  0.
        -12    1    1    2    0    0 -0.58007811302E+00 -0.34615689581E+00  0.96795840152E+00  0.11803637917E+01  0.00000000000E+00 0.  1.
         11    1    3    3    0    0 -0.21497876667E+02  0.60325301301E+01 -0.15357881688E+02  0.27100085815E+02  0.51100000000E-03 0. -1.
        -11    1    3    3    0    0 -0.93423150286E+01  0.13545046116E+02  0.19722410490E+02  0.25685026770E+02  0.51100000000E-03 0.  1.
        -12    1    3    3    0    0  0.31420269809E+02 -0.19231419351E+02 -0.53324872036E+01  0.37222523623E+02  0.00000000000E+00 0.  1.
</event>
<event>
 7    1  0.1654239E-015  0.9000782E+02  0.7816164E-02  0.1186339E+00
        -11   -1    0    0    0    0  0.00000000000E+00  0.00000000000E+00  0.45593999997E+02  0.45594000000E+02  0.51100000000E-03 0. -1.
         11   -1    0    0    0    0 -0.00000000000E+00 -0.00000000000E+00 -0.45593999997E+02  0.45594000000E+02  0.51100000000E-03 0.  1.
    9900012    2    1    2    0    0 -0.46282304259E+00  0.10652556717E+01 -0.20938228078E+00  0.90007823846E+02  0.90000086321E+02 0.  0.
        -12    1    1    2    0    0  0.46282304259E+00 -0.10652556717E+01  0.20938228078E+00  0.11801761539E+01  0.00000000000E+00 0.  1.
         11    1    3    3    0    0 -0.36164139475E+01 -0.17008849089E+02 -0.31426948045E+01  0.17670764785E+02  0.51100000000E-03 0. -1.
        -11    1    3    3    0    0 -0.23838860026E+02 -0.10263241348E+01 -0.20784253346E+02  0.31643795221E+02  0.51100000000E-03 0.  1.
        -12    1    3    3    0    0  0.26992450931E+02  0.19100428896E+02  0.23717565869E+02  0.40693263841E+02  0.00000000000E+00 0.  1.
</event>
<event>
 7    1  0.1654239E-015  0.9000777E+02  0.7816164E-02  0.1186339E+00
        -11   -1    0    0    0    0  0.00000000000E+00  0.00000000000E+00  0.45593999997E+02  0.45594000000E+02  0.51100000000E-03 0. -1.
         11   -1    0    0    0    0 -0.00000000000E+00 -0.00000000000E+00 -0.45593999997E+02  0.45594000000E+02  0.51100000000E-03 0.  1.
    9900012    2    1    2    0    0  0.34860384231E+00  0.98844899330E+00  0.54257103929E+00  0.90007771470E+02  0.90000033253E+02 0.  0.
        -12    1    1    2    0    0 -0.34860384231E+00 -0.98844899330E+00 -0.54257103929E+00  0.11802285304E+01  0.00000000000E+00 0.  1.
         11    1    3    3    0    0 -0.54942199310E+00  0.35165632871E+02 -0.16240396584E+02  0.38738534835E+02  0.51100000000E-03 0. -1.
        -11    1    3    3    0    0  0.26290547601E+01 -0.42593335025E+01 -0.99323065372E+01  0.11122255357E+02  0.51100000000E-03 0.  1.
        -12    1    3    3    0    0 -0.17310289247E+01 -0.29917850375E+02  0.26715274161E+02  0.40146981277E+02  0.00000000000E+00 0.  1.
</event>
<event>
 7    1  0.1654239E-015  0.9000779E+02  0.7816164E-02  0.1186339E+00
        -11   -1    0    0    0    0  0.00000000000E+00  0.00000000000E+00  0.45593999997E+02  0.45594000000E+02  0.51100000000E-03 0.  1.
         11   -1    0    0    0    0 -0.00000000000E+00 -0.00000000000E+00 -0.45593999997E+02  0.45594000000E+02  0.51100000000E-03 0. -1.
    9900012    2    1    2    0    0 -0.21127128836E+00  0.97975046598E+00  0.62318586652E+00  0.90007785122E+02  0.90000047086E+02 0.  0.
        -12    1    1    2    0    0  0.21127128836E+00 -0.97975046598E+00 -0.62318586652E+00  0.11802148775E+01  0.00000000000E+00 0.  1.
         11    1    3    3    0    0  0.86556708676E+01 -0.24365515116E+01 -0.34392733622E+01  0.96273580466E+01  0.51100000000E-03 0. -1.
        -11    1    3    3    0    0  0.30268979926E+02  0.18139440142E+01  0.21836529951E+02  0.37367573901E+02  0.51100000000E-03 0.  1.
         12    1    3    3    0    0 -0.39135922082E+02  0.16023579634E+01 -0.17774070723E+02  0.43012853175E+02  0.00000000000E+00 0. -1.
</event>
<event>
 7    1  0.1654239E-015  0.9000768E+02  0.7816164E-02  0.1186339E+00
        -11   -1    0    0    0    0  0.00000000000E+00  0.00000000000E+00  0.45593999997E+02  0.45594000000E+02  0.51100000000E-03 0.  1.
         11   -1    0    0    0    0 -0.00000000000E+00 -0.00000000000E+00 -0.45593999997E+02  0.45594000000E+02  0.51100000000E-03 0. -1.
    9900012    2    1    2    0    0 -0.88822556309E+00  0.27161225025E+00 -0.72831797824E+00  0.90007675916E+02  0.89999936438E+02 0.  0.
        -12    1    1    2    0    0  0.88822556309E+00 -0.27161225025E+00  0.72831797824E+00  0.11803240838E+01  0.00000000000E+00 0.  1.
         11    1    3    3    0    0 -0.44804484904E+01  0.88319158597E+01  0.18183773554E+01  0.10068944974E+02  0.51100000000E-03 0. -1.
        -11    1    3    3    0    0 -0.30904127556E+01  0.33898633734E+02 -0.11698925605E+02  0.35993511646E+02  0.51100000000E-03 0.  1.
         12    1    3    3    0    0  0.66826356829E+01 -0.42458937344E+02  0.91522302716E+01  0.43945219296E+02  0.00000000000E+00 0. -1.
</event>
<event>
 7    1  0.1654239E-015  0.9000781E+02  0.7816164E-02  0.1186339E+00
        -11   -1    0    0    0    0  0.00000000000E+00  0.00000000000E+00  0.45593999997E+02  0.45594000000E+02  0.51100000000E-03 0.  1.
         11   -1    0    0    0    0 -0.00000000000E+00 -0.00000000000E+00 -0.45593999997E+02  0.45594000000E+02  0.51100000000E-03 0. -1.
    9900012    2    1    2    0    0  0.10587168911E+01 -0.45439580151E-01 -0.51952368741E+00  0.90007808883E+02  0.90000071160E+02 0.  0.
        -12    1    1    2    0    0 -0.10587168911E+01  0.45439580151E-01  0.51952368741E+00  0.11801911170E+01  0.00000000000E+00 0.  1.
         11    1    3    3    0    0  0.11292712478E+02  0.15754733181E+02 -0.36686959958E+02  0.41493011507E+02  0.51100000000E-03 0. -1.
        -11    1    3    3    0    0 -0.84875822359E+01  0.21899065517E+01  0.80693321379E+00  0.88026066815E+01  0.51100000000E-03 0.  1.
        -12    1    3    3    0    0 -0.17464133505E+01 -0.17990079313E+02  0.35360503057E+02  0.39712190694E+02  0.00000000000E+00 0.  1.
</event>
<event>
 7    1  0.2563081E-015  0.9000780E+02  0.7816164E-02  0.1186339E+00
        -11   -1    0    0    0    0  0.00000000000E+00  0.00000000000E+00  0.45593999997E+02  0.45594000000E+02  0.51100000000E-03 0. -1.
         11   -1    0    0    0    0 -0.00000000000E+00 -0.00000000000E+00 -0.45593999997E+02  0.45594000000E+02  0.51100000000E-03 0.  1.
    9900012    2    1    2    0    0 -0.38500637005E+00 -0.70131342956E+00  0.86764163949E+00  0.90007799828E+02  0.90000061986E+02 0.  0.
        -12    1    1    2    0    0  0.38500637005E+00  0.70131342956E+00 -0.86764163949E+00  0.11802001720E+01  0.00000000000E+00 0.  1.
         11    1    3    3    0    0 -0.33402112437E+00  0.78631474817E+01  0.49917197725E+01  0.93197599207E+01  0.51100000000E-03 0. -1.
        -11    1    3    3    0    0 -0.24764007149E+02  0.19269620983E+02 -0.23046766863E+02  0.38932349094E+02  0.51100000000E-03 0.  1.
         12    1    3    3    0    0  0.24713021904E+02 -0.27834081894E+02  0.18922688730E+02  0.41755690813E+02  0.00000000000E+00 0. -1.
</event>
<event>
 7    1  0.1654239E-015  0.9000755E+02  0.7816164E-02  0.1186339E+00
        -11   -1    0    0    0    0  0.00000000000E+00  0.00000000000E+00  0.45593999997E+02  0.45594000000E+02  0.51100000000E-03 0.  1.
         11   -1    0    0    0    0 -0.00000000000E+00 -0.00000000000E+00 -0.45593999997E+02  0.45594000000E+02  0.51100000000E-03 0. -1.
    9900012    2    1    2    0    0  0.46082631418E-01  0.76973175970E+00 -0.89379109910E+00  0.90007545376E+02  0.89999804175E+02 0.  0.
        -12    1    1    2    0    0 -0.46082631418E-01 -0.76973175970E+00  0.89379109910E+00  0.11804546241E+01  0.00000000000E+00 0.  1.
         11    1    3    3    0    0 -0.15236572462E+02 -0.23838261246E+02  0.97887953947E+01  0.29937206870E+02  0.51100000000E-03 0. -1.
        -11    1    3    3    0    0 -0.22048644766E+01 -0.15314131988E+02 -0.16484554252E+01  0.15559610261E+02  0.51100000000E-03 0.  1.
        -12    1    3    3    0    0  0.17487519570E+02  0.39922124994E+02 -0.90341310685E+01  0.44510728245E+02  0.00000000000E+00 0.  1.
</event>
<event>
 7    1  0.1654239E-015  0.9000771E+02  0.7816164E-02  0.1186339E+00
        -11   -1    0    0    0    0  0.00000000000E+00  0.00000000000E+00  0.45593999997E+02  0.45594000000E+02  0.51100000000E-03 0. -1.
         11   -1    0    0    0    0 -0.00000000000E+00 -0.00000000000E+00 -0.45593999997E+02  0.45594000000E+02  0.51100000000E-03 0.  1.
    9900012    2    1    2    0    0 -0.12381376783E+00 -0.11242700432E+01  0.33728749723E+00  0.90007713664E+02  0.89999974684E+02 0.  0.
        -12    1    1    2    0    0  0.12381376783E+00  0.11242700432E+01 -0.33728749723E+00  0.11802863360E+01  0.00000000000E+00 0.  1.
         11    1    3    3    0    0  0.46653660457E+01 -0.79915605081E+01  0.53868501560E+01  0.10707419603E+02  0.51100000000E-03 0. -1.
        -11    1    3    3    0    0 -0.23435292535E+01  0.10917309305E+02 -0.41279355324E+02  0.42762892185E+02  0.51100000000E-03 0.  1.
         12    1    3    3    0    0 -0.24456505600E+01 -0.40500188403E+01  0.36229792665E+02  0.36537401876E+02  0.00000000000E+00 0. -1.
</event>
<event>
 7    1  0.1654239E-015  0.9000772E+02  0.7816164E-02  0.1186339E+00
        -11   -1    0    0    0    0  0.00000000000E+00  0.00000000000E+00  0.45593999997E+02  0.45594000000E+02  0.51100000000E-03 0.  1.
         11   -1    0    0    0    0 -0.00000000000E+00 -0.00000000000E+00 -0.45593999997E+02  0.45594000000E+02  0.51100000000E-03 0. -1.
    9900012    2    1    2    0    0  0.42760646352E+00  0.69436665402E+00 -0.85326864742E+00  0.90007720490E+02  0.89999981600E+02 0.  0.
        -12    1    1    2    0    0 -0.42760646352E+00 -0.69436665402E+00  0.85326864742E+00  0.11802795103E+01  0.00000000000E+00 0.  1.
         11    1    3    3    0    0  0.12597191413E+01  0.94783184742E+01 -0.39259513854E+02  0.40407113752E+02  0.51100000000E-03 0. -1.
        -11    1    3    3    0    0 -0.87074088761E+01  0.38163701767E+01  0.12568090383E+01  0.95897455587E+01  0.51100000000E-03 0.  1.
        -12    1    3    3    0    0  0.78752961983E+01 -0.12600321997E+02  0.37149436169E+02  0.40010861179E+02  0.00000000000E+00 0.  1.
</event>
<event>
 7    1  0.1654239E-015  0.9000770E+02  0.7816164E-02  0.1186339E+00
        -11   -1    0    0    0    0  0.00000000000E+00  0.00000000000E+00  0.45593999997E+02  0.45594000000E+02  0.51100000000E-03 0.  1.
         11   -1    0    0    0    0 -0.00000000000E+00 -0.00000000000E+00 -0.45593999997E+02  0.45594000000E+02  0.51100000000E-03 0. -1.
    9900012    2    1    2    0    0  0.30703889576E+00  0.99874901973E+00  0.54893217939E+00  0.90007703840E+02  0.89999964731E+02 0.  0.
        -12    1    1    2    0    0 -0.30703889576E+00 -0.99874901973E+00 -0.54893217939E+00  0.11802961601E+01  0.00000000000E+00 0.  1.
         11    1    3    3    0    0 -0.31432213420E+02 -0.16821447683E+02 -0.10560272956E+02  0.37181507605E+02  0.51100000000E-03 0. -1.
        -11    1    3    3    0    0  0.78984195458E+00 -0.81037355232E+01 -0.47779500655E+01  0.94405077635E+01  0.51100000000E-03 0.  1.
        -12    1    3    3    0    0  0.30949410361E+02  0.25923932225E+02  0.15887155201E+02  0.43385688471E+02  0.00000000000E+00 0.  1.
</event>
<event>
 7    1  0.1654239E-015  0.9000773E+02  0.7816164E-02  0.1186339E+00
        -11   -1    0    0    0    0  0.00000000000E+00  0.00000000000E+00  0.45593999997E+02  0.45594000000E+02  0.51100000000E-03 0.  1.
         11   -1    0    0    0    0 -0.00000000000E+00 -0.00000000000E+00 -0.45593999997E+02  0.45594000000E+02  0.51100000000E-03 0. -1.
    9900012    2    1    2    0    0  0.47181649579E+00 -0.94002324878E+00 -0.53552769161E+00  0.90007726971E+02  0.89999988167E+02 0.  0.
        -12    1    1    2    0    0 -0.47181649579E+00  0.94002324878E+00  0.53552769161E+00  0.11802730288E+01  0.00000000000E+00 0.  1.
         11    1    3    3    0    0  0.10207575027E+02  0.18977280754E+02 -0.24287613358E+02  0.32468753219E+02  0.51100000000E-03 0. -1.
        -11    1    3    3    0    0 -0.17811519497E+02  0.48338006355E+01 -0.46265768028E+01  0.19026851251E+02  0.51100000000E-03 0.  1.
         12    1    3    3    0    0  0.80757609652E+01 -0.24751104638E+02  0.28378662469E+02  0.38512122500E+02  0.00000000000E+00 0. -1.
</event>
<event>
 7    1  0.1654239E-015  0.9000766E+02  0.7816164E-02  0.1186339E+00
        -11   -1    0    0    0    0  0.00000000000E+00  0.00000000000E+00  0.45593999997E+02  0.45594000000E+02  0.51100000000E-03 0. -1.
         11   -1    0    0    0    0 -0.00000000000E+00 -0.00000000000E+00 -0.45593999997E+02  0.45594000000E+02  0.51100000000E-03 0.  1.
    9900012    2    1    2    0    0  0.47751083859E+00 -0.38462154436E+00  0.10085838027E+01  0.90007664615E+02  0.89999924988E+02 0.  0.
        -12    1    1    2    0    0 -0.47751083859E+00  0.38462154436E+00 -0.10085838027E+01  0.11803353847E+01  0.00000000000E+00 0.  1.
         11    1    3    3    0    0  0.43744018121E+01 -0.26388295608E+02  0.30699873445E+02  0.40718052091E+02  0.51100000000E-03 0. -1.
        -11    1    3    3    0    0  0.22551645918E+01 -0.61705127487E+01 -0.55008673606E+01  0.85685784642E+01  0.51100000000E-03 0.  1.
        -12    1    3    3    0    0 -0.61520555653E+01  0.32174186812E+02 -0.24190422282E+02  0.40721034060E+02  0.00000000000E+00 0.  1.
</event>
<event>
 7    1  0.1654239E-015  0.9000774E+02  0.7816164E-02  0.1186339E+00
        -11   -1    0    0    0    0  0.00000000000E+00  0.00000000000E+00  0.45593999997E+02  0.45594000000E+02  0.51100000000E-03 0. -1.
         11   -1    0    0    0    0 -0.00000000000E+00 -0.00000000000E+00 -0.45593999997E+02  0.45594000000E+02  0.51100000000E-03 0.  1.
    9900012    2    1    2    0    0  0.44325584471E+00  0.10665042232E+01  0.24309471662E+00  0.90007744925E+02  0.90000006358E+02 0.  0.
        -12    1    1    2    0    0 -0.44325584471E+00 -0.10665042232E+01 -0.24309471662E+00  0.11802550754E+01  0.00000000000E+00 0.  1.
         11    1    3    3    0    0  0.18013851062E-01 -0.30285235232E+02 -0.28800130634E+02  0.41792862099E+02  0.51100000000E-03 0. -1.
        -11    1    3    3    0    0  0.93283992162E+01  0.90442331949E+01  0.41889934519E+01  0.13651551283E+02  0.51100000000E-03 0.  1.
        -12    1    3    3    0    0 -0.89031572225E+01  0.22307506261E+02  0.24854231899E+02  0.34563331543E+02  0.00000000000E+00 0.  1.
</event>
<event>
 7    1  0.1654239E-015  0.9000774E+02  0.7816164E-02  0.1186339E+00
        -11   -1    0    0    0    0  0.00000000000E+00  0.00000000000E+00  0.45593999997E+02  0.45594000000E+02  0.51100000000E-03 0.  1.
         11   -1    0    0    0    0 -0.00000000000E+00 -0.00000000000E+00 -0.45593999997E+02  0.45594000000E+02  0.51100000000E-03 0. -1.
    9900012    2    1    2    0    0  0.11590160144E+01  0.18962638472E+00 -0.11723223087E+00  0.90007737452E+02  0.89999998786E+02 0.  0.
        -12    1    1    2    0    0 -0.11590160144E+01 -0.18962638472E+00  0.11723223087E+00  0.11802625485E+01  0.00000000000E+00 0.  1.
         11    1    3    3    0    0  0.23307616265E+00  0.31961719037E+01  0.91577493842E+01  0.97022787725E+01  0.51100000000E-03 0. -1.
        -11    1    3    3    0    0  0.60076411682E+01 -0.16387094587E+02  0.32092626096E+02  0.36531702279E+02  0.51100000000E-03 0.  1.
         12    1    3    3    0    0 -0.50817013165E+01  0.13380549068E+02 -0.41367607711E+02  0.43773756400E+02  0.00000000000E+00 0. -1.
</event>
<event>
 7    1  0.1654239E-015  0.9000774E+02  0.7816164E-02  0.1186339E+00
        -11   -1    0    0    0    0  0.00000000000E+00  0.00000000000E+00  0.45593999997E+02  0.45594000000E+02  0.51100000000E-03 0. -1.
         11   -1    0    0    0    0 -0.00000000000E+00 -0.00000000000E+00 -0.45593999997E+02  0.45594000000E+02  0.51100000000E-03 0.  1.
    9900012    2    1    2    0    0  0.13829065012E+00  0.10461688682E+01  0.52860311059E+00  0.90007739498E+02  0.90000000859E+02 0.  0.
        -12    1    1    2    0    0 -0.13829065012E+00 -0.10461688682E+01 -0.52860311059E+00  0.11802605023E+01  0.00000000000E+00 0.  1.
         11    1    3    3    0    0 -0.22696942095E+02 -0.28804894711E+02  0.20008698058E+02  0.41775843953E+02  0.51100000000E-03 0. -1.
        -11    1    3    3    0    0 -0.17973240190E+01  0.10535689630E+02  0.11393583192E+01  0.10748454179E+02  0.51100000000E-03 0.  1.
        -12    1    3    3    0    0  0.24632556765E+02  0.19315373950E+02 -0.20619453266E+02  0.37483441365E+02  0.00000000000E+00 0.  1.
</event>
<event>
 7    1  0.1654239E-015  0.9000781E+02  0.7816164E-02  0.1186339E+00
        -11   -1    0    0    0    0  0.00000000000E+00  0.00000000000E+00  0.45593999997E+02  0.45594000000E+02  0.51100000000E-03 0.  1.
         11   -1    0    0    0    0 -0.00000000000E+00 -0.00000000000E+00 -0.45593999997E+02  0.45594000000E+02  0.51100000000E-03 0. -1.
    9900012    2    1    2    0    0  0.81092426293E+00  0.76512761388E+00 -0.38708243579E+00  0.90007808813E+02  0.90000071089E+02 0.  0.
        -12    1    1    2    0    0 -0.81092426293E+00 -0.76512761388E+00  0.38708243579E+00  0.11801911870E+01  0.00000000000E+00 0.  1.
         11    1    3    3    0    0  0.27399481490E+01 -0.61940563502E+01  0.65301484454E+01  0.94083201959E+01  0.51100000000E-03 0. -1.
        -11    1    3    3    0    0  0.29176117125E+02  0.28125225308E+02  0.56842275593E+01  0.40921688044E+02  0.51100000000E-03 0.  1.
         12    1    3    3    0    0 -0.31105141011E+02 -0.21166041344E+02 -0.12601458441E+02  0.39677800573E+02  0.00000000000E+00 0. -1.
</event>
<event>
 7    1  0.1654239E-015  0.9000781E+02  0.7816164E-02  0.1186339E+00
        -11   -1    0    0    0    0  0.00000000000E+00  0.00000000000E+00  0.45593999997E+02  0.45594000000E+02  0.51100000000E-03 0.  1.
         11   -1    0    0    0    0 -0.00000000000E+00 -0.00000000000E+00 -0.45593999997E+02  0.45594000000E+02  0.51100000000E-03 0. -1.
    9900012    2    1    2    0    0 -0.47817057840E+00 -0.95626498635E+00 -0.49975002173E+00  0.90007813612E+02  0.90000075952E+02 0.  0.
        -12    1    1    2    0    0  0.47817057840E+00  0.95626498635E+00  0.49975002173E+00  0.11801863880E+01  0.00000000000E+00 0.  1.
         11    1    3    3    0    0 -0.27947012075E+02 -0.24272099001E+02 -0.98011169535E+01  0.38291411147E+02  0.51100000000E-03 0. -1.
        -11    1    3    3    0    0 -0.51715097284E+01 -0.13867724722E+01 -0.59764232452E+01  0.80240442314E+01  0.51100000000E-03 0.  1.
        -12    1    3    3    0    0  0.32640351225E+02  0.24702606487E+02  0.15277790177E+02  0.43692358234E+02  0.00000000000E+00 0.  1.
</event>
<event>
 7    1  0.1654239E-015  0.9000774E+02  0.7816164E-02  0.1186339E+00
        -11   -1    0    0    0    0  0.00000000000E+00  0.00000000000E+00  0.45593999997E+02  0.45594000000E+02  0.51100000000E-03 0. -1.
         11   -1    0    0    0    0 -0.00000000000E+00 -0.00000000000E+00 -0.45593999997E+02  0.45594000000E+02  0.51100000000E-03 0.  1.
    9900012    2    1    2    0    0  0.10526824874E+01  0.51173267139E+00  0.15164262706E+00  0.90007743150E+02  0.90000004559E+02 0.  0.
        -12    1    1    2    0    0 -0.10526824874E+01 -0.51173267139E+00 -0.15164262706E+00  0.11802568503E+01  0.00000000000E+00 0.  1.
         11    1    3    3    0    0 -0.17162361533E+02  0.11768578127E+02  0.29569995593E+02  0.36158411527E+02  0.51100000000E-03 0. -1.
        -11    1    3    3    0    0 -0.10115809634E+02 -0.21571105832E+01  0.20451585790E+01  0.10543500581E+02  0.51100000000E-03 0.  1.
        -12    1    3    3    0    0  0.28330853654E+02 -0.90997348722E+01 -0.31463511545E+02  0.43305831042E+02  0.00000000000E+00 0.  1.
</event>
<event>
 7    1  0.1654239E-015  0.9000772E+02  0.7816164E-02  0.1186339E+00
        -11   -1    0    0    0    0  0.00000000000E+00  0.00000000000E+00  0.45593999997E+02  0.45594000000E+02  0.51100000000E-03 0. -1.
         11   -1    0    0    0    0 -0.00000000000E+00 -0.00000000000E+00 -0.45593999997E+02  0.45594000000E+02  0.51100000000E-03 0.  1.
    9900012    2    1    2    0    0 -0.10078978437E+01  0.61212257275E+00  0.50196410591E-01  0.90007715379E+02  0.89999976422E+02 0.  0.
        -12    1    1    2    0    0  0.10078978437E+01 -0.61212257275E+00 -0.50196410591E-01  0.11802846212E+01  0.00000000000E+00 0.  1.
         11    1    3    3    0    0  0.32502050620E+02  0.88981754472E+01  0.10796484912E+02  0.35385377029E+02  0.51100000000E-03 0. -1.
        -11    1    3    3    0    0  0.94286446039E+01 -0.84852362902E+00  0.91561691783E+00  0.95109245617E+01  0.51100000000E-03 0.  1.
        -12    1    3    3    0    0 -0.42938593068E+02 -0.74375292454E+01 -0.11661905419E+02  0.45111413788E+02  0.00000000000E+00 0.  1.
</event>
<event>
 7    1  0.1654239E-015  0.9000771E+02  0.7816164E-02  0.1186339E+00
        -11   -1    0    0    0    0  0.00000000000E+00  0.00000000000E+00  0.45593999997E+02  0.45594000000E+02  0.51100000000E-03 0.  1.
         11   -1    0    0    0    0 -0.00000000000E+00 -0.00000000000E+00 -0.45593999997E+02  0.45594000000E+02  0.51100000000E-03 0. -1.
    9900012    2    1    2    0    0 -0.48075171853E-01  0.11221595889E+01 -0.36266043011E+00  0.90007713614E+02  0.89999974634E+02 0.  0.
        -12    1    1    2    0    0  0.48075171853E-01 -0.11221595889E+01  0.36266043011E+00  0.11802863859E+01  0.00000000000E+00 0.  1.
         11    1    3    3    0    0  0.44256564100E+01 -0.69477024706E+01  0.82402765818E+01  0.11651573400E+02  0.51100000000E-03 0. -1.
        -11    1    3    3    0    0  0.15458955541E+02  0.27294591594E+02  0.21054732966E+02  0.37779304087E+02  0.51100000000E-03 0.  1.
         12    1    3    3    0    0 -0.19932687123E+02 -0.19224729535E+02 -0.29657669978E+02  0.40576836128E+02  0.00000000000E+00 0. -1.
</event>
<event>
 7    1  0.1654239E-015  0.9000771E+02  0.7816164E-02  0.1186339E+00
        -11   -1    0    0    0    0  0.00000000000E+00  0.00000000000E+00  0.45593999997E+02  0.45594000000E+02  0.51100000000E-03 0. -1.
         11   -1    0    0    0    0 -0.00000000000E+00 -0.00000000000E+00 -0.45593999997E+02  0.45594000000E+02  0.51100000000E-03 0.  1.
    9900012    2    1    2    0    0  0.38496080143E+00  0.81076761927E+00  0.76651272291E+00  0.90007711601E+02  0.89999972594E+02 0.  0.
        -12    1    1    2    0    0 -0.38496080143E+00 -0.81076761927E+00 -0.76651272291E+00  0.11802883993E+01  0.00000000000E+00 0.  1.
         11    1    3    3    0    0  0.30503617728E+01 -0.25589489217E+01 -0.70969292145E+01  0.81375261022E+01  0.51100000000E-03 0. -1.
        -11    1    3    3    0    0  0.17896802587E+02  0.23079519463E+02 -0.24955188089E+02  0.38415116482E+02  0.51100000000E-03 0.  1.
         12    1    3    3    0    0 -0.20562203559E+02 -0.19709802922E+02  0.32818630027E+02  0.43455069017E+02  0.00000000000E+00 0. -1.
</event>
<event>
 7    1  0.1654239E-015  0.9000671E+02  0.7816164E-02  0.1186341E+00
        -11   -1    0    0    0    0  0.00000000000E+00  0.00000000000E+00  0.45593999997E+02  0.45594000000E+02  0.51100000000E-03 0. -1.
         11   -1    0    0    0    0 -0.00000000000E+00 -0.00000000000E+00 -0.45593999997E+02  0.45594000000E+02  0.51100000000E-03 0.  1.
    9900012    2    1    2    0    0  0.46367054781E+00 -0.66819872671E+00  0.85672233264E+00  0.90006707034E+02  0.89998954761E+02 0.  0.
        -12    1    1    2    0    0 -0.46367054781E+00  0.66819872671E+00 -0.85672233264E+00  0.11812929656E+01  0.00000000000E+00 0.  1.
         11    1    3    3    0    0  0.20831665122E+01 -0.37973936675E+02  0.97929907926E+01  0.39271645219E+02  0.51100000000E-03 0. -1.
        -11    1    3    3    0    0 -0.53906190961E+01 -0.25595481849E+01  0.55525871034E+01  0.81511523695E+01  0.51100000000E-03 0.  1.
        -12    1    3    3    0    0  0.37711231317E+01  0.39865286133E+02 -0.14488855563E+02  0.42583909446E+02  0.00000000000E+00 0.  1.
</event>
<event>
 7    1  0.1654239E-015  0.9000769E+02  0.7816164E-02  0.1186339E+00
        -11   -1    0    0    0    0  0.00000000000E+00  0.00000000000E+00  0.45593999997E+02  0.45594000000E+02  0.51100000000E-03 0. -1.
         11   -1    0    0    0    0 -0.00000000000E+00 -0.00000000000E+00 -0.45593999997E+02  0.45594000000E+02  0.51100000000E-03 0.  1.
    9900012    2    1    2    0    0  0.10205148121E+01 -0.56475729595E+00  0.18090569484E+00  0.90007691500E+02  0.89999952228E+02 0.  0.
        -12    1    1    2    0    0 -0.10205148121E+01  0.56475729595E+00 -0.18090569484E+00  0.11803085001E+01  0.00000000000E+00 0.  1.
         11    1    3    3    0    0  0.32076044409E+02 -0.61994531531E+01 -0.19939019054E+02  0.38273624410E+02  0.51100000000E-03 0. -1.
        -11    1    3    3    0    0 -0.15469408130E+01 -0.97765590549E+01  0.15117583163E+02  0.18069738620E+02  0.51100000000E-03 0.  1.
        -12    1    3    3    0    0 -0.29508588784E+02  0.15411254912E+02  0.50023415863E+01  0.33664328470E+02  0.00000000000E+00 0.  1.
</event>
<event>
 7    1  0.1654239E-015  0.9000760E+02  0.7816164E-02  0.1186339E+00
        -11   -1    0    0    0    0  0.00000000000E+00  0.00000000000E+00  0.45593999997E+02  0.45594000000E+02  0.51100000000E-03 0. -1.
         11   -1    0    0    0    0 -0.00000000000E+00 -0.00000000000E+00 -0.45593999997E+02  0.45594000000E+02  0.51100000000E-03 0.  1.
    9900012    2    1    2    0    0 -0.83389121818E-01  0.50985613232E+00  0.10613347859E+01  0.90007602377E+02  0.89999861928E+02 0.  0.
        -12    1    1    2    0    0  0.83389121818E-01 -0.50985613232E+00 -0.10613347859E+01  0.11803976233E+01  0.00000000000E+00 0.  1.
         11    1    3    3    0    0  0.21809117644E+02  0.29043135102E+02 -0.18819570405E+02  0.40906204168E+02  0.51100000000E-03 0. -1.
        -11    1    3    3    0    0  0.56401528025E+01 -0.27833253345E+01  0.66403595816E+01  0.91461794859E+01  0.51100000000E-03 0.  1.
        -12    1    3    3    0    0 -0.27532659568E+02 -0.25749953635E+02  0.13240545609E+02  0.39955218722E+02  0.00000000000E+00 0.  1.
</event>
<event>
 7    1  0.1654239E-015  0.9000778E+02  0.7816164E-02  0.1186339E+00
        -11   -1    0    0    0    0  0.00000000000E+00  0.00000000000E+00  0.45593999997E+02  0.45594000000E+02  0.51100000000E-03 0. -1.
         11   -1    0    0    0    0 -0.00000000000E+00 -0.00000000000E+00 -0.45593999997E+02  0.45594000000E+02  0.51100000000E-03 0.  1.
    9900012    2    1    2    0    0  0.10826549167E+01  0.46760257076E+00  0.46172861195E-01  0.90007777239E+02  0.90000039098E+02 0.  0.
        -12    1    1    2    0    0 -0.10826549167E+01 -0.46760257076E+00 -0.46172861195E-01  0.11802227611E+01  0.00000000000E+00 0.  1.
         11    1    3    3    0    0 -0.17935824916E+02 -0.17433754815E+02 -0.35673764424E+00  0.25015133108E+02  0.51100000000E-03 0. -1.
        -11    1    3    3    0    0  0.21632280968E+02 -0.70062079730E+01  0.22209305654E+02  0.31785150431E+02  0.51100000000E-03 0.  1.
         12    1    3    3    0    0 -0.26138011351E+01  0.24907565359E+02 -0.21806395148E+02  0.33207493700E+02  0.00000000000E+00 0. -1.
</event>
<event>
 7    1  0.1654239E-015  0.9000769E+02  0.7816164E-02  0.1186339E+00
        -11   -1    0    0    0    0  0.00000000000E+00  0.00000000000E+00  0.45593999997E+02  0.45594000000E+02  0.51100000000E-03 0. -1.
         11   -1    0    0    0    0 -0.00000000000E+00 -0.00000000000E+00 -0.45593999997E+02  0.45594000000E+02  0.51100000000E-03 0.  1.
    9900012    2    1    2    0    0  0.47664329137E+00  0.10315351298E+01  0.31917685874E+00  0.90007691812E+02  0.89999952544E+02 0.  0.
        -12    1    1    2    0    0 -0.47664329137E+00 -0.10315351298E+01 -0.31917685874E+00  0.11803081879E+01  0.00000000000E+00 0.  1.
         11    1    3    3    0    0  0.59028499307E+01 -0.33577973958E+01  0.43495309975E+01  0.80645434350E+01  0.51100000000E-03 0. -1.
        -11    1    3    3    0    0  0.27271409525E+02  0.11110352230E+02 -0.28167044079E+02  0.40749872105E+02  0.51100000000E-03 0.  1.
         12    1    3    3    0    0 -0.32697616165E+02 -0.67210197043E+01  0.24136689941E+02  0.41193276272E+02  0.00000000000E+00 0. -1.
</event>
<event>
 7    1  0.1654239E-015  0.9000771E+02  0.7816164E-02  0.1186339E+00
        -11   -1    0    0    0    0  0.00000000000E+00  0.00000000000E+00  0.45593999997E+02  0.45594000000E+02  0.51100000000E-03 0.  1.
         11   -1    0    0    0    0 -0.00000000000E+00 -0.00000000000E+00 -0.45593999997E+02  0.45594000000E+02  0.51100000000E-03 0. -1.
    9900012    2    1    2    0    0  0.10122715465E+01  0.59590093843E+00  0.11524880454E+00  0.90007714484E+02  0.89999975515E+02 0.  0.
        -12    1    1    2    0    0 -0.10122715465E+01 -0.59590093843E+00 -0.11524880454E+00  0.11802855160E+01  0.00000000000E+00 0.  1.
         11    1    3    3    0    0 -0.29208402672E+02 -0.18999302658E+02  0.59835156394E+00  0.34849136474E+02  0.51100000000E-03 0. -1.
        -11    1    3    3    0    0 -0.15059580574E+01 -0.10948459850E+02 -0.11718331551E+01  0.11113499717E+02  0.51100000000E-03 0.  1.
        -12    1    3    3    0    0  0.31726632275E+02  0.30543663447E+02  0.68873039572E+00  0.44045078293E+02  0.00000000000E+00 0.  1.
</event>
<event>
 7    1  0.1654239E-015  0.9000774E+02  0.7816164E-02  0.1186339E+00
        -11   -1    0    0    0    0  0.00000000000E+00  0.00000000000E+00  0.45593999997E+02  0.45594000000E+02  0.51100000000E-03 0.  1.
         11   -1    0    0    0    0 -0.00000000000E+00 -0.00000000000E+00 -0.45593999997E+02  0.45594000000E+02  0.51100000000E-03 0. -1.
    9900012    2    1    2    0    0 -0.15988381487E+00 -0.51495548585E+00 -0.10498958723E+01  0.90007735907E+02  0.89999997221E+02 0.  0.
        -12    1    1    2    0    0  0.15988381487E+00  0.51495548585E+00  0.10498958723E+01  0.11802640931E+01  0.00000000000E+00 0.  1.
         11    1    3    3    0    0 -0.10126909301E+02  0.28816774693E+02 -0.18160236921E+02  0.35535264189E+02  0.51100000000E-03 0. -1.
        -11    1    3    3    0    0 -0.74335844597E+01  0.49672763993E+01 -0.48631956007E+01  0.10177557883E+02  0.51100000000E-03 0.  1.
        -12    1    3    3    0    0  0.17400609946E+02 -0.34299006578E+02  0.21973536650E+02  0.44294913835E+02  0.00000000000E+00 0.  1.
</event>
<event>
 7    1  0.1654239E-015  0.9000773E+02  0.7816164E-02  0.1186339E+00
        -11   -1    0    0    0    0  0.00000000000E+00  0.00000000000E+00  0.45593999997E+02  0.45594000000E+02  0.51100000000E-03 0.  1.
         11   -1    0    0    0    0 -0.00000000000E+00 -0.00000000000E+00 -0.45593999997E+02  0.45594000000E+02  0.51100000000E-03 0. -1.
    9900012    2    1    2    0    0  0.26010700351E+00  0.10244176051E+01 -0.52531174307E+00  0.90007729052E+02  0.89999990276E+02 0.  0.
        -12    1    1    2    0    0 -0.26010700351E+00 -0.10244176051E+01  0.52531174307E+00  0.11802709479E+01  0.00000000000E+00 0.  1.
         11    1    3    3    0    0  0.13053542066E+02 -0.33368804327E+02 -0.17311305131E+02  0.39793885815E+02  0.51100000000E-03 0. -1.
        -11    1    3    3    0    0  0.72060921651E+01  0.98810362370E+00  0.69413180733E+01  0.10054153864E+02  0.51100000000E-03 0.  1.
        -12    1    3    3    0    0 -0.19999527228E+02  0.33405118308E+02  0.98446753152E+01  0.40159689373E+02  0.00000000000E+00 0.  1.
</event>
<event>
 7    1  0.1654239E-015  0.9000770E+02  0.7816164E-02  0.1186339E+00
        -11   -1    0    0    0    0  0.00000000000E+00  0.00000000000E+00  0.45593999997E+02  0.45594000000E+02  0.51100000000E-03 0.  1.
         11   -1    0    0    0    0 -0.00000000000E+00 -0.00000000000E+00 -0.45593999997E+02  0.45594000000E+02  0.51100000000E-03 0. -1.
    9900012    2    1    2    0    0  0.11450331642E+01  0.22477599420E+00 -0.17743904169E+00  0.90007699272E+02  0.89999960103E+02 0.  0.
        -12    1    1    2    0    0 -0.11450331642E+01 -0.22477599420E+00  0.17743904169E+00  0.11803007279E+01  0.00000000000E+00 0.  1.
         11    1    3    3    0    0  0.10449438835E+02  0.14229931298E+02 -0.33808169336E+02  0.38140189182E+02  0.51100000000E-03 0. -1.
        -11    1    3    3    0    0 -0.53837267590E+01 -0.33947029741E+01 -0.71351713637E+01  0.95613384392E+01  0.51100000000E-03 0.  1.
        -12    1    3    3    0    0 -0.39206789117E+01 -0.10610452329E+02  0.40765901658E+02  0.42306171651E+02  0.00000000000E+00 0.  1.
</event>
<event>
 7    1  0.1654239E-015  0.9000766E+02  0.7816164E-02  0.1186339E+00
        -11   -1    0    0    0    0  0.00000000000E+00  0.00000000000E+00  0.45593999997E+02  0.45594000000E+02  0.51100000000E-03 0.  1.
         11   -1    0    0    0    0 -0.00000000000E+00 -0.00000000000E+00 -0.45593999997E+02  0.45594000000E+02  0.51100000000E-03 0. -1.
    9900012    2    1    2    0    0 -0.51145005431E+00 -0.10094386377E+01 -0.33564022214E+00  0.90007660269E+02  0.89999920585E+02 0.  0.
        -12    1    1    2    0    0  0.51145005431E+00  0.10094386377E+01  0.33564022214E+00  0.11803397308E+01  0.00000000000E+00 0.  1.
         11    1    3    3    0    0 -0.39792100448E+01  0.12396973461E+01  0.68084906890E+01  0.79828884380E+01  0.51100000000E-03 0. -1.
        -11    1    3    3    0    0  0.56673386658E+00  0.18708479408E+02  0.32261835547E+02  0.37298182558E+02  0.51100000000E-03 0.  1.
         12    1    3    3    0    0  0.29010261239E+01 -0.20957615392E+02 -0.39405966458E+02  0.44726589273E+02  0.00000000000E+00 0. -1.
</event>
<event>
 7    1  0.1654239E-015  0.9000780E+02  0.7816164E-02  0.1186339E+00
        -11   -1    0    0    0    0  0.00000000000E+00  0.00000000000E+00  0.45593999997E+02  0.45594000000E+02  0.51100000000E-03 0.  1.
         11   -1    0    0    0    0 -0.00000000000E+00 -0.00000000000E+00 -0.45593999997E+02  0.45594000000E+02  0.51100000000E-03 0. -1.
    9900012    2    1    2    0    0 -0.29656234713E+00  0.37631048913E+00 -0.10785740223E+01  0.90007796318E+02  0.90000058429E+02 0.  0.
        -12    1    1    2    0    0  0.29656234713E+00 -0.37631048913E+00  0.10785740223E+01  0.11802036822E+01  0.00000000000E+00 0.  1.
         11    1    3    3    0    0  0.34243335192E+01 -0.10930817241E+02 -0.14139028653E+02  0.18196729297E+02  0.51100000000E-03 0. -1.
        -11    1    3    3    0    0  0.17414319833E+02 -0.23317615104E+02 -0.29263598509E+00  0.29104215252E+02  0.51100000000E-03 0.  1.
         12    1    3    3    0    0 -0.21135215699E+02  0.34624742834E+02  0.13353090616E+02  0.42706851768E+02  0.00000000000E+00 0. -1.
</event>
<event>
 7    1  0.1654239E-015  0.9000784E+02  0.7816164E-02  0.1186339E+00
        -11   -1    0    0    0    0  0.00000000000E+00  0.00000000000E+00  0.45593999997E+02  0.45594000000E+02  0.51100000000E-03 0. -1.
         11   -1    0    0    0    0 -0.00000000000E+00 -0.00000000000E+00 -0.45593999997E+02  0.45594000000E+02  0.51100000000E-03 0.  1.
    9900012    2    1    2    0    0  0.36649294531E+00 -0.11161463132E+01  0.11257438377E+00  0.90007842102E+02  0.90000104818E+02 0.  0.
        -12    1    1    2    0    0 -0.36649294531E+00  0.11161463132E+01 -0.11257438377E+00  0.11801578976E+01  0.00000000000E+00 0.  1.
         11    1    3    3    0    0  0.29129380009E+02  0.28937976724E+02 -0.57837603374E+01  0.41465397146E+02  0.51100000000E-03 0. -1.
        -11    1    3    3    0    0 -0.22821454150E+01 -0.40984888417E+00  0.84001613352E+01  0.87142913953E+01  0.51100000000E-03 0.  1.
        -12    1    3    3    0    0 -0.26480741649E+02 -0.29644274153E+02 -0.25038266140E+01  0.39828153561E+02  0.00000000000E+00 0.  1.
</event>
<event>
 7    1  0.1654239E-015  0.9000771E+02  0.7816164E-02  0.1186339E+00
        -11   -1    0    0    0    0  0.00000000000E+00  0.00000000000E+00  0.45593999997E+02  0.45594000000E+02  0.51100000000E-03 0. -1.
         11   -1    0    0    0    0 -0.00000000000E+00 -0.00000000000E+00 -0.45593999997E+02  0.45594000000E+02  0.51100000000E-03 0.  1.
    9900012    2    1    2    0    0 -0.26821593816E+00 -0.11053274456E+01 -0.31528397508E+00  0.90007706589E+02  0.89999967516E+02 0.  0.
        -12    1    1    2    0    0  0.26821593816E+00  0.11053274456E+01  0.31528397508E+00  0.11802934112E+01  0.00000000000E+00 0.  1.
         11    1    3    3    0    0 -0.25794290625E+01 -0.57650764621E+01 -0.71384315566E+01  0.95313569995E+01  0.51100000000E-03 0. -1.
        -11    1    3    3    0    0 -0.33278777092E+02 -0.31401412564E+01 -0.16437652047E+02  0.37249616064E+02  0.51100000000E-03 0.  1.
         12    1    3    3    0    0  0.35589990217E+02  0.77998902729E+01  0.23260799628E+02  0.43226733525E+02  0.00000000000E+00 0. -1.
</event>
<event>
 7    1  0.1910009E-015  0.9000775E+02  0.7816164E-02  0.1186339E+00
        -11   -1    0    0    0    0  0.00000000000E+00  0.00000000000E+00  0.45593999997E+02  0.45594000000E+02  0.51100000000E-03 0.  1.
         11   -1    0    0    0    0 -0.00000000000E+00 -0.00000000000E+00 -0.45593999997E+02  0.45594000000E+02  0.51100000000E-03 0. -1.
    9900012    2    1    2    0    0 -0.10549716791E+01  0.23737767003E-01 -0.52864751020E+00  0.90007747097E+02  0.90000008559E+02 0.  0.
        -12    1    1    2    0    0  0.10549716791E+01 -0.23737767003E-01  0.52864751020E+00  0.11802529031E+01  0.00000000000E+00 0.  1.
         11    1    3    3    0    0  0.32316931100E+01 -0.49745845409E+01  0.70481340563E+01  0.92123029503E+01  0.51100000000E-03 0. -1.
        -11    1    3    3    0    0  0.28912071445E+02  0.27760313454E+00  0.21803115851E+02  0.36212715996E+02  0.51100000000E-03 0.  1.
         12    1    3    3    0    0 -0.33198736234E+02  0.47207191734E+01 -0.29379897417E+02  0.44582728150E+02  0.00000000000E+00 0. -1.
</event>
<event>
 7    1  0.1654239E-015  0.9000887E+02  0.7816164E-02  0.1186337E+00
        -11   -1    0    0    0    0  0.00000000000E+00  0.00000000000E+00  0.45593999997E+02  0.45594000000E+02  0.51100000000E-03 0. -1.
         11   -1    0    0    0    0 -0.00000000000E+00 -0.00000000000E+00 -0.45593999997E+02  0.45594000000E+02  0.51100000000E-03 0.  1.
    9900012    2    1    2    0    0  0.18376880472E+00 -0.75795920744E+00  0.88435602561E+00  0.90008865269E+02  0.90001141483E+02 0.  0.
        -12    1    1    2    0    0 -0.18376880472E+00  0.75795920744E+00 -0.88435602561E+00  0.11791347310E+01  0.00000000000E+00 0.  1.
         11    1    3    3    0    0  0.63322054922E+01 -0.64730479484E+01  0.10891955196E+01  0.91205001661E+01  0.51100000000E-03 0. -1.
        -11    1    3    3    0    0  0.36145906836E+02 -0.57268157474E+01 -0.44599509883E+01  0.36867521787E+02  0.51100000000E-03 0.  1.
         12    1    3    3    0    0 -0.42294343524E+02  0.11441904488E+02  0.42551114943E+01  0.44020843316E+02  0.00000000000E+00 0. -1.
</event>
<event>
 7    1  0.1654239E-015  0.9000770E+02  0.7816164E-02  0.1186339E+00
        -11   -1    0    0    0    0  0.00000000000E+00  0.00000000000E+00  0.45593999997E+02  0.45594000000E+02  0.51100000000E-03 0. -1.
         11   -1    0    0    0    0 -0.00000000000E+00 -0.00000000000E+00 -0.45593999997E+02  0.45594000000E+02  0.51100000000E-03 0.  1.
    9900012    2    1    2    0    0 -0.52241906757E+00  0.78251068070E+00  0.71264874850E+00  0.90007697968E+02  0.89999958781E+02 0.  0.
        -12    1    1    2    0    0  0.52241906757E+00 -0.78251068070E+00 -0.71264874850E+00  0.11803020318E+01  0.00000000000E+00 0.  1.
         11    1    3    3    0    0  0.17528195510E+02  0.18128549839E+02  0.30640931641E+02  0.39683102817E+02  0.51100000000E-03 0. -1.
        -11    1    3    3    0    0 -0.38517211606E+01  0.93034603102E+01 -0.96837536513E+01  0.13970154426E+02  0.51100000000E-03 0.  1.
        -12    1    3    3    0    0 -0.14198893417E+02 -0.26649499469E+02 -0.20244529241E+02  0.36354440725E+02  0.00000000000E+00 0.  1.
</event>
<event>
 7    1  0.1654239E-015  0.9000783E+02  0.7816164E-02  0.1186339E+00
        -11   -1    0    0    0    0  0.00000000000E+00  0.00000000000E+00  0.45593999997E+02  0.45594000000E+02  0.51100000000E-03 0.  1.
         11   -1    0    0    0    0 -0.00000000000E+00 -0.00000000000E+00 -0.45593999997E+02  0.45594000000E+02  0.51100000000E-03 0. -1.
    9900012    2    1    2    0    0 -0.35768401749E+00  0.10015870417E+01 -0.51154338498E+00  0.90007834294E+02  0.90000096907E+02 0.  0.
        -12    1    1    2    0    0  0.35768401749E+00 -0.10015870417E+01  0.51154338498E+00  0.11801657058E+01  0.00000000000E+00 0.  1.
         11    1    3    3    0    0 -0.70920541999E+01 -0.40579525206E+01  0.10486837219E+01  0.82379578321E+01  0.51100000000E-03 0. -1.
        -11    1    3    3    0    0  0.27627281069E+01  0.32882029798E+02  0.26299899071E+02  0.42196507458E+02  0.51100000000E-03 0.  1.
         12    1    3    3    0    0  0.39716420755E+01 -0.27822490236E+02 -0.27860126178E+02  0.39573369004E+02  0.00000000000E+00 0. -1.
</event>
<event>
 7    1  0.1654239E-015  0.9000781E+02  0.7816164E-02  0.1186339E+00
        -11   -1    0    0    0    0  0.00000000000E+00  0.00000000000E+00  0.45593999997E+02  0.45594000000E+02  0.51100000000E-03 0. -1.
         11   -1    0    0    0    0 -0.00000000000E+00 -0.00000000000E+00 -0.45593999997E+02  0.45594000000E+02  0.51100000000E-03 0.  1.
    9900012    2    1    2    0    0  0.89097906120E+00  0.75252891163E+00  0.18083096302E+00  0.90007812181E+02  0.90000074502E+02 0.  0.
        -12    1    1    2    0    0 -0.89097906120E+00 -0.75252891163E+00 -0.18083096302E+00  0.11801878187E+01  0.00000000000E+00 0.  1.
         11    1    3    3    0    0  0.10533250770E+02  0.33608952807E+02  0.10628135837E+02  0.36789514160E+02  0.51100000000E-03 0. -1.
        -11    1    3    3    0    0  0.75122747642E+01  0.52826085112E+01  0.23592724025E+01  0.94818980877E+01  0.51100000000E-03 0.  1.
        -12    1    3    3    0    0 -0.17154546473E+02 -0.38139032406E+02 -0.12806577276E+02  0.43736399933E+02  0.00000000000E+00 0.  1.
</event>
<event>
 7    1  0.1654239E-015  0.9000783E+02  0.7816164E-02  0.1186339E+00
        -11   -1    0    0    0    0  0.00000000000E+00  0.00000000000E+00  0.45593999997E+02  0.45594000000E+02  0.51100000000E-03 0. -1.
         11   -1    0    0    0    0 -0.00000000000E+00 -0.00000000000E+00 -0.45593999997E+02  0.45594000000E+02  0.51100000000E-03 0.  1.
    9900012    2    1    2    0    0  0.43925785877E+00  0.96781004857E+00  0.51303539997E+00  0.90007826674E+02  0.90000089187E+02 0.  0.
        -12    1    1    2    0    0 -0.43925785877E+00 -0.96781004857E+00 -0.51303539997E+00  0.11801733255E+01  0.00000000000E+00 0.  1.
         11    1    3    3    0    0  0.73321828913E+01  0.33698223292E+02  0.19459899179E+02  0.39598217577E+02  0.51100000000E-03 0. -1.
        -11    1    3    3    0    0 -0.23306890145E+01  0.66507932559E+01 -0.23181701854E+01  0.74188324879E+01  0.51100000000E-03 0.  1.
        -12    1    3    3    0    0 -0.45622360180E+01 -0.39381206499E+02 -0.16628693594E+02  0.42990776609E+02  0.00000000000E+00 0.  1.
</event>
<event>
 7    1  0.1654239E-015  0.9000769E+02  0.7816164E-02  0.1186339E+00
        -11   -1    0    0    0    0  0.00000000000E+00  0.00000000000E+00  0.45593999997E+02  0.45594000000E+02  0.51100000000E-03 0. -1.
         11   -1    0    0    0    0 -0.00000000000E+00 -0.00000000000E+00 -0.45593999997E+02  0.45594000000E+02  0.51100000000E-03 0.  1.
    9900012    2    1    2    0    0  0.23688305650E+00 -0.11149470306E+01  0.30644507505E+00  0.90007691122E+02  0.89999951845E+02 0.  0.
        -12    1    1    2    0    0 -0.23688305650E+00  0.11149470306E+01 -0.30644507505E+00  0.11803088781E+01  0.00000000000E+00 0.  1.
         11    1    3    3    0    0 -0.36084427048E+02 -0.82769224998E+00  0.99567862865E+01  0.37442069164E+02  0.51100000000E-03 0. -1.
        -11    1    3    3    0    0 -0.53646491905E+01 -0.75885246500E+01 -0.78405390276E+00  0.93263019512E+01  0.51100000000E-03 0.  1.
        -12    1    3    3    0    0  0.41685959295E+02  0.73012698694E+01 -0.88662873087E+01  0.43239320007E+02  0.00000000000E+00 0.  1.
</event>
<event>
 7    1  0.1654239E-015  0.9000766E+02  0.7816164E-02  0.1186339E+00
        -11   -1    0    0    0    0  0.00000000000E+00  0.00000000000E+00  0.45593999997E+02  0.45594000000E+02  0.51100000000E-03 0.  1.
         11   -1    0    0    0    0 -0.00000000000E+00 -0.00000000000E+00 -0.45593999997E+02  0.45594000000E+02  0.51100000000E-03 0. -1.
    9900012    2    1    2    0    0 -0.84386234901E+00  0.91608450401E-01 -0.82018024240E+00  0.90007664708E+02  0.89999925082E+02 0.  0.
        -12    1    1    2    0    0  0.84386234901E+00 -0.91608450401E-01  0.82018024240E+00  0.11803352923E+01  0.00000000000E+00 0.  1.
         11    1    3    3    0    0 -0.80646093649E+01 -0.58314017854E+01 -0.23386611752E+01  0.10223135886E+02  0.51100000000E-03 0. -1.
        -11    1    3    3    0    0 -0.40644562135E+01 -0.14610059717E+02  0.35445560155E+02  0.38553357626E+02  0.51100000000E-03 0.  1.
         12    1    3    3    0    0  0.11285203229E+02  0.20533069953E+02 -0.33927079222E+02  0.41231171196E+02  0.00000000000E+00 0. -1.
</event>
<event>
 7    1  0.1654239E-015  0.9000773E+02  0.7816164E-02  0.1186339E+00
        -11   -1    0    0    0    0  0.00000000000E+00  0.00000000000E+00  0.45593999997E+02  0.45594000000E+02  0.51100000000E-03 0. -1.
         11   -1    0    0    0    0 -0.00000000000E+00 -0.00000000000E+00 -0.45593999997E+02  0.45594000000E+02  0.51100000000E-03 0.  1.
    9900012    2    1    2    0    0 -0.26383016032E-01  0.83030672535E+00  0.83840972494E+00  0.90007730459E+02  0.89999991701E+02 0.  0.
        -12    1    1    2    0    0  0.26383016032E-01 -0.83030672535E+00 -0.83840972494E+00  0.11802695406E+01  0.00000000000E+00 0.  1.
         11    1    3    3    0    0 -0.35016189000E+02 -0.54344191994E+01 -0.10136817374E+02  0.36856769675E+02  0.51100000000E-03 0. -1.
        -11    1    3    3    0    0 -0.39061835590E+01 -0.48984777589E+01  0.11029429891E+02  0.12684702533E+02  0.51100000000E-03 0.  1.
        -12    1    3    3    0    0  0.38895989543E+02  0.11163203684E+02 -0.54202791870E-01  0.40466258252E+02  0.00000000000E+00 0.  1.
</event>
<event>
 7    1  0.1654239E-015  0.9000780E+02  0.7816164E-02  0.1186339E+00
        -11   -1    0    0    0    0  0.00000000000E+00  0.00000000000E+00  0.45593999997E+02  0.45594000000E+02  0.51100000000E-03 0. -1.
         11   -1    0    0    0    0 -0.00000000000E+00 -0.00000000000E+00 -0.45593999997E+02  0.45594000000E+02  0.51100000000E-03 0.  1.
    9900012    2    1    2    0    0 -0.11132224251E+01  0.25978155614E+00  0.29346817513E+00  0.90007799087E+02  0.90000061235E+02 0.  0.
        -12    1    1    2    0    0  0.11132224251E+01 -0.25978155614E+00 -0.29346817513E+00  0.11802009128E+01  0.00000000000E+00 0.  1.
         11    1    3    3    0    0  0.77345240400E+01  0.61956842893E+00 -0.29234774423E+01  0.82917698822E+01  0.51100000000E-03 0. -1.
        -11    1    3    3    0    0  0.17544442374E+02  0.22371037440E+02 -0.24242151069E+02  0.37362449907E+02  0.51100000000E-03 0.  1.
         12    1    3    3    0    0 -0.26392188839E+02 -0.22730824312E+02  0.27459096687E+02  0.44353579298E+02  0.00000000000E+00 0. -1.
</event>
<event>
 7    1  0.1654239E-015  0.9000775E+02  0.7816164E-02  0.1186339E+00
        -11   -1    0    0    0    0  0.00000000000E+00  0.00000000000E+00  0.45593999997E+02  0.45594000000E+02  0.51100000000E-03 0. -1.
         11   -1    0    0    0    0 -0.00000000000E+00 -0.00000000000E+00 -0.45593999997E+02  0.45594000000E+02  0.51100000000E-03 0.  1.
    9900012    2    1    2    0    0  0.10691713019E+01  0.13372382307E+00 -0.48165141808E+00  0.90007746882E+02  0.90000008341E+02 0.  0.
        -12    1    1    2    0    0 -0.10691713019E+01 -0.13372382307E+00  0.48165141808E+00  0.11802531178E+01  0.00000000000E+00 0.  1.
         11    1    3    3    0    0  0.62017440511E+00  0.63500811443E+01 -0.58390556647E+01  0.86488564648E+01  0.51100000000E-03 0. -1.
        -11    1    3    3    0    0 -0.83269497122E+01  0.36460885648E+02  0.54080412160E+01  0.37788638290E+02  0.51100000000E-03 0.  1.
         12    1    3    3    0    0  0.87759466090E+01 -0.42677242969E+02 -0.50636969396E-01  0.43570252127E+02  0.00000000000E+00 0. -1.
</event>
<event>
 7    1  0.1654239E-015  0.9000777E+02  0.7816164E-02  0.1186339E+00
        -11   -1    0    0    0    0  0.00000000000E+00  0.00000000000E+00  0.45593999997E+02  0.45594000000E+02  0.51100000000E-03 0.  1.
         11   -1    0    0    0    0 -0.00000000000E+00 -0.00000000000E+00 -0.45593999997E+02  0.45594000000E+02  0.51100000000E-03 0. -1.
    9900012    2    1    2    0    0  0.98517510995E+00 -0.28745831756E+00 -0.58287361035E+00  0.90007769545E+02  0.90000031303E+02 0.  0.
        -12    1    1    2    0    0 -0.98517510995E+00  0.28745831756E+00  0.58287361035E+00  0.11802304551E+01  0.00000000000E+00 0.  1.
         11    1    3    3    0    0  0.69440281826E+01 -0.50857204056E+01  0.16752435731E+01  0.87687240084E+01  0.51100000000E-03 0. -1.
        -11    1    3    3    0    0  0.32046946504E+02 -0.13689643813E+02 -0.13714327448E+02  0.37449911957E+02  0.51100000000E-03 0.  1.
         12    1    3    3    0    0 -0.38005799577E+02  0.18487905901E+02  0.11456210264E+02  0.43789133580E+02  0.00000000000E+00 0. -1.
</event>
<event>
 7    1  0.1654239E-015  0.9000777E+02  0.7816164E-02  0.1186339E+00
        -11   -1    0    0    0    0  0.00000000000E+00  0.00000000000E+00  0.45593999997E+02  0.45594000000E+02  0.51100000000E-03 0. -1.
         11   -1    0    0    0    0 -0.00000000000E+00 -0.00000000000E+00 -0.45593999997E+02  0.45594000000E+02  0.51100000000E-03 0.  1.
    9900012    2    1    2    0    0 -0.51723371781E-01  0.10036564729E+01  0.61882898864E+00  0.90007766574E+02  0.90000028293E+02 0.  0.
        -12    1    1    2    0    0  0.51723371781E-01 -0.10036564729E+01 -0.61882898864E+00  0.11802334261E+01  0.00000000000E+00 0.  1.
         11    1    3    3    0    0 -0.11129168657E+02 -0.13630929050E+02  0.31437821250E+02  0.36027728584E+02  0.51100000000E-03 0. -1.
        -11    1    3    3    0    0 -0.92122176524E+01  0.81796597926E+00  0.50333197056E+01  0.10529403114E+02  0.51100000000E-03 0.  1.
        -12    1    3    3    0    0  0.20289662937E+02  0.13816619543E+02 -0.35852311967E+02  0.43450634875E+02  0.00000000000E+00 0.  1.
</event>
<event>
 7    1  0.1654239E-015  0.9000780E+02  0.7816164E-02  0.1186339E+00
        -11   -1    0    0    0    0  0.00000000000E+00  0.00000000000E+00  0.45593999997E+02  0.45594000000E+02  0.51100000000E-03 0.  1.
         11   -1    0    0    0    0 -0.00000000000E+00 -0.00000000000E+00 -0.45593999997E+02  0.45594000000E+02  0.51100000000E-03 0. -1.
    9900012    2    1    2    0    0  0.60869866530E+00 -0.80369196665E-01 -0.10079228461E+01  0.90007795892E+02  0.90000057998E+02 0.  0.
        -12    1    1    2    0    0 -0.60869866530E+00  0.80369196665E-01  0.10079228461E+01  0.11802041081E+01  0.00000000000E+00 0.  1.
         11    1    3    3    0    0 -0.37566553319E+02 -0.19320464978E+01  0.51269631627E+01  0.37963989299E+02  0.51100000000E-03 0. -1.
        -11    1    3    3    0    0 -0.88422559026E+00  0.66623585833E+01  0.77989876280E+01  0.10295294317E+02  0.51100000000E-03 0.  1.
        -12    1    3    3    0    0  0.39059477574E+02 -0.48106812822E+01 -0.13933873637E+02  0.41748512277E+02  0.00000000000E+00 0.  1.
</event>
<event>
 7    1  0.1654239E-015  0.9000783E+02  0.7816164E-02  0.1186339E+00
        -11   -1    0    0    0    0  0.00000000000E+00  0.00000000000E+00  0.45593999997E+02  0.45594000000E+02  0.51100000000E-03 0.  1.
         11   -1    0    0    0    0 -0.00000000000E+00 -0.00000000000E+00 -0.45593999997E+02  0.45594000000E+02  0.51100000000E-03 0. -1.
    9900012    2    1    2    0    0  0.23413431320E+00  0.41639665927E+00 -0.10791621521E+01  0.90007832213E+02  0.90000094798E+02 0.  0.
        -12    1    1    2    0    0 -0.23413431320E+00 -0.41639665927E+00  0.10791621521E+01  0.11801677868E+01  0.00000000000E+00 0.  1.
         11    1    3    3    0    0 -0.12213147141E+01 -0.88845301371E+01  0.51143081564E+00  0.89826525664E+01  0.51100000000E-03 0. -1.
        -11    1    3    3    0    0  0.20936713256E+01 -0.25711117575E+02  0.25862947588E+02  0.36528579014E+02  0.51100000000E-03 0.  1.
         12    1    3    3    0    0 -0.63822229837E+00  0.35012044372E+02 -0.27453540556E+02  0.44496600633E+02  0.00000000000E+00 0. -1.
</event>
<event>
 7    1  0.1654239E-015  0.9000765E+02  0.7816164E-02  0.1186339E+00
        -11   -1    0    0    0    0  0.00000000000E+00  0.00000000000E+00  0.45593999997E+02  0.45594000000E+02  0.51100000000E-03 0. -1.
         11   -1    0    0    0    0 -0.00000000000E+00 -0.00000000000E+00 -0.45593999997E+02  0.45594000000E+02  0.51100000000E-03 0.  1.
    9900012    2    1    2    0    0  0.93412641118E-01  0.11152094255E+01 -0.37523187125E+00  0.90007653889E+02  0.89999914120E+02 0.  0.
        -12    1    1    2    0    0 -0.93412641118E-01 -0.11152094255E+01  0.37523187125E+00  0.11803461108E+01  0.00000000000E+00 0.  1.
         11    1    3    3    0    0 -0.19875722865E+02  0.24694646448E+02  0.27005451386E+02  0.41643298710E+02  0.51100000000E-03 0. -1.
        -11    1    3    3    0    0  0.64246907184E+01  0.50097964020E+01 -0.43667476517E+01  0.92435488927E+01  0.51100000000E-03 0.  1.
        -12    1    3    3    0    0  0.13544444788E+02 -0.28589233425E+02 -0.23013935605E+02  0.39120806286E+02  0.00000000000E+00 0.  1.
</event>
<event>
 7    1  0.1661065E-015  0.9000768E+02  0.7816164E-02  0.1186339E+00
        -11   -1    0    0    0    0  0.00000000000E+00  0.00000000000E+00  0.45593999997E+02  0.45594000000E+02  0.51100000000E-03 0.  1.
         11   -1    0    0    0    0 -0.00000000000E+00 -0.00000000000E+00 -0.45593999997E+02  0.45594000000E+02  0.51100000000E-03 0. -1.
    9900012    2    1    2    0    0 -0.25339896090E+00 -0.11260644299E+01 -0.24681549957E+00  0.90007682236E+02  0.89999942841E+02 0.  0.
        -12    1    1    2    0    0  0.25339896090E+00  0.11260644299E+01  0.24681549957E+00  0.11803177642E+01  0.00000000000E+00 0.  1.
         11    1    3    3    0    0 -0.34927826997E+01 -0.64969933724E+01  0.65278775729E+01  0.98500578544E+01  0.51100000000E-03 0. -1.
        -11    1    3    3    0    0  0.35633971584E+02 -0.50631701058E+01  0.15811037498E+02  0.39311633513E+02  0.51100000000E-03 0.  1.
         12    1    3    3    0    0 -0.32394587846E+02  0.10434099048E+02 -0.22585730571E+02  0.40845990869E+02  0.00000000000E+00 0. -1.
</event>
<event>
 7    1  0.1654239E-015  0.9000782E+02  0.7816164E-02  0.1186339E+00
        -11   -1    0    0    0    0  0.00000000000E+00  0.00000000000E+00  0.45593999997E+02  0.45594000000E+02  0.51100000000E-03 0.  1.
         11   -1    0    0    0    0 -0.00000000000E+00 -0.00000000000E+00 -0.45593999997E+02  0.45594000000E+02  0.51100000000E-03 0. -1.
    9900012    2    1    2    0    0 -0.30216068497E+00  0.98214161605E+00 -0.58044177639E+00  0.90007823789E+02  0.90000086263E+02 0.  0.
        -12    1    1    2    0    0  0.30216068497E+00 -0.98214161605E+00  0.58044177639E+00  0.11801762111E+01  0.00000000000E+00 0.  1.
         11    1    3    3    0    0 -0.10119963725E+02  0.23712752677E+02  0.22638169560E+02  0.34310275816E+02  0.51100000000E-03 0. -1.
        -11    1    3    3    0    0  0.21450112484E+01  0.50399808192E+01  0.10197803200E+02  0.11575736273E+02  0.51100000000E-03 0.  1.
        -12    1    3    3    0    0  0.76727917918E+01 -0.27770591880E+02 -0.33416414536E+02  0.44121811699E+02  0.00000000000E+00 0.  1.
</event>
<event>
 7    1  0.1654239E-015  0.9000768E+02  0.7816164E-02  0.1186339E+00
        -11   -1    0    0    0    0  0.00000000000E+00  0.00000000000E+00  0.45593999997E+02  0.45594000000E+02  0.51100000000E-03 0. -1.
         11   -1    0    0    0    0 -0.00000000000E+00 -0.00000000000E+00 -0.45593999997E+02  0.45594000000E+02  0.51100000000E-03 0.  1.
    9900012    2    1    2    0    0  0.10309195967E+01  0.28406195136E+00  0.49967952758E+00  0.90007675453E+02  0.89999935969E+02 0.  0.
        -12    1    1    2    0    0 -0.10309195967E+01 -0.28406195136E+00 -0.49967952758E+00  0.11803245474E+01  0.00000000000E+00 0.  1.
         11    1    3    3    0    0 -0.22025339751E+02  0.22642833259E+02 -0.49556402030E+01  0.31974550180E+02  0.51100000000E-03 0. -1.
        -11    1    3    3    0    0  0.17673820777E+01 -0.11878968044E+01 -0.19117434356E+02  0.19235670896E+02  0.51100000000E-03 0.  1.
        -12    1    3    3    0    0  0.21288877270E+02 -0.21170874503E+02  0.24572754086E+02  0.38797454376E+02  0.00000000000E+00 0.  1.
</event>
<event>
 7    1  0.1654239E-015  0.9000768E+02  0.7816164E-02  0.1186339E+00
        -11   -1    0    0    0    0  0.00000000000E+00  0.00000000000E+00  0.45593999997E+02  0.45594000000E+02  0.51100000000E-03 0. -1.
         11   -1    0    0    0    0 -0.00000000000E+00 -0.00000000000E+00 -0.45593999997E+02  0.45594000000E+02  0.51100000000E-03 0.  1.
    9900012    2    1    2    0    0  0.63090078301E+00  0.78238696804E+00  0.61886446801E+00  0.90007678690E+02  0.89999939248E+02 0.  0.
        -12    1    1    2    0    0 -0.63090078301E+00 -0.78238696804E+00 -0.61886446801E+00  0.11803213103E+01  0.00000000000E+00 0.  1.
         11    1    3    3    0    0  0.21303967394E+02 -0.70139408060E+01  0.58670978555E+01  0.23183555160E+02  0.51100000000E-03 0. -1.
        -11    1    3    3    0    0  0.12180687064E+02 -0.19918331124E+02 -0.48192447826E+01  0.23839760331E+02  0.51100000000E-03 0.  1.
         12    1    3    3    0    0 -0.32853753674E+02  0.27714658898E+02 -0.42898860487E+00  0.42984363199E+02  0.00000000000E+00 0. -1.
</event>
<event>
 7    1  0.1654239E-015  0.9000766E+02  0.7816164E-02  0.1186339E+00
        -11   -1    0    0    0    0  0.00000000000E+00  0.00000000000E+00  0.45593999997E+02  0.45594000000E+02  0.51100000000E-03 0.  1.
         11   -1    0    0    0    0 -0.00000000000E+00 -0.00000000000E+00 -0.45593999997E+02  0.45594000000E+02  0.51100000000E-03 0. -1.
    9900012    2    1    2    0    0  0.94768755593E+00 -0.13085963122E+00 -0.69135593778E+00  0.90007657262E+02  0.89999917538E+02 0.  0.
        -12    1    1    2    0    0 -0.94768755593E+00  0.13085963122E+00  0.69135593778E+00  0.11803427381E+01  0.00000000000E+00 0.  1.
         11    1    3    3    0    0 -0.13691789700E+02  0.31429490533E+02  0.54751976169E+01  0.34716793769E+02  0.51100000000E-03 0. -1.
        -11    1    3    3    0    0 -0.74859232688E+01  0.64621363051E+01 -0.54543081615E+01  0.11293703139E+02  0.51100000000E-03 0.  1.
        -12    1    3    3    0    0  0.22125400525E+02 -0.38022486469E+02 -0.71224539323E+00  0.43997160354E+02  0.00000000000E+00 0.  1.
</event>
<event>
 7    1  0.1654239E-015  0.9000785E+02  0.7816164E-02  0.1186339E+00
        -11   -1    0    0    0    0  0.00000000000E+00  0.00000000000E+00  0.45593999997E+02  0.45594000000E+02  0.51100000000E-03 0. -1.
         11   -1    0    0    0    0 -0.00000000000E+00 -0.00000000000E+00 -0.45593999997E+02  0.45594000000E+02  0.51100000000E-03 0.  1.
    9900012    2    1    2    0    0  0.36134838187E+00  0.11024793610E+01  0.21616071761E+00  0.90007847955E+02  0.90000110747E+02 0.  0.
        -12    1    1    2    0    0 -0.36134838187E+00 -0.11024793610E+01 -0.21616071761E+00  0.11801520455E+01  0.00000000000E+00 0.  1.
         11    1    3    3    0    0  0.35053836025E+01 -0.35422357280E+02  0.26079079235E+02  0.44126516784E+02  0.51100000000E-03 0. -1.
        -11    1    3    3    0    0  0.25985652161E+01  0.51865866593E+01 -0.59513544995E+01  0.83109471781E+01  0.51100000000E-03 0.  1.
        -12    1    3    3    0    0 -0.57426004368E+01  0.31338249982E+02 -0.19911564018E+02  0.37570383992E+02  0.00000000000E+00 0.  1.
</event>
<event>
 7    1  0.1654239E-015  0.9000750E+02  0.7816164E-02  0.1186340E+00
        -11   -1    0    0    0    0  0.00000000000E+00  0.00000000000E+00  0.45593999997E+02  0.45594000000E+02  0.51100000000E-03 0.  1.
         11   -1    0    0    0    0 -0.00000000000E+00 -0.00000000000E+00 -0.45593999997E+02  0.45594000000E+02  0.51100000000E-03 0. -1.
    9900012    2    1    2    0    0 -0.46948066320E+00  0.28691037995E+00 -0.10444353300E+01  0.90007502301E+02  0.89999760531E+02 0.  0.
        -12    1    1    2    0    0  0.46948066320E+00 -0.28691037995E+00  0.10444353300E+01  0.11804976992E+01  0.00000000000E+00 0.  1.
         11    1    3    3    0    0  0.92971331282E+01 -0.11700730419E+02 -0.36491667172E+02  0.39433305086E+02  0.51100000000E-03 0. -1.
        -11    1    3    3    0    0  0.80973255092E+01 -0.56577399825E+00 -0.90678220499E+00  0.81675599078E+01  0.51100000000E-03 0.  1.
        -12    1    3    3    0    0 -0.17863939301E+02  0.12553414797E+02  0.36354014047E+02  0.42406637307E+02  0.00000000000E+00 0.  1.
</event>
<event>
 7    1  0.1654239E-015  0.9000766E+02  0.7816164E-02  0.1186339E+00
        -11   -1    0    0    0    0  0.00000000000E+00  0.00000000000E+00  0.45593999997E+02  0.45594000000E+02  0.51100000000E-03 0.  1.
         11   -1    0    0    0    0 -0.00000000000E+00 -0.00000000000E+00 -0.45593999997E+02  0.45594000000E+02  0.51100000000E-03 0. -1.
    9900012    2    1    2    0    0  0.77837619595E+00 -0.36911653760E+00 -0.80689417851E+00  0.90007663295E+02  0.89999923651E+02 0.  0.
        -12    1    1    2    0    0 -0.77837619595E+00  0.36911653760E+00  0.80689417851E+00  0.11803367045E+01  0.00000000000E+00 0.  1.
         11    1    3    3    0    0  0.11989318773E+02  0.28645367887E+02  0.21209263950E+02  0.37604969666E+02  0.51100000000E-03 0. -1.
        -11    1    3    3    0    0 -0.49864898807E+01  0.83072102593E+01 -0.52121669119E+01  0.11001886556E+02  0.51100000000E-03 0.  1.
        -12    1    3    3    0    0 -0.62244526967E+01 -0.37321694684E+02 -0.16803991216E+02  0.41400807073E+02  0.00000000000E+00 0.  1.
</event>
<event>
 7    1  0.1654239E-015  0.9000774E+02  0.7816164E-02  0.1186339E+00
        -11   -1    0    0    0    0  0.00000000000E+00  0.00000000000E+00  0.45593999997E+02  0.45594000000E+02  0.51100000000E-03 0. -1.
         11   -1    0    0    0    0 -0.00000000000E+00 -0.00000000000E+00 -0.45593999997E+02  0.45594000000E+02  0.51100000000E-03 0.  1.
    9900012    2    1    2    0    0 -0.83184751146E+00  0.41939157607E-01  0.83623851936E+00  0.90007735607E+02  0.89999996917E+02 0.  0.
        -12    1    1    2    0    0  0.83184751146E+00 -0.41939157607E-01 -0.83623851936E+00  0.11802643926E+01  0.00000000000E+00 0.  1.
         11    1    3    3    0    0 -0.68590634744E+01 -0.59122841189E+01  0.32532633402E+02  0.33769425396E+02  0.51100000000E-03 0. -1.
        -11    1    3    3    0    0  0.55118232313E+00  0.22206074295E+02 -0.24672918958E+01  0.22349520511E+02  0.51100000000E-03 0.  1.
        -12    1    3    3    0    0  0.54760336398E+01 -0.16251851018E+02 -0.29229102987E+02  0.33888789700E+02  0.00000000000E+00 0.  1.
</event>
<event>
 7    1  0.1654239E-015  0.9000768E+02  0.7816164E-02  0.1186339E+00
        -11   -1    0    0    0    0  0.00000000000E+00  0.00000000000E+00  0.45593999997E+02  0.45594000000E+02  0.51100000000E-03 0.  1.
         11   -1    0    0    0    0 -0.00000000000E+00 -0.00000000000E+00 -0.45593999997E+02  0.45594000000E+02  0.51100000000E-03 0. -1.
    9900012    2    1    2    0    0 -0.41116055835E+00  0.10966977403E+01  0.14613052316E+00  0.90007680946E+02  0.89999941535E+02 0.  0.
        -12    1    1    2    0    0  0.41116055835E+00 -0.10966977403E+01 -0.14613052316E+00  0.11803190535E+01  0.00000000000E+00 0.  1.
         11    1    3    3    0    0  0.50574262947E+01 -0.66090805875E+01  0.24497801567E+01  0.86751904887E+01  0.51100000000E-03 0. -1.
        -11    1    3    3    0    0  0.29929976739E+02 -0.19702243390E+02  0.42597094308E+01  0.36084997255E+02  0.51100000000E-03 0.  1.
         12    1    3    3    0    0 -0.35398563592E+02  0.27408021718E+02 -0.65633590644E+01  0.45247493202E+02  0.00000000000E+00 0. -1.
</event>
<event>
 7    1  0.1654239E-015  0.9000801E+02  0.7816164E-02  0.1186339E+00
        -11   -1    0    0    0    0  0.00000000000E+00  0.00000000000E+00  0.45593999997E+02  0.45594000000E+02  0.51100000000E-03 0. -1.
         11   -1    0    0    0    0 -0.00000000000E+00 -0.00000000000E+00 -0.45593999997E+02  0.45594000000E+02  0.51100000000E-03 0.  1.
    9900012    2    1    2    0    0  0.10847374702E+01 -0.28744896510E+00  0.36481609857E+00  0.90008011410E+02  0.90000276360E+02 0.  0.
        -12    1    1    2    0    0 -0.10847374702E+01  0.28744896510E+00 -0.36481609857E+00  0.11799885900E+01  0.00000000000E+00 0.  1.
         11    1    3    3    0    0  0.30029871133E+02  0.12003698782E+02  0.20609149106E+02  0.38348650196E+02  0.51100000000E-03 0. -1.
        -11    1    3    3    0    0 -0.33088203382E+01  0.38585234574E+01  0.84942126394E+01  0.98988960963E+01  0.51100000000E-03 0.  1.
        -12    1    3    3    0    0 -0.25636313325E+02 -0.16149671204E+02 -0.28738545647E+02  0.41760465117E+02  0.00000000000E+00 0.  1.
</event>
<event>
 7    1  0.1654239E-015  0.9000785E+02  0.7816164E-02  0.1186339E+00
        -11   -1    0    0    0    0  0.00000000000E+00  0.00000000000E+00  0.45593999997E+02  0.45594000000E+02  0.51100000000E-03 0. -1.
         11   -1    0    0    0    0 -0.00000000000E+00 -0.00000000000E+00 -0.45593999997E+02  0.45594000000E+02  0.51100000000E-03 0.  1.
    9900012    2    1    2    0    0 -0.91509428893E+00  0.22707166242E+00 -0.70978072598E+00  0.90007852646E+02  0.90000115501E+02 0.  0.
        -12    1    1    2    0    0  0.91509428893E+00 -0.22707166242E+00  0.70978072598E+00  0.11801473537E+01  0.00000000000E+00 0.  1.
         11    1    3    3    0    0 -0.49576525530E+01  0.98827124840E+01  0.37967870088E+01  0.11690248788E+02  0.51100000000E-03 0. -1.
        -11    1    3    3    0    0  0.40386732415E+02  0.58967439879E+00 -0.11388224175E+01  0.40407088336E+02  0.51100000000E-03 0.  1.
         12    1    3    3    0    0 -0.36344174150E+02 -0.10245315220E+02 -0.33677453173E+01  0.37910515522E+02  0.00000000000E+00 0. -1.
</event>
<event>
 7    1  0.1654239E-015  0.9000774E+02  0.7816164E-02  0.1186339E+00
        -11   -1    0    0    0    0  0.00000000000E+00  0.00000000000E+00  0.45593999997E+02  0.45594000000E+02  0.51100000000E-03 0.  1.
         11   -1    0    0    0    0 -0.00000000000E+00 -0.00000000000E+00 -0.45593999997E+02  0.45594000000E+02  0.51100000000E-03 0. -1.
    9900012    2    1    2    0    0 -0.79637264070E+00  0.81667073679E+00 -0.30306731810E+00  0.90007741437E+02  0.90000002824E+02 0.  0.
        -12    1    1    2    0    0  0.79637264070E+00 -0.81667073679E+00  0.30306731810E+00  0.11802585626E+01  0.00000000000E+00 0.  1.
         11    1    3    3    0    0 -0.55773924745E+00 -0.10476794151E+02  0.30300802900E-01  0.10491673229E+02  0.51100000000E-03 0. -1.
        -11    1    3    3    0    0  0.39010339357E+02  0.69378502390E+01 -0.41646260774E+01  0.39840738614E+02  0.51100000000E-03 0.  1.
         12    1    3    3    0    0 -0.39248972750E+02  0.43556146484E+01  0.38312579564E+01  0.39675329595E+02  0.00000000000E+00 0. -1.
</event>
<event>
 7    1  0.1654239E-015  0.9000777E+02  0.7816164E-02  0.1186339E+00
        -11   -1    0    0    0    0  0.00000000000E+00  0.00000000000E+00  0.45593999997E+02  0.45594000000E+02  0.51100000000E-03 0.  1.
         11   -1    0    0    0    0 -0.00000000000E+00 -0.00000000000E+00 -0.45593999997E+02  0.45594000000E+02  0.51100000000E-03 0. -1.
    9900012    2    1    2    0    0  0.71119214844E+00  0.88010951260E+00 -0.33550278948E+00  0.90007767333E+02  0.90000029062E+02 0.  0.
        -12    1    1    2    0    0 -0.71119214844E+00 -0.88010951260E+00  0.33550278948E+00  0.11802326669E+01  0.00000000000E+00 0.  1.
         11    1    3    3    0    0 -0.98026119989E+01  0.29679690237E+00 -0.14932804762E+01  0.99201399811E+01  0.51100000000E-03 0. -1.
        -11    1    3    3    0    0 -0.25762424565E+02 -0.22873202990E+02  0.10246455134E+02  0.35942673490E+02  0.51100000000E-03 0.  1.
         12    1    3    3    0    0  0.36276228713E+02  0.23456515601E+02 -0.90886774477E+01  0.44144953862E+02  0.00000000000E+00 0. -1.
</event>
<event>
 7    1  0.1654239E-015  0.9000776E+02  0.7816164E-02  0.1186339E+00
        -11   -1    0    0    0    0  0.00000000000E+00  0.00000000000E+00  0.45593999997E+02  0.45594000000E+02  0.51100000000E-03 0.  1.
         11   -1    0    0    0    0 -0.00000000000E+00 -0.00000000000E+00 -0.45593999997E+02  0.45594000000E+02  0.51100000000E-03 0. -1.
    9900012    2    1    2    0    0 -0.10090952299E+01 -0.55495930728E+00  0.25826741456E+00  0.90007764823E+02  0.90000026519E+02 0.  0.
        -12    1    1    2    0    0  0.10090952299E+01  0.55495930728E+00 -0.25826741456E+00  0.11802351770E+01  0.00000000000E+00 0.  1.
         11    1    3    3    0    0 -0.21549393217E+02 -0.20419515946E+02 -0.22968488643E+02  0.37535109569E+02  0.51100000000E-03 0. -1.
        -11    1    3    3    0    0  0.19535062710E+01 -0.98441457318E+01 -0.66690345623E+00  0.10058238038E+02  0.51100000000E-03 0.  1.
        -12    1    3    3    0    0  0.18586791716E+02  0.29708702371E+02  0.23893659514E+02  0.42414417217E+02  0.00000000000E+00 0.  1.
</event>
<event>
 7    1  0.1654239E-015  0.9000780E+02  0.7816164E-02  0.1186339E+00
        -11   -1    0    0    0    0  0.00000000000E+00  0.00000000000E+00  0.45593999997E+02  0.45594000000E+02  0.51100000000E-03 0.  1.
         11   -1    0    0    0    0 -0.00000000000E+00 -0.00000000000E+00 -0.45593999997E+02  0.45594000000E+02  0.51100000000E-03 0. -1.
    9900012    2    1    2    0    0  0.12160700437E+00 -0.17642384281E-02 -0.11739129463E+01  0.90007803838E+02  0.90000066048E+02 0.  0.
        -12    1    1    2    0    0 -0.12160700437E+00  0.17642384281E-02  0.11739129463E+01  0.11801961623E+01  0.00000000000E+00 0.  1.
         11    1    3    3    0    0  0.10755262597E+01 -0.22639119409E+02 -0.11814462477E+02  0.25559108126E+02  0.51100000000E-03 0. -1.
        -11    1    3    3    0    0  0.16842434754E+02 -0.13052944360E+02  0.12168774036E+02  0.24538256391E+02  0.51100000000E-03 0.  1.
        -12    1    3    3    0    0 -0.17796354009E+02  0.35690299530E+02 -0.15282245057E+01  0.39910439320E+02  0.00000000000E+00 0.  1.
</event>
<event>
 7    1  0.1654239E-015  0.9000768E+02  0.7816164E-02  0.1186339E+00
        -11   -1    0    0    0    0  0.00000000000E+00  0.00000000000E+00  0.45593999997E+02  0.45594000000E+02  0.51100000000E-03 0. -1.
         11   -1    0    0    0    0 -0.00000000000E+00 -0.00000000000E+00 -0.45593999997E+02  0.45594000000E+02  0.51100000000E-03 0.  1.
    9900012    2    1    2    0    0 -0.10365882122E+01  0.52297455035E+00  0.21247311710E+00  0.90007677024E+02  0.89999937561E+02 0.  0.
        -12    1    1    2    0    0  0.10365882122E+01 -0.52297455035E+00 -0.21247311710E+00  0.11803229759E+01  0.00000000000E+00 0.  1.
         11    1    3    3    0    0  0.67836097858E+01  0.19297514584E+01  0.52845194764E+01  0.88129137506E+01  0.51100000000E-03 0. -1.
        -11    1    3    3    0    0  0.18224079747E+02 -0.29028564743E+00 -0.36238262941E+02  0.40563691272E+02  0.51100000000E-03 0.  1.
         12    1    3    3    0    0 -0.26044277745E+02 -0.11164912607E+01  0.31166216581E+02  0.40631072002E+02  0.00000000000E+00 0. -1.
</event>
<event>
 7    1  0.1654239E-015  0.9000772E+02  0.7816164E-02  0.1186339E+00
        -11   -1    0    0    0    0  0.00000000000E+00  0.00000000000E+00  0.45593999997E+02  0.45594000000E+02  0.51100000000E-03 0. -1.
         11   -1    0    0    0    0 -0.00000000000E+00 -0.00000000000E+00 -0.45593999997E+02  0.45594000000E+02  0.51100000000E-03 0.  1.
    9900012    2    1    2    0    0 -0.38064352599E+00  0.24612037643E+00  0.10897732742E+01  0.90007715914E+02  0.89999976964E+02 0.  0.
        -12    1    1    2    0    0  0.38064352599E+00 -0.24612037643E+00 -0.10897732742E+01  0.11802840856E+01  0.00000000000E+00 0.  1.
         11    1    3    3    0    0 -0.26956565197E+02  0.23147118745E+02  0.13013995663E+02  0.37839259993E+02  0.51100000000E-03 0. -1.
        -11    1    3    3    0    0 -0.32915146821E+01  0.74278054308E+01 -0.31080431720E+01  0.86986375393E+01  0.51100000000E-03 0.  1.
        -12    1    3    3    0    0  0.29867436354E+02 -0.30328803799E+02 -0.88161792165E+01  0.43469818382E+02  0.00000000000E+00 0.  1.
</event>
<event>
 7    1  0.1873896E-015  0.9000796E+02  0.7816164E-02  0.1186339E+00
        -11   -1    0    0    0    0  0.00000000000E+00  0.00000000000E+00  0.45593999997E+02  0.45594000000E+02  0.51100000000E-03 0. -1.
         11   -1    0    0    0    0 -0.00000000000E+00 -0.00000000000E+00 -0.45593999997E+02  0.45594000000E+02  0.51100000000E-03 0.  1.
    9900012    2    1    2    0    0  0.70040079192E+00 -0.70419040026E+00  0.63722351993E+00  0.90007957965E+02  0.90000222210E+02 0.  0.
        -12    1    1    2    0    0 -0.70040079192E+00  0.70419040026E+00 -0.63722351993E+00  0.11800420346E+01  0.00000000000E+00 0.  1.
         11    1    3    3    0    0 -0.63249102938E+01  0.34792946058E+01 -0.55964062714E+01  0.91339884275E+01  0.51100000000E-03 0. -1.
        -11    1    3    3    0    0  0.11789227252E+02 -0.85909448568E+01 -0.35635108303E+02  0.38505209476E+02  0.51100000000E-03 0.  1.
         12    1    3    3    0    0 -0.47639161659E+01  0.44074598507E+01  0.41868738095E+02  0.42368760062E+02  0.00000000000E+00 0. -1.
</event>
<event>
 7    1  0.1654239E-015  0.9000775E+02  0.7816164E-02  0.1186339E+00
        -11   -1    0    0    0    0  0.00000000000E+00  0.00000000000E+00  0.45593999997E+02  0.45594000000E+02  0.51100000000E-03 0. -1.
         11   -1    0    0    0    0 -0.00000000000E+00 -0.00000000000E+00 -0.45593999997E+02  0.45594000000E+02  0.51100000000E-03 0.  1.
    9900012    2    1    2    0    0 -0.75822929833E+00 -0.87257939189E+00 -0.23807596081E+00  0.90007751455E+02  0.90000012975E+02 0.  0.
        -12    1    1    2    0    0  0.75822929833E+00  0.87257939189E+00  0.23807596081E+00  0.11802485446E+01  0.00000000000E+00 0.  1.
         11    1    3    3    0    0 -0.16061306131E+02  0.32262529390E+02  0.29681753417E+01  0.36161394088E+02  0.51100000000E-03 0. -1.
        -11    1    3    3    0    0  0.38267999355E+01  0.84643129236E+01  0.39670366586E+01  0.10100810419E+02  0.51100000000E-03 0.  1.
        -12    1    3    3    0    0  0.11476276897E+02 -0.41599421705E+02 -0.71732879611E+01  0.43745546948E+02  0.00000000000E+00 0.  1.
</event>
<event>
 7    1  0.1654239E-015  0.9000785E+02  0.7816164E-02  0.1186339E+00
        -11   -1    0    0    0    0  0.00000000000E+00  0.00000000000E+00  0.45593999997E+02  0.45594000000E+02  0.51100000000E-03 0. -1.
         11   -1    0    0    0    0 -0.00000000000E+00 -0.00000000000E+00 -0.45593999997E+02  0.45594000000E+02  0.51100000000E-03 0.  1.
    9900012    2    1    2    0    0 -0.10274223660E+01 -0.57813604832E+00 -0.53958026484E-01  0.90007851926E+02  0.90000114771E+02 0.  0.
        -12    1    1    2    0    0  0.10274223660E+01  0.57813604832E+00  0.53958026484E-01  0.11801480743E+01  0.00000000000E+00 0.  1.
         11    1    3    3    0    0  0.38696348074E+02 -0.14514221840E+01  0.15715413122E+02  0.41791006096E+02  0.51100000000E-03 0. -1.
        -11    1    3    3    0    0 -0.80656149480E+01 -0.12225561121E+01  0.56612985489E+01  0.99297074205E+01  0.51100000000E-03 0.  1.
        -12    1    3    3    0    0 -0.31658155492E+02  0.20958422477E+01 -0.21430669697E+02  0.38287138409E+02  0.00000000000E+00 0.  1.
</event>
<event>
 7    1  0.1654239E-015  0.9000772E+02  0.7816164E-02  0.1186339E+00
        -11   -1    0    0    0    0  0.00000000000E+00  0.00000000000E+00  0.45593999997E+02  0.45594000000E+02  0.51100000000E-03 0.  1.
         11   -1    0    0    0    0 -0.00000000000E+00 -0.00000000000E+00 -0.45593999997E+02  0.45594000000E+02  0.51100000000E-03 0. -1.
    9900012    2    1    2    0    0 -0.17634798193E+00  0.10959250195E+01  0.40112851918E+00  0.90007722766E+02  0.89999983907E+02 0.  0.
        -12    1    1    2    0    0  0.17634798193E+00 -0.10959250195E+01 -0.40112851918E+00  0.11802772336E+01  0.00000000000E+00 0.  1.
         11    1    3    3    0    0  0.52300818608E+01 -0.11448913000E+02  0.17875720386E+01  0.12713252110E+02  0.51100000000E-03 0. -1.
        -11    1    3    3    0    0  0.34575540658E+02  0.10890378528E+02  0.55780864790E+01  0.36676742022E+02  0.51100000000E-03 0.  1.
         12    1    3    3    0    0 -0.39981970501E+02  0.16544594915E+01 -0.69645299983E+01  0.40617728635E+02  0.00000000000E+00 0. -1.
</event>
<event>
 7    1  0.1654239E-015  0.9000774E+02  0.7816164E-02  0.1186339E+00
        -11   -1    0    0    0    0  0.00000000000E+00  0.00000000000E+00  0.45593999997E+02  0.45594000000E+02  0.51100000000E-03 0.  1.
         11   -1    0    0    0    0 -0.00000000000E+00 -0.00000000000E+00 -0.45593999997E+02  0.45594000000E+02  0.51100000000E-03 0. -1.
    9900012    2    1    2    0    0 -0.61863543660E+00  0.97347293867E+00 -0.25029416736E+00  0.90007743021E+02  0.90000004429E+02 0.  0.
        -12    1    1    2    0    0  0.61863543660E+00 -0.97347293867E+00  0.25029416736E+00  0.11802569788E+01  0.00000000000E+00 0.  1.
         11    1    3    3    0    0 -0.20598318022E+02  0.23811427868E+02  0.20695247930E+02  0.37677156071E+02  0.51100000000E-03 0. -1.
        -11    1    3    3    0    0 -0.32029592524E+01 -0.31961108995E+01  0.87461249441E+01  0.98472724474E+01  0.51100000000E-03 0.  1.
        -12    1    3    3    0    0  0.23182641838E+02 -0.19641844029E+02 -0.29691667041E+02  0.42483314503E+02  0.00000000000E+00 0.  1.
</event>
<event>
 7    1  0.1654239E-015  0.9000771E+02  0.7816164E-02  0.1186339E+00
        -11   -1    0    0    0    0  0.00000000000E+00  0.00000000000E+00  0.45593999997E+02  0.45594000000E+02  0.51100000000E-03 0. -1.
         11   -1    0    0    0    0 -0.00000000000E+00 -0.00000000000E+00 -0.45593999997E+02  0.45594000000E+02  0.51100000000E-03 0.  1.
    9900012    2    1    2    0    0 -0.48009235183E+00 -0.39383914392E+00  0.10037413750E+01  0.90007705678E+02  0.89999966593E+02 0.  0.
        -12    1    1    2    0    0  0.48009235183E+00  0.39383914392E+00 -0.10037413750E+01  0.11802943215E+01  0.00000000000E+00 0.  1.
         11    1    3    3    0    0 -0.27665929353E+02 -0.28324273861E+02  0.12834247688E+01  0.39614584639E+02  0.51100000000E-03 0. -1.
        -11    1    3    3    0    0 -0.38644359770E+01  0.13592494433E+01 -0.78273758175E+01  0.88345479182E+01  0.51100000000E-03 0.  1.
        -12    1    3    3    0    0  0.31050272979E+02  0.26571185274E+02  0.75476924237E+01  0.41558573121E+02  0.00000000000E+00 0.  1.
</event>
<event>
 7    1  0.1654239E-015  0.9000745E+02  0.7816164E-02  0.1186340E+00
        -11   -1    0    0    0    0  0.00000000000E+00  0.00000000000E+00  0.45593999997E+02  0.45594000000E+02  0.51100000000E-03 0.  1.
         11   -1    0    0    0    0 -0.00000000000E+00 -0.00000000000E+00 -0.45593999997E+02  0.45594000000E+02  0.51100000000E-03 0. -1.
    9900012    2    1    2    0    0  0.77428742758E+00 -0.76265792824E+00 -0.46101822821E+00  0.90007446764E+02  0.89999704261E+02 0.  0.
        -12    1    1    2    0    0 -0.77428742758E+00  0.76265792824E+00  0.46101822821E+00  0.11805532359E+01  0.00000000000E+00 0.  1.
         11    1    3    3    0    0 -0.85085266861E+01  0.33205349990E+01  0.99129783129E+01  0.13479173504E+02  0.51100000000E-03 0. -1.
        -11    1    3    3    0    0  0.54085638834E+01 -0.12326926118E-01  0.32672173062E+02  0.33116817602E+02  0.51100000000E-03 0.  1.
         12    1    3    3    0    0  0.38742502304E+01 -0.40708660011E+01 -0.43046169603E+02  0.43411455658E+02  0.00000000000E+00 0. -1.
</event>
<event>
 7    1  0.1654239E-015  0.9000775E+02  0.7816164E-02  0.1186339E+00
        -11   -1    0    0    0    0  0.00000000000E+00  0.00000000000E+00  0.45593999997E+02  0.45594000000E+02  0.51100000000E-03 0. -1.
         11   -1    0    0    0    0 -0.00000000000E+00 -0.00000000000E+00 -0.45593999997E+02  0.45594000000E+02  0.51100000000E-03 0.  1.
    9900012    2    1    2    0    0 -0.23938720270E+00  0.95605780446E+00  0.64932777949E+00  0.90007754549E+02  0.90000016110E+02 0.  0.
        -12    1    1    2    0    0  0.23938720270E+00 -0.95605780446E+00 -0.64932777949E+00  0.11802454505E+01  0.00000000000E+00 0.  1.
         11    1    3    3    0    0 -0.91917051831E+01  0.13709314925E+01 -0.34797386760E+01  0.99234811858E+01  0.51100000000E-03 0. -1.
        -11    1    3    3    0    0 -0.33219457113E+02 -0.13183372193E+02  0.44875646352E+01  0.36020436836E+02  0.51100000000E-03 0.  1.
         12    1    3    3    0    0  0.42171775093E+02  0.12768498505E+02 -0.35849817972E+00  0.44063836528E+02  0.00000000000E+00 0. -1.
</event>
<event>
 7    1  0.1654239E-015  0.9000776E+02  0.7816164E-02  0.1186339E+00
        -11   -1    0    0    0    0  0.00000000000E+00  0.00000000000E+00  0.45593999997E+02  0.45594000000E+02  0.51100000000E-03 0.  1.
         11   -1    0    0    0    0 -0.00000000000E+00 -0.00000000000E+00 -0.45593999997E+02  0.45594000000E+02  0.51100000000E-03 0. -1.
    9900012    2    1    2    0    0  0.45102372614E+00  0.96309695628E+00 -0.51183952666E+00  0.90007763647E+02  0.90000025327E+02 0.  0.
        -12    1    1    2    0    0 -0.45102372614E+00 -0.96309695628E+00  0.51183952666E+00  0.11802363534E+01  0.00000000000E+00 0.  1.
         11    1    3    3    0    0  0.76312791068E+01  0.28755788772E+02 -0.26495904571E+02  0.39839236539E+02  0.51100000000E-03 0. -1.
        -11    1    3    3    0    0 -0.79370699281E+01 -0.17835891618E+00 -0.44219643331E+01  0.90875001937E+01  0.51100000000E-03 0.  1.
        -12    1    3    3    0    0  0.75681454738E+00 -0.27614332900E+02  0.30406029378E+02  0.41081026914E+02  0.00000000000E+00 0.  1.
</event>
<event>
 7    1  0.1654239E-015  0.9000746E+02  0.7816164E-02  0.1186340E+00
        -11   -1    0    0    0    0  0.00000000000E+00  0.00000000000E+00  0.45593999997E+02  0.45594000000E+02  0.51100000000E-03 0.  1.
         11   -1    0    0    0    0 -0.00000000000E+00 -0.00000000000E+00 -0.45593999997E+02  0.45594000000E+02  0.51100000000E-03 0. -1.
    9900012    2    1    2    0    0 -0.20957517940E+00  0.99758742559E+00 -0.59545204466E+00  0.90007463865E+02  0.89999721588E+02 0.  0.
        -12    1    1    2    0    0  0.20957517940E+00 -0.99758742559E+00  0.59545204466E+00  0.11805361346E+01  0.00000000000E+00 0.  1.
         11    1    3    3    0    0 -0.33579572006E+02 -0.11328906207E+02  0.21869820300E+02  0.41643976902E+02  0.51100000000E-03 0. -1.
        -11    1    3    3    0    0  0.38802526481E+01 -0.66848694089E+01 -0.36005453184E+01  0.85268849223E+01  0.51100000000E-03 0.  1.
        -12    1    3    3    0    0  0.29489744179E+02  0.19011363042E+02 -0.18864727026E+02  0.39836602041E+02  0.00000000000E+00 0.  1.
</event>
<event>
 7    1  0.1654239E-015  0.9000774E+02  0.7816164E-02  0.1186339E+00
        -11   -1    0    0    0    0  0.00000000000E+00  0.00000000000E+00  0.45593999997E+02  0.45594000000E+02  0.51100000000E-03 0. -1.
         11   -1    0    0    0    0 -0.00000000000E+00 -0.00000000000E+00 -0.45593999997E+02  0.45594000000E+02  0.51100000000E-03 0.  1.
    9900012    2    1    2    0    0  0.80279529756E-01  0.31688918447E-01  0.11771040754E+01  0.90007736049E+02  0.89999997365E+02 0.  0.
        -12    1    1    2    0    0 -0.80279529756E-01 -0.31688918447E-01 -0.11771040754E+01  0.11802639513E+01  0.00000000000E+00 0.  1.
         11    1    3    3    0    0  0.35117337970E+02 -0.93531015904E+00 -0.17019110709E+02  0.39035270727E+02  0.51100000000E-03 0. -1.
        -11    1    3    3    0    0 -0.60439923483E+00  0.52987796767E+01 -0.64780198407E+01  0.83908942202E+01  0.51100000000E-03 0.  1.
        -12    1    3    3    0    0 -0.34432659205E+02 -0.43317805993E+01  0.24674234625E+02  0.42581571101E+02  0.00000000000E+00 0.  1.
</event>
<event>
 7    1  0.1654239E-015  0.9000772E+02  0.7816164E-02  0.1186339E+00
        -11   -1    0    0    0    0  0.00000000000E+00  0.00000000000E+00  0.45593999997E+02  0.45594000000E+02  0.51100000000E-03 0. -1.
         11   -1    0    0    0    0 -0.00000000000E+00 -0.00000000000E+00 -0.45593999997E+02  0.45594000000E+02  0.51100000000E-03 0.  1.
    9900012    2    1    2    0    0  0.53470635832E+00  0.10425648244E+01 -0.14218285324E+00  0.90007716870E+02  0.89999977933E+02 0.  0.
        -12    1    1    2    0    0 -0.53470635832E+00 -0.10425648244E+01  0.14218285324E+00  0.11802831298E+01  0.00000000000E+00 0.  1.
         11    1    3    3    0    0 -0.36443598476E+02 -0.46688626274E+01  0.13012396895E+02  0.38977642583E+02  0.51100000000E-03 0. -1.
        -11    1    3    3    0    0 -0.13040285203E+01 -0.79152729354E+01  0.80880725149E+00  0.80626425851E+01  0.51100000000E-03 0.  1.
        -12    1    3    3    0    0  0.38282333355E+02  0.13626700387E+02 -0.13963387000E+02  0.42967431702E+02  0.00000000000E+00 0.  1.
</event>
<event>
 7    1  0.1654239E-015  0.9000772E+02  0.7816164E-02  0.1186339E+00
        -11   -1    0    0    0    0  0.00000000000E+00  0.00000000000E+00  0.45593999997E+02  0.45594000000E+02  0.51100000000E-03 0. -1.
         11   -1    0    0    0    0 -0.00000000000E+00 -0.00000000000E+00 -0.45593999997E+02  0.45594000000E+02  0.51100000000E-03 0.  1.
    9900012    2    1    2    0    0 -0.17646110946E+00 -0.95369631047E+00  0.67258928164E+00  0.90007723966E+02  0.89999985122E+02 0.  0.
        -12    1    1    2    0    0  0.17646110946E+00  0.95369631047E+00 -0.67258928164E+00  0.11802760345E+01  0.00000000000E+00 0.  1.
         11    1    3    3    0    0  0.47185256227E+01  0.57986275154E+01  0.50620384320E+01  0.90284438561E+01  0.51100000000E-03 0. -1.
        -11    1    3    3    0    0  0.34497363651E+02  0.99292287603E+01 -0.11324860063E+02  0.37641866828E+02  0.51100000000E-03 0.  1.
         12    1    3    3    0    0 -0.39392350383E+02 -0.16681552586E+02  0.69354109123E+01  0.43337413281E+02  0.00000000000E+00 0. -1.
</event>
<event>
 7    1  0.1654239E-015  0.9000764E+02  0.7816164E-02  0.1186339E+00
        -11   -1    0    0    0    0  0.00000000000E+00  0.00000000000E+00  0.45593999997E+02  0.45594000000E+02  0.51100000000E-03 0. -1.
         11   -1    0    0    0    0 -0.00000000000E+00 -0.00000000000E+00 -0.45593999997E+02  0.45594000000E+02  0.51100000000E-03 0.  1.
    9900012    2    1    2    0    0 -0.11189890307E+01  0.36413944180E+00 -0.92265247109E-01  0.90007641216E+02  0.89999901280E+02 0.  0.
        -12    1    1    2    0    0  0.11189890307E+01 -0.36413944180E+00  0.92265247109E-01  0.11803587843E+01  0.00000000000E+00 0.  1.
         11    1    3    3    0    0 -0.22029635071E+00  0.70764237068E+01 -0.67341350414E+01  0.97710223609E+01  0.51100000000E-03 0. -1.
        -11    1    3    3    0    0 -0.25568070856E+02 -0.21325454947E+02 -0.21843068967E+02  0.39819856079E+02  0.51100000000E-03 0.  1.
         12    1    3    3    0    0  0.24669378176E+02  0.14613170682E+02  0.28484938762E+02  0.40416762775E+02  0.00000000000E+00 0. -1.
</event>
<event>
 7    1  0.1654239E-015  0.9000748E+02  0.7816164E-02  0.1186340E+00
        -11   -1    0    0    0    0  0.00000000000E+00  0.00000000000E+00  0.45593999997E+02  0.45594000000E+02  0.51100000000E-03 0. -1.
         11   -1    0    0    0    0 -0.00000000000E+00 -0.00000000000E+00 -0.45593999997E+02  0.45594000000E+02  0.51100000000E-03 0.  1.
    9900012    2    1    2    0    0  0.10709625065E+01  0.42097742552E+00 -0.26351097486E+00  0.90007482860E+02  0.89999740834E+02 0.  0.
        -12    1    1    2    0    0 -0.10709625065E+01 -0.42097742552E+00  0.26351097486E+00  0.11805171396E+01  0.00000000000E+00 0.  1.
         11    1    3    3    0    0  0.29675474735E+02 -0.79882808288E-01  0.26259509014E+02  0.39625774389E+02  0.51100000000E-03 0. -1.
        -11    1    3    3    0    0  0.49633333426E+01 -0.68512406997E+01 -0.57069068016E+01  0.10205045933E+02  0.51100000000E-03 0.  1.
        -12    1    3    3    0    0 -0.33567845572E+02  0.73521009335E+01 -0.20816113187E+02  0.40176662538E+02  0.00000000000E+00 0.  1.
</event>
<event>
 7    1  0.1654239E-015  0.9000771E+02  0.7816164E-02  0.1186339E+00
        -11   -1    0    0    0    0  0.00000000000E+00  0.00000000000E+00  0.45593999997E+02  0.45594000000E+02  0.51100000000E-03 0.  1.
         11   -1    0    0    0    0 -0.00000000000E+00 -0.00000000000E+00 -0.45593999997E+02  0.45594000000E+02  0.51100000000E-03 0. -1.
    9900012    2    1    2    0    0 -0.60682543017E-01 -0.22688454067E+00 -0.11566888001E+01  0.90007708533E+02  0.89999969486E+02 0.  0.
        -12    1    1    2    0    0  0.60682543017E-01  0.22688454067E+00  0.11566888001E+01  0.11802914666E+01  0.00000000000E+00 0.  1.
         11    1    3    3    0    0  0.75045571562E+01 -0.25656513763E+01  0.65004492023E+01  0.10254598246E+02  0.51100000000E-03 0. -1.
        -11    1    3    3    0    0 -0.56218421392E+01 -0.11047804992E+02  0.33875977024E+02  0.36072717167E+02  0.51100000000E-03 0.  1.
         12    1    3    3    0    0 -0.19433975600E+01  0.13386571827E+02 -0.41533115027E+02  0.43680393121E+02  0.00000000000E+00 0. -1.
</event>
<event>
 7    1  0.1654239E-015  0.9000804E+02  0.7816164E-02  0.1186338E+00
        -11   -1    0    0    0    0  0.00000000000E+00  0.00000000000E+00  0.45593999997E+02  0.45594000000E+02  0.51100000000E-03 0. -1.
         11   -1    0    0    0    0 -0.00000000000E+00 -0.00000000000E+00 -0.45593999997E+02  0.45594000000E+02  0.51100000000E-03 0.  1.
    9900012    2    1    2    0    0  0.10785672600E+01 -0.15469320692E+00 -0.45283162511E+00  0.90008044999E+02  0.90000310393E+02 0.  0.
        -12    1    1    2    0    0 -0.10785672600E+01  0.15469320692E+00  0.45283162511E+00  0.11799550006E+01  0.00000000000E+00 0.  1.
         11    1    3    3    0    0  0.39377754105E+01  0.80380442621E+01  0.29434087811E+01  0.94223079050E+01  0.51100000000E-03 0. -1.
        -11    1    3    3    0    0  0.34036181391E+02  0.14575104185E+02  0.74879729560E+00  0.37033174362E+02  0.51100000000E-03 0.  1.
         12    1    3    3    0    0 -0.36895389542E+02 -0.22767841654E+02 -0.41450377018E+01  0.43552562732E+02  0.00000000000E+00 0. -1.
</event>
<event>
 7    1  0.1654239E-015  0.9000780E+02  0.7816164E-02  0.1186339E+00
        -11   -1    0    0    0    0  0.00000000000E+00  0.00000000000E+00  0.45593999997E+02  0.45594000000E+02  0.51100000000E-03 0.  1.
         11   -1    0    0    0    0 -0.00000000000E+00 -0.00000000000E+00 -0.45593999997E+02  0.45594000000E+02  0.51100000000E-03 0. -1.
    9900012    2    1    2    0    0 -0.33011369352E+00 -0.99758539715E+00 -0.53732723587E+00  0.90007799918E+02  0.90000062077E+02 0.  0.
        -12    1    1    2    0    0  0.33011369352E+00  0.99758539715E+00  0.53732723587E+00  0.11802000820E+01  0.00000000000E+00 0.  1.
         11    1    3    3    0    0  0.16420301121E+02 -0.12286326857E+02 -0.13597834336E+02  0.24606527903E+02  0.51100000000E-03 0. -1.
        -11    1    3    3    0    0 -0.42533109461E+01 -0.24381975667E+02 -0.17376137963E+01  0.24811100205E+02  0.51100000000E-03 0.  1.
        -12    1    3    3    0    0 -0.12497103869E+02  0.35670717127E+02  0.14798120896E+02  0.40590171810E+02  0.00000000000E+00 0.  1.
</event>
<event>
 7    1  0.1654239E-015  0.9000767E+02  0.7816164E-02  0.1186339E+00
        -11   -1    0    0    0    0  0.00000000000E+00  0.00000000000E+00  0.45593999997E+02  0.45594000000E+02  0.51100000000E-03 0. -1.
         11   -1    0    0    0    0 -0.00000000000E+00 -0.00000000000E+00 -0.45593999997E+02  0.45594000000E+02  0.51100000000E-03 0.  1.
    9900012    2    1    2    0    0 -0.28710517688E+00  0.91134229295E+00  0.69296993828E+00  0.90007668905E+02  0.89999929335E+02 0.  0.
        -12    1    1    2    0    0  0.28710517688E+00 -0.91134229295E+00 -0.69296993828E+00  0.11803310946E+01  0.00000000000E+00 0.  1.
         11    1    3    3    0    0  0.16118244015E+01  0.92268198334E+01 -0.67214532429E+01  0.11528664975E+02  0.51100000000E-03 0. -1.
        -11    1    3    3    0    0 -0.29525645521E+02  0.22214985603E+02  0.31172310017E+01  0.37080809837E+02  0.51100000000E-03 0.  1.
         12    1    3    3    0    0  0.27626715943E+02 -0.30530463144E+02  0.42971921796E+01  0.41398194093E+02  0.00000000000E+00 0. -1.
</event>
<event>
 7    1  0.1654239E-015  0.9000764E+02  0.7816164E-02  0.1186339E+00
        -11   -1    0    0    0    0  0.00000000000E+00  0.00000000000E+00  0.45593999997E+02  0.45594000000E+02  0.51100000000E-03 0.  1.
         11   -1    0    0    0    0 -0.00000000000E+00 -0.00000000000E+00 -0.45593999997E+02  0.45594000000E+02  0.51100000000E-03 0. -1.
    9900012    2    1    2    0    0 -0.71454659951E+00 -0.30692055852E+00  0.88795633038E+00  0.90007642632E+02  0.89999902714E+02 0.  0.
        -12    1    1    2    0    0  0.71454659951E+00  0.30692055852E+00 -0.88795633038E+00  0.11803573682E+01  0.00000000000E+00 0.  1.
         11    1    3    3    0    0 -0.32148739049E+02  0.21460421491E+02 -0.22520440980E+02  0.44735459931E+02  0.51100000000E-03 0. -1.
        -11    1    3    3    0    0  0.63336417554E+01 -0.34920301440E+01  0.73689390126E+01  0.10325238731E+02  0.51100000000E-03 0.  1.
        -12    1    3    3    0    0  0.25100550694E+02 -0.18275311905E+02  0.16039458297E+02  0.34946943971E+02  0.00000000000E+00 0.  1.
</event>
<event>
 7    1  0.1654239E-015  0.9000769E+02  0.7816164E-02  0.1186339E+00
        -11   -1    0    0    0    0  0.00000000000E+00  0.00000000000E+00  0.45593999997E+02  0.45594000000E+02  0.51100000000E-03 0. -1.
         11   -1    0    0    0    0 -0.00000000000E+00 -0.00000000000E+00 -0.45593999997E+02  0.45594000000E+02  0.51100000000E-03 0.  1.
    9900012    2    1    2    0    0 -0.76528176234E+00 -0.64051181939E+00 -0.63025156174E+00  0.90007691313E+02  0.89999952038E+02 0.  0.
        -12    1    1    2    0    0  0.76528176234E+00  0.64051181939E+00  0.63025156174E+00  0.11803086874E+01  0.00000000000E+00 0.  1.
         11    1    3    3    0    0  0.46307056156E+00 -0.11915173357E+01 -0.10338814940E+02  0.10417544938E+02  0.51100000000E-03 0. -1.
        -11    1    3    3    0    0 -0.95204821279E+01 -0.20504062828E+02 -0.27770969377E+02  0.35808978103E+02  0.51100000000E-03 0.  1.
         12    1    3    3    0    0  0.82921298040E+01  0.21055068345E+02  0.37479532755E+02  0.43781168271E+02  0.00000000000E+00 0. -1.
</event>
<event>
 7    1  0.1654239E-015  0.9000775E+02  0.7816164E-02  0.1186339E+00
        -11   -1    0    0    0    0  0.00000000000E+00  0.00000000000E+00  0.45593999997E+02  0.45594000000E+02  0.51100000000E-03 0. -1.
         11   -1    0    0    0    0 -0.00000000000E+00 -0.00000000000E+00 -0.45593999997E+02  0.45594000000E+02  0.51100000000E-03 0.  1.
    9900012    2    1    2    0    0  0.96453112845E+00 -0.46192589204E+00  0.49929901044E+00  0.90007747769E+02  0.90000009239E+02 0.  0.
        -12    1    1    2    0    0 -0.96453112845E+00  0.46192589204E+00 -0.49929901044E+00  0.11802522312E+01  0.00000000000E+00 0.  1.
         11    1    3    3    0    0 -0.22786895978E+02 -0.10477341218E+02  0.31118992182E+02  0.39967599152E+02  0.51100000000E-03 0. -1.
        -11    1    3    3    0    0  0.73829685659E+01  0.95300538332E-01  0.54701085605E+01  0.91890910847E+01  0.51100000000E-03 0.  1.
        -12    1    3    3    0    0  0.16368458541E+02  0.99201147872E+01 -0.36089801732E+02  0.40851057532E+02  0.00000000000E+00 0.  1.
</event>
<event>
 7    1  0.2099730E-015  0.9000784E+02  0.7816164E-02  0.1186339E+00
        -11   -1    0    0    0    0  0.00000000000E+00  0.00000000000E+00  0.45593999997E+02  0.45594000000E+02  0.51100000000E-03 0.  1.
         11   -1    0    0    0    0 -0.00000000000E+00 -0.00000000000E+00 -0.45593999997E+02  0.45594000000E+02  0.51100000000E-03 0. -1.
    9900012    2    1    2    0    0 -0.95025246513E+00  0.69343516283E+00  0.94519864526E-01  0.90007844893E+02  0.90000107645E+02 0.  0.
        -12    1    1    2    0    0  0.95025246513E+00 -0.69343516283E+00 -0.94519864526E-01  0.11801551073E+01  0.00000000000E+00 0.  1.
         11    1    3    3    0    0  0.34246747169E+01 -0.82699497534E+01 -0.13864967658E+01  0.90577502385E+01  0.51100000000E-03 0. -1.
        -11    1    3    3    0    0 -0.32562746364E+02 -0.18235866922E+02  0.13949023578E+02  0.39842873293E+02  0.51100000000E-03 0.  1.
         12    1    3    3    0    0  0.28187819182E+02  0.27199251838E+02 -0.12468006947E+02  0.41107221361E+02  0.00000000000E+00 0. -1.
</event>
<event>
 7    1  0.1654239E-015  0.9000788E+02  0.7816164E-02  0.1186339E+00
        -11   -1    0    0    0    0  0.00000000000E+00  0.00000000000E+00  0.45593999997E+02  0.45594000000E+02  0.51100000000E-03 0. -1.
         11   -1    0    0    0    0 -0.00000000000E+00 -0.00000000000E+00 -0.45593999997E+02  0.45594000000E+02  0.51100000000E-03 0.  1.
    9900012    2    1    2    0    0 -0.75671656774E+00 -0.81602510819E+00 -0.39265106464E+00  0.90007876363E+02  0.90000139530E+02 0.  0.
        -12    1    1    2    0    0  0.75671656774E+00  0.81602510819E+00  0.39265106464E+00  0.11801236374E+01  0.00000000000E+00 0.  1.
         11    1    3    3    0    0 -0.19557259032E+02  0.25781150348E+02  0.14134613104E+02  0.35312057176E+02  0.51100000000E-03 0. -1.
        -11    1    3    3    0    0 -0.10161611260E+02  0.32584936532E+01 -0.10693365860E+00  0.10671811437E+02  0.51100000000E-03 0.  1.
        -12    1    3    3    0    0  0.28962153724E+02 -0.29855669109E+02 -0.14420330510E+02  0.44024007750E+02  0.00000000000E+00 0.  1.
</event>
<event>
 7    1  0.1654239E-015  0.9000811E+02  0.7816164E-02  0.1186338E+00
        -11   -1    0    0    0    0  0.00000000000E+00  0.00000000000E+00  0.45593999997E+02  0.45594000000E+02  0.51100000000E-03 0. -1.
         11   -1    0    0    0    0 -0.00000000000E+00 -0.00000000000E+00 -0.45593999997E+02  0.45594000000E+02  0.51100000000E-03 0.  1.
    9900012    2    1    2    0    0  0.74128766215E+00 -0.66796217849E+00 -0.62964970646E+00  0.90008110334E+02  0.90000376590E+02 0.  0.
        -12    1    1    2    0    0 -0.74128766215E+00  0.66796217849E+00  0.62964970646E+00  0.11798896655E+01  0.00000000000E+00 0.  1.
         11    1    3    3    0    0 -0.16777251516E+02  0.33988464878E+02  0.21124852322E+02  0.43392986750E+02  0.51100000000E-03 0. -1.
        -11    1    3    3    0    0  0.78519125442E+01 -0.59556688111E+01 -0.10100849609E+01  0.99067044711E+01  0.51100000000E-03 0.  1.
        -12    1    3    3    0    0  0.96666266338E+01 -0.28700758245E+02 -0.20744417068E+02  0.36708419114E+02  0.00000000000E+00 0.  1.
</event>
<event>
 7    1  0.1654239E-015  0.9000772E+02  0.7816164E-02  0.1186339E+00
        -11   -1    0    0    0    0  0.00000000000E+00  0.00000000000E+00  0.45593999997E+02  0.45594000000E+02  0.51100000000E-03 0. -1.
         11   -1    0    0    0    0 -0.00000000000E+00 -0.00000000000E+00 -0.45593999997E+02  0.45594000000E+02  0.51100000000E-03 0.  1.
    9900012    2    1    2    0    0 -0.78458839137E+00  0.66930669327E+00  0.57404005296E+00  0.90007715129E+02  0.89999976169E+02 0.  0.
        -12    1    1    2    0    0  0.78458839137E+00 -0.66930669327E+00 -0.57404005296E+00  0.11802848707E+01  0.00000000000E+00 0.  1.
         11    1    3    3    0    0 -0.20013934184E+02 -0.16367683155E+02  0.57310493330E+00  0.25860917673E+02  0.51100000000E-03 0. -1.
        -11    1    3    3    0    0  0.30184349687E+02 -0.11523109048E+02 -0.62947421251E+01  0.32916573133E+02  0.51100000000E-03 0.  1.
         12    1    3    3    0    0 -0.10955003894E+02  0.28560098896E+02  0.62956772448E+01  0.31230224322E+02  0.00000000000E+00 0. -1.
</event>
<event>
 7    1  0.1654239E-015  0.9000764E+02  0.7816164E-02  0.1186339E+00
        -11   -1    0    0    0    0  0.00000000000E+00  0.00000000000E+00  0.45593999997E+02  0.45594000000E+02  0.51100000000E-03 0.  1.
         11   -1    0    0    0    0 -0.00000000000E+00 -0.00000000000E+00 -0.45593999997E+02  0.45594000000E+02  0.51100000000E-03 0. -1.
    9900012    2    1    2    0    0  0.39504870786E+00 -0.84994411677E+00 -0.71748754957E+00  0.90007636977E+02  0.89999896985E+02 0.  0.
        -12    1    1    2    0    0 -0.39504870786E+00  0.84994411677E+00  0.71748754957E+00  0.11803630234E+01  0.00000000000E+00 0.  1.
         11    1    3    3    0    0 -0.65129840705E+01 -0.47982715784E+01  0.52545291835E+01  0.96463697235E+01  0.51100000000E-03 0. -1.
        -11    1    3    3    0    0 -0.12132284010E+02 -0.33278496421E+02  0.79288655392E+01  0.36297624556E+02  0.51100000000E-03 0.  1.
         12    1    3    3    0    0  0.19040316789E+02  0.37226823883E+02 -0.13900882272E+02  0.44063642698E+02  0.00000000000E+00 0. -1.
</event>
<event>
 7    1  0.1889921E-015  0.9000771E+02  0.7816164E-02  0.1186339E+00
        -11   -1    0    0    0    0  0.00000000000E+00  0.00000000000E+00  0.45593999997E+02  0.45594000000E+02  0.51100000000E-03 0. -1.
         11   -1    0    0    0    0 -0.00000000000E+00 -0.00000000000E+00 -0.45593999997E+02  0.45594000000E+02  0.51100000000E-03 0.  1.
    9900012    2    1    2    0    0  0.25027889436E+00  0.97708073362E+00  0.61299573245E+00  0.90007707641E+02  0.89999968582E+02 0.  0.
        -12    1    1    2    0    0 -0.25027889436E+00 -0.97708073362E+00 -0.61299573245E+00  0.11802923591E+01  0.00000000000E+00 0.  1.
         11    1    3    3    0    0  0.60921191931E+01 -0.67879718639E+01  0.20089388730E+01  0.93395028746E+01  0.51100000000E-03 0. -1.
        -11    1    3    3    0    0  0.33704099339E+02 -0.52974929393E+01 -0.14407955823E+02  0.37035374102E+02  0.51100000000E-03 0.  1.
         12    1    3    3    0    0 -0.39545939637E+02  0.13062545537E+02  0.13012012682E+02  0.43632830664E+02  0.00000000000E+00 0. -1.
</event>
<event>
 7    1  0.1654239E-015  0.9000779E+02  0.7816164E-02  0.1186339E+00
        -11   -1    0    0    0    0  0.00000000000E+00  0.00000000000E+00  0.45593999997E+02  0.45594000000E+02  0.51100000000E-03 0.  1.
         11   -1    0    0    0    0 -0.00000000000E+00 -0.00000000000E+00 -0.45593999997E+02  0.45594000000E+02  0.51100000000E-03 0. -1.
    9900012    2    1    2    0    0 -0.63674722472E+00  0.97392987001E+00  0.19725783956E+00  0.90007789394E+02  0.90000051414E+02 0.  0.
        -12    1    1    2    0    0  0.63674722472E+00 -0.97392987001E+00 -0.19725783956E+00  0.11802106063E+01  0.00000000000E+00 0.  1.
         11    1    3    3    0    0 -0.23396564883E+00 -0.74325571611E+01 -0.39535948873E+01  0.84219094433E+01  0.51100000000E-03 0. -1.
        -11    1    3    3    0    0  0.22880813777E+02  0.21386972840E+02 -0.26455645619E+02  0.40997993021E+02  0.51100000000E-03 0.  1.
         12    1    3    3    0    0 -0.23283595353E+02 -0.12980485809E+02  0.30606498346E+02  0.40587886929E+02  0.00000000000E+00 0. -1.
</event>
<event>
 7    1  0.1654239E-015  0.9000773E+02  0.7816164E-02  0.1186339E+00
        -11   -1    0    0    0    0  0.00000000000E+00  0.00000000000E+00  0.45593999997E+02  0.45594000000E+02  0.51100000000E-03 0.  1.
         11   -1    0    0    0    0 -0.00000000000E+00 -0.00000000000E+00 -0.45593999997E+02  0.45594000000E+02  0.51100000000E-03 0. -1.
    9900012    2    1    2    0    0  0.24067317337E+00 -0.11527172757E+01 -0.79713462875E-01  0.90007730992E+02  0.89999992241E+02 0.  0.
        -12    1    1    2    0    0 -0.24067317337E+00  0.11527172757E+01  0.79713462875E-01  0.11802690076E+01  0.00000000000E+00 0.  1.
         11    1    3    3    0    0  0.30580769225E+02 -0.13745464348E+02 -0.22039056584E+02  0.40122827068E+02  0.51100000000E-03 0. -1.
        -11    1    3    3    0    0 -0.43383339179E+01  0.30588635013E+00 -0.75289919782E+01  0.86948506665E+01  0.51100000000E-03 0.  1.
        -12    1    3    3    0    0 -0.26001762134E+02  0.12286860722E+02  0.29488335099E+02  0.41190053258E+02  0.00000000000E+00 0.  1.
</event>
<event>
 7    1  0.1654239E-015  0.9000778E+02  0.7816164E-02  0.1186339E+00
        -11   -1    0    0    0    0  0.00000000000E+00  0.00000000000E+00  0.45593999997E+02  0.45594000000E+02  0.51100000000E-03 0.  1.
         11   -1    0    0    0    0 -0.00000000000E+00 -0.00000000000E+00 -0.45593999997E+02  0.45594000000E+02  0.51100000000E-03 0. -1.
    9900012    2    1    2    0    0  0.89952737801E+00  0.39215490365E+00  0.65573034889E+00  0.90007780841E+02  0.90000042748E+02 0.  0.
        -12    1    1    2    0    0 -0.89952737801E+00 -0.39215490365E+00 -0.65573034889E+00  0.11802191588E+01  0.00000000000E+00 0.  1.
         11    1    3    3    0    0 -0.25104795625E+01  0.51390376632E+01 -0.81319022666E+01  0.99418333556E+01  0.51100000000E-03 0. -1.
        -11    1    3    3    0    0 -0.40091991523E+01 -0.27561633730E+02 -0.25804826737E+02  0.37968492397E+02  0.51100000000E-03 0.  1.
         12    1    3    3    0    0  0.74192060928E+01  0.22814750971E+02  0.34592459352E+02  0.42097455089E+02  0.00000000000E+00 0. -1.
</event>
<event>
 7    1  0.1654239E-015  0.9000788E+02  0.7816164E-02  0.1186339E+00
        -11   -1    0    0    0    0  0.00000000000E+00  0.00000000000E+00  0.45593999997E+02  0.45594000000E+02  0.51100000000E-03 0.  1.
         11   -1    0    0    0    0 -0.00000000000E+00 -0.00000000000E+00 -0.45593999997E+02  0.45594000000E+02  0.51100000000E-03 0. -1.
    9900012    2    1    2    0    0  0.10127143360E+01 -0.60550146254E+00  0.21393234294E-01  0.90007881354E+02  0.90000144588E+02 0.  0.
        -12    1    1    2    0    0 -0.10127143360E+01  0.60550146254E+00 -0.21393234294E-01  0.11801186457E+01  0.00000000000E+00 0.  1.
         11    1    3    3    0    0 -0.50241572343E+01 -0.68724384933E+01 -0.43041868606E+01  0.95393181911E+01  0.51100000000E-03 0. -1.
        -11    1    3    3    0    0  0.19490445194E+02  0.39459338982E+02  0.69563611794E+01  0.44556793510E+02  0.51100000000E-03 0.  1.
         12    1    3    3    0    0 -0.13453573623E+02 -0.33192401951E+02 -0.26307810845E+01  0.35911769653E+02  0.00000000000E+00 0. -1.
</event>
<event>
 7    1  0.1654239E-015  0.9000776E+02  0.7816164E-02  0.1186339E+00
        -11   -1    0    0    0    0  0.00000000000E+00  0.00000000000E+00  0.45593999997E+02  0.45594000000E+02  0.51100000000E-03 0.  1.
         11   -1    0    0    0    0 -0.00000000000E+00 -0.00000000000E+00 -0.45593999997E+02  0.45594000000E+02  0.51100000000E-03 0. -1.
    9900012    2    1    2    0    0  0.90892802513E+00 -0.31776840801E+00  0.68252019854E+00  0.90007762423E+02  0.90000024087E+02 0.  0.
        -12    1    1    2    0    0 -0.90892802513E+00  0.31776840801E+00 -0.68252019854E+00  0.11802375767E+01  0.00000000000E+00 0.  1.
         11    1    3    3    0    0 -0.94953996440E+01  0.23193054818E+02 -0.25602811435E+02  0.35827145572E+02  0.51100000000E-03 0. -1.
        -11    1    3    3    0    0  0.34184811577E+01  0.54063590565E+01 -0.70378204480E+01  0.95102917196E+01  0.51100000000E-03 0.  1.
        -12    1    3    3    0    0  0.69858465114E+01 -0.28917182283E+02  0.33323152082E+02  0.44670325131E+02  0.00000000000E+00 0.  1.
</event>
<event>
 7    1  0.1654239E-015  0.9000735E+02  0.7816164E-02  0.1186340E+00
        -11   -1    0    0    0    0  0.00000000000E+00  0.00000000000E+00  0.45593999997E+02  0.45594000000E+02  0.51100000000E-03 0.  1.
         11   -1    0    0    0    0 -0.00000000000E+00 -0.00000000000E+00 -0.45593999997E+02  0.45594000000E+02  0.51100000000E-03 0. -1.
    9900012    2    1    2    0    0  0.33443691550E+00  0.19376655762E+00 -0.11155881857E+01  0.90007351649E+02  0.89999607890E+02 0.  0.
        -12    1    1    2    0    0 -0.33443691550E+00 -0.19376655762E+00  0.11155881857E+01  0.11806483513E+01  0.00000000000E+00 0.  1.
         11    1    3    3    0    0 -0.80070907533E+01 -0.25953368615E+01 -0.24815610013E+01  0.87753872291E+01  0.51100000000E-03 0. -1.
        -11    1    3    3    0    0 -0.16479715736E+02 -0.11375739764E+02  0.33000031921E+02  0.38600396280E+02  0.51100000000E-03 0.  1.
         12    1    3    3    0    0  0.24821243405E+02  0.14164843183E+02 -0.31634059105E+02  0.42631568140E+02  0.00000000000E+00 0. -1.
</event>
<event>
 7    1  0.1654239E-015  0.9000771E+02  0.7816164E-02  0.1186339E+00
        -11   -1    0    0    0    0  0.00000000000E+00  0.00000000000E+00  0.45593999997E+02  0.45594000000E+02  0.51100000000E-03 0.  1.
         11   -1    0    0    0    0 -0.00000000000E+00 -0.00000000000E+00 -0.45593999997E+02  0.45594000000E+02  0.51100000000E-03 0. -1.
    9900012    2    1    2    0    0  0.72796916124E-01 -0.19146475546E+00 -0.11623803835E+01  0.90007709231E+02  0.89999970193E+02 0.  0.
        -12    1    1    2    0    0 -0.72796916124E-01  0.19146475546E+00  0.11623803835E+01  0.11802907691E+01  0.00000000000E+00 0.  1.
         11    1    3    3    0    0 -0.34138818813E+01  0.82995147596E+01 -0.60143387363E+01  0.10803184967E+02  0.51100000000E-03 0. -1.
        -11    1    3    3    0    0 -0.20093590860E+02 -0.34844169006E+02 -0.90142210238E+01  0.41220440176E+02  0.51100000000E-03 0.  1.
         12    1    3    3    0    0  0.23580269657E+02  0.26353189491E+02  0.13866179377E+02  0.37984084088E+02  0.00000000000E+00 0. -1.
</event>
<event>
 7    1  0.1654239E-015  0.9000773E+02  0.7816164E-02  0.1186339E+00
        -11   -1    0    0    0    0  0.00000000000E+00  0.00000000000E+00  0.45593999997E+02  0.45594000000E+02  0.51100000000E-03 0. -1.
         11   -1    0    0    0    0 -0.00000000000E+00 -0.00000000000E+00 -0.45593999997E+02  0.45594000000E+02  0.51100000000E-03 0.  1.
    9900012    2    1    2    0    0  0.38033166780E-01 -0.10942646511E+01  0.44066640166E+00  0.90007725233E+02  0.89999986406E+02 0.  0.
        -12    1    1    2    0    0 -0.38033166780E-01  0.10942646511E+01 -0.44066640166E+00  0.11802747671E+01  0.00000000000E+00 0.  1.
         11    1    3    3    0    0 -0.34255467836E+02  0.82994586032E+01  0.96616780073E+01  0.36546766094E+02  0.51100000000E-03 0. -1.
        -11    1    3    3    0    0 -0.66606232348E+01  0.21181548259E+01  0.50133371060E+01  0.86013970343E+01  0.51100000000E-03 0.  1.
        -12    1    3    3    0    0  0.40954124237E+02 -0.11511878080E+02 -0.14234348712E+02  0.44859562105E+02  0.00000000000E+00 0.  1.
</event>
<event>
 7    1  0.1654239E-015  0.9000775E+02  0.7816164E-02  0.1186339E+00
        -11   -1    0    0    0    0  0.00000000000E+00  0.00000000000E+00  0.45593999997E+02  0.45594000000E+02  0.51100000000E-03 0.  1.
         11   -1    0    0    0    0 -0.00000000000E+00 -0.00000000000E+00 -0.45593999997E+02  0.45594000000E+02  0.51100000000E-03 0. -1.
    9900012    2    1    2    0    0  0.93573987365E+00 -0.68587956215E+00 -0.21666040945E+00  0.90007753577E+02  0.90000015125E+02 0.  0.
        -12    1    1    2    0    0 -0.93573987365E+00  0.68587956215E+00  0.21666040945E+00  0.11802464225E+01  0.00000000000E+00 0.  1.
         11    1    3    3    0    0  0.39542473227E+02 -0.11225768461E+02 -0.61478604741E+00  0.41109646417E+02  0.51100000000E-03 0. -1.
        -11    1    3    3    0    0 -0.38312159464E+01  0.13330412603E+02 -0.15504534055E+01  0.13956432991E+02  0.51100000000E-03 0.  1.
        -12    1    3    3    0    0 -0.34775517407E+02 -0.27905237050E+01  0.19485790434E+01  0.34941674169E+02  0.00000000000E+00 0.  1.
</event>
<event>
 7    1  0.1654239E-015  0.9000775E+02  0.7816164E-02  0.1186339E+00
        -11   -1    0    0    0    0  0.00000000000E+00  0.00000000000E+00  0.45593999997E+02  0.45594000000E+02  0.51100000000E-03 0. -1.
         11   -1    0    0    0    0 -0.00000000000E+00 -0.00000000000E+00 -0.45593999997E+02  0.45594000000E+02  0.51100000000E-03 0.  1.
    9900012    2    1    2    0    0 -0.58522127220E+00  0.31529930269E+00  0.97523439379E+00  0.90007754386E+02  0.90000015943E+02 0.  0.
        -12    1    1    2    0    0  0.58522127220E+00 -0.31529930269E+00 -0.97523439379E+00  0.11802456145E+01  0.00000000000E+00 0.  1.
         11    1    3    3    0    0 -0.14801591204E+02  0.14020228543E+02  0.32049220207E+02  0.37984291842E+02  0.51100000000E-03 0. -1.
        -11    1    3    3    0    0  0.25768663442E+01  0.83741589225E+01  0.34548746250E+01  0.94182236516E+01  0.51100000000E-03 0.  1.
        -12    1    3    3    0    0  0.11639503587E+02 -0.22079088163E+02 -0.34528860438E+02  0.42605238892E+02  0.00000000000E+00 0.  1.
</event>
<event>
 7    1  0.1654239E-015  0.9000776E+02  0.7816164E-02  0.1186339E+00
        -11   -1    0    0    0    0  0.00000000000E+00  0.00000000000E+00  0.45593999997E+02  0.45594000000E+02  0.51100000000E-03 0.  1.
         11   -1    0    0    0    0 -0.00000000000E+00 -0.00000000000E+00 -0.45593999997E+02  0.45594000000E+02  0.51100000000E-03 0. -1.
    9900012    2    1    2    0    0  0.75816424733E-01  0.78606644867E+00  0.87711400385E+00  0.90007755293E+02  0.90000016863E+02 0.  0.
        -12    1    1    2    0    0 -0.75816424733E-01 -0.78606644867E+00 -0.87711400385E+00  0.11802447067E+01  0.00000000000E+00 0.  1.
         11    1    3    3    0    0 -0.60920819220E+01 -0.45998572708E+01  0.51607745061E+01  0.92144312261E+01  0.51100000000E-03 0. -1.
        -11    1    3    3    0    0 -0.23511889398E+02 -0.17367857046E+02  0.20699575546E+02  0.35817926091E+02  0.51100000000E-03 0.  1.
         12    1    3    3    0    0  0.29679787744E+02  0.22753780765E+02 -0.24983236048E+02  0.44975397976E+02  0.00000000000E+00 0. -1.
</event>
<event>
 7    1  0.1654239E-015  0.9000667E+02  0.7816164E-02  0.1186341E+00
        -11   -1    0    0    0    0  0.00000000000E+00  0.00000000000E+00  0.45593999997E+02  0.45594000000E+02  0.51100000000E-03 0. -1.
         11   -1    0    0    0    0 -0.00000000000E+00 -0.00000000000E+00 -0.45593999997E+02  0.45594000000E+02  0.51100000000E-03 0.  1.
    9900012    2    1    2    0    0 -0.35849633682E+00 -0.78300279615E+00  0.80866029842E+00  0.90006668344E+02  0.89998915560E+02 0.  0.
        -12    1    1    2    0    0  0.35849633682E+00  0.78300279615E+00 -0.80866029842E+00  0.11813316556E+01  0.00000000000E+00 0.  1.
         11    1    3    3    0    0 -0.28588630389E+02  0.51891255839E+01  0.23784712040E+02  0.37549292123E+02  0.51100000000E-03 0. -1.
        -11    1    3    3    0    0 -0.47442908168E+01  0.73028646549E+01  0.20975619198E+01  0.89576723422E+01  0.51100000000E-03 0.  1.
        -12    1    3    3    0    0  0.32974424869E+02 -0.13274993035E+02 -0.25073613662E+02  0.43499703879E+02  0.00000000000E+00 0.  1.
</event>
<event>
 7    1  0.1654239E-015  0.9000780E+02  0.7816164E-02  0.1186339E+00
        -11   -1    0    0    0    0  0.00000000000E+00  0.00000000000E+00  0.45593999997E+02  0.45594000000E+02  0.51100000000E-03 0.  1.
         11   -1    0    0    0    0 -0.00000000000E+00 -0.00000000000E+00 -0.45593999997E+02  0.45594000000E+02  0.51100000000E-03 0. -1.
    9900012    2    1    2    0    0 -0.25406696130E+00 -0.49910217031E+00 -0.10388601729E+01  0.90007795163E+02  0.90000057260E+02 0.  0.
        -12    1    1    2    0    0  0.25406696130E+00  0.49910217031E+00  0.10388601729E+01  0.11802048365E+01  0.00000000000E+00 0.  1.
         11    1    3    3    0    0 -0.23288450617E+02 -0.31532388582E+02  0.24245369685E+01  0.39274951834E+02  0.51100000000E-03 0. -1.
        -11    1    3    3    0    0 -0.47365639737E+01  0.40439816213E+01  0.81928412472E+01  0.10291330021E+02  0.51100000000E-03 0.  1.
        -12    1    3    3    0    0  0.27770947630E+02  0.26989304790E+02 -0.11656238389E+02  0.40441513308E+02  0.00000000000E+00 0.  1.
</event>
<event>
 7    1  0.1654239E-015  0.9000765E+02  0.7816164E-02  0.1186339E+00
        -11   -1    0    0    0    0  0.00000000000E+00  0.00000000000E+00  0.45593999997E+02  0.45594000000E+02  0.51100000000E-03 0. -1.
         11   -1    0    0    0    0 -0.00000000000E+00 -0.00000000000E+00 -0.45593999997E+02  0.45594000000E+02  0.51100000000E-03 0.  1.
    9900012    2    1    2    0    0 -0.29865880347E+00 -0.11327931010E+01  0.14421684833E+00  0.90007654377E+02  0.89999914615E+02 0.  0.
        -12    1    1    2    0    0  0.29865880347E+00  0.11327931010E+01 -0.14421684833E+00  0.11803456231E+01  0.00000000000E+00 0.  1.
         11    1    3    3    0    0 -0.73908235508E+01  0.51176852552E+01 -0.14466039201E+01  0.91053631609E+01  0.51100000000E-03 0. -1.
        -11    1    3    3    0    0 -0.18456906131E+02 -0.28718317149E+02 -0.20983657216E+02  0.40071348794E+02  0.51100000000E-03 0.  1.
         12    1    3    3    0    0  0.25549070879E+02  0.22467838793E+02  0.22574477984E+02  0.40830942422E+02  0.00000000000E+00 0. -1.
</event>
<event>
 7    1  0.1654239E-015  0.9000867E+02  0.7816164E-02  0.1186337E+00
        -11   -1    0    0    0    0  0.00000000000E+00  0.00000000000E+00  0.45593999997E+02  0.45594000000E+02  0.51100000000E-03 0.  1.
         11   -1    0    0    0    0 -0.00000000000E+00 -0.00000000000E+00 -0.45593999997E+02  0.45594000000E+02  0.51100000000E-03 0. -1.
    9900012    2    1    2    0    0  0.18629666903E+00 -0.37139890901E+00  0.11037144428E+01  0.90008665794E+02  0.90000939377E+02 0.  0.
        -12    1    1    2    0    0 -0.18629666903E+00  0.37139890901E+00 -0.11037144428E+01  0.11793342061E+01  0.00000000000E+00 0.  1.
         11    1    3    3    0    0  0.78556451500E+00  0.17803267994E+02  0.10537871211E+02  0.20703144515E+02  0.51100000000E-03 0. -1.
        -11    1    3    3    0    0 -0.18085755881E+02  0.11031944258E+02  0.16218963295E+02  0.26680575903E+02  0.51100000000E-03 0.  1.
         12    1    3    3    0    0  0.17486488035E+02 -0.29206611161E+02 -0.25653120063E+02  0.42624945376E+02  0.00000000000E+00 0. -1.
</event>
<event>
 7    1  0.1654239E-015  0.9000760E+02  0.7816164E-02  0.1186339E+00
        -11   -1    0    0    0    0  0.00000000000E+00  0.00000000000E+00  0.45593999997E+02  0.45594000000E+02  0.51100000000E-03 0. -1.
         11   -1    0    0    0    0 -0.00000000000E+00 -0.00000000000E+00 -0.45593999997E+02  0.45594000000E+02  0.51100000000E-03 0.  1.
    9900012    2    1    2    0    0  0.43140634254E+00 -0.35606520878E+00  0.10394416182E+01  0.90007604836E+02  0.89999864420E+02 0.  0.
        -12    1    1    2    0    0 -0.43140634254E+00  0.35606520878E+00 -0.10394416182E+01  0.11803951639E+01  0.00000000000E+00 0.  1.
         11    1    3    3    0    0  0.15477767282E+02 -0.38948684647E+02 -0.84951968724E+01  0.42763649118E+02  0.51100000000E-03 0. -1.
        -11    1    3    3    0    0 -0.89177727762E+01  0.20418050521E+01  0.28722757469E+01  0.95888272164E+01  0.51100000000E-03 0.  1.
        -12    1    3    3    0    0 -0.61285881636E+01  0.36550814386E+02  0.66623627436E+01  0.37655128501E+02  0.00000000000E+00 0.  1.
</event>
<event>
 7    1  0.1654239E-015  0.9000766E+02  0.7816164E-02  0.1186339E+00
        -11   -1    0    0    0    0  0.00000000000E+00  0.00000000000E+00  0.45593999997E+02  0.45594000000E+02  0.51100000000E-03 0.  1.
         11   -1    0    0    0    0 -0.00000000000E+00 -0.00000000000E+00 -0.45593999997E+02  0.45594000000E+02  0.51100000000E-03 0. -1.
    9900012    2    1    2    0    0  0.10762904185E+01 -0.34745499678E+00 -0.33774340946E+00  0.90007662485E+02  0.89999922829E+02 0.  0.
        -12    1    1    2    0    0 -0.10762904185E+01  0.34745499678E+00  0.33774340946E+00  0.11803375155E+01  0.00000000000E+00 0.  1.
         11    1    3    3    0    0  0.90695007448E+01  0.20173063619E+02 -0.42170513527E+01  0.22516479785E+02  0.51100000000E-03 0. -1.
        -11    1    3    3    0    0 -0.59165221591E+00  0.20267396025E+02 -0.11459540217E+02  0.23290308204E+02  0.51100000000E-03 0.  1.
         12    1    3    3    0    0 -0.74015581104E+01 -0.40787914642E+02  0.15338848160E+02  0.44200874495E+02  0.00000000000E+00 0. -1.
</event>
<event>
 7    1  0.1654239E-015  0.9000772E+02  0.7816164E-02  0.1186339E+00
        -11   -1    0    0    0    0  0.00000000000E+00  0.00000000000E+00  0.45593999997E+02  0.45594000000E+02  0.51100000000E-03 0. -1.
         11   -1    0    0    0    0 -0.00000000000E+00 -0.00000000000E+00 -0.45593999997E+02  0.45594000000E+02  0.51100000000E-03 0.  1.
    9900012    2    1    2    0    0  0.46212891794E+00  0.10858828446E+01 -0.18600635265E-01  0.90007724324E+02  0.89999985485E+02 0.  0.
        -12    1    1    2    0    0 -0.46212891794E+00 -0.10858828446E+01  0.18600635265E-01  0.11802756765E+01  0.00000000000E+00 0.  1.
         11    1    3    3    0    0  0.39906822464E+01  0.38497724702E+01  0.72403172736E+01  0.91196758356E+01  0.51100000000E-03 0. -1.
        -11    1    3    3    0    0  0.51959434306E+01  0.10869866019E+02 -0.41392975345E+02  0.43110674125E+02  0.51100000000E-03 0.  1.
         12    1    3    3    0    0 -0.87244967590E+01 -0.13633755645E+02  0.34134057436E+02  0.37777374362E+02  0.00000000000E+00 0. -1.
</event>
<event>
 7    1  0.1654239E-015  0.9000777E+02  0.7816164E-02  0.1186339E+00
        -11   -1    0    0    0    0  0.00000000000E+00  0.00000000000E+00  0.45593999997E+02  0.45594000000E+02  0.51100000000E-03 0.  1.
         11   -1    0    0    0    0 -0.00000000000E+00 -0.00000000000E+00 -0.45593999997E+02  0.45594000000E+02  0.51100000000E-03 0. -1.
    9900012    2    1    2    0    0  0.68960919217E+00  0.53638102907E+00 -0.79352926430E+00  0.90007765218E+02  0.90000026919E+02 0.  0.
        -12    1    1    2    0    0 -0.68960919217E+00 -0.53638102907E+00  0.79352926430E+00  0.11802347815E+01  0.00000000000E+00 0.  1.
         11    1    3    3    0    0  0.41861258087E+01 -0.90707825398E+01 -0.72951646405E+00  0.10016732986E+02  0.51100000000E-03 0. -1.
        -11    1    3    3    0    0 -0.37058839977E+02  0.60819384121E+01  0.18075146113E+02  0.41678033814E+02  0.51100000000E-03 0.  1.
         12    1    3    3    0    0  0.33562323361E+02  0.35252251568E+01 -0.18139158914E+02  0.38312998419E+02  0.00000000000E+00 0. -1.
</event>
<event>
 7    1  0.1654239E-015  0.9000763E+02  0.7816164E-02  0.1186339E+00
        -11   -1    0    0    0    0  0.00000000000E+00  0.00000000000E+00  0.45593999997E+02  0.45594000000E+02  0.51100000000E-03 0. -1.
         11   -1    0    0    0    0 -0.00000000000E+00 -0.00000000000E+00 -0.45593999997E+02  0.45594000000E+02  0.51100000000E-03 0.  1.
    9900012    2    1    2    0    0  0.46112065196E+00  0.51828634298E+00 -0.95500149660E+00  0.90007626819E+02  0.89999886692E+02 0.  0.
        -12    1    1    2    0    0 -0.46112065196E+00 -0.51828634298E+00  0.95500149660E+00  0.11803731815E+01  0.00000000000E+00 0.  1.
         11    1    3    3    0    0  0.92709198381E+01  0.25515848473E+01 -0.10188172720E+01  0.96694637273E+01  0.51100000000E-03 0. -1.
        -11    1    3    3    0    0 -0.10766532641E+02  0.30115790717E+02  0.24186063753E+02  0.40097939545E+02  0.51100000000E-03 0.  1.
         12    1    3    3    0    0  0.19567334544E+01 -0.32149089222E+02 -0.24122247977E+02  0.40240223546E+02  0.00000000000E+00 0. -1.
</event>
<event>
 7    1  0.1654239E-015  0.9000771E+02  0.7816164E-02  0.1186339E+00
        -11   -1    0    0    0    0  0.00000000000E+00  0.00000000000E+00  0.45593999997E+02  0.45594000000E+02  0.51100000000E-03 0.  1.
         11   -1    0    0    0    0 -0.00000000000E+00 -0.00000000000E+00 -0.45593999997E+02  0.45594000000E+02  0.51100000000E-03 0. -1.
    9900012    2    1    2    0    0 -0.87831745838E+00  0.18499300267E-01 -0.78823340602E+00  0.90007705255E+02  0.89999966165E+02 0.  0.
        -12    1    1    2    0    0  0.87831745838E+00 -0.18499300267E-01  0.78823340602E+00  0.11802947446E+01  0.00000000000E+00 0.  1.
         11    1    3    3    0    0 -0.72328973909E+01 -0.63639646657E+01 -0.34593126497E+02  0.35909598328E+02  0.51100000000E-03 0. -1.
        -11    1    3    3    0    0 -0.34821703520E+01 -0.13081959246E+02 -0.38707712849E+00  0.13543005465E+02  0.51100000000E-03 0.  1.
        -12    1    3    3    0    0  0.98367502845E+01  0.19464423212E+02  0.34191970220E+02  0.40555101462E+02  0.00000000000E+00 0.  1.
</event>
<event>
 7    1  0.1654239E-015  0.9000790E+02  0.7816164E-02  0.1186339E+00
        -11   -1    0    0    0    0  0.00000000000E+00  0.00000000000E+00  0.45593999997E+02  0.45594000000E+02  0.51100000000E-03 0.  1.
         11   -1    0    0    0    0 -0.00000000000E+00 -0.00000000000E+00 -0.45593999997E+02  0.45594000000E+02  0.51100000000E-03 0. -1.
    9900012    2    1    2    0    0 -0.22997904999E+00  0.55243397238E+00 -0.10171385638E+01  0.90007896396E+02  0.90000159829E+02 0.  0.
        -12    1    1    2    0    0  0.22997904999E+00 -0.55243397238E+00  0.10171385638E+01  0.11801036036E+01  0.00000000000E+00 0.  1.
         11    1    3    3    0    0  0.27273433074E+02  0.71203572949E+01 -0.19865130079E+02  0.34484243257E+02  0.51100000000E-03 0. -1.
        -11    1    3    3    0    0  0.27129033490E+01 -0.24030644352E+01 -0.11763920513E+02  0.12309524335E+02  0.51100000000E-03 0.  1.
        -12    1    3    3    0    0 -0.30216315473E+02 -0.41648588873E+01  0.30611912028E+02  0.43214128805E+02  0.00000000000E+00 0.  1.
</event>
<event>
 7    1  0.1654239E-015  0.9000766E+02  0.7816164E-02  0.1186339E+00
        -11   -1    0    0    0    0  0.00000000000E+00  0.00000000000E+00  0.45593999997E+02  0.45594000000E+02  0.51100000000E-03 0. -1.
         11   -1    0    0    0    0 -0.00000000000E+00 -0.00000000000E+00 -0.45593999997E+02  0.45594000000E+02  0.51100000000E-03 0.  1.
    9900012    2    1    2    0    0 -0.43147198613E+00  0.53651539679E+00 -0.95874591815E+00  0.90007656583E+02  0.89999916850E+02 0.  0.
        -12    1    1    2    0    0  0.43147198613E+00 -0.53651539679E+00  0.95874591815E+00  0.11803434167E+01  0.00000000000E+00 0.  1.
         11    1    3    3    0    0 -0.38323417688E+01 -0.81153331730E+01 -0.55444880947E+01  0.10549257056E+02  0.51100000000E-03 0. -1.
        -11    1    3    3    0    0  0.18044118533E+02 -0.15059672654E+02  0.32438144135E+02  0.40057672789E+02  0.51100000000E-03 0.  1.
         12    1    3    3    0    0 -0.14643248750E+02  0.23711521224E+02 -0.27852401958E+02  0.39400726739E+02  0.00000000000E+00 0. -1.
</event>
<event>
 7    1  0.1654239E-015  0.9000770E+02  0.7816164E-02  0.1186339E+00
        -11   -1    0    0    0    0  0.00000000000E+00  0.00000000000E+00  0.45593999997E+02  0.45594000000E+02  0.51100000000E-03 0.  1.
         11   -1    0    0    0    0 -0.00000000000E+00 -0.00000000000E+00 -0.45593999997E+02  0.45594000000E+02  0.51100000000E-03 0. -1.
    9900012    2    1    2    0    0  0.78119869790E-01  0.50638894489E+00 -0.10632872230E+01  0.90007698261E+02  0.89999959078E+02 0.  0.
        -12    1    1    2    0    0 -0.78119869790E-01 -0.50638894489E+00  0.10632872230E+01  0.11803017394E+01  0.00000000000E+00 0.  1.
         11    1    3    3    0    0 -0.96263553838E+01 -0.13727720514E+01  0.60938934096E+00  0.97428218042E+01  0.51100000000E-03 0. -1.
        -11    1    3    3    0    0 -0.33690038552E+01 -0.34526142003E+01  0.37922314659E+02  0.38227904483E+02  0.51100000000E-03 0.  1.
         12    1    3    3    0    0  0.13073479109E+02  0.53317751966E+01 -0.39594991223E+02  0.42036971973E+02  0.00000000000E+00 0. -1.
</event>
<event>
 7    1  0.1654239E-015  0.9000876E+02  0.7816164E-02  0.1186337E+00
        -11   -1    0    0    0    0  0.00000000000E+00  0.00000000000E+00  0.45593999997E+02  0.45594000000E+02  0.51100000000E-03 0.  1.
         11   -1    0    0    0    0 -0.00000000000E+00 -0.00000000000E+00 -0.45593999997E+02  0.45594000000E+02  0.51100000000E-03 0. -1.
    9900012    2    1    2    0    0  0.41109913610E+00 -0.11052213508E+01 -0.97371327851E-02  0.90008758063E+02  0.90001032864E+02 0.  0.
        -12    1    1    2    0    0 -0.41109913610E+00  0.11052213508E+01  0.97371327851E-02  0.11792419369E+01  0.00000000000E+00 0.  1.
         11    1    3    3    0    0  0.30318726026E+02 -0.21983334670E+02 -0.12546644677E+02  0.39495701588E+02  0.51100000000E-03 0. -1.
        -11    1    3    3    0    0  0.39682024939E+01 -0.25624927196E+01  0.77021174429E+01  0.90352428488E+01  0.51100000000E-03 0.  1.
        -12    1    3    3    0    0 -0.33875829383E+02  0.23440606039E+02  0.48347901015E+01  0.41477813626E+02  0.00000000000E+00 0.  1.
</event>
<event>
 7    1  0.1654239E-015  0.9000778E+02  0.7816164E-02  0.1186339E+00
        -11   -1    0    0    0    0  0.00000000000E+00  0.00000000000E+00  0.45593999997E+02  0.45594000000E+02  0.51100000000E-03 0.  1.
         11   -1    0    0    0    0 -0.00000000000E+00 -0.00000000000E+00 -0.45593999997E+02  0.45594000000E+02  0.51100000000E-03 0. -1.
    9900012    2    1    2    0    0  0.44658063000E+00  0.54252203582E+00 -0.94824354028E+00  0.90007775348E+02  0.90000037182E+02 0.  0.
        -12    1    1    2    0    0 -0.44658063000E+00 -0.54252203582E+00  0.94824354028E+00  0.11802246524E+01  0.00000000000E+00 0.  1.
         11    1    3    3    0    0 -0.26740231693E+01 -0.37966972804E+00  0.83337463202E+01  0.87604724190E+01  0.51100000000E-03 0. -1.
        -11    1    3    3    0    0 -0.10307207621E+02 -0.34069864053E+02  0.12704771288E+02  0.37794250612E+02  0.51100000000E-03 0.  1.
         12    1    3    3    0    0  0.13427811421E+02  0.34992055817E+02 -0.21986761149E+02  0.43453052317E+02  0.00000000000E+00 0. -1.
</event>
<event>
 7    1  0.1654239E-015  0.9000778E+02  0.7816164E-02  0.1186339E+00
        -11   -1    0    0    0    0  0.00000000000E+00  0.00000000000E+00  0.45593999997E+02  0.45594000000E+02  0.51100000000E-03 0.  1.
         11   -1    0    0    0    0 -0.00000000000E+00 -0.00000000000E+00 -0.45593999997E+02  0.45594000000E+02  0.51100000000E-03 0. -1.
    9900012    2    1    2    0    0  0.89717494342E+00 -0.72814402759E+00 -0.24042979833E+00  0.90007778372E+02  0.90000040246E+02 0.  0.
        -12    1    1    2    0    0 -0.89717494342E+00  0.72814402759E+00  0.24042979833E+00  0.11802216283E+01  0.00000000000E+00 0.  1.
         11    1    3    3    0    0  0.26662930225E+02  0.28342850324E+02 -0.41057281673E+01  0.39129094249E+02  0.51100000000E-03 0. -1.
        -11    1    3    3    0    0 -0.16263603281E+01  0.15094055373E+01 -0.94494301046E+01  0.97064454130E+01  0.51100000000E-03 0.  1.
        -12    1    3    3    0    0 -0.24139394953E+02 -0.30580399889E+02  0.13314728474E+02  0.41172238710E+02  0.00000000000E+00 0.  1.
</event>
<event>
 7    1  0.1654239E-015  0.9000783E+02  0.7816164E-02  0.1186339E+00
        -11   -1    0    0    0    0  0.00000000000E+00  0.00000000000E+00  0.45593999997E+02  0.45594000000E+02  0.51100000000E-03 0.  1.
         11   -1    0    0    0    0 -0.00000000000E+00 -0.00000000000E+00 -0.45593999997E+02  0.45594000000E+02  0.51100000000E-03 0. -1.
    9900012    2    1    2    0    0 -0.10847041928E+01 -0.42551908754E+00  0.18745687397E+00  0.90007834859E+02  0.90000097479E+02 0.  0.
        -12    1    1    2    0    0  0.10847041928E+01  0.42551908754E+00 -0.18745687397E+00  0.11801651407E+01  0.00000000000E+00 0.  1.
         11    1    3    3    0    0 -0.90752535130E+01 -0.32148478779E+02 -0.11267198320E+02  0.35253860390E+02  0.51100000000E-03 0. -1.
        -11    1    3    3    0    0  0.54497693431E+00 -0.10057701117E+02  0.65910639998E+01  0.12037295233E+02  0.51100000000E-03 0.  1.
        -12    1    3    3    0    0  0.74455723859E+01  0.41780660808E+02  0.48635911944E+01  0.42716679237E+02  0.00000000000E+00 0.  1.
</event>
<event>
 7    1  0.1654239E-015  0.9000814E+02  0.7816164E-02  0.1186338E+00
        -11   -1    0    0    0    0  0.00000000000E+00  0.00000000000E+00  0.45593999997E+02  0.45594000000E+02  0.51100000000E-03 0. -1.
         11   -1    0    0    0    0 -0.00000000000E+00 -0.00000000000E+00 -0.45593999997E+02  0.45594000000E+02  0.51100000000E-03 0.  1.
    9900012    2    1    2    0    0 -0.11689402974E+01  0.13173743049E+00  0.91009940416E-01  0.90008144509E+02  0.90000411216E+02 0.  0.
        -12    1    1    2    0    0  0.11689402974E+01 -0.13173743049E+00 -0.91009940416E-01  0.11798554906E+01  0.00000000000E+00 0.  1.
         11    1    3    3    0    0 -0.13317689117E+02  0.83888909591E+01  0.34898274105E+02  0.38283467329E+02  0.51100000000E-03 0. -1.
        -11    1    3    3    0    0 -0.22773078598E+01  0.96695722765E+01  0.77499177435E-01  0.99344232587E+01  0.51100000000E-03 0.  1.
        -12    1    3    3    0    0  0.14426056679E+02 -0.17926725805E+02 -0.34884763342E+02  0.41790253922E+02  0.00000000000E+00 0.  1.
</event>
<event>
 7    1  0.1654239E-015  0.9000773E+02  0.7816164E-02  0.1186339E+00
        -11   -1    0    0    0    0  0.00000000000E+00  0.00000000000E+00  0.45593999997E+02  0.45594000000E+02  0.51100000000E-03 0.  1.
         11   -1    0    0    0    0 -0.00000000000E+00 -0.00000000000E+00 -0.45593999997E+02  0.45594000000E+02  0.51100000000E-03 0. -1.
    9900012    2    1    2    0    0 -0.80324472042E+00  0.84837592112E+00 -0.16758748618E+00  0.90007733356E+02  0.89999994637E+02 0.  0.
        -12    1    1    2    0    0  0.80324472042E+00 -0.84837592112E+00  0.16758748618E+00  0.11802666436E+01  0.00000000000E+00 0.  1.
         11    1    3    3    0    0 -0.33103729615E+01  0.85821985545E+01  0.34008386142E+01  0.98070589227E+01  0.51100000000E-03 0. -1.
        -11    1    3    3    0    0  0.22382143250E+02  0.28278022362E+02  0.90392303174E+01  0.37179491257E+02  0.51100000000E-03 0.  1.
         12    1    3    3    0    0 -0.19875015009E+02 -0.36011844995E+02 -0.12607656418E+02  0.43021183176E+02  0.00000000000E+00 0. -1.
</event>
<event>
 7    1  0.2089024E-015  0.9000778E+02  0.7816164E-02  0.1186339E+00
        -11   -1    0    0    0    0  0.00000000000E+00  0.00000000000E+00  0.45593999997E+02  0.45594000000E+02  0.51100000000E-03 0. -1.
         11   -1    0    0    0    0 -0.00000000000E+00 -0.00000000000E+00 -0.45593999997E+02  0.45594000000E+02  0.51100000000E-03 0.  1.
    9900012    2    1    2    0    0 -0.35328116483E+00  0.11239502645E+01  0.69659942768E-01  0.90007777866E+02  0.90000039734E+02 0.  0.
        -12    1    1    2    0    0  0.35328116483E+00 -0.11239502645E+01 -0.69659942768E-01  0.11802221342E+01  0.00000000000E+00 0.  1.
         11    1    3    3    0    0 -0.83059193902E+01 -0.43257862248E+01 -0.20069041538E+00  0.93670166159E+01  0.51100000000E-03 0. -1.
        -11    1    3    3    0    0  0.27292231512E+02 -0.17921118699E+02  0.25305939357E+02  0.41308872695E+02  0.51100000000E-03 0.  1.
         12    1    3    3    0    0 -0.19339593287E+02  0.23370855188E+02 -0.25035588999E+02  0.39331888555E+02  0.00000000000E+00 0. -1.
</event>
<event>
 7    1  0.1724814E-015  0.9000783E+02  0.7816164E-02  0.1186339E+00
        -11   -1    0    0    0    0  0.00000000000E+00  0.00000000000E+00  0.45593999997E+02  0.45594000000E+02  0.51100000000E-03 0. -1.
         11   -1    0    0    0    0 -0.00000000000E+00 -0.00000000000E+00 -0.45593999997E+02  0.45594000000E+02  0.51100000000E-03 0.  1.
    9900012    2    1    2    0    0  0.41988340389E+00 -0.91351741844E+00  0.61805358039E+00  0.90007827820E+02  0.90000090347E+02 0.  0.
        -12    1    1    2    0    0 -0.41988340389E+00  0.91351741844E+00 -0.61805358039E+00  0.11801721802E+01  0.00000000000E+00 0.  1.
         11    1    3    3    0    0 -0.84701760034E+01 -0.42303333525E+01 -0.24188485194E+01  0.97719204982E+01  0.51100000000E-03 0. -1.
        -11    1    3    3    0    0 -0.29279610492E+02  0.79605491348E+01 -0.19113808553E+02  0.35860892498E+02  0.51100000000E-03 0.  1.
         12    1    3    3    0    0  0.38169669899E+02 -0.46437332008E+01  0.22150710652E+02  0.44375014824E+02  0.00000000000E+00 0. -1.
</event>
<event>
 7    1  0.1654239E-015  0.9000775E+02  0.7816164E-02  0.1186339E+00
        -11   -1    0    0    0    0  0.00000000000E+00  0.00000000000E+00  0.45593999997E+02  0.45594000000E+02  0.51100000000E-03 0.  1.
         11   -1    0    0    0    0 -0.00000000000E+00 -0.00000000000E+00 -0.45593999997E+02  0.45594000000E+02  0.51100000000E-03 0. -1.
    9900012    2    1    2    0    0  0.60506174205E+00 -0.99599487324E+00 -0.18676690129E+00  0.90007751139E+02  0.90000012654E+02 0.  0.
        -12    1    1    2    0    0 -0.60506174205E+00  0.99599487324E+00  0.18676690129E+00  0.11802488613E+01  0.00000000000E+00 0.  1.
         11    1    3    3    0    0  0.26732573220E+02 -0.78738903959E+01 -0.22994072029E+02  0.36129710346E+02  0.51100000000E-03 0. -1.
        -11    1    3    3    0    0 -0.19512586716E+01 -0.85508702141E+01 -0.79402855107E+01  0.11831015429E+02  0.51100000000E-03 0.  1.
        -12    1    3    3    0    0 -0.24176252806E+02  0.15428765737E+02  0.30747590639E+02  0.42047025364E+02  0.00000000000E+00 0.  1.
</event>
<event>
 7    1  0.1654239E-015  0.9000775E+02  0.7816164E-02  0.1186339E+00
        -11   -1    0    0    0    0  0.00000000000E+00  0.00000000000E+00  0.45593999997E+02  0.45594000000E+02  0.51100000000E-03 0. -1.
         11   -1    0    0    0    0 -0.00000000000E+00 -0.00000000000E+00 -0.45593999997E+02  0.45594000000E+02  0.51100000000E-03 0.  1.
    9900012    2    1    2    0    0 -0.65418679804E+00  0.15588569457E+00 -0.96990657665E+00  0.90007754482E+02  0.90000016041E+02 0.  0.
        -12    1    1    2    0    0  0.65418679804E+00 -0.15588569457E+00  0.96990657665E+00  0.11802455185E+01  0.00000000000E+00 0.  1.
         11    1    3    3    0    0 -0.36325879990E+01 -0.30746149857E+02  0.20301456146E+02  0.37022568097E+02  0.51100000000E-03 0. -1.
        -11    1    3    3    0    0 -0.10013393318E+02 -0.27822726953E+01  0.11973959667E+01  0.10461493414E+02  0.51100000000E-03 0.  1.
        -12    1    3    3    0    0  0.12991794519E+02  0.33684308247E+02 -0.22468758689E+02  0.42523692971E+02  0.00000000000E+00 0.  1.
</event>
<event>
 7    1  0.1654239E-015  0.9000776E+02  0.7816164E-02  0.1186339E+00
        -11   -1    0    0    0    0  0.00000000000E+00  0.00000000000E+00  0.45593999997E+02  0.45594000000E+02  0.51100000000E-03 0.  1.
         11   -1    0    0    0    0 -0.00000000000E+00 -0.00000000000E+00 -0.45593999997E+02  0.45594000000E+02  0.51100000000E-03 0. -1.
    9900012    2    1    2    0    0  0.47356894169E+00  0.38686862421E+00 -0.10094675647E+01  0.90007762889E+02  0.90000024559E+02 0.  0.
        -12    1    1    2    0    0 -0.47356894169E+00 -0.38686862421E+00  0.10094675647E+01  0.11802371114E+01  0.00000000000E+00 0.  1.
         11    1    3    3    0    0 -0.12140386286E+02  0.78614265979E+01 -0.26665218078E+02  0.30335208302E+02  0.51100000000E-03 0. -1.
        -11    1    3    3    0    0  0.21744134774E+02 -0.50639310034E+01 -0.87612961540E+01  0.23983559052E+02  0.51100000000E-03 0.  1.
        -12    1    3    3    0    0 -0.91301795465E+01 -0.24106269703E+01  0.34417046667E+02  0.35688995534E+02  0.00000000000E+00 0.  1.
</event>
<event>
 7    1  0.1654239E-015  0.9000775E+02  0.7816164E-02  0.1186339E+00
        -11   -1    0    0    0    0  0.00000000000E+00  0.00000000000E+00  0.45593999997E+02  0.45594000000E+02  0.51100000000E-03 0. -1.
         11   -1    0    0    0    0 -0.00000000000E+00 -0.00000000000E+00 -0.45593999997E+02  0.45594000000E+02  0.51100000000E-03 0.  1.
    9900012    2    1    2    0    0  0.95318171565E+00 -0.21428342381E+00  0.66221328389E+00  0.90007746128E+02  0.90000007577E+02 0.  0.
        -12    1    1    2    0    0 -0.95318171565E+00  0.21428342381E+00 -0.66221328389E+00  0.11802538719E+01  0.00000000000E+00 0.  1.
         11    1    3    3    0    0  0.67352298080E-01 -0.10082673674E+01  0.10572730710E+02  0.10620912124E+02  0.51100000000E-03 0. -1.
        -11    1    3    3    0    0  0.31632031855E+02 -0.11749757009E+02  0.15925831248E+02  0.37313192443E+02  0.51100000000E-03 0.  1.
         12    1    3    3    0    0 -0.30746202438E+02  0.12543740953E+02 -0.25836348674E+02  0.42073641562E+02  0.00000000000E+00 0. -1.
</event>
<event>
 7    1  0.1654239E-015  0.9000770E+02  0.7816164E-02  0.1186339E+00
        -11   -1    0    0    0    0  0.00000000000E+00  0.00000000000E+00  0.45593999997E+02  0.45594000000E+02  0.51100000000E-03 0.  1.
         11   -1    0    0    0    0 -0.00000000000E+00 -0.00000000000E+00 -0.45593999997E+02  0.45594000000E+02  0.51100000000E-03 0. -1.
    9900012    2    1    2    0    0 -0.11505869767E+01 -0.37638888087E-01  0.26045375174E+00  0.90007702057E+02  0.89999962924E+02 0.  0.
        -12    1    1    2    0    0  0.11505869767E+01  0.37638888087E-01 -0.26045375174E+00  0.11802979427E+01  0.00000000000E+00 0.  1.
         11    1    3    3    0    0 -0.28835418225E+01  0.47706171650E+01 -0.22040865617E+02  0.22734848998E+02  0.51100000000E-03 0. -1.
        -11    1    3    3    0    0 -0.16289768414E+02 -0.15132009024E+02 -0.13407124887E+02  0.25963151775E+02  0.51100000000E-03 0.  1.
        -12    1    3    3    0    0  0.18022723260E+02  0.10323752971E+02  0.35708444255E+02  0.41309701285E+02  0.00000000000E+00 0.  1.
</event>
<event>
 7    1  0.1654239E-015  0.9000749E+02  0.7816164E-02  0.1186340E+00
        -11   -1    0    0    0    0  0.00000000000E+00  0.00000000000E+00  0.45593999997E+02  0.45594000000E+02  0.51100000000E-03 0. -1.
         11   -1    0    0    0    0 -0.00000000000E+00 -0.00000000000E+00 -0.45593999997E+02  0.45594000000E+02  0.51100000000E-03 0.  1.
    9900012    2    1    2    0    0  0.78216283296E+00 -0.21359520274E+00  0.85802875078E+00  0.90007485305E+02  0.89999743311E+02 0.  0.
        -12    1    1    2    0    0 -0.78216283296E+00  0.21359520274E+00 -0.85802875078E+00  0.11805146950E+01  0.00000000000E+00 0.  1.
         11    1    3    3    0    0  0.21908344054E+02 -0.28854132055E+02  0.88101450458E+01  0.37284784186E+02  0.51100000000E-03 0. -1.
        -11    1    3    3    0    0 -0.98572329529E+00 -0.56164972925E+01  0.80649857496E+01  0.98772813898E+01  0.51100000000E-03 0.  1.
        -12    1    3    3    0    0 -0.20140457926E+02  0.34257034144E+02 -0.16017102045E+02  0.42845419729E+02  0.00000000000E+00 0.  1.
</event>
<event>
 7    1  0.1654239E-015  0.9000774E+02  0.7816164E-02  0.1186339E+00
        -11   -1    0    0    0    0  0.00000000000E+00  0.00000000000E+00  0.45593999997E+02  0.45594000000E+02  0.51100000000E-03 0.  1.
         11   -1    0    0    0    0 -0.00000000000E+00 -0.00000000000E+00 -0.45593999997E+02  0.45594000000E+02  0.51100000000E-03 0. -1.
    9900012    2    1    2    0    0  0.39350712866E+00 -0.10761842234E+01  0.28283661573E+00  0.90007738633E+02  0.89999999983E+02 0.  0.
        -12    1    1    2    0    0 -0.39350712866E+00  0.10761842234E+01 -0.28283661573E+00  0.11802613669E+01  0.00000000000E+00 0.  1.
         11    1    3    3    0    0 -0.16307529596E+01  0.56081817639E+01 -0.22245333405E+01  0.62497685362E+01  0.51100000000E-03 0. -1.
        -11    1    3    3    0    0 -0.35210914973E+02  0.16792501197E+02 -0.41836840862E+01  0.39233911894E+02  0.51100000000E-03 0.  1.
         12    1    3    3    0    0  0.37235175062E+02 -0.23476867184E+02  0.66910540424E+01  0.44524058203E+02  0.00000000000E+00 0. -1.
</event>
<event>
 7    1  0.1654239E-015  0.9000838E+02  0.7816164E-02  0.1186338E+00
        -11   -1    0    0    0    0  0.00000000000E+00  0.00000000000E+00  0.45593999997E+02  0.45594000000E+02  0.51100000000E-03 0.  1.
         11   -1    0    0    0    0 -0.00000000000E+00 -0.00000000000E+00 -0.45593999997E+02  0.45594000000E+02  0.51100000000E-03 0. -1.
    9900012    2    1    2    0    0 -0.24894778966E+00 -0.98916397628E+00 -0.59252855230E+00  0.90008376984E+02  0.90000646758E+02 0.  0.
        -12    1    1    2    0    0  0.24894778966E+00  0.98916397628E+00  0.59252855230E+00  0.11796230157E+01  0.00000000000E+00 0.  1.
         11    1    3    3    0    0 -0.88518936313E+01 -0.39929516319E+02  0.72895234873E+01  0.41543464555E+02  0.51100000000E-03 0. -1.
        -11    1    3    3    0    0  0.94609959400E+01  0.15046154831E+01  0.18915783115E+01  0.97648543613E+01  0.51100000000E-03 0.  1.
        -12    1    3    3    0    0 -0.85805009830E+00  0.37435736860E+02 -0.97736303511E+01  0.38700058068E+02  0.00000000000E+00 0.  1.
</event>
<event>
 7    1  0.1654239E-015  0.9000775E+02  0.7816164E-02  0.1186339E+00
        -11   -1    0    0    0    0  0.00000000000E+00  0.00000000000E+00  0.45593999997E+02  0.45594000000E+02  0.51100000000E-03 0.  1.
         11   -1    0    0    0    0 -0.00000000000E+00 -0.00000000000E+00 -0.45593999997E+02  0.45594000000E+02  0.51100000000E-03 0. -1.
    9900012    2    1    2    0    0  0.32397473406E+00  0.38922320188E+00 -0.10660811757E+01  0.90007752821E+02  0.90000014359E+02 0.  0.
        -12    1    1    2    0    0 -0.32397473406E+00 -0.38922320188E+00  0.10660811757E+01  0.11802471785E+01  0.00000000000E+00 0.  1.
         11    1    3    3    0    0  0.66789349123E+01  0.33073580236E+02 -0.17635238486E+02  0.38071925587E+02  0.51100000000E-03 0. -1.
        -11    1    3    3    0    0 -0.29577889554E+01  0.17634340554E+01 -0.85167835195E+01  0.91866107435E+01  0.51100000000E-03 0.  1.
        -12    1    3    3    0    0 -0.33971712228E+01 -0.34447791090E+02  0.25085940829E+02  0.42749216491E+02  0.00000000000E+00 0.  1.
</event>
<event>
 7    1  0.1654239E-015  0.9000770E+02  0.7816164E-02  0.1186339E+00
        -11   -1    0    0    0    0  0.00000000000E+00  0.00000000000E+00  0.45593999997E+02  0.45594000000E+02  0.51100000000E-03 0. -1.
         11   -1    0    0    0    0 -0.00000000000E+00 -0.00000000000E+00 -0.45593999997E+02  0.45594000000E+02  0.51100000000E-03 0.  1.
    9900012    2    1    2    0    0 -0.57146081952E+00 -0.72762033037E+00  0.73287739578E+00  0.90007700000E+02  0.89999960840E+02 0.  0.
        -12    1    1    2    0    0  0.57146081952E+00  0.72762033037E+00 -0.73287739578E+00  0.11803000003E+01  0.00000000000E+00 0.  1.
         11    1    3    3    0    0  0.30353879638E+01 -0.80827139991E+01  0.56434894418E+01  0.10314689478E+02  0.51100000000E-03 0. -1.
        -11    1    3    3    0    0  0.21803585213E+01  0.34333098609E+01 -0.41875663249E+02  0.42072707931E+02  0.51100000000E-03 0.  1.
         12    1    3    3    0    0 -0.57872073046E+01  0.39217838078E+01  0.36965051203E+02  0.37620302591E+02  0.00000000000E+00 0. -1.
</event>
<event>
 7    1  0.2254701E-015  0.9000773E+02  0.7816164E-02  0.1186339E+00
        -11   -1    0    0    0    0  0.00000000000E+00  0.00000000000E+00  0.45593999997E+02  0.45594000000E+02  0.51100000000E-03 0. -1.
         11   -1    0    0    0    0 -0.00000000000E+00 -0.00000000000E+00 -0.45593999997E+02  0.45594000000E+02  0.51100000000E-03 0.  1.
    9900012    2    1    2    0    0  0.58794265622E-01 -0.10105603897E+01  0.60691116321E+00  0.90007732985E+02  0.89999994260E+02 0.  0.
        -12    1    1    2    0    0 -0.58794265622E-01  0.10105603897E+01 -0.60691116321E+00  0.11802670151E+01  0.00000000000E+00 0.  1.
         11    1    3    3    0    0  0.97152825372E+01  0.78328119280E+00 -0.56478533992E+00  0.97631566077E+01  0.51100000000E-03 0. -1.
        -11    1    3    3    0    0  0.13947171778E+02 -0.33850922219E+02 -0.11651419253E+02  0.38420881127E+02  0.51100000000E-03 0.  1.
         12    1    3    3    0    0 -0.23603660050E+02  0.32057080637E+02  0.12823115757E+02  0.41823695250E+02  0.00000000000E+00 0. -1.
</event>
<event>
 7    1  0.1654239E-015  0.9000760E+02  0.7816164E-02  0.1186339E+00
        -11   -1    0    0    0    0  0.00000000000E+00  0.00000000000E+00  0.45593999997E+02  0.45594000000E+02  0.51100000000E-03 0. -1.
         11   -1    0    0    0    0 -0.00000000000E+00 -0.00000000000E+00 -0.45593999997E+02  0.45594000000E+02  0.51100000000E-03 0.  1.
    9900012    2    1    2    0    0 -0.69612619848E+00  0.94620747790E+00  0.11591421387E+00  0.90007603295E+02  0.89999862859E+02 0.  0.
        -12    1    1    2    0    0  0.69612619848E+00 -0.94620747790E+00 -0.11591421387E+00  0.11803967047E+01  0.00000000000E+00 0.  1.
         11    1    3    3    0    0  0.10858653127E+02  0.13980513380E+01  0.38601314147E+02  0.40123887516E+02  0.51100000000E-03 0. -1.
        -11    1    3    3    0    0 -0.10319852972E+02  0.54596528408E+01 -0.78363174838E+00  0.11701335543E+02  0.51100000000E-03 0.  1.
        -12    1    3    3    0    0 -0.12349263533E+01 -0.59114967009E+01 -0.37701768184E+02  0.38182380237E+02  0.00000000000E+00 0.  1.
</event>
<event>
 7    1  0.1654239E-015  0.9000775E+02  0.7816164E-02  0.1186339E+00
        -11   -1    0    0    0    0  0.00000000000E+00  0.00000000000E+00  0.45593999997E+02  0.45594000000E+02  0.51100000000E-03 0. -1.
         11   -1    0    0    0    0 -0.00000000000E+00 -0.00000000000E+00 -0.45593999997E+02  0.45594000000E+02  0.51100000000E-03 0.  1.
    9900012    2    1    2    0    0  0.65189691119E+00 -0.52389595083E-01  0.98248347336E+00  0.90007750862E+02  0.90000012373E+02 0.  0.
        -12    1    1    2    0    0 -0.65189691119E+00  0.52389595083E-01 -0.98248347336E+00  0.11802491381E+01  0.00000000000E+00 0.  1.
         11    1    3    3    0    0  0.31675168766E+02 -0.30896376112E+02  0.68725932779E+01  0.44778732807E+02  0.51100000000E-03 0. -1.
        -11    1    3    3    0    0 -0.75113101445E+00  0.95625045988E+00  0.16254082620E+01  0.20299174915E+01  0.51100000000E-03 0.  1.
        -12    1    3    3    0    0 -0.30272140841E+02  0.29887736057E+02 -0.75155180666E+01  0.43199100563E+02  0.00000000000E+00 0.  1.
</event>
<event>
 7    1  0.1654239E-015  0.9000776E+02  0.7816164E-02  0.1186339E+00
        -11   -1    0    0    0    0  0.00000000000E+00  0.00000000000E+00  0.45593999997E+02  0.45594000000E+02  0.51100000000E-03 0.  1.
         11   -1    0    0    0    0 -0.00000000000E+00 -0.00000000000E+00 -0.45593999997E+02  0.45594000000E+02  0.51100000000E-03 0. -1.
    9900012    2    1    2    0    0 -0.10516057333E+00  0.11193252779E+01 -0.35920152578E+00  0.90007756991E+02  0.90000018583E+02 0.  0.
        -12    1    1    2    0    0  0.10516057333E+00 -0.11193252779E+01  0.35920152578E+00  0.11802430089E+01  0.00000000000E+00 0.  1.
         11    1    3    3    0    0 -0.35292413746E+02  0.75729441557E+01  0.39494599856E+00  0.36097921461E+02  0.51100000000E-03 0. -1.
        -11    1    3    3    0    0 -0.70328423499E+01  0.37127826939E+00  0.75696759887E+01  0.10339183426E+02  0.51100000000E-03 0.  1.
        -12    1    3    3    0    0  0.42220095522E+02 -0.68248971472E+01 -0.83238235130E+01  0.43570652105E+02  0.00000000000E+00 0.  1.
</event>
<event>
 7    1  0.1654239E-015  0.9000773E+02  0.7816164E-02  0.1186339E+00
        -11   -1    0    0    0    0  0.00000000000E+00  0.00000000000E+00  0.45593999997E+02  0.45594000000E+02  0.51100000000E-03 0. -1.
         11   -1    0    0    0    0 -0.00000000000E+00 -0.00000000000E+00 -0.45593999997E+02  0.45594000000E+02  0.51100000000E-03 0.  1.
    9900012    2    1    2    0    0  0.92836066297E+00 -0.11184396973E+00 -0.72019612748E+00  0.90007726703E+02  0.89999987895E+02 0.  0.
        -12    1    1    2    0    0 -0.92836066297E+00  0.11184396973E+00  0.72019612748E+00  0.11802732972E+01  0.00000000000E+00 0.  1.
         11    1    3    3    0    0 -0.62165372134E+01 -0.46188836084E+01  0.67564749723E+01  0.10277615240E+02  0.51100000000E-03 0. -1.
        -11    1    3    3    0    0 -0.17236146317E+01 -0.32635830439E+02 -0.21422044268E+02  0.39076492380E+02  0.51100000000E-03 0.  1.
         12    1    3    3    0    0  0.88685125080E+01  0.37142870077E+02  0.13945373169E+02  0.40653619083E+02  0.00000000000E+00 0. -1.
</event>
<event>
 7    1  0.1654239E-015  0.9000769E+02  0.7816164E-02  0.1186339E+00
        -11   -1    0    0    0    0  0.00000000000E+00  0.00000000000E+00  0.45593999997E+02  0.45594000000E+02  0.51100000000E-03 0.  1.
         11   -1    0    0    0    0 -0.00000000000E+00 -0.00000000000E+00 -0.45593999997E+02  0.45594000000E+02  0.51100000000E-03 0. -1.
    9900012    2    1    2    0    0 -0.54662197607E+00  0.10459852420E+01 -0.15507445356E-01  0.90007694450E+02  0.89999955216E+02 0.  0.
        -12    1    1    2    0    0  0.54662197607E+00 -0.10459852420E+01  0.15507445356E-01  0.11803055503E+01  0.00000000000E+00 0.  1.
         11    1    3    3    0    0 -0.22236496429E+02  0.23220151819E+02 -0.23026536789E+02  0.39545652361E+02  0.51100000000E-03 0. -1.
        -11    1    3    3    0    0  0.12489110744E+01 -0.27727129041E+01 -0.79998184672E+01  0.85583182629E+01  0.51100000000E-03 0.  1.
        -12    1    3    3    0    0  0.20440963378E+02 -0.19401453673E+02  0.31010847811E+02  0.41903723825E+02  0.00000000000E+00 0.  1.
</event>
<event>
 7    1  0.1654239E-015  0.9000782E+02  0.7816164E-02  0.1186339E+00
        -11   -1    0    0    0    0  0.00000000000E+00  0.00000000000E+00  0.45593999997E+02  0.45594000000E+02  0.51100000000E-03 0. -1.
         11   -1    0    0    0    0 -0.00000000000E+00 -0.00000000000E+00 -0.45593999997E+02  0.45594000000E+02  0.51100000000E-03 0.  1.
    9900012    2    1    2    0    0  0.78283305960E+00 -0.52595573134E+00  0.70947831021E+00  0.90007823529E+02  0.90000085999E+02 0.  0.
        -12    1    1    2    0    0 -0.78283305960E+00  0.52595573134E+00 -0.70947831021E+00  0.11801764712E+01  0.00000000000E+00 0.  1.
         11    1    3    3    0    0 -0.75945484443E+01  0.28707711893E-01  0.56376428526E+00  0.76154987123E+01  0.51100000000E-03 0. -1.
        -11    1    3    3    0    0 -0.96954485375E+01  0.41587441871E+01 -0.38258937698E+02  0.39686813800E+02  0.51100000000E-03 0.  1.
         12    1    3    3    0    0  0.18072830041E+02 -0.47134076303E+01  0.38404651723E+02  0.42705511016E+02  0.00000000000E+00 0. -1.
</event>
<event>
 7    1  0.1654239E-015  0.9000774E+02  0.7816164E-02  0.1186339E+00
        -11   -1    0    0    0    0  0.00000000000E+00  0.00000000000E+00  0.45593999997E+02  0.45594000000E+02  0.51100000000E-03 0.  1.
         11   -1    0    0    0    0 -0.00000000000E+00 -0.00000000000E+00 -0.45593999997E+02  0.45594000000E+02  0.51100000000E-03 0. -1.
    9900012    2    1    2    0    0  0.11796677778E+01  0.37100752153E-01 -0.33413220985E-02  0.90007744224E+02  0.90000005648E+02 0.  0.
        -12    1    1    2    0    0 -0.11796677778E+01 -0.37100752153E-01  0.33413220985E-02  0.11802557758E+01  0.00000000000E+00 0.  1.
         11    1    3    3    0    0  0.11326152510E+02 -0.37184882860E+02 -0.72459922016E+01  0.39541138669E+02  0.51100000000E-03 0. -1.
        -11    1    3    3    0    0 -0.59082241377E+00 -0.30633933283E+01  0.84895547278E+01  0.90446663590E+01  0.51100000000E-03 0.  1.
        -12    1    3    3    0    0 -0.95556623181E+01  0.40285376940E+02 -0.12469038483E+01  0.41421939196E+02  0.00000000000E+00 0.  1.
</event>
<event>
 7    1  0.1654239E-015  0.9000772E+02  0.7816164E-02  0.1186339E+00
        -11   -1    0    0    0    0  0.00000000000E+00  0.00000000000E+00  0.45593999997E+02  0.45594000000E+02  0.51100000000E-03 0.  1.
         11   -1    0    0    0    0 -0.00000000000E+00 -0.00000000000E+00 -0.45593999997E+02  0.45594000000E+02  0.51100000000E-03 0. -1.
    9900012    2    1    2    0    0 -0.92685843998E-01 -0.96141075232E+00 -0.67834313155E+00  0.90007724310E+02  0.89999985471E+02 0.  0.
        -12    1    1    2    0    0  0.92685843998E-01  0.96141075232E+00  0.67834313155E+00  0.11802756900E+01  0.00000000000E+00 0.  1.
         11    1    3    3    0    0  0.44445316877E+01  0.33076527658E+02  0.15803069440E+01  0.33411194443E+02  0.51100000000E-03 0. -1.
        -11    1    3    3    0    0 -0.11889994252E+02  0.49932922158E+01 -0.97646976079E+01  0.16175730280E+02  0.51100000000E-03 0.  1.
        -12    1    3    3    0    0  0.73527767199E+01 -0.39031230626E+02  0.75060475324E+01  0.40420799587E+02  0.00000000000E+00 0.  1.
</event>
<event>
 7    1  0.1654239E-015  0.9000771E+02  0.7816164E-02  0.1186339E+00
        -11   -1    0    0    0    0  0.00000000000E+00  0.00000000000E+00  0.45593999997E+02  0.45594000000E+02  0.51100000000E-03 0. -1.
         11   -1    0    0    0    0 -0.00000000000E+00 -0.00000000000E+00 -0.45593999997E+02  0.45594000000E+02  0.51100000000E-03 0.  1.
    9900012    2    1    2    0    0 -0.53504605891E+00  0.93476018427E+00  0.48272854830E+00  0.90007712858E+02  0.89999973867E+02 0.  0.
        -12    1    1    2    0    0  0.53504605891E+00 -0.93476018427E+00 -0.48272854830E+00  0.11802871424E+01  0.00000000000E+00 0.  1.
         11    1    3    3    0    0  0.20507963318E+01  0.96069991260E+00 -0.91157878809E+01  0.93928855453E+01  0.51100000000E-03 0. -1.
        -11    1    3    3    0    0  0.28638668493E+02 -0.16165074749E+02  0.25909006002E+02  0.41865971468E+02  0.51100000000E-03 0.  1.
         12    1    3    3    0    0 -0.31224510883E+02  0.16139135021E+02 -0.16310489573E+02  0.38748855844E+02  0.00000000000E+00 0. -1.
</event>
<event>
 7    1  0.1654239E-015  0.9000780E+02  0.7816164E-02  0.1186339E+00
        -11   -1    0    0    0    0  0.00000000000E+00  0.00000000000E+00  0.45593999997E+02  0.45594000000E+02  0.51100000000E-03 0. -1.
         11   -1    0    0    0    0 -0.00000000000E+00 -0.00000000000E+00 -0.45593999997E+02  0.45594000000E+02  0.51100000000E-03 0.  1.
    9900012    2    1    2    0    0 -0.10004700063E+01 -0.60275395004E+00 -0.16920257635E+00  0.90007795751E+02  0.90000057855E+02 0.  0.
        -12    1    1    2    0    0  0.10004700063E+01  0.60275395004E+00  0.16920257635E+00  0.11802042491E+01  0.00000000000E+00 0.  1.
         11    1    3    3    0    0  0.90794410038E+01  0.21348531162E+02  0.31728219542E+02  0.39304909964E+02  0.51100000000E-03 0. -1.
        -11    1    3    3    0    0 -0.30370068730E+01  0.38496837001E+01  0.37250869542E+01  0.61579012996E+01  0.51100000000E-03 0.  1.
        -12    1    3    3    0    0 -0.70429041371E+01 -0.25800968812E+02 -0.35622509073E+02  0.44544984487E+02  0.00000000000E+00 0.  1.
</event>
<event>
 7    1  0.1654239E-015  0.9000771E+02  0.7816164E-02  0.1186339E+00
        -11   -1    0    0    0    0  0.00000000000E+00  0.00000000000E+00  0.45593999997E+02  0.45594000000E+02  0.51100000000E-03 0.  1.
         11   -1    0    0    0    0 -0.00000000000E+00 -0.00000000000E+00 -0.45593999997E+02  0.45594000000E+02  0.51100000000E-03 0. -1.
    9900012    2    1    2    0    0 -0.11437486546E+00 -0.80904124358E+00 -0.85173159169E+00  0.90007713574E+02  0.89999974593E+02 0.  0.
        -12    1    1    2    0    0  0.11437486546E+00  0.80904124358E+00  0.85173159169E+00  0.11802864262E+01  0.00000000000E+00 0.  1.
         11    1    3    3    0    0  0.23197940741E+02  0.43744591124E+01 -0.20043156057E+01  0.23691720673E+02  0.51100000000E-03 0. -1.
        -11    1    3    3    0    0  0.21380410593E+02 -0.23224127734E+01  0.10472429452E+01  0.21531657536E+02  0.51100000000E-03 0.  1.
        -12    1    3    3    0    0 -0.44692726199E+02 -0.28610875825E+01  0.10534106885E+00  0.44784335364E+02  0.00000000000E+00 0.  1.
</event>
<event>
 7    1  0.1654239E-015  0.9000781E+02  0.7816164E-02  0.1186339E+00
        -11   -1    0    0    0    0  0.00000000000E+00  0.00000000000E+00  0.45593999997E+02  0.45594000000E+02  0.51100000000E-03 0.  1.
         11   -1    0    0    0    0 -0.00000000000E+00 -0.00000000000E+00 -0.45593999997E+02  0.45594000000E+02  0.51100000000E-03 0. -1.
    9900012    2    1    2    0    0  0.83379856875E-01  0.11742638580E+01  0.83669912521E-01  0.90007809989E+02  0.90000072280E+02 0.  0.
        -12    1    1    2    0    0 -0.83379856875E-01 -0.11742638580E+01 -0.83669912521E-01  0.11801900114E+01  0.00000000000E+00 0.  1.
         11    1    3    3    0    0  0.84784336565E+01  0.66976951074E+01  0.28315764869E+01  0.11169636641E+02  0.51100000000E-03 0. -1.
        -11    1    3    3    0    0 -0.78318804840E+01 -0.32446359258E+02  0.23822615066E+02  0.41007579420E+02  0.51100000000E-03 0.  1.
         12    1    3    3    0    0 -0.56317331567E+00  0.26922928009E+02 -0.26570521640E+02  0.37830593928E+02  0.00000000000E+00 0. -1.
</event>
<event>
 7    1  0.1654239E-015  0.9000774E+02  0.7816164E-02  0.1186339E+00
        -11   -1    0    0    0    0  0.00000000000E+00  0.00000000000E+00  0.45593999997E+02  0.45594000000E+02  0.51100000000E-03 0. -1.
         11   -1    0    0    0    0 -0.00000000000E+00 -0.00000000000E+00 -0.45593999997E+02  0.45594000000E+02  0.51100000000E-03 0.  1.
    9900012    2    1    2    0    0  0.13825982993E-01 -0.49535323096E+00  0.10711871250E+01  0.90007742470E+02  0.90000003870E+02 0.  0.
        -12    1    1    2    0    0 -0.13825982993E-01  0.49535323096E+00 -0.10711871250E+01  0.11802575304E+01  0.00000000000E+00 0.  1.
         11    1    3    3    0    0  0.60465394546E+01  0.37602881853E+00 -0.62863414384E+01  0.87304138499E+01  0.51100000000E-03 0. -1.
        -11    1    3    3    0    0 -0.24166693477E+00 -0.27985346088E+02 -0.25794039166E+02  0.38060090059E+02  0.51100000000E-03 0.  1.
         12    1    3    3    0    0 -0.57910465369E+01  0.27113964039E+02  0.33151567729E+02  0.43217238560E+02  0.00000000000E+00 0. -1.
</event>
<event>
 7    1  0.1654239E-015  0.9000776E+02  0.7816164E-02  0.1186339E+00
        -11   -1    0    0    0    0  0.00000000000E+00  0.00000000000E+00  0.45593999997E+02  0.45594000000E+02  0.51100000000E-03 0. -1.
         11   -1    0    0    0    0 -0.00000000000E+00 -0.00000000000E+00 -0.45593999997E+02  0.45594000000E+02  0.51100000000E-03 0.  1.
    9900012    2    1    2    0    0  0.96130669169E+00 -0.54365075072E+00 -0.41628201940E+00  0.90007763831E+02  0.90000025514E+02 0.  0.
        -12    1    1    2    0    0 -0.96130669169E+00  0.54365075072E+00  0.41628201940E+00  0.11802361687E+01  0.00000000000E+00 0.  1.
         11    1    3    3    0    0 -0.87440373188E+01 -0.29241859554E+01 -0.71076739358E+01  0.11641652854E+02  0.51100000000E-03 0. -1.
        -11    1    3    3    0    0  0.41610179384E+02  0.58094623830E+00  0.16759100436E+02  0.44862144115E+02  0.51100000000E-03 0.  1.
         12    1    3    3    0    0 -0.31904835374E+02  0.17995889664E+01 -0.10067708520E+02  0.33503966862E+02  0.00000000000E+00 0. -1.
</event>
<event>
 7    1  0.1654239E-015  0.9000768E+02  0.7816164E-02  0.1186339E+00
        -11   -1    0    0    0    0  0.00000000000E+00  0.00000000000E+00  0.45593999997E+02  0.45594000000E+02  0.51100000000E-03 0.  1.
         11   -1    0    0    0    0 -0.00000000000E+00 -0.00000000000E+00 -0.45593999997E+02  0.45594000000E+02  0.51100000000E-03 0. -1.
    9900012    2    1    2    0    0  0.41615838594E+00  0.11027587937E+01 -0.62303289070E-01  0.90007683746E+02  0.89999944372E+02 0.  0.
        -12    1    1    2    0    0 -0.41615838594E+00 -0.11027587937E+01  0.62303289070E-01  0.11803162539E+01  0.00000000000E+00 0.  1.
         11    1    3    3    0    0  0.37926483868E+01 -0.12674932795E+02 -0.36673767082E+02  0.38987219642E+02  0.51100000000E-03 0. -1.
        -11    1    3    3    0    0 -0.45675691576E+01  0.10119372225E+02 -0.27770561897E+01  0.11444493155E+02  0.51100000000E-03 0.  1.
        -12    1    3    3    0    0  0.11910791568E+01  0.36583193637E+01  0.39388519983E+02  0.39575970949E+02  0.00000000000E+00 0.  1.
</event>
<event>
 7    1  0.1654239E-015  0.9000848E+02  0.7816164E-02  0.1186338E+00
        -11   -1    0    0    0    0  0.00000000000E+00  0.00000000000E+00  0.45593999997E+02  0.45594000000E+02  0.51100000000E-03 0. -1.
         11   -1    0    0    0    0 -0.00000000000E+00 -0.00000000000E+00 -0.45593999997E+02  0.45594000000E+02  0.51100000000E-03 0.  1.
    9900012    2    1    2    0    0  0.17059996760E+00  0.79984871293E+00  0.84994889238E+00  0.90008476608E+02  0.90000747696E+02 0.  0.
        -12    1    1    2    0    0 -0.17059996760E+00 -0.79984871293E+00 -0.84994889238E+00  0.11795233920E+01  0.00000000000E+00 0.  1.
         11    1    3    3    0    0 -0.19858806632E+02 -0.19220444110E+02  0.26229235002E+02  0.38102105476E+02  0.51100000000E-03 0. -1.
        -11    1    3    3    0    0  0.33619048950E+01 -0.33305999881E+01  0.71241276957E+01  0.85526894302E+01  0.51100000000E-03 0.  1.
        -12    1    3    3    0    0  0.16667501705E+02  0.23350892811E+02 -0.32503413805E+02  0.43353681702E+02  0.00000000000E+00 0.  1.
</event>
<event>
 7    1  0.1654239E-015  0.9000772E+02  0.7816164E-02  0.1186339E+00
        -11   -1    0    0    0    0  0.00000000000E+00  0.00000000000E+00  0.45593999997E+02  0.45594000000E+02  0.51100000000E-03 0.  1.
         11   -1    0    0    0    0 -0.00000000000E+00 -0.00000000000E+00 -0.45593999997E+02  0.45594000000E+02  0.51100000000E-03 0. -1.
    9900012    2    1    2    0    0 -0.64216364058E+00  0.89884751099E+00 -0.41563203009E+00  0.90007724196E+02  0.89999985355E+02 0.  0.
        -12    1    1    2    0    0  0.64216364058E+00 -0.89884751099E+00  0.41563203009E+00  0.11802758041E+01  0.00000000000E+00 0.  1.
         11    1    3    3    0    0 -0.56881608345E+01 -0.43519506644E+01  0.47223670516E+01  0.85787760838E+01  0.51100000000E-03 0. -1.
        -11    1    3    3    0    0 -0.24737650540E+01 -0.12800039173E+02  0.34690360326E+02  0.37059163727E+02  0.51100000000E-03 0.  1.
         12    1    3    3    0    0  0.75197622480E+01  0.18050837348E+02 -0.39828359408E+02  0.44369784385E+02  0.00000000000E+00 0. -1.
</event>
<event>
 7    1  0.1654239E-015  0.9000773E+02  0.7816164E-02  0.1186339E+00
        -11   -1    0    0    0    0  0.00000000000E+00  0.00000000000E+00  0.45593999997E+02  0.45594000000E+02  0.51100000000E-03 0.  1.
         11   -1    0    0    0    0 -0.00000000000E+00 -0.00000000000E+00 -0.45593999997E+02  0.45594000000E+02  0.51100000000E-03 0. -1.
    9900012    2    1    2    0    0 -0.80702014791E-01  0.52049879384E+00 -0.10562240807E+01  0.90007728371E+02  0.89999989585E+02 0.  0.
        -12    1    1    2    0    0  0.80702014791E-01 -0.52049879384E+00  0.10562240807E+01  0.11802716290E+01  0.00000000000E+00 0.  1.
         11    1    3    3    0    0 -0.59612894135E+01  0.83440686203E+01 -0.62664647922E+01  0.12017863116E+02  0.51100000000E-03 0. -1.
        -11    1    3    3    0    0  0.33400750291E+02  0.91739420902E+01  0.22508601732E+02  0.41308697458E+02  0.51100000000E-03 0.  1.
         12    1    3    3    0    0 -0.27520162893E+02 -0.16997511917E+02 -0.17298361020E+02  0.36681167797E+02  0.00000000000E+00 0. -1.
</event>
<event>
 7    1  0.1654239E-015  0.9000779E+02  0.7816164E-02  0.1186339E+00
        -11   -1    0    0    0    0  0.00000000000E+00  0.00000000000E+00  0.45593999997E+02  0.45594000000E+02  0.51100000000E-03 0.  1.
         11   -1    0    0    0    0 -0.00000000000E+00 -0.00000000000E+00 -0.45593999997E+02  0.45594000000E+02  0.51100000000E-03 0. -1.
    9900012    2    1    2    0    0  0.23496079430E+00 -0.66020337248E+00 -0.94964808799E+00  0.90007785376E+02  0.90000047343E+02 0.  0.
        -12    1    1    2    0    0 -0.23496079430E+00  0.66020337248E+00  0.94964808799E+00  0.11802146241E+01  0.00000000000E+00 0.  1.
         11    1    3    3    0    0  0.90240556594E+00 -0.81780801007E+01 -0.32047459926E+01  0.88298203310E+01  0.51100000000E-03 0. -1.
        -11    1    3    3    0    0  0.36851327289E+02  0.63778777279E+01  0.16700051747E+02  0.40958385905E+02  0.51100000000E-03 0.  1.
         12    1    3    3    0    0 -0.37518772061E+02  0.11399990003E+01 -0.14444953843E+02  0.40219579140E+02  0.00000000000E+00 0. -1.
</event>
<event>
 7    1  0.1654239E-015  0.9000772E+02  0.7816164E-02  0.1186339E+00
        -11   -1    0    0    0    0  0.00000000000E+00  0.00000000000E+00  0.45593999997E+02  0.45594000000E+02  0.51100000000E-03 0.  1.
         11   -1    0    0    0    0 -0.00000000000E+00 -0.00000000000E+00 -0.45593999997E+02  0.45594000000E+02  0.51100000000E-03 0. -1.
    9900012    2    1    2    0    0 -0.85911322593E-01 -0.41991363917E+00 -0.10997030764E+01  0.90007722458E+02  0.89999983595E+02 0.  0.
        -12    1    1    2    0    0  0.85911322593E-01  0.41991363917E+00  0.10997030764E+01  0.11802775419E+01  0.00000000000E+00 0.  1.
         11    1    3    3    0    0  0.12563441374E+00 -0.55357399202E+01 -0.12084750136E+02  0.13292907379E+02  0.51100000000E-03 0. -1.
        -11    1    3    3    0    0 -0.11166095298E+00 -0.15929532928E+02  0.38737480137E+02  0.41885019459E+02  0.51100000000E-03 0.  1.
         12    1    3    3    0    0 -0.99884783349E-01  0.21045359209E+02 -0.27752433078E+02  0.34829795620E+02  0.00000000000E+00 0. -1.
</event>
<event>
 7    1  0.1654239E-015  0.9000780E+02  0.7816164E-02  0.1186339E+00
        -11   -1    0    0    0    0  0.00000000000E+00  0.00000000000E+00  0.45593999997E+02  0.45594000000E+02  0.51100000000E-03 0. -1.
         11   -1    0    0    0    0 -0.00000000000E+00 -0.00000000000E+00 -0.45593999997E+02  0.45594000000E+02  0.51100000000E-03 0.  1.
    9900012    2    1    2    0    0 -0.74561847723E+00  0.21753149347E+00  0.88859903968E+00  0.90007798696E+02  0.90000060839E+02 0.  0.
        -12    1    1    2    0    0  0.74561847723E+00 -0.21753149347E+00 -0.88859903968E+00  0.11802013038E+01  0.00000000000E+00 0.  1.
         11    1    3    3    0    0  0.38954593009E+02 -0.12657984283E+02 -0.10895285023E+02  0.42383866254E+02  0.51100000000E-03 0. -1.
        -11    1    3    3    0    0 -0.66427263486E+01 -0.51492410234E+01  0.10402419809E+01  0.84689196536E+01  0.51100000000E-03 0.  1.
        -12    1    3    3    0    0 -0.33057485137E+02  0.18024756800E+02  0.10743642082E+02  0.39155012789E+02  0.00000000000E+00 0.  1.
</event>
<event>
 7    1  0.1654239E-015  0.9000774E+02  0.7816164E-02  0.1186339E+00
        -11   -1    0    0    0    0  0.00000000000E+00  0.00000000000E+00  0.45593999997E+02  0.45594000000E+02  0.51100000000E-03 0.  1.
         11   -1    0    0    0    0 -0.00000000000E+00 -0.00000000000E+00 -0.45593999997E+02  0.45594000000E+02  0.51100000000E-03 0. -1.
    9900012    2    1    2    0    0 -0.47411717836E+00 -0.92662624954E+00 -0.55640286374E+00  0.90007742633E+02  0.90000004036E+02 0.  0.
        -12    1    1    2    0    0  0.47411717836E+00  0.92662624954E+00  0.55640286374E+00  0.11802573668E+01  0.00000000000E+00 0.  1.
         11    1    3    3    0    0  0.16285551030E+02  0.37086332562E+02  0.88318273914E+01  0.41456198699E+02  0.51100000000E-03 0. -1.
        -11    1    3    3    0    0 -0.71387072308E+01  0.55063114679E+00 -0.46196747679E+01  0.85208996479E+01  0.51100000000E-03 0.  1.
        -12    1    3    3    0    0 -0.96209609775E+01 -0.38563589958E+02 -0.47685554872E+01  0.40030644287E+02  0.00000000000E+00 0.  1.
</event>
<event>
 7    1  0.1654239E-015  0.9000772E+02  0.7816164E-02  0.1186339E+00
        -11   -1    0    0    0    0  0.00000000000E+00  0.00000000000E+00  0.45593999997E+02  0.45594000000E+02  0.51100000000E-03 0. -1.
         11   -1    0    0    0    0 -0.00000000000E+00 -0.00000000000E+00 -0.45593999997E+02  0.45594000000E+02  0.51100000000E-03 0.  1.
    9900012    2    1    2    0    0 -0.39561907581E+00  0.18954755881E+00  0.10957249506E+01  0.90007722110E+02  0.89999983242E+02 0.  0.
        -12    1    1    2    0    0  0.39561907581E+00 -0.18954755881E+00 -0.10957249506E+01  0.11802778900E+01  0.00000000000E+00 0.  1.
         11    1    3    3    0    0 -0.27342363714E+02 -0.98819286511E+01  0.21362865039E+02  0.36078100980E+02  0.51100000000E-03 0. -1.
        -11    1    3    3    0    0 -0.43105578482E+00 -0.80519451199E+01  0.74374881878E+01  0.10969770285E+02  0.51100000000E-03 0.  1.
        -12    1    3    3    0    0  0.27377800423E+02  0.18123421330E+02 -0.27704628277E+02  0.42959850845E+02  0.00000000000E+00 0.  1.
</event>
<event>
 7    1  0.1654239E-015  0.9000758E+02  0.7816164E-02  0.1186339E+00
        -11   -1    0    0    0    0  0.00000000000E+00  0.00000000000E+00  0.45593999997E+02  0.45594000000E+02  0.51100000000E-03 0. -1.
         11   -1    0    0    0    0 -0.00000000000E+00 -0.00000000000E+00 -0.45593999997E+02  0.45594000000E+02  0.51100000000E-03 0.  1.
    9900012    2    1    2    0    0 -0.80392969672E+00  0.81914059570E+00 -0.27585379192E+00  0.90007580758E+02  0.89999840024E+02 0.  0.
        -12    1    1    2    0    0  0.80392969672E+00 -0.81914059570E+00  0.27585379192E+00  0.11804192422E+01  0.00000000000E+00 0.  1.
         11    1    3    3    0    0 -0.17905554976E+02 -0.31943411655E+02  0.69563452075E+01  0.37274403900E+02  0.51100000000E-03 0. -1.
        -11    1    3    3    0    0 -0.38094340599E+00 -0.17210042261E+01  0.10179694043E+02  0.10331173433E+02  0.51100000000E-03 0.  1.
        -12    1    3    3    0    0  0.17482568686E+02  0.34483556477E+02 -0.17411893042E+02  0.42402003425E+02  0.00000000000E+00 0.  1.
</event>
<event>
 7    1  0.1654239E-015  0.9000756E+02  0.7816164E-02  0.1186339E+00
        -11   -1    0    0    0    0  0.00000000000E+00  0.00000000000E+00  0.45593999997E+02  0.45594000000E+02  0.51100000000E-03 0.  1.
         11   -1    0    0    0    0 -0.00000000000E+00 -0.00000000000E+00 -0.45593999997E+02  0.45594000000E+02  0.51100000000E-03 0. -1.
    9900012    2    1    2    0    0 -0.57790325553E+00  0.50508415214E+00 -0.89685264678E+00  0.90007564977E+02  0.89999824035E+02 0.  0.
        -12    1    1    2    0    0  0.57790325553E+00 -0.50508415214E+00  0.89685264678E+00  0.11804350230E+01  0.00000000000E+00 0.  1.
         11    1    3    3    0    0 -0.46502688693E+01 -0.41084968798E+02 -0.58050067697E+01  0.41752817456E+02  0.51100000000E-03 0. -1.
        -11    1    3    3    0    0 -0.66710156850E+01  0.65756321367E+01 -0.45704160410E+01  0.10422576040E+02  0.51100000000E-03 0.  1.
        -12    1    3    3    0    0  0.10743381299E+02  0.35014420813E+02  0.94785701640E+01  0.37832171481E+02  0.00000000000E+00 0.  1.
</event>
<event>
 7    1  0.1654239E-015  0.9000769E+02  0.7816164E-02  0.1186339E+00
        -11   -1    0    0    0    0  0.00000000000E+00  0.00000000000E+00  0.45593999997E+02  0.45594000000E+02  0.51100000000E-03 0.  1.
         11   -1    0    0    0    0 -0.00000000000E+00 -0.00000000000E+00 -0.45593999997E+02  0.45594000000E+02  0.51100000000E-03 0. -1.
    9900012    2    1    2    0    0  0.10197264963E+01 -0.59420361057E+00 -0.14284484432E-01  0.90007693216E+02  0.89999953966E+02 0.  0.
        -12    1    1    2    0    0 -0.10197264963E+01  0.59420361057E+00  0.14284484432E-01  0.11803067840E+01  0.00000000000E+00 0.  1.
         11    1    3    3    0    0 -0.35045781036E+01  0.32269889516E+00 -0.48146035921E+01  0.59637748341E+01  0.51100000000E-03 0. -1.
        -11    1    3    3    0    0 -0.19133177492E+02  0.34071313998E+02  0.12675302197E+02  0.41080362760E+02  0.51100000000E-03 0.  1.
         12    1    3    3    0    0  0.23657482092E+02 -0.34988216503E+02 -0.78749830896E+01  0.42963555622E+02  0.00000000000E+00 0. -1.
</event>
<event>
 7    1  0.1654239E-015  0.9000774E+02  0.7816164E-02  0.1186339E+00
        -11   -1    0    0    0    0  0.00000000000E+00  0.00000000000E+00  0.45593999997E+02  0.45594000000E+02  0.51100000000E-03 0.  1.
         11   -1    0    0    0    0 -0.00000000000E+00 -0.00000000000E+00 -0.45593999997E+02  0.45594000000E+02  0.51100000000E-03 0. -1.
    9900012    2    1    2    0    0 -0.50418326290E+00  0.10651724094E+01  0.65040887125E-01  0.90007735902E+02  0.89999997216E+02 0.  0.
        -12    1    1    2    0    0  0.50418326290E+00 -0.10651724094E+01 -0.65040887125E-01  0.11802640981E+01  0.00000000000E+00 0.  1.
         11    1    3    3    0    0 -0.21149738354E+02 -0.27146419322E+02 -0.26228684056E+01  0.34512591230E+02  0.51100000000E-03 0. -1.
        -11    1    3    3    0    0 -0.13259297892E+02  0.47559667633E+01 -0.87762198923E+00  0.14113767076E+02  0.51100000000E-03 0.  1.
        -12    1    3    3    0    0  0.33904852983E+02  0.23455624968E+02  0.35655312820E+01  0.41381377597E+02  0.00000000000E+00 0.  1.
</event>
<event>
 7    1  0.1654239E-015  0.9000776E+02  0.7816164E-02  0.1186339E+00
        -11   -1    0    0    0    0  0.00000000000E+00  0.00000000000E+00  0.45593999997E+02  0.45594000000E+02  0.51100000000E-03 0. -1.
         11   -1    0    0    0    0 -0.00000000000E+00 -0.00000000000E+00 -0.45593999997E+02  0.45594000000E+02  0.51100000000E-03 0.  1.
    9900012    2    1    2    0    0 -0.12426327739E+00 -0.62446841112E+00  0.99376461812E+00  0.90007758383E+02  0.90000019994E+02 0.  0.
        -12    1    1    2    0    0  0.12426327739E+00  0.62446841112E+00 -0.99376461812E+00  0.11802416171E+01  0.00000000000E+00 0.  1.
         11    1    3    3    0    0  0.20053092490E+02  0.34926916413E+02 -0.72320994106E+01  0.40918446582E+02  0.51100000000E-03 0. -1.
        -11    1    3    3    0    0 -0.72945297205E+01 -0.35450918626E+01  0.11890907504E+02  0.14393454126E+02  0.51100000000E-03 0.  1.
        -12    1    3    3    0    0 -0.12882826047E+02 -0.32006292962E+02 -0.36650434748E+01  0.34695857675E+02  0.00000000000E+00 0.  1.
</event>
<event>
 7    1  0.1654239E-015  0.9000774E+02  0.7816164E-02  0.1186339E+00
        -11   -1    0    0    0    0  0.00000000000E+00  0.00000000000E+00  0.45593999997E+02  0.45594000000E+02  0.51100000000E-03 0.  1.
         11   -1    0    0    0    0 -0.00000000000E+00 -0.00000000000E+00 -0.45593999997E+02  0.45594000000E+02  0.51100000000E-03 0. -1.
    9900012    2    1    2    0    0  0.72964186394E+00  0.25601827416E-02 -0.92770373701E+00  0.90007738153E+02  0.89999999496E+02 0.  0.
        -12    1    1    2    0    0 -0.72964186394E+00 -0.25601827416E-02  0.92770373701E+00  0.11802618471E+01  0.00000000000E+00 0.  1.
         11    1    3    3    0    0 -0.12393467423E+01 -0.10113146955E+02  0.53850495577E+00  0.10203024529E+02  0.51100000000E-03 0. -1.
        -11    1    3    3    0    0 -0.10888248674E+02  0.35557304395E+02  0.21715069928E+02  0.43062978500E+02  0.51100000000E-03 0.  1.
         12    1    3    3    0    0  0.12857237280E+02 -0.25441597256E+02 -0.23181278621E+02  0.36741735124E+02  0.00000000000E+00 0. -1.
</event>
<event>
 7    1  0.1654239E-015  0.9000770E+02  0.7816164E-02  0.1186339E+00
        -11   -1    0    0    0    0  0.00000000000E+00  0.00000000000E+00  0.45593999997E+02  0.45594000000E+02  0.51100000000E-03 0.  1.
         11   -1    0    0    0    0 -0.00000000000E+00 -0.00000000000E+00 -0.45593999997E+02  0.45594000000E+02  0.51100000000E-03 0. -1.
    9900012    2    1    2    0    0 -0.98480762891E+00  0.48135452210E+00  0.43766522792E+00  0.90007703811E+02  0.89999964701E+02 0.  0.
        -12    1    1    2    0    0  0.98480762891E+00 -0.48135452210E+00 -0.43766522792E+00  0.11802961889E+01  0.00000000000E+00 0.  1.
         11    1    3    3    0    0 -0.36101819181E+02 -0.74215326248E+01 -0.15948760720E+02  0.40159475388E+02  0.51100000000E-03 0. -1.
        -11    1    3    3    0    0  0.60123975948E+01  0.25170268174E+01 -0.88226035400E+01  0.10969169628E+02  0.51100000000E-03 0.  1.
        -12    1    3    3    0    0  0.29104613957E+02  0.53858603296E+01  0.25209029488E+02  0.38879058795E+02  0.00000000000E+00 0.  1.
</event>
<event>
 7    1  0.1654239E-015  0.9000741E+02  0.7816164E-02  0.1186340E+00
        -11   -1    0    0    0    0  0.00000000000E+00  0.00000000000E+00  0.45593999997E+02  0.45594000000E+02  0.51100000000E-03 0.  1.
         11   -1    0    0    0    0 -0.00000000000E+00 -0.00000000000E+00 -0.45593999997E+02  0.45594000000E+02  0.51100000000E-03 0. -1.
    9900012    2    1    2    0    0  0.30066102037E+00  0.60435117530E+00 -0.96858550743E+00  0.90007408929E+02  0.89999665926E+02 0.  0.
        -12    1    1    2    0    0 -0.30066102037E+00 -0.60435117530E+00  0.96858550743E+00  0.11805910712E+01  0.00000000000E+00 0.  1.
         11    1    3    3    0    0  0.18035081429E+02 -0.28183480207E+02 -0.24024539680E+02  0.41191640242E+02  0.51100000000E-03 0. -1.
        -11    1    3    3    0    0  0.71157007714E+01  0.59016611404E+01  0.49977791124E+01  0.10509072176E+02  0.51100000000E-03 0.  1.
        -12    1    3    3    0    0 -0.24850121180E+02  0.22886170242E+02  0.18058175060E+02  0.38306696510E+02  0.00000000000E+00 0.  1.
</event>
<event>
 7    1  0.1654239E-015  0.9000775E+02  0.7816164E-02  0.1186339E+00
        -11   -1    0    0    0    0  0.00000000000E+00  0.00000000000E+00  0.45593999997E+02  0.45594000000E+02  0.51100000000E-03 0.  1.
         11   -1    0    0    0    0 -0.00000000000E+00 -0.00000000000E+00 -0.45593999997E+02  0.45594000000E+02  0.51100000000E-03 0. -1.
    9900012    2    1    2    0    0  0.87613092638E+00  0.18593275045E+00 -0.76864708519E+00  0.90007748023E+02  0.90000009497E+02 0.  0.
        -12    1    1    2    0    0 -0.87613092638E+00 -0.18593275045E+00  0.76864708519E+00  0.11802519771E+01  0.00000000000E+00 0.  1.
         11    1    3    3    0    0  0.33315849693E+01  0.82801439451E+01 -0.50141767484E+01  0.10237295096E+02  0.51100000000E-03 0. -1.
        -11    1    3    3    0    0 -0.19621798838E+02  0.24226110578E+02  0.22911059398E+02  0.38688965693E+02  0.51100000000E-03 0.  1.
         12    1    3    3    0    0  0.17166344795E+02 -0.32320321773E+02 -0.18665529734E+02  0.41081487234E+02  0.00000000000E+00 0. -1.
</event>
<event>
 7    1  0.1654239E-015  0.9000758E+02  0.7816164E-02  0.1186339E+00
        -11   -1    0    0    0    0  0.00000000000E+00  0.00000000000E+00  0.45593999997E+02  0.45594000000E+02  0.51100000000E-03 0.  1.
         11   -1    0    0    0    0 -0.00000000000E+00 -0.00000000000E+00 -0.45593999997E+02  0.45594000000E+02  0.51100000000E-03 0. -1.
    9900012    2    1    2    0    0 -0.77501260539E+00 -0.88113633557E+00  0.12781307654E+00  0.90007583987E+02  0.89999843296E+02 0.  0.
        -12    1    1    2    0    0  0.77501260539E+00  0.88113633557E+00 -0.12781307654E+00  0.11804160127E+01  0.00000000000E+00 0.  1.
         11    1    3    3    0    0  0.31862278588E+02  0.25458837495E+02  0.12675146955E+02  0.42708506811E+02  0.51100000000E-03 0. -1.
        -11    1    3    3    0    0 -0.47472373510E+00 -0.67911093870E+01  0.17638595722E+01  0.70324768171E+01  0.51100000000E-03 0.  1.
        -12    1    3    3    0    0 -0.32162567458E+02 -0.19548864444E+02 -0.14311193451E+02  0.40266600360E+02  0.00000000000E+00 0.  1.
</event>
<event>
 7    1  0.1654239E-015  0.9000792E+02  0.7816164E-02  0.1186339E+00
        -11   -1    0    0    0    0  0.00000000000E+00  0.00000000000E+00  0.45593999997E+02  0.45594000000E+02  0.51100000000E-03 0.  1.
         11   -1    0    0    0    0 -0.00000000000E+00 -0.00000000000E+00 -0.45593999997E+02  0.45594000000E+02  0.51100000000E-03 0. -1.
    9900012    2    1    2    0    0 -0.36115306462E+00  0.57820554087E+00 -0.96324747599E+00  0.90007915730E+02  0.90000179418E+02 0.  0.
        -12    1    1    2    0    0  0.36115306462E+00 -0.57820554087E+00  0.96324747599E+00  0.11800842697E+01  0.00000000000E+00 0.  1.
         11    1    3    3    0    0 -0.17771548683E-01  0.31370106572E+00  0.90408672346E+01  0.90463254862E+01  0.51100000000E-03 0. -1.
        -11    1    3    3    0    0  0.11024631469E+01  0.39733323599E+02  0.16497133992E+01  0.39782835291E+02  0.51100000000E-03 0.  1.
         12    1    3    3    0    0 -0.14458446628E+01 -0.39468819124E+02 -0.11653828110E+02  0.41178754953E+02  0.00000000000E+00 0. -1.
</event>
<event>
 7    1  0.1654239E-015  0.9000780E+02  0.7816164E-02  0.1186339E+00
        -11   -1    0    0    0    0  0.00000000000E+00  0.00000000000E+00  0.45593999997E+02  0.45594000000E+02  0.51100000000E-03 0. -1.
         11   -1    0    0    0    0 -0.00000000000E+00 -0.00000000000E+00 -0.45593999997E+02  0.45594000000E+02  0.51100000000E-03 0.  1.
    9900012    2    1    2    0    0 -0.38816970615E+00  0.63943472083E+00  0.91285861610E+00  0.90007803688E+02  0.90000065896E+02 0.  0.
        -12    1    1    2    0    0  0.38816970615E+00 -0.63943472083E+00 -0.91285861610E+00  0.11801963125E+01  0.00000000000E+00 0.  1.
         11    1    3    3    0    0  0.31730577278E+02  0.21091467643E+02  0.77904544794E+01  0.38889210881E+02  0.51100000000E-03 0. -1.
        -11    1    3    3    0    0 -0.60531760589E+01  0.88206590920E+01 -0.51802855421E+01  0.11886140071E+02  0.51100000000E-03 0.  1.
        -12    1    3    3    0    0 -0.26065570925E+02 -0.29272692014E+02 -0.16973103211E+01  0.39232452736E+02  0.00000000000E+00 0.  1.
</event>
<event>
 7    1  0.1654239E-015  0.9000768E+02  0.7816164E-02  0.1186339E+00
        -11   -1    0    0    0    0  0.00000000000E+00  0.00000000000E+00  0.45593999997E+02  0.45594000000E+02  0.51100000000E-03 0.  1.
         11   -1    0    0    0    0 -0.00000000000E+00 -0.00000000000E+00 -0.45593999997E+02  0.45594000000E+02  0.51100000000E-03 0. -1.
    9900012    2    1    2    0    0  0.68269004741E+00 -0.77070763917E+00  0.57713813994E+00  0.90007684619E+02  0.89999945256E+02 0.  0.
        -12    1    1    2    0    0 -0.68269004741E+00  0.77070763917E+00 -0.57713813994E+00  0.11803153809E+01  0.00000000000E+00 0.  1.
         11    1    3    3    0    0  0.89927560014E+00  0.67502412176E+01  0.56638203337E+01  0.88573875457E+01  0.51100000000E-03 0. -1.
        -11    1    3    3    0    0  0.26510831463E+02  0.21570498922E+01  0.27261272036E+02  0.38087452033E+02  0.51100000000E-03 0.  1.
         12    1    3    3    0    0 -0.26727417016E+02 -0.96779987490E+01 -0.32347954230E+02  0.43062845040E+02  0.00000000000E+00 0. -1.
</event>
<event>
 7    1  0.1654239E-015  0.9000743E+02  0.7816164E-02  0.1186340E+00
        -11   -1    0    0    0    0  0.00000000000E+00  0.00000000000E+00  0.45593999997E+02  0.45594000000E+02  0.51100000000E-03 0.  1.
         11   -1    0    0    0    0 -0.00000000000E+00 -0.00000000000E+00 -0.45593999997E+02  0.45594000000E+02  0.51100000000E-03 0. -1.
    9900012    2    1    2    0    0 -0.67432340032E+00  0.96673579888E+00  0.66823978597E-01  0.90007425734E+02  0.89999682953E+02 0.  0.
        -12    1    1    2    0    0  0.67432340032E+00 -0.96673579888E+00 -0.66823978597E-01  0.11805742658E+01  0.00000000000E+00 0.  1.
         11    1    3    3    0    0  0.31195856020E+02 -0.12303405568E+02 -0.16330680197E+02  0.37299414706E+02  0.51100000000E-03 0. -1.
        -11    1    3    3    0    0  0.69042903005E+01  0.76318191700E+01  0.15510447356E+00  0.10292616094E+02  0.51100000000E-03 0.  1.
        -12    1    3    3    0    0 -0.38774469721E+02  0.56383221971E+01  0.16242399702E+02  0.42415394935E+02  0.00000000000E+00 0.  1.
</event>
<event>
 7    1  0.1654239E-015  0.9000775E+02  0.7816164E-02  0.1186339E+00
        -11   -1    0    0    0    0  0.00000000000E+00  0.00000000000E+00  0.45593999997E+02  0.45594000000E+02  0.51100000000E-03 0.  1.
         11   -1    0    0    0    0 -0.00000000000E+00 -0.00000000000E+00 -0.45593999997E+02  0.45594000000E+02  0.51100000000E-03 0. -1.
    9900012    2    1    2    0    0  0.83017967562E-02  0.11761737565E+01  0.97713717087E-01  0.90007745114E+02  0.90000006550E+02 0.  0.
        -12    1    1    2    0    0 -0.83017967562E-02 -0.11761737565E+01 -0.97713717087E-01  0.11802548860E+01  0.00000000000E+00 0.  1.
         11    1    3    3    0    0 -0.19764033292E+02 -0.31433659256E+02 -0.15580366541E+02  0.40267105285E+02  0.51100000000E-03 0. -1.
        -11    1    3    3    0    0  0.12247785879E+01 -0.29924837892E+01  0.83222572830E+01  0.89283261793E+01  0.51100000000E-03 0.  1.
        -12    1    3    3    0    0  0.18547556500E+02  0.35602316802E+02  0.73558229752E+01  0.40812313650E+02  0.00000000000E+00 0.  1.
</event>
<event>
 7    1  0.1654239E-015  0.9000776E+02  0.7816164E-02  0.1186339E+00
        -11   -1    0    0    0    0  0.00000000000E+00  0.00000000000E+00  0.45593999997E+02  0.45594000000E+02  0.51100000000E-03 0.  1.
         11   -1    0    0    0    0 -0.00000000000E+00 -0.00000000000E+00 -0.45593999997E+02  0.45594000000E+02  0.51100000000E-03 0. -1.
    9900012    2    1    2    0    0 -0.86072734462E+00  0.29829864003E+00 -0.75042005593E+00  0.90007761083E+02  0.90000022729E+02 0.  0.
        -12    1    1    2    0    0  0.86072734462E+00 -0.29829864003E+00  0.75042005593E+00  0.11802389168E+01  0.00000000000E+00 0.  1.
         11    1    3    3    0    0 -0.78370081846E+01 -0.19356051560E+01  0.11354314731E+02  0.13931465389E+02  0.51100000000E-03 0. -1.
        -11    1    3    3    0    0  0.15260913628E+01 -0.21021672503E+02  0.24530848522E+02  0.32341957256E+02  0.51100000000E-03 0.  1.
         12    1    3    3    0    0  0.54501894772E+01  0.23255576299E+02 -0.36635583308E+02  0.43734338439E+02  0.00000000000E+00 0. -1.
</event>
<event>
 7    1  0.1654239E-015  0.9000772E+02  0.7816164E-02  0.1186339E+00
        -11   -1    0    0    0    0  0.00000000000E+00  0.00000000000E+00  0.45593999997E+02  0.45594000000E+02  0.51100000000E-03 0.  1.
         11   -1    0    0    0    0 -0.00000000000E+00 -0.00000000000E+00 -0.45593999997E+02  0.45594000000E+02  0.51100000000E-03 0. -1.
    9900012    2    1    2    0    0 -0.31609565264E+00 -0.46418028521E+00 -0.10381145711E+01  0.90007719668E+02  0.89999980768E+02 0.  0.
        -12    1    1    2    0    0  0.31609565264E+00  0.46418028521E+00  0.10381145711E+01  0.11802803318E+01  0.00000000000E+00 0.  1.
         11    1    3    3    0    0  0.69766141018E+01  0.55025946515E+01  0.45283071076E+01  0.99728259659E+01  0.51100000000E-03 0. -1.
        -11    1    3    3    0    0 -0.33760291204E+02  0.91958780806E+01  0.19939793729E+02  0.40273028320E+02  0.51100000000E-03 0.  1.
         12    1    3    3    0    0  0.26467581449E+02 -0.15162653017E+02 -0.25506215407E+02  0.39761865383E+02  0.00000000000E+00 0. -1.
</event>
<event>
 7    1  0.2367988E-015  0.9000747E+02  0.7816164E-02  0.1186340E+00
        -11   -1    0    0    0    0  0.00000000000E+00  0.00000000000E+00  0.45593999997E+02  0.45594000000E+02  0.51100000000E-03 0.  1.
         11   -1    0    0    0    0 -0.00000000000E+00 -0.00000000000E+00 -0.45593999997E+02  0.45594000000E+02  0.51100000000E-03 0. -1.
    9900012    2    1    2    0    0 -0.45318969592E-02  0.10290875588E+01 -0.57845612642E+00  0.90007469089E+02  0.89999726881E+02 0.  0.
        -12    1    1    2    0    0  0.45318969592E-02 -0.10290875588E+01  0.57845612642E+00  0.11805309110E+01  0.00000000000E+00 0.  1.
         11    1    3    3    0    0  0.65809160650E+01 -0.64372983345E+01 -0.17947607918E+01  0.93791488240E+01  0.51100000000E-03 0. -1.
        -11    1    3    3    0    0 -0.16005688568E+02 -0.32993815947E+02  0.10329313182E+02  0.38098145209E+02  0.51100000000E-03 0.  1.
         12    1    3    3    0    0  0.94202406057E+01  0.40460201841E+02 -0.91130085168E+01  0.42530175056E+02  0.00000000000E+00 0. -1.
</event>
<event>
 7    1  0.1654239E-015  0.9000775E+02  0.7816164E-02  0.1186339E+00
        -11   -1    0    0    0    0  0.00000000000E+00  0.00000000000E+00  0.45593999997E+02  0.45594000000E+02  0.51100000000E-03 0.  1.
         11   -1    0    0    0    0 -0.00000000000E+00 -0.00000000000E+00 -0.45593999997E+02  0.45594000000E+02  0.51100000000E-03 0. -1.
    9900012    2    1    2    0    0  0.16666852206E-01 -0.56302881023E+00 -0.10371664632E+01  0.90007748545E+02  0.90000010026E+02 0.  0.
        -12    1    1    2    0    0 -0.16666852206E-01  0.56302881023E+00  0.10371664632E+01  0.11802514552E+01  0.00000000000E+00 0.  1.
         11    1    3    3    0    0 -0.61557833996E+01  0.28823177898E+01 -0.41926072768E+02  0.42473485884E+02  0.51100000000E-03 0. -1.
        -11    1    3    3    0    0 -0.71474649027E+01 -0.36807454537E+01  0.55540162584E+01  0.97714501733E+01  0.51100000000E-03 0.  1.
        -12    1    3    3    0    0  0.13319915154E+02  0.23539885367E+00  0.35334890047E+02  0.37762812487E+02  0.00000000000E+00 0.  1.
</event>
<event>
 7    1  0.1654239E-015  0.9000773E+02  0.7816164E-02  0.1186339E+00
        -11   -1    0    0    0    0  0.00000000000E+00  0.00000000000E+00  0.45593999997E+02  0.45594000000E+02  0.51100000000E-03 0. -1.
         11   -1    0    0    0    0 -0.00000000000E+00 -0.00000000000E+00 -0.45593999997E+02  0.45594000000E+02  0.51100000000E-03 0.  1.
    9900012    2    1    2    0    0  0.84945405065E+00  0.77555359042E+00 -0.26454737606E+00  0.90007728476E+02  0.89999989692E+02 0.  0.
        -12    1    1    2    0    0 -0.84945405065E+00 -0.77555359042E+00  0.26454737606E+00  0.11802715238E+01  0.00000000000E+00 0.  1.
         11    1    3    3    0    0 -0.87274955461E+00 -0.10878793998E+02  0.14491234578E+02  0.18141271469E+02  0.51100000000E-03 0. -1.
        -11    1    3    3    0    0 -0.23111997531E+00 -0.23186792958E+02 -0.26345317512E+02  0.35096389261E+02  0.51100000000E-03 0.  1.
        -12    1    3    3    0    0  0.19533235806E+01  0.34841140547E+02  0.11589535558E+02  0.36770067746E+02  0.00000000000E+00 0.  1.
</event>
<event>
 7    1  0.1654239E-015  0.9000773E+02  0.7816164E-02  0.1186339E+00
        -11   -1    0    0    0    0  0.00000000000E+00  0.00000000000E+00  0.45593999997E+02  0.45594000000E+02  0.51100000000E-03 0.  1.
         11   -1    0    0    0    0 -0.00000000000E+00 -0.00000000000E+00 -0.45593999997E+02  0.45594000000E+02  0.51100000000E-03 0. -1.
    9900012    2    1    2    0    0 -0.92973379624E+00 -0.49666266751E+00 -0.53098751663E+00  0.90007734572E+02  0.89999995869E+02 0.  0.
        -12    1    1    2    0    0  0.92973379624E+00  0.49666266751E+00  0.53098751663E+00  0.11802654278E+01  0.00000000000E+00 0.  1.
         11    1    3    3    0    0  0.15902640483E+02 -0.34283599425E+02 -0.69632101811E+01  0.38428445976E+02  0.51100000000E-03 0. -1.
        -11    1    3    3    0    0 -0.58552571023E+01 -0.63554591551E+01 -0.25395967226E+01  0.90069666692E+01  0.51100000000E-03 0.  1.
        -12    1    3    3    0    0 -0.10977117177E+02  0.40142395913E+02  0.89718193870E+01  0.42572321927E+02  0.00000000000E+00 0.  1.
</event>
<event>
 7    1  0.1654239E-015  0.9000778E+02  0.7816164E-02  0.1186339E+00
        -11   -1    0    0    0    0  0.00000000000E+00  0.00000000000E+00  0.45593999997E+02  0.45594000000E+02  0.51100000000E-03 0.  1.
         11   -1    0    0    0    0 -0.00000000000E+00 -0.00000000000E+00 -0.45593999997E+02  0.45594000000E+02  0.51100000000E-03 0. -1.
    9900012    2    1    2    0    0  0.94455946448E+00 -0.70567284482E+00  0.52543693353E-01  0.90007776468E+02  0.90000038317E+02 0.  0.
        -12    1    1    2    0    0 -0.94455946448E+00  0.70567284482E+00 -0.52543693353E-01  0.11802235320E+01  0.00000000000E+00 0.  1.
         11    1    3    3    0    0 -0.17729966081E+02 -0.20516636937E+02 -0.15430222827E+02  0.31198972182E+02  0.51100000000E-03 0. -1.
        -11    1    3    3    0    0  0.17946718191E+02 -0.13306972103E+02  0.23756818934E+00  0.22343156430E+02  0.51100000000E-03 0.  1.
        -12    1    3    3    0    0  0.72780735480E+00  0.33117936196E+02  0.15245198331E+02  0.36465647856E+02  0.00000000000E+00 0.  1.
</event>
<event>
 7    1  0.1654239E-015  0.9000771E+02  0.7816164E-02  0.1186339E+00
        -11   -1    0    0    0    0  0.00000000000E+00  0.00000000000E+00  0.45593999997E+02  0.45594000000E+02  0.51100000000E-03 0. -1.
         11   -1    0    0    0    0 -0.00000000000E+00 -0.00000000000E+00 -0.45593999997E+02  0.45594000000E+02  0.51100000000E-03 0.  1.
    9900012    2    1    2    0    0  0.24689205989E+00 -0.24423151034E+00  0.11280450914E+01  0.90007707473E+02  0.89999968412E+02 0.  0.
        -12    1    1    2    0    0 -0.24689205989E+00  0.24423151034E+00 -0.11280450914E+01  0.11802925265E+01  0.00000000000E+00 0.  1.
         11    1    3    3    0    0 -0.10807340186E+01  0.11475260899E+02 -0.14329700977E+02  0.18389940975E+02  0.51100000000E-03 0. -1.
        -11    1    3    3    0    0  0.46853764994E+01  0.27421496739E+02  0.16453480644E+02  0.32320400089E+02  0.51100000000E-03 0.  1.
         12    1    3    3    0    0 -0.33577504210E+01 -0.39140989148E+02 -0.99573457633E+00  0.39297366410E+02  0.00000000000E+00 0. -1.
</event>
<event>
 7    1  0.1654239E-015  0.9000775E+02  0.7816164E-02  0.1186339E+00
        -11   -1    0    0    0    0  0.00000000000E+00  0.00000000000E+00  0.45593999997E+02  0.45594000000E+02  0.51100000000E-03 0.  1.
         11   -1    0    0    0    0 -0.00000000000E+00 -0.00000000000E+00 -0.45593999997E+02  0.45594000000E+02  0.51100000000E-03 0. -1.
    9900012    2    1    2    0    0 -0.82183315471E-01 -0.10136155878E+01 -0.59902128072E+00  0.90007746997E+02  0.90000008457E+02 0.  0.
        -12    1    1    2    0    0  0.82183315471E-01  0.10136155878E+01  0.59902128072E+00  0.11802530034E+01  0.00000000000E+00 0.  1.
         11    1    3    3    0    0 -0.32133656489E+02 -0.23641258551E+02 -0.10739721607E+02  0.41313709657E+02  0.51100000000E-03 0. -1.
        -11    1    3    3    0    0  0.37402085840E+01  0.11232320633E+02  0.13541225902E+02  0.17986633544E+02  0.51100000000E-03 0.  1.
        -12    1    3    3    0    0  0.28311264590E+02  0.11395322330E+02 -0.34005255759E+01  0.30707403795E+02  0.00000000000E+00 0.  1.
</event>
<event>
 7    1  0.1654239E-015  0.9000774E+02  0.7816164E-02  0.1186339E+00
        -11   -1    0    0    0    0  0.00000000000E+00  0.00000000000E+00  0.45593999997E+02  0.45594000000E+02  0.51100000000E-03 0. -1.
         11   -1    0    0    0    0 -0.00000000000E+00 -0.00000000000E+00 -0.45593999997E+02  0.45594000000E+02  0.51100000000E-03 0.  1.
    9900012    2    1    2    0    0 -0.10941014089E+01  0.21364883133E+00  0.38769642426E+00  0.90007740608E+02  0.90000001984E+02 0.  0.
        -12    1    1    2    0    0  0.10941014089E+01 -0.21364883133E+00 -0.38769642426E+00  0.11802593924E+01  0.00000000000E+00 0.  1.
         11    1    3    3    0    0 -0.17928724356E+02  0.15347941220E+02  0.22629528424E+02  0.32697003130E+02  0.51100000000E-03 0. -1.
        -11    1    3    3    0    0  0.12330100091E+02  0.75618804290E+01  0.10029471989E+02  0.17601241789E+02  0.51100000000E-03 0.  1.
        -12    1    3    3    0    0  0.45045228568E+01 -0.22696172818E+02 -0.32271303988E+02  0.39709495689E+02  0.00000000000E+00 0.  1.
</event>
<event>
 7    1  0.1654239E-015  0.9000774E+02  0.7816164E-02  0.1186339E+00
        -11   -1    0    0    0    0  0.00000000000E+00  0.00000000000E+00  0.45593999997E+02  0.45594000000E+02  0.51100000000E-03 0.  1.
         11   -1    0    0    0    0 -0.00000000000E+00 -0.00000000000E+00 -0.45593999997E+02  0.45594000000E+02  0.51100000000E-03 0. -1.
    9900012    2    1    2    0    0 -0.10003860154E+01  0.36411644635E+00 -0.50956465102E+00  0.90007741935E+02  0.90000003329E+02 0.  0.
        -12    1    1    2    0    0  0.10003860154E+01 -0.36411644635E+00  0.50956465102E+00  0.11802580649E+01  0.00000000000E+00 0.  1.
         11    1    3    3    0    0 -0.72599207572E+01 -0.32483660026E+02  0.17056564239E+02  0.37400815526E+02  0.51100000000E-03 0. -1.
        -11    1    3    3    0    0 -0.75675238040E+01 -0.51408009470E+01 -0.27903796230E+01  0.95645945865E+01  0.51100000000E-03 0.  1.
        -12    1    3    3    0    0  0.13827058546E+02  0.37988577419E+02 -0.14775749267E+02  0.43042331823E+02  0.00000000000E+00 0.  1.
</event>
<event>
 7    1  0.1654239E-015  0.9000775E+02  0.7816164E-02  0.1186339E+00
        -11   -1    0    0    0    0  0.00000000000E+00  0.00000000000E+00  0.45593999997E+02  0.45594000000E+02  0.51100000000E-03 0.  1.
         11   -1    0    0    0    0 -0.00000000000E+00 -0.00000000000E+00 -0.45593999997E+02  0.45594000000E+02  0.51100000000E-03 0. -1.
    9900012    2    1    2    0    0 -0.32341582963E+00 -0.32661683349E-01 -0.11346076346E+01  0.90007746185E+02  0.90000007634E+02 0.  0.
        -12    1    1    2    0    0  0.32341582963E+00  0.32661683349E-01  0.11346076346E+01  0.11802538155E+01  0.00000000000E+00 0.  1.
         11    1    3    3    0    0 -0.90715752357E+01 -0.10964994504E+02  0.65340806462E+00  0.14246105576E+02  0.51100000000E-03 0. -1.
        -11    1    3    3    0    0 -0.37471645416E+01  0.75316892928E+01  0.35398738867E+02  0.36384588761E+02  0.51100000000E-03 0.  1.
         12    1    3    3    0    0  0.12495323948E+02  0.34006435282E+01 -0.37186754566E+02  0.39377051847E+02  0.00000000000E+00 0. -1.
</event>
<event>
 7    1  0.1654239E-015  0.9000771E+02  0.7816164E-02  0.1186339E+00
        -11   -1    0    0    0    0  0.00000000000E+00  0.00000000000E+00  0.45593999997E+02  0.45594000000E+02  0.51100000000E-03 0.  1.
         11   -1    0    0    0    0 -0.00000000000E+00 -0.00000000000E+00 -0.45593999997E+02  0.45594000000E+02  0.51100000000E-03 0. -1.
    9900012    2    1    2    0    0  0.74856015848E+00  0.80887224190E+00  0.42245041498E+00  0.90007711490E+02  0.89999972481E+02 0.  0.
        -12    1    1    2    0    0 -0.74856015848E+00 -0.80887224190E+00 -0.42245041498E+00  0.11802885104E+01  0.00000000000E+00 0.  1.
         11    1    3    3    0    0 -0.13715128777E+02  0.33759545078E+02  0.31524647175E+01  0.36575260427E+02  0.51100000000E-03 0. -1.
        -11    1    3    3    0    0  0.13657828630E+01  0.89827993636E+01 -0.27771789461E+01  0.95009878642E+01  0.51100000000E-03 0.  1.
        -12    1    3    3    0    0  0.13097906073E+02 -0.41933472200E+02  0.47164643531E-01  0.43931463198E+02  0.00000000000E+00 0.  1.
</event>
<event>
 7    1  0.1654239E-015  0.9000770E+02  0.7816164E-02  0.1186339E+00
        -11   -1    0    0    0    0  0.00000000000E+00  0.00000000000E+00  0.45593999997E+02  0.45594000000E+02  0.51100000000E-03 0.  1.
         11   -1    0    0    0    0 -0.00000000000E+00 -0.00000000000E+00 -0.45593999997E+02  0.45594000000E+02  0.51100000000E-03 0. -1.
    9900012    2    1    2    0    0 -0.89965148671E+00 -0.73565443682E+00 -0.20628681501E+00  0.90007697285E+02  0.89999958090E+02 0.  0.
        -12    1    1    2    0    0  0.89965148671E+00  0.73565443682E+00  0.20628681501E+00  0.11803027146E+01  0.00000000000E+00 0.  1.
         11    1    3    3    0    0 -0.34728105908E+02 -0.32922937298E+00 -0.20912159666E+02  0.40539710829E+02  0.51100000000E-03 0. -1.
        -11    1    3    3    0    0  0.31383520691E+01  0.55856197612E+01 -0.56733128657E+01  0.85577380749E+01  0.51100000000E-03 0.  1.
        -12    1    3    3    0    0  0.30690102352E+02 -0.59920448250E+01  0.26379185717E+02  0.40910248382E+02  0.00000000000E+00 0.  1.
</event>
<event>
 7    1  0.1654239E-015  0.9000770E+02  0.7816164E-02  0.1186339E+00
        -11   -1    0    0    0    0  0.00000000000E+00  0.00000000000E+00  0.45593999997E+02  0.45594000000E+02  0.51100000000E-03 0. -1.
         11   -1    0    0    0    0 -0.00000000000E+00 -0.00000000000E+00 -0.45593999997E+02  0.45594000000E+02  0.51100000000E-03 0.  1.
    9900012    2    1    2    0    0  0.34295608113E-01  0.10939485870E+01  0.44182917978E+00  0.90007698037E+02  0.89999958851E+02 0.  0.
        -12    1    1    2    0    0 -0.34295608113E-01 -0.10939485870E+01 -0.44182917978E+00  0.11803019630E+01  0.00000000000E+00 0.  1.
         11    1    3    3    0    0 -0.19259913317E+02  0.16943817899E+02  0.28201652371E+02  0.38123095660E+02  0.51100000000E-03 0. -1.
        -11    1    3    3    0    0 -0.43901117831E+01  0.78410568693E+01 -0.10639800977E+01  0.90491606354E+01  0.51100000000E-03 0.  1.
        -12    1    3    3    0    0  0.23684320708E+02 -0.23690926181E+02 -0.26695843094E+02  0.42835441742E+02  0.00000000000E+00 0.  1.
</event>
<event>
 7    1  0.1654239E-015  0.9000771E+02  0.7816164E-02  0.1186339E+00
        -11   -1    0    0    0    0  0.00000000000E+00  0.00000000000E+00  0.45593999997E+02  0.45594000000E+02  0.51100000000E-03 0.  1.
         11   -1    0    0    0    0 -0.00000000000E+00 -0.00000000000E+00 -0.45593999997E+02  0.45594000000E+02  0.51100000000E-03 0. -1.
    9900012    2    1    2    0    0  0.76792616227E+00 -0.79132592937E+00 -0.42092343903E+00  0.90007710265E+02  0.89999971240E+02 0.  0.
        -12    1    1    2    0    0 -0.76792616227E+00  0.79132592937E+00  0.42092343903E+00  0.11802897351E+01  0.00000000000E+00 0.  1.
         11    1    3    3    0    0 -0.32294731550E+02 -0.14313387887E+02 -0.76325305578E+01  0.36139705058E+02  0.51100000000E-03 0. -1.
        -11    1    3    3    0    0 -0.86278887023E+01  0.20884743931E+01 -0.31398600095E+01  0.94159922414E+01  0.51100000000E-03 0.  1.
        -12    1    3    3    0    0  0.41690546415E+02  0.11433587565E+02  0.10351467128E+02  0.44452012965E+02  0.00000000000E+00 0.  1.
</event>
<event>
 7    1  0.1654239E-015  0.9000777E+02  0.7816164E-02  0.1186339E+00
        -11   -1    0    0    0    0  0.00000000000E+00  0.00000000000E+00  0.45593999997E+02  0.45594000000E+02  0.51100000000E-03 0. -1.
         11   -1    0    0    0    0 -0.00000000000E+00 -0.00000000000E+00 -0.45593999997E+02  0.45594000000E+02  0.51100000000E-03 0.  1.
    9900012    2    1    2    0    0  0.47224972967E+00  0.10785837862E+01  0.81189474574E-01  0.90007765057E+02  0.90000026755E+02 0.  0.
        -12    1    1    2    0    0 -0.47224972967E+00 -0.10785837862E+01 -0.81189474574E-01  0.11802349435E+01  0.00000000000E+00 0.  1.
         11    1    3    3    0    0  0.36530732408E+02  0.14967511404E+01  0.20672253626E+02  0.42000913615E+02  0.51100000000E-03 0. -1.
        -11    1    3    3    0    0 -0.77452585631E+01 -0.16888561568E+01  0.53677575453E+01  0.95736140853E+01  0.51100000000E-03 0.  1.
        -12    1    3    3    0    0 -0.28313224115E+02  0.12706888026E+01 -0.25958821697E+02  0.38433237357E+02  0.00000000000E+00 0.  1.
</event>
<event>
 7    1  0.1654239E-015  0.9000769E+02  0.7816164E-02  0.1186339E+00
        -11   -1    0    0    0    0  0.00000000000E+00  0.00000000000E+00  0.45593999997E+02  0.45594000000E+02  0.51100000000E-03 0.  1.
         11   -1    0    0    0    0 -0.00000000000E+00 -0.00000000000E+00 -0.45593999997E+02  0.45594000000E+02  0.51100000000E-03 0. -1.
    9900012    2    1    2    0    0  0.28331088455E+00 -0.10026729935E+01 -0.55454363236E+00  0.90007687825E+02  0.89999948505E+02 0.  0.
        -12    1    1    2    0    0 -0.28331088455E+00  0.10026729935E+01  0.55454363236E+00  0.11803121745E+01  0.00000000000E+00 0.  1.
         11    1    3    3    0    0  0.75126682864E+01  0.38077672652E+02  0.10792365934E+02  0.40284295974E+02  0.51100000000E-03 0. -1.
        -11    1    3    3    0    0  0.91421497361E+01 -0.60155682528E+01 -0.58840208150E+01  0.12425283273E+02  0.51100000000E-03 0.  1.
        -12    1    3    3    0    0 -0.16371507138E+02 -0.33064777393E+02 -0.54628887515E+01  0.37298108579E+02  0.00000000000E+00 0.  1.
</event>
<event>
 7    1  0.1654239E-015  0.9000772E+02  0.7816164E-02  0.1186339E+00
        -11   -1    0    0    0    0  0.00000000000E+00  0.00000000000E+00  0.45593999997E+02  0.45594000000E+02  0.51100000000E-03 0. -1.
         11   -1    0    0    0    0 -0.00000000000E+00 -0.00000000000E+00 -0.45593999997E+02  0.45594000000E+02  0.51100000000E-03 0.  1.
    9900012    2    1    2    0    0 -0.41309615029E+00  0.91008959053E+00  0.62780947623E+00  0.90007721969E+02  0.89999983099E+02 0.  0.
        -12    1    1    2    0    0  0.41309615029E+00 -0.91008959053E+00 -0.62780947623E+00  0.11802780311E+01  0.00000000000E+00 0.  1.
         11    1    3    3    0    0 -0.11608363216E+02 -0.53923041212E+01  0.59714152535E+01  0.14124051851E+02  0.51100000000E-03 0. -1.
        -11    1    3    3    0    0 -0.33228344940E+01  0.86564876099E+01 -0.38505704515E+02  0.39606379375E+02  0.51100000000E-03 0.  1.
         12    1    3    3    0    0  0.14518101560E+02 -0.23540938982E+01  0.33162098737E+02  0.36277290743E+02  0.00000000000E+00 0. -1.
</event>
<event>
 7    1  0.2359436E-015  0.9000771E+02  0.7816164E-02  0.1186339E+00
        -11   -1    0    0    0    0  0.00000000000E+00  0.00000000000E+00  0.45593999997E+02  0.45594000000E+02  0.51100000000E-03 0.  1.
         11   -1    0    0    0    0 -0.00000000000E+00 -0.00000000000E+00 -0.45593999997E+02  0.45594000000E+02  0.51100000000E-03 0. -1.
    9900012    2    1    2    0    0 -0.74710986150E+00 -0.75700121271E+00 -0.51171965716E+00  0.90007711481E+02  0.89999972472E+02 0.  0.
        -12    1    1    2    0    0  0.74710986150E+00  0.75700121271E+00  0.51171965716E+00  0.11802885193E+01  0.00000000000E+00 0.  1.
         11    1    3    3    0    0  0.12490446211E+01  0.91699524166E+01  0.28382646005E+01  0.96800767555E+01  0.51100000000E-03 0. -1.
        -11    1    3    3    0    0 -0.19656914709E+02  0.13521923758E+02  0.28396371193E+02  0.37088955434E+02  0.51100000000E-03 0.  1.
         12    1    3    3    0    0  0.17660760226E+02 -0.23448877387E+02 -0.31746355450E+02  0.43238679292E+02  0.00000000000E+00 0. -1.
</event>
<event>
 7    1  0.1654239E-015  0.9000698E+02  0.7816164E-02  0.1186341E+00
        -11   -1    0    0    0    0  0.00000000000E+00  0.00000000000E+00  0.45593999997E+02  0.45594000000E+02  0.51100000000E-03 0. -1.
         11   -1    0    0    0    0 -0.00000000000E+00 -0.00000000000E+00 -0.45593999997E+02  0.45594000000E+02  0.51100000000E-03 0.  1.
    9900012    2    1    2    0    0 -0.50338883905E+00  0.10014840890E+01 -0.37205918506E+00  0.90006984022E+02  0.89999235408E+02 0.  0.
        -12    1    1    2    0    0  0.50338883905E+00 -0.10014840890E+01  0.37205918506E+00  0.11810159783E+01  0.00000000000E+00 0.  1.
         11    1    3    3    0    0 -0.30812474203E+02  0.11045350645E+02  0.25280920602E+02  0.41358593836E+02  0.51100000000E-03 0. -1.
        -11    1    3    3    0    0  0.31591851282E+01 -0.99760679791E+01  0.11126493949E+01  0.10523325137E+02  0.51100000000E-03 0.  1.
        -12    1    3    3    0    0  0.27149900236E+02 -0.67798576770E-01 -0.26765629182E+02  0.38125065049E+02  0.00000000000E+00 0.  1.
</event>
<event>
 7    1  0.1654239E-015  0.9000780E+02  0.7816164E-02  0.1186339E+00
        -11   -1    0    0    0    0  0.00000000000E+00  0.00000000000E+00  0.45593999997E+02  0.45594000000E+02  0.51100000000E-03 0. -1.
         11   -1    0    0    0    0 -0.00000000000E+00 -0.00000000000E+00 -0.45593999997E+02  0.45594000000E+02  0.51100000000E-03 0.  1.
    9900012    2    1    2    0    0  0.10350052967E+01  0.29183508656E+00  0.48627831530E+00  0.90007800745E+02  0.90000062915E+02 0.  0.
        -12    1    1    2    0    0 -0.10350052967E+01 -0.29183508656E+00 -0.48627831530E+00  0.11801992551E+01  0.00000000000E+00 0.  1.
         11    1    3    3    0    0  0.28386419677E+02 -0.26255738650E+02  0.27080467557E+01  0.38761916254E+02  0.51100000000E-03 0. -1.
        -11    1    3    3    0    0 -0.30413687047E+01 -0.64995352486E+01 -0.68993070562E+01  0.99546130092E+01  0.51100000000E-03 0.  1.
        -12    1    3    3    0    0 -0.24310045676E+02  0.33047108986E+02  0.46775386158E+01  0.41291271482E+02  0.00000000000E+00 0.  1.
</event>
<event>
 7    1  0.1654239E-015  0.9000777E+02  0.7816164E-02  0.1186339E+00
        -11   -1    0    0    0    0  0.00000000000E+00  0.00000000000E+00  0.45593999997E+02  0.45594000000E+02  0.51100000000E-03 0.  1.
         11   -1    0    0    0    0 -0.00000000000E+00 -0.00000000000E+00 -0.45593999997E+02  0.45594000000E+02  0.51100000000E-03 0. -1.
    9900012    2    1    2    0    0  0.25227189825E+00 -0.61210133539E+00 -0.97705564976E+00  0.90007768286E+02  0.90000030028E+02 0.  0.
        -12    1    1    2    0    0 -0.25227189825E+00  0.61210133539E+00  0.97705564976E+00  0.11802317138E+01  0.00000000000E+00 0.  1.
         11    1    3    3    0    0  0.93187503623E+01 -0.29763779659E+02 -0.19603648501E+02  0.36837816477E+02  0.51100000000E-03 0. -1.
        -11    1    3    3    0    0 -0.72941765933E+01 -0.82273374720E+01  0.97847796253E+01  0.14718559937E+02  0.51100000000E-03 0.  1.
        -12    1    3    3    0    0 -0.17723018708E+01  0.37379015796E+02  0.88418132264E+01  0.38451391872E+02  0.00000000000E+00 0.  1.
</event>
<event>
 7    1  0.1654239E-015  0.9000774E+02  0.7816164E-02  0.1186339E+00
        -11   -1    0    0    0    0  0.00000000000E+00  0.00000000000E+00  0.45593999997E+02  0.45594000000E+02  0.51100000000E-03 0. -1.
         11   -1    0    0    0    0 -0.00000000000E+00 -0.00000000000E+00 -0.45593999997E+02  0.45594000000E+02  0.51100000000E-03 0.  1.
    9900012    2    1    2    0    0  0.29961616077E-01 -0.10450672183E+01  0.54768554354E+00  0.90007736197E+02  0.89999997515E+02 0.  0.
        -12    1    1    2    0    0 -0.29961616077E-01  0.10450672183E+01 -0.54768554354E+00  0.11802638026E+01  0.00000000000E+00 0.  1.
         11    1    3    3    0    0 -0.98828982070E+01 -0.14318783877E+01  0.11670546484E+01  0.10054052392E+02  0.51100000000E-03 0. -1.
        -11    1    3    3    0    0 -0.29327309804E+02  0.13122122720E+02 -0.16040407307E+02  0.35910665155E+02  0.51100000000E-03 0.  1.
         12    1    3    3    0    0  0.39240169627E+02 -0.12735311550E+02  0.15421038202E+02  0.44043018651E+02  0.00000000000E+00 0. -1.
</event>
<event>
 7    1  0.1654239E-015  0.9000772E+02  0.7816164E-02  0.1186339E+00
        -11   -1    0    0    0    0  0.00000000000E+00  0.00000000000E+00  0.45593999997E+02  0.45594000000E+02  0.51100000000E-03 0. -1.
         11   -1    0    0    0    0 -0.00000000000E+00 -0.00000000000E+00 -0.45593999997E+02  0.45594000000E+02  0.51100000000E-03 0.  1.
    9900012    2    1    2    0    0  0.86205234192E+00  0.80545723323E+00  0.34206715730E-01  0.90007717960E+02  0.89999979037E+02 0.  0.
        -12    1    1    2    0    0 -0.86205234192E+00 -0.80545723323E+00 -0.34206715730E-01  0.11802820401E+01  0.00000000000E+00 0.  1.
         11    1    3    3    0    0 -0.22717917252E+01  0.15649991281E+02 -0.22341469545E+02  0.27371966068E+02  0.51100000000E-03 0. -1.
        -11    1    3    3    0    0  0.20132564292E+02 -0.20625231231E+02 -0.56317877171E+01  0.29367283522E+02  0.51100000000E-03 0.  1.
         12    1    3    3    0    0 -0.16998720225E+02  0.57806971828E+01  0.28007463978E+02  0.33268468370E+02  0.00000000000E+00 0. -1.
</event>
<event>
 7    1  0.1654239E-015  0.9000768E+02  0.7816164E-02  0.1186339E+00
        -11   -1    0    0    0    0  0.00000000000E+00  0.00000000000E+00  0.45593999997E+02  0.45594000000E+02  0.51100000000E-03 0. -1.
         11   -1    0    0    0    0 -0.00000000000E+00 -0.00000000000E+00 -0.45593999997E+02  0.45594000000E+02  0.51100000000E-03 0.  1.
    9900012    2    1    2    0    0 -0.41321755637E+00  0.69961030705E-01  0.11034095487E+01  0.90007679735E+02  0.89999940308E+02 0.  0.
        -12    1    1    2    0    0  0.41321755637E+00 -0.69961030705E-01 -0.11034095487E+01  0.11803202645E+01  0.00000000000E+00 0.  1.
         11    1    3    3    0    0 -0.22828506189E+02 -0.10355830825E+02  0.29884275533E+02  0.39005818172E+02  0.51100000000E-03 0. -1.
        -11    1    3    3    0    0  0.99109952641E+01  0.86157434035E+01  0.56723332647E+01  0.14305041994E+02  0.51100000000E-03 0.  1.
        -12    1    3    3    0    0  0.12504293368E+02  0.18100484519E+01 -0.34453199249E+02  0.36696819570E+02  0.00000000000E+00 0.  1.
</event>
<event>
 7    1  0.1654239E-015  0.9000780E+02  0.7816164E-02  0.1186339E+00
        -11   -1    0    0    0    0  0.00000000000E+00  0.00000000000E+00  0.45593999997E+02  0.45594000000E+02  0.51100000000E-03 0.  1.
         11   -1    0    0    0    0 -0.00000000000E+00 -0.00000000000E+00 -0.45593999997E+02  0.45594000000E+02  0.51100000000E-03 0. -1.
    9900012    2    1    2    0    0 -0.39918886047E-01  0.50515898046E+00 -0.10658801267E+01  0.90007796815E+02  0.90000058933E+02 0.  0.
        -12    1    1    2    0    0  0.39918886047E-01 -0.50515898046E+00  0.10658801267E+01  0.11802031848E+01  0.00000000000E+00 0.  1.
         11    1    3    3    0    0 -0.10345455375E+01  0.17784109022E+01 -0.96793983601E+01  0.98956446319E+01  0.51100000000E-03 0. -1.
        -11    1    3    3    0    0  0.12703122889E+01 -0.33788697092E+02 -0.17807057986E+02  0.38214932407E+02  0.51100000000E-03 0.  1.
         12    1    3    3    0    0 -0.27568563738E+00  0.32515445171E+02  0.26420576219E+02  0.41897219776E+02  0.00000000000E+00 0. -1.
</event>
<event>
 7    1  0.1654239E-015  0.9000776E+02  0.7816164E-02  0.1186339E+00
        -11   -1    0    0    0    0  0.00000000000E+00  0.00000000000E+00  0.45593999997E+02  0.45594000000E+02  0.51100000000E-03 0. -1.
         11   -1    0    0    0    0 -0.00000000000E+00 -0.00000000000E+00 -0.45593999997E+02  0.45594000000E+02  0.51100000000E-03 0.  1.
    9900012    2    1    2    0    0 -0.11763370675E+01  0.26608463296E-01 -0.92080667416E-01  0.90007764534E+02  0.90000026226E+02 0.  0.
        -12    1    1    2    0    0  0.11763370675E+01 -0.26608463296E-01  0.92080667416E-01  0.11802354663E+01  0.00000000000E+00 0.  1.
         11    1    3    3    0    0  0.35659445387E+02  0.10587305499E+02 -0.98768607529E+01  0.38486873887E+02  0.51100000000E-03 0. -1.
        -11    1    3    3    0    0  0.50582872503E+01 -0.21308759626E+01  0.67209288012E+01  0.86774297166E+01  0.51100000000E-03 0.  1.
        -12    1    3    3    0    0 -0.41894069705E+02 -0.84298210731E+01  0.30638512843E+01  0.42843460930E+02  0.00000000000E+00 0.  1.
</event>
<event>
 7    1  0.1654239E-015  0.9000778E+02  0.7816164E-02  0.1186339E+00
        -11   -1    0    0    0    0  0.00000000000E+00  0.00000000000E+00  0.45593999997E+02  0.45594000000E+02  0.51100000000E-03 0.  1.
         11   -1    0    0    0    0 -0.00000000000E+00 -0.00000000000E+00 -0.45593999997E+02  0.45594000000E+02  0.51100000000E-03 0. -1.
    9900012    2    1    2    0    0 -0.68483352073E+00 -0.77968441987E+00 -0.56215938288E+00  0.90007776327E+02  0.90000038175E+02 0.  0.
        -12    1    1    2    0    0  0.68483352073E+00  0.77968441987E+00  0.56215938288E+00  0.11802236726E+01  0.00000000000E+00 0.  1.
         11    1    3    3    0    0 -0.76484157878E+01 -0.73355791501E+01 -0.60771053307E+01  0.12216390424E+02  0.51100000000E-03 0. -1.
        -11    1    3    3    0    0 -0.21171872869E+02  0.31593984115E+02 -0.57855963227E+01  0.38469483465E+02  0.51100000000E-03 0.  1.
         12    1    3    3    0    0  0.28135455136E+02 -0.25038089384E+02  0.11300542271E+02  0.39321902438E+02  0.00000000000E+00 0. -1.
</event>
<event>
 7    1  0.1654239E-015  0.9000776E+02  0.7816164E-02  0.1186339E+00
        -11   -1    0    0    0    0  0.00000000000E+00  0.00000000000E+00  0.45593999997E+02  0.45594000000E+02  0.51100000000E-03 0.  1.
         11   -1    0    0    0    0 -0.00000000000E+00 -0.00000000000E+00 -0.45593999997E+02  0.45594000000E+02  0.51100000000E-03 0. -1.
    9900012    2    1    2    0    0 -0.34232284380E+00 -0.68002807341E+00 -0.90185420085E+00  0.90007760995E+02  0.90000022640E+02 0.  0.
        -12    1    1    2    0    0  0.34232284380E+00  0.68002807341E+00  0.90185420085E+00  0.11802390053E+01  0.00000000000E+00 0.  1.
         11    1    3    3    0    0  0.72841671979E+01 -0.14370214057E+01 -0.61829822959E+01  0.96619559417E+01  0.51100000000E-03 0. -1.
        -11    1    3    3    0    0  0.30540912360E+02 -0.16944631571E+02  0.13559867542E+02  0.37466490026E+02  0.51100000000E-03 0.  1.
         12    1    3    3    0    0 -0.38167402402E+02  0.17701624904E+02 -0.82787394473E+01  0.42879315027E+02  0.00000000000E+00 0. -1.
</event>
<event>
 7    1  0.1654239E-015  0.9000771E+02  0.7816164E-02  0.1186339E+00
        -11   -1    0    0    0    0  0.00000000000E+00  0.00000000000E+00  0.45593999997E+02  0.45594000000E+02  0.51100000000E-03 0. -1.
         11   -1    0    0    0    0 -0.00000000000E+00 -0.00000000000E+00 -0.45593999997E+02  0.45594000000E+02  0.51100000000E-03 0.  1.
    9900012    2    1    2    0    0 -0.25072536085E+00  0.56686875037E+00 -0.10044258638E+01  0.90007714144E+02  0.89999975170E+02 0.  0.
        -12    1    1    2    0    0  0.25072536085E+00 -0.56686875037E+00  0.10044258638E+01  0.11802858563E+01  0.00000000000E+00 0.  1.
         11    1    3    3    0    0  0.12743745392E+02 -0.34579286172E+02 -0.71598795241E+01  0.37541895981E+02  0.51100000000E-03 0. -1.
        -11    1    3    3    0    0 -0.48243682640E+01 -0.71134735244E+01 -0.15658664818E+01  0.87365881687E+01  0.51100000000E-03 0.  1.
        -12    1    3    3    0    0 -0.81701024885E+01  0.42259628447E+02  0.77213201422E+01  0.43729229994E+02  0.00000000000E+00 0.  1.
</event>
<event>
 7    1  0.1654239E-015  0.9000780E+02  0.7816164E-02  0.1186339E+00
        -11   -1    0    0    0    0  0.00000000000E+00  0.00000000000E+00  0.45593999997E+02  0.45594000000E+02  0.51100000000E-03 0. -1.
         11   -1    0    0    0    0 -0.00000000000E+00 -0.00000000000E+00 -0.45593999997E+02  0.45594000000E+02  0.51100000000E-03 0.  1.
    9900012    2    1    2    0    0  0.84959384049E+00  0.57944610221E+00 -0.57905466021E+00  0.90007800111E+02  0.90000062272E+02 0.  0.
        -12    1    1    2    0    0 -0.84959384049E+00 -0.57944610221E+00  0.57905466021E+00  0.11801998893E+01  0.00000000000E+00 0.  1.
         11    1    3    3    0    0 -0.73864130024E+01 -0.29958889436E+02 -0.11513226263E+02  0.32934002680E+02  0.51100000000E-03 0. -1.
        -11    1    3    3    0    0  0.74705655337E+01 -0.11573703837E+02  0.10812968687E+01  0.13817712295E+02  0.51100000000E-03 0.  1.
        -12    1    3    3    0    0  0.76544130918E+00  0.42112039375E+02  0.98528747342E+01  0.43256085135E+02  0.00000000000E+00 0.  1.
</event>
<event>
 7    1  0.1654239E-015  0.9000766E+02  0.7816164E-02  0.1186339E+00
        -11   -1    0    0    0    0  0.00000000000E+00  0.00000000000E+00  0.45593999997E+02  0.45594000000E+02  0.51100000000E-03 0.  1.
         11   -1    0    0    0    0 -0.00000000000E+00 -0.00000000000E+00 -0.45593999997E+02  0.45594000000E+02  0.51100000000E-03 0. -1.
    9900012    2    1    2    0    0  0.50211256352E+00 -0.85570958504E+00 -0.63941975921E+00  0.90007655326E+02  0.89999915577E+02 0.  0.
        -12    1    1    2    0    0 -0.50211256352E+00  0.85570958504E+00  0.63941975921E+00  0.11803446737E+01  0.00000000000E+00 0.  1.
         11    1    3    3    0    0 -0.86109226958E+01  0.58426512343E+01 -0.40703438518E+01  0.11173730910E+02  0.51100000000E-03 0. -1.
        -11    1    3    3    0    0 -0.45635354403E+01  0.33174251964E+02  0.12451263832E+02  0.35726612215E+02  0.51100000000E-03 0.  1.
         12    1    3    3    0    0  0.13676570700E+02 -0.39872612783E+02 -0.90203397394E+01  0.43107312202E+02  0.00000000000E+00 0. -1.
</event>
<event>
 7    1  0.1654239E-015  0.9000764E+02  0.7816164E-02  0.1186339E+00
        -11   -1    0    0    0    0  0.00000000000E+00  0.00000000000E+00  0.45593999997E+02  0.45594000000E+02  0.51100000000E-03 0.  1.
         11   -1    0    0    0    0 -0.00000000000E+00 -0.00000000000E+00 -0.45593999997E+02  0.45594000000E+02  0.51100000000E-03 0. -1.
    9900012    2    1    2    0    0  0.68385354861E+00 -0.24264330575E+00 -0.93097637067E+00  0.90007640541E+02  0.89999900596E+02 0.  0.
        -12    1    1    2    0    0 -0.68385354861E+00  0.24264330575E+00  0.93097637067E+00  0.11803594590E+01  0.00000000000E+00 0.  1.
         11    1    3    3    0    0 -0.28613756282E+01 -0.81665578418E+01 -0.39615368363E+02  0.40549445721E+02  0.51100000000E-03 0. -1.
        -11    1    3    3    0    0 -0.24274987649E+00 -0.89065654553E+01  0.23165971170E+01  0.92061098285E+01  0.51100000000E-03 0.  1.
        -12    1    3    3    0    0  0.37879790533E+01  0.16830479991E+02  0.36367794876E+02  0.40252084991E+02  0.00000000000E+00 0.  1.
</event>
<event>
 7    1  0.1654239E-015  0.9000782E+02  0.7816164E-02  0.1186339E+00
        -11   -1    0    0    0    0  0.00000000000E+00  0.00000000000E+00  0.45593999997E+02  0.45594000000E+02  0.51100000000E-03 0. -1.
         11   -1    0    0    0    0 -0.00000000000E+00 -0.00000000000E+00 -0.45593999997E+02  0.45594000000E+02  0.51100000000E-03 0.  1.
    9900012    2    1    2    0    0  0.41045255153E-03  0.99072693876E+00  0.64131476042E+00  0.90007820074E+02  0.90000082499E+02 0.  0.
        -12    1    1    2    0    0 -0.41045255153E-03 -0.99072693876E+00 -0.64131476042E+00  0.11801799259E+01  0.00000000000E+00 0.  1.
         11    1    3    3    0    0 -0.55605670200E+01  0.37973231581E+01 -0.74103267981E+01  0.10012617653E+02  0.51100000000E-03 0. -1.
        -11    1    3    3    0    0  0.41871227029E+02  0.25866111016E+01 -0.17933206302E+01  0.41989358284E+02  0.51100000000E-03 0.  1.
         12    1    3    3    0    0 -0.36310249557E+02 -0.53932073209E+01  0.98449621887E+01  0.38005844137E+02  0.00000000000E+00 0. -1.
</event>
<event>
 7    1  0.1654239E-015  0.9000773E+02  0.7816164E-02  0.1186339E+00
        -11   -1    0    0    0    0  0.00000000000E+00  0.00000000000E+00  0.45593999997E+02  0.45594000000E+02  0.51100000000E-03 0.  1.
         11   -1    0    0    0    0 -0.00000000000E+00 -0.00000000000E+00 -0.45593999997E+02  0.45594000000E+02  0.51100000000E-03 0. -1.
    9900012    2    1    2    0    0  0.10294429774E+01  0.33446302705E-01 -0.57633817028E+00  0.90007730037E+02  0.89999991274E+02 0.  0.
        -12    1    1    2    0    0 -0.10294429774E+01 -0.33446302705E-01  0.57633817028E+00  0.11802699629E+01  0.00000000000E+00 0.  1.
         11    1    3    3    0    0  0.22847936706E+02 -0.22335440434E+02 -0.21559723504E+02  0.38545061797E+02  0.51100000000E-03 0. -1.
        -11    1    3    3    0    0  0.61700849678E+01 -0.40468098547E+01  0.79094056934E+01  0.10816899611E+02  0.51100000000E-03 0.  1.
        -12    1    3    3    0    0 -0.27988578696E+02  0.26415696592E+02  0.13073979640E+02  0.40645768629E+02  0.00000000000E+00 0.  1.
</event>
<event>
 7    1  0.1654239E-015  0.9000776E+02  0.7816164E-02  0.1186339E+00
        -11   -1    0    0    0    0  0.00000000000E+00  0.00000000000E+00  0.45593999997E+02  0.45594000000E+02  0.51100000000E-03 0. -1.
         11   -1    0    0    0    0 -0.00000000000E+00 -0.00000000000E+00 -0.45593999997E+02  0.45594000000E+02  0.51100000000E-03 0.  1.
    9900012    2    1    2    0    0 -0.62089649896E+00  0.74809626730E+00  0.66919013522E+00  0.90007755989E+02  0.90000017568E+02 0.  0.
        -12    1    1    2    0    0  0.62089649896E+00 -0.74809626730E+00 -0.66919013522E+00  0.11802440106E+01  0.00000000000E+00 0.  1.
         11    1    3    3    0    0  0.26716097173E+02 -0.22757230690E+02 -0.15127793150E+01  0.35127338333E+02  0.51100000000E-03 0. -1.
        -11    1    3    3    0    0  0.47552461313E+01 -0.69624847598E+01 -0.53598061399E+01  0.99907998638E+01  0.51100000000E-03 0.  1.
        -12    1    3    3    0    0 -0.32092239804E+02  0.30467811718E+02  0.75417755901E+01  0.44889617792E+02  0.00000000000E+00 0.  1.
</event>
<event>
 7    1  0.1654239E-015  0.9000775E+02  0.7816164E-02  0.1186339E+00
        -11   -1    0    0    0    0  0.00000000000E+00  0.00000000000E+00  0.45593999997E+02  0.45594000000E+02  0.51100000000E-03 0. -1.
         11   -1    0    0    0    0 -0.00000000000E+00 -0.00000000000E+00 -0.45593999997E+02  0.45594000000E+02  0.51100000000E-03 0.  1.
    9900012    2    1    2    0    0  0.57149561326E+00 -0.10214267263E+01  0.15192675401E+00  0.90007745141E+02  0.90000006577E+02 0.  0.
        -12    1    1    2    0    0 -0.57149561326E+00  0.10214267263E+01 -0.15192675401E+00  0.11802548588E+01  0.00000000000E+00 0.  1.
         11    1    3    3    0    0  0.65057396882E+01  0.32673560793E+01 -0.66017501740E+01  0.98276838706E+01  0.51100000000E-03 0. -1.
        -11    1    3    3    0    0  0.13478652304E+02  0.31801569214E+02 -0.99221052071E+01  0.35936917570E+02  0.51100000000E-03 0.  1.
         12    1    3    3    0    0 -0.19412896379E+02 -0.36090352020E+02  0.16675782135E+02  0.44243143701E+02  0.00000000000E+00 0. -1.
</event>
<event>
 7    1  0.1654239E-015  0.9000773E+02  0.7816164E-02  0.1186339E+00
        -11   -1    0    0    0    0  0.00000000000E+00  0.00000000000E+00  0.45593999997E+02  0.45594000000E+02  0.51100000000E-03 0. -1.
         11   -1    0    0    0    0 -0.00000000000E+00 -0.00000000000E+00 -0.45593999997E+02  0.45594000000E+02  0.51100000000E-03 0.  1.
    9900012    2    1    2    0    0  0.11587083842E+01 -0.21081194368E+00  0.77379996446E-01  0.90007731192E+02  0.89999992444E+02 0.  0.
        -12    1    1    2    0    0 -0.11587083842E+01  0.21081194368E+00 -0.77379996446E-01  0.11802688079E+01  0.00000000000E+00 0.  1.
         11    1    3    3    0    0  0.88258463734E+01 -0.30753373946E+01  0.30811549477E+01  0.98410761795E+01  0.51100000000E-03 0. -1.
        -11    1    3    3    0    0 -0.36045047648E+02  0.19993498150E+02  0.13187217125E+02  0.43276877475E+02  0.51100000000E-03 0.  1.
         12    1    3    3    0    0  0.28377909659E+02 -0.17128972699E+02 -0.16190992077E+02  0.36889777537E+02  0.00000000000E+00 0. -1.
</event>
<event>
 7    1  0.1654239E-015  0.9000777E+02  0.7816164E-02  0.1186339E+00
        -11   -1    0    0    0    0  0.00000000000E+00  0.00000000000E+00  0.45593999997E+02  0.45594000000E+02  0.51100000000E-03 0. -1.
         11   -1    0    0    0    0 -0.00000000000E+00 -0.00000000000E+00 -0.45593999997E+02  0.45594000000E+02  0.51100000000E-03 0.  1.
    9900012    2    1    2    0    0 -0.52607102673E+00  0.59077074192E+00 -0.87589453386E+00  0.90007766113E+02  0.90000027825E+02 0.  0.
        -12    1    1    2    0    0  0.52607102673E+00 -0.59077074192E+00  0.87589453386E+00  0.11802338875E+01  0.00000000000E+00 0.  1.
         11    1    3    3    0    0 -0.35175421777E+02 -0.11270404526E+02 -0.27474206427E+01  0.37038907055E+02  0.51100000000E-03 0. -1.
        -11    1    3    3    0    0 -0.46033185795E+01 -0.71250186890E+01  0.38612724257E+01  0.93201855276E+01  0.51100000000E-03 0.  1.
        -12    1    3    3    0    0  0.39252669330E+02  0.18986193957E+02 -0.19897463169E+01  0.43648673530E+02  0.00000000000E+00 0.  1.
</event>
<event>
 7    1  0.1654239E-015  0.9000790E+02  0.7816164E-02  0.1186339E+00
        -11   -1    0    0    0    0  0.00000000000E+00  0.00000000000E+00  0.45593999997E+02  0.45594000000E+02  0.51100000000E-03 0.  1.
         11   -1    0    0    0    0 -0.00000000000E+00 -0.00000000000E+00 -0.45593999997E+02  0.45594000000E+02  0.51100000000E-03 0. -1.
    9900012    2    1    2    0    0  0.45402347361E+00  0.97714601182E+00 -0.48132511270E+00  0.90007904450E+02  0.90000167989E+02 0.  0.
        -12    1    1    2    0    0 -0.45402347361E+00 -0.97714601182E+00  0.48132511270E+00  0.11800955500E+01  0.00000000000E+00 0.  1.
         11    1    3    3    0    0  0.38485593568E+02 -0.15186660591E+02 -0.26000945278E+01  0.41455229634E+02  0.51100000000E-03 0. -1.
        -11    1    3    3    0    0 -0.71415486683E+01 -0.60763277792E+01 -0.36354874891E+01  0.10056850710E+02  0.51100000000E-03 0.  1.
        -12    1    3    3    0    0 -0.30890021426E+02  0.22240134382E+02  0.57542569042E+01  0.38495824106E+02  0.00000000000E+00 0.  1.
</event>
<event>
 7    1  0.1654239E-015  0.9000782E+02  0.7816164E-02  0.1186339E+00
        -11   -1    0    0    0    0  0.00000000000E+00  0.00000000000E+00  0.45593999997E+02  0.45594000000E+02  0.51100000000E-03 0.  1.
         11   -1    0    0    0    0 -0.00000000000E+00 -0.00000000000E+00 -0.45593999997E+02  0.45594000000E+02  0.51100000000E-03 0. -1.
    9900012    2    1    2    0    0 -0.11277052831E+01  0.34800388794E+00  0.14262405582E-02  0.90007818681E+02  0.90000081088E+02 0.  0.
        -12    1    1    2    0    0  0.11277052831E+01 -0.34800388794E+00 -0.14262405582E-02  0.11801813190E+01  0.00000000000E+00 0.  1.
         11    1    3    3    0    0  0.14762318401E+02 -0.34634200156E+02 -0.12889921632E+02  0.39794521545E+02  0.51100000000E-03 0. -1.
        -11    1    3    3    0    0 -0.70793005828E+01 -0.36129925344E+01 -0.15042413432E+01  0.80890638565E+01  0.51100000000E-03 0.  1.
        -12    1    3    3    0    0 -0.88107231017E+01  0.38595196579E+02  0.14395589216E+02  0.42124233280E+02  0.00000000000E+00 0.  1.
</event>
<event>
 7    1  0.1654239E-015  0.9000853E+02  0.7816164E-02  0.1186337E+00
        -11   -1    0    0    0    0  0.00000000000E+00  0.00000000000E+00  0.45593999997E+02  0.45594000000E+02  0.51100000000E-03 0. -1.
         11   -1    0    0    0    0 -0.00000000000E+00 -0.00000000000E+00 -0.45593999997E+02  0.45594000000E+02  0.51100000000E-03 0.  1.
    9900012    2    1    2    0    0  0.93000679111E+00 -0.62389190042E+00  0.37014033855E+00  0.90008526556E+02  0.90000798303E+02 0.  0.
        -12    1    1    2    0    0 -0.93000679111E+00  0.62389190042E+00 -0.37014033855E+00  0.11794734440E+01  0.00000000000E+00 0.  1.
         11    1    3    3    0    0  0.24631181113E+02 -0.17190922213E+02  0.28767053452E+02  0.41590458691E+02  0.51100000000E-03 0. -1.
        -11    1    3    3    0    0  0.46902305210E+01  0.66369456847E+01 -0.19289648682E+01  0.83527370416E+01  0.51100000000E-03 0.  1.
        -12    1    3    3    0    0 -0.28391404843E+02  0.99300846280E+01 -0.26467948245E+02  0.40065330823E+02  0.00000000000E+00 0.  1.
</event>
<event>
 7    1  0.1654239E-015  0.9000775E+02  0.7816164E-02  0.1186339E+00
        -11   -1    0    0    0    0  0.00000000000E+00  0.00000000000E+00  0.45593999997E+02  0.45594000000E+02  0.51100000000E-03 0.  1.
         11   -1    0    0    0    0 -0.00000000000E+00 -0.00000000000E+00 -0.45593999997E+02  0.45594000000E+02  0.51100000000E-03 0. -1.
    9900012    2    1    2    0    0  0.98814716592E-01  0.11135833847E+01 -0.37836315921E+00  0.90007749610E+02  0.90000011105E+02 0.  0.
        -12    1    1    2    0    0 -0.98814716592E-01 -0.11135833847E+01  0.37836315921E+00  0.11802503900E+01  0.00000000000E+00 0.  1.
         11    1    3    3    0    0 -0.30188294618E+02  0.19034636099E+01 -0.25908217553E+02  0.39827026536E+02  0.51100000000E-03 0. -1.
        -11    1    3    3    0    0 -0.59855685486E+01  0.64677706634E+00  0.75924432178E+01  0.96897133962E+01  0.51100000000E-03 0.  1.
        -12    1    3    3    0    0  0.36272677884E+02 -0.14366572916E+01  0.17937411176E+02  0.40491009678E+02  0.00000000000E+00 0.  1.
</event>
<event>
 7    1  0.1654239E-015  0.9000755E+02  0.7816164E-02  0.1186339E+00
        -11   -1    0    0    0    0  0.00000000000E+00  0.00000000000E+00  0.45593999997E+02  0.45594000000E+02  0.51100000000E-03 0.  1.
         11   -1    0    0    0    0 -0.00000000000E+00 -0.00000000000E+00 -0.45593999997E+02  0.45594000000E+02  0.51100000000E-03 0. -1.
    9900012    2    1    2    0    0 -0.62447928610E+00 -0.23357984134E+00 -0.97412644555E+00  0.90007552520E+02  0.89999811413E+02 0.  0.
        -12    1    1    2    0    0  0.62447928610E+00  0.23357984134E+00  0.97412644555E+00  0.11804474800E+01  0.00000000000E+00 0.  1.
         11    1    3    3    0    0 -0.10528527346E+02  0.35197049950E+02  0.14811338017E+02  0.39611336097E+02  0.51100000000E-03 0. -1.
        -11    1    3    3    0    0 -0.24754684352E+01  0.30280175322E+01 -0.84807974714E+01  0.93392055423E+01  0.51100000000E-03 0.  1.
        -12    1    3    3    0    0  0.12379516495E+02 -0.38458647324E+02 -0.73046669915E+01  0.41057010881E+02  0.00000000000E+00 0.  1.
</event>
<event>
 7    1  0.1654239E-015  0.9000774E+02  0.7816164E-02  0.1186339E+00
        -11   -1    0    0    0    0  0.00000000000E+00  0.00000000000E+00  0.45593999997E+02  0.45594000000E+02  0.51100000000E-03 0.  1.
         11   -1    0    0    0    0 -0.00000000000E+00 -0.00000000000E+00 -0.45593999997E+02  0.45594000000E+02  0.51100000000E-03 0. -1.
    9900012    2    1    2    0    0 -0.90663073452E+00 -0.27262314943E+00 -0.70477406818E+00  0.90007741911E+02  0.90000003304E+02 0.  0.
        -12    1    1    2    0    0  0.90663073452E+00  0.27262314943E+00  0.70477406818E+00  0.11802580894E+01  0.00000000000E+00 0.  1.
         11    1    3    3    0    0  0.34397573054E+01  0.48582080635E+01 -0.77075576203E+01  0.97386118435E+01  0.51100000000E-03 0. -1.
        -11    1    3    3    0    0  0.16336816632E+02  0.22815623313E+02  0.28009319525E+02  0.39648029274E+02  0.51100000000E-03 0.  1.
         12    1    3    3    0    0 -0.20683204671E+02 -0.27946454526E+02 -0.21006535973E+02  0.40621100793E+02  0.00000000000E+00 0. -1.
</event>
<event>
 7    1  0.1654239E-015  0.9000774E+02  0.7816164E-02  0.1186339E+00
        -11   -1    0    0    0    0  0.00000000000E+00  0.00000000000E+00  0.45593999997E+02  0.45594000000E+02  0.51100000000E-03 0.  1.
         11   -1    0    0    0    0 -0.00000000000E+00 -0.00000000000E+00 -0.45593999997E+02  0.45594000000E+02  0.51100000000E-03 0. -1.
    9900012    2    1    2    0    0  0.50484903727E+00  0.76739909730E+00  0.74110701818E+00  0.90007740055E+02  0.90000001424E+02 0.  0.
        -12    1    1    2    0    0 -0.50484903727E+00 -0.76739909730E+00 -0.74110701818E+00  0.11802599448E+01  0.00000000000E+00 0.  1.
         11    1    3    3    0    0  0.31982938614E+02  0.96378356615E+01  0.18718356910E+02  0.38290640165E+02  0.51100000000E-03 0. -1.
        -11    1    3    3    0    0 -0.49525751949E+01  0.10198556122E+02  0.43547364261E+01  0.12145051570E+02  0.51100000000E-03 0.  1.
        -12    1    3    3    0    0 -0.26525514381E+02 -0.19068992687E+02 -0.22331986318E+02  0.39572048319E+02  0.00000000000E+00 0.  1.
</event>
<event>
 7    1  0.1654239E-015  0.9000759E+02  0.7816164E-02  0.1186339E+00
        -11   -1    0    0    0    0  0.00000000000E+00  0.00000000000E+00  0.45593999997E+02  0.45594000000E+02  0.51100000000E-03 0.  1.
         11   -1    0    0    0    0 -0.00000000000E+00 -0.00000000000E+00 -0.45593999997E+02  0.45594000000E+02  0.51100000000E-03 0. -1.
    9900012    2    1    2    0    0  0.58437904174E+00  0.71529316372E+00 -0.73499713668E+00  0.90007591611E+02  0.89999851020E+02 0.  0.
        -12    1    1    2    0    0 -0.58437904174E+00 -0.71529316372E+00  0.73499713668E+00  0.11804083893E+01  0.00000000000E+00 0.  1.
         11    1    3    3    0    0  0.26220094257E+02 -0.10002267957E+02 -0.23734432944E+02  0.36754074802E+02  0.51100000000E-03 0. -1.
        -11    1    3    3    0    0  0.33149120072E+01  0.31708837952E+01 -0.85943226120E+01  0.97419467807E+01  0.51100000000E-03 0.  1.
        -12    1    3    3    0    0 -0.28950627222E+02  0.75466773260E+01  0.31593758419E+02  0.43511570028E+02  0.00000000000E+00 0.  1.
</event>
<event>
 7    1  0.1654239E-015  0.9000790E+02  0.7816164E-02  0.1186339E+00
        -11   -1    0    0    0    0  0.00000000000E+00  0.00000000000E+00  0.45593999997E+02  0.45594000000E+02  0.51100000000E-03 0. -1.
         11   -1    0    0    0    0 -0.00000000000E+00 -0.00000000000E+00 -0.45593999997E+02  0.45594000000E+02  0.51100000000E-03 0.  1.
    9900012    2    1    2    0    0 -0.92440541490E+00 -0.61939049991E+00  0.39302254825E+00  0.90007899714E+02  0.90000163190E+02 0.  0.
        -12    1    1    2    0    0  0.92440541490E+00  0.61939049991E+00 -0.39302254825E+00  0.11801002864E+01  0.00000000000E+00 0.  1.
         11    1    3    3    0    0 -0.57069247152E+01 -0.50352138085E+01 -0.72308874629E+01  0.10498004647E+02  0.51100000000E-03 0. -1.
        -11    1    3    3    0    0  0.23170851830E+02 -0.30570053543E+01 -0.29365844396E+02  0.37531140052E+02  0.51100000000E-03 0.  1.
         12    1    3    3    0    0 -0.18388332530E+02  0.74728286629E+01  0.36989754407E+02  0.41978755014E+02  0.00000000000E+00 0. -1.
</event>
<event>
 7    1  0.1654239E-015  0.9000796E+02  0.7816164E-02  0.1186339E+00
        -11   -1    0    0    0    0  0.00000000000E+00  0.00000000000E+00  0.45593999997E+02  0.45594000000E+02  0.51100000000E-03 0.  1.
         11   -1    0    0    0    0 -0.00000000000E+00 -0.00000000000E+00 -0.45593999997E+02  0.45594000000E+02  0.51100000000E-03 0. -1.
    9900012    2    1    2    0    0  0.12773160631E+00  0.92215492734E-01 -0.11694799836E+01  0.90007956572E+02  0.90000220798E+02 0.  0.
        -12    1    1    2    0    0 -0.12773160631E+00 -0.92215492734E-01  0.11694799836E+01  0.11800434282E+01  0.00000000000E+00 0.  1.
         11    1    3    3    0    0 -0.85525722047E+01 -0.10989963288E+01  0.23607327142E+01  0.89402093631E+01  0.51100000000E-03 0. -1.
        -11    1    3    3    0    0  0.64547822548E+01 -0.10772630411E+02  0.36830331871E+02  0.38912557432E+02  0.51100000000E-03 0.  1.
         12    1    3    3    0    0  0.22255215562E+01  0.11963842232E+02 -0.40360544569E+02  0.42155189776E+02  0.00000000000E+00 0. -1.
</event>
<event>
 7    1  0.1654239E-015  0.9000770E+02  0.7816164E-02  0.1186339E+00
        -11   -1    0    0    0    0  0.00000000000E+00  0.00000000000E+00  0.45593999997E+02  0.45594000000E+02  0.51100000000E-03 0.  1.
         11   -1    0    0    0    0 -0.00000000000E+00 -0.00000000000E+00 -0.45593999997E+02  0.45594000000E+02  0.51100000000E-03 0. -1.
    9900012    2    1    2    0    0 -0.63386385688E+00 -0.78636735195E+00 -0.61069112169E+00  0.90007703153E+02  0.89999964034E+02 0.  0.
        -12    1    1    2    0    0  0.63386385688E+00  0.78636735195E+00  0.61069112169E+00  0.11802968471E+01  0.00000000000E+00 0.  1.
         11    1    3    3    0    0  0.12909263702E+02 -0.46456718749E+01 -0.23799394759E+02  0.27470758046E+02  0.51100000000E-03 0. -1.
        -11    1    3    3    0    0  0.73887571687E+01  0.65746280699E+01 -0.15545532970E+02  0.18425066142E+02  0.51100000000E-03 0.  1.
        -12    1    3    3    0    0 -0.20931884727E+02 -0.27153235469E+01  0.38734236607E+02  0.44111878964E+02  0.00000000000E+00 0.  1.
</event>
<event>
 7    1  0.1654239E-015  0.9000773E+02  0.7816164E-02  0.1186339E+00
        -11   -1    0    0    0    0  0.00000000000E+00  0.00000000000E+00  0.45593999997E+02  0.45594000000E+02  0.51100000000E-03 0. -1.
         11   -1    0    0    0    0 -0.00000000000E+00 -0.00000000000E+00 -0.45593999997E+02  0.45594000000E+02  0.51100000000E-03 0.  1.
    9900012    2    1    2    0    0 -0.28974459986E+00  0.46445527192E+00  0.10456414291E+01  0.90007730272E+02  0.89999991512E+02 0.  0.
        -12    1    1    2    0    0  0.28974459986E+00 -0.46445527192E+00 -0.10456414291E+01  0.11802697280E+01  0.00000000000E+00 0.  1.
         11    1    3    3    0    0  0.68552362433E+01 -0.13600401296E+01  0.10174198959E+01  0.70625148929E+01  0.51100000000E-03 0. -1.
        -11    1    3    3    0    0  0.71483459798E+01  0.80033109133E+01 -0.39251298650E+02  0.40691722522E+02  0.51100000000E-03 0.  1.
         12    1    3    3    0    0 -0.14293326823E+02 -0.61788155118E+01  0.39279520183E+02  0.42253492857E+02  0.00000000000E+00 0. -1.
</event>
<event>
 7    1  0.1654239E-015  0.9000775E+02  0.7816164E-02  0.1186339E+00
        -11   -1    0    0    0    0  0.00000000000E+00  0.00000000000E+00  0.45593999997E+02  0.45594000000E+02  0.51100000000E-03 0. -1.
         11   -1    0    0    0    0 -0.00000000000E+00 -0.00000000000E+00 -0.45593999997E+02  0.45594000000E+02  0.51100000000E-03 0.  1.
    9900012    2    1    2    0    0 -0.82886888512E+00 -0.83380604925E+00  0.10359870564E+00  0.90007750514E+02  0.90000012021E+02 0.  0.
        -12    1    1    2    0    0  0.82886888512E+00  0.83380604925E+00 -0.10359870564E+00  0.11802494856E+01  0.00000000000E+00 0.  1.
         11    1    3    3    0    0  0.10420372521E+01 -0.20511506402E+02  0.24823603836E+02  0.32218302937E+02  0.51100000000E-03 0. -1.
        -11    1    3    3    0    0 -0.75527164343E+01 -0.10551806307E+02  0.60186644124E+01  0.14304141479E+02  0.51100000000E-03 0.  1.
        -12    1    3    3    0    0  0.56818102971E+01  0.30229506660E+02 -0.30738669543E+02  0.43485306098E+02  0.00000000000E+00 0.  1.
</event>
<event>
 7    1  0.1654239E-015  0.9000765E+02  0.7816164E-02  0.1186339E+00
        -11   -1    0    0    0    0  0.00000000000E+00  0.00000000000E+00  0.45593999997E+02  0.45594000000E+02  0.51100000000E-03 0. -1.
         11   -1    0    0    0    0 -0.00000000000E+00 -0.00000000000E+00 -0.45593999997E+02  0.45594000000E+02  0.51100000000E-03 0.  1.
    9900012    2    1    2    0    0  0.83235040345E+00 -0.83613493427E+00 -0.36159586985E-01  0.90007645673E+02  0.89999905795E+02 0.  0.
        -12    1    1    2    0    0 -0.83235040345E+00  0.83613493427E+00  0.36159586985E-01  0.11803543274E+01  0.00000000000E+00 0.  1.
         11    1    3    3    0    0 -0.14982172444E+02  0.34665763977E+01  0.81889341907E+01  0.17422436297E+02  0.51100000000E-03 0. -1.
        -11    1    3    3    0    0 -0.12820270507E+02  0.17177811810E+02 -0.25103475454E+02  0.33009408273E+02  0.51100000000E-03 0.  1.
         12    1    3    3    0    0  0.28634793354E+02 -0.21480523142E+02  0.16878381676E+02  0.39575801103E+02  0.00000000000E+00 0. -1.
</event>
<event>
 7    1  0.1654239E-015  0.9000756E+02  0.7816164E-02  0.1186339E+00
        -11   -1    0    0    0    0  0.00000000000E+00  0.00000000000E+00  0.45593999997E+02  0.45594000000E+02  0.51100000000E-03 0.  1.
         11   -1    0    0    0    0 -0.00000000000E+00 -0.00000000000E+00 -0.45593999997E+02  0.45594000000E+02  0.51100000000E-03 0. -1.
    9900012    2    1    2    0    0  0.72415396729E+00 -0.51091963039E+00 -0.77973845127E+00  0.90007563687E+02  0.89999822727E+02 0.  0.
        -12    1    1    2    0    0 -0.72415396729E+00  0.51091963039E+00  0.77973845127E+00  0.11804363132E+01  0.00000000000E+00 0.  1.
         11    1    3    3    0    0  0.85397903233E+01  0.22193766219E+02 -0.32777348422E+02  0.40495010156E+02  0.51100000000E-03 0. -1.
        -11    1    3    3    0    0 -0.55470760602E+01  0.64525820359E+01  0.64057277505E+01  0.10650784761E+02  0.51100000000E-03 0.  1.
        -12    1    3    3    0    0 -0.22685602958E+01 -0.29157267885E+02  0.25591882220E+02  0.38861768770E+02  0.00000000000E+00 0.  1.
</event>
<event>
 7    1  0.1654239E-015  0.9000781E+02  0.7816164E-02  0.1186339E+00
        -11   -1    0    0    0    0  0.00000000000E+00  0.00000000000E+00  0.45593999997E+02  0.45594000000E+02  0.51100000000E-03 0.  1.
         11   -1    0    0    0    0 -0.00000000000E+00 -0.00000000000E+00 -0.45593999997E+02  0.45594000000E+02  0.51100000000E-03 0. -1.
    9900012    2    1    2    0    0 -0.25015874067E+00  0.11514569935E+01  0.66421901146E-01  0.90007811679E+02  0.90000073993E+02 0.  0.
        -12    1    1    2    0    0  0.25015874067E+00 -0.11514569935E+01 -0.66421901146E-01  0.11801883207E+01  0.00000000000E+00 0.  1.
         11    1    3    3    0    0 -0.44598077979E+01  0.74203951270E+01 -0.13657850928E+01  0.87645603778E+01  0.51100000000E-03 0. -1.
        -11    1    3    3    0    0  0.35009988172E+02  0.14178179822E+02  0.16631283213E+02  0.41271293128E+02  0.51100000000E-03 0.  1.
         12    1    3    3    0    0 -0.30800339115E+02 -0.20447117955E+02 -0.15199076219E+02  0.39971958173E+02  0.00000000000E+00 0. -1.
</event>
<event>
 7    1  0.1654239E-015  0.9000773E+02  0.7816164E-02  0.1186339E+00
        -11   -1    0    0    0    0  0.00000000000E+00  0.00000000000E+00  0.45593999997E+02  0.45594000000E+02  0.51100000000E-03 0. -1.
         11   -1    0    0    0    0 -0.00000000000E+00 -0.00000000000E+00 -0.45593999997E+02  0.45594000000E+02  0.51100000000E-03 0.  1.
    9900012    2    1    2    0    0 -0.68883587517E+00  0.28187493147E+00 -0.91601171794E+00  0.90007734857E+02  0.89999996157E+02 0.  0.
        -12    1    1    2    0    0  0.68883587517E+00 -0.28187493147E+00  0.91601171794E+00  0.11802651428E+01  0.00000000000E+00 0.  1.
         11    1    3    3    0    0 -0.11953693029E+02 -0.14748356991E+02 -0.84465877163E+01  0.20778586460E+02  0.51100000000E-03 0. -1.
        -11    1    3    3    0    0  0.31370353664E+01 -0.18438102936E+02 -0.18308645193E+02  0.26172717089E+02  0.51100000000E-03 0.  1.
        -12    1    3    3    0    0  0.81278217869E+01  0.33468334859E+02  0.25839221191E+02  0.43056431308E+02  0.00000000000E+00 0.  1.
</event>
<event>
 7    1  0.1654239E-015  0.9000774E+02  0.7816164E-02  0.1186339E+00
        -11   -1    0    0    0    0  0.00000000000E+00  0.00000000000E+00  0.45593999997E+02  0.45594000000E+02  0.51100000000E-03 0.  1.
         11   -1    0    0    0    0 -0.00000000000E+00 -0.00000000000E+00 -0.45593999997E+02  0.45594000000E+02  0.51100000000E-03 0. -1.
    9900012    2    1    2    0    0  0.31216496235E+00  0.91253519579E+00  0.68032303235E+00  0.90007742877E+02  0.90000004283E+02 0.  0.
        -12    1    1    2    0    0 -0.31216496235E+00 -0.91253519579E+00 -0.68032303235E+00  0.11802571227E+01  0.00000000000E+00 0.  1.
         11    1    3    3    0    0  0.64808693459E+01 -0.10523841086E+02 -0.35724315769E+02  0.37801846994E+02  0.51100000000E-03 0. -1.
        -11    1    3    3    0    0  0.83550342785E+00  0.72412968586E+01 -0.57398000006E+01  0.92779173569E+01  0.51100000000E-03 0.  1.
        -12    1    3    3    0    0 -0.70042078114E+01  0.41950794233E+01  0.42144438802E+02  0.42927978527E+02  0.00000000000E+00 0.  1.
</event>
<event>
 7    1  0.1654239E-015  0.9000776E+02  0.7816164E-02  0.1186339E+00
        -11   -1    0    0    0    0  0.00000000000E+00  0.00000000000E+00  0.45593999997E+02  0.45594000000E+02  0.51100000000E-03 0.  1.
         11   -1    0    0    0    0 -0.00000000000E+00 -0.00000000000E+00 -0.45593999997E+02  0.45594000000E+02  0.51100000000E-03 0. -1.
    9900012    2    1    2    0    0 -0.11719177433E+00  0.11388737103E+01 -0.28668881332E+00  0.90007763703E+02  0.90000025384E+02 0.  0.
        -12    1    1    2    0    0  0.11719177433E+00 -0.11388737103E+01  0.28668881332E+00  0.11802362965E+01  0.00000000000E+00 0.  1.
         11    1    3    3    0    0 -0.48940375488E+01 -0.31001726231E+01  0.91547848371E+01  0.10833870938E+02  0.51100000000E-03 0. -1.
        -11    1    3    3    0    0 -0.12343758915E+02  0.30636879009E+02  0.17830870361E+02  0.37535672069E+02  0.51100000000E-03 0.  1.
         12    1    3    3    0    0  0.17120604689E+02 -0.26397832676E+02 -0.27272344011E+02  0.41638220697E+02  0.00000000000E+00 0. -1.
</event>
<event>
 7    1  0.1654239E-015  0.9000791E+02  0.7816164E-02  0.1186339E+00
        -11   -1    0    0    0    0  0.00000000000E+00  0.00000000000E+00  0.45593999997E+02  0.45594000000E+02  0.51100000000E-03 0.  1.
         11   -1    0    0    0    0 -0.00000000000E+00 -0.00000000000E+00 -0.45593999997E+02  0.45594000000E+02  0.51100000000E-03 0. -1.
    9900012    2    1    2    0    0  0.97903390874E+00  0.21088696111E+00 -0.62420932554E+00  0.90007907636E+02  0.90000171217E+02 0.  0.
        -12    1    1    2    0    0 -0.97903390874E+00 -0.21088696111E+00  0.62420932554E+00  0.11800923637E+01  0.00000000000E+00 0.  1.
         11    1    3    3    0    0 -0.95954222436E+01  0.74606620406E+01 -0.31324342383E+02  0.33599821906E+02  0.51100000000E-03 0. -1.
        -11    1    3    3    0    0  0.23868643327E+00 -0.25098481037E+01 -0.11978356952E+02  0.12240806520E+02  0.51100000000E-03 0.  1.
        -12    1    3    3    0    0  0.10335769719E+02 -0.47399269758E+01  0.42678490009E+02  0.44167279211E+02  0.00000000000E+00 0.  1.
</event>
<event>
 7    1  0.1654239E-015  0.9000773E+02  0.7816164E-02  0.1186339E+00
        -11   -1    0    0    0    0  0.00000000000E+00  0.00000000000E+00  0.45593999997E+02  0.45594000000E+02  0.51100000000E-03 0.  1.
         11   -1    0    0    0    0 -0.00000000000E+00 -0.00000000000E+00 -0.45593999997E+02  0.45594000000E+02  0.51100000000E-03 0. -1.
    9900012    2    1    2    0    0 -0.26365251795E+00 -0.10613217663E+01 -0.44398209948E+00  0.90007730265E+02  0.89999991505E+02 0.  0.
        -12    1    1    2    0    0  0.26365251795E+00  0.10613217663E+01  0.44398209948E+00  0.11802697347E+01  0.00000000000E+00 0.  1.
         11    1    3    3    0    0 -0.37234679419E+01  0.72115925546E+01 -0.90379304860E+00  0.81662796195E+01  0.51100000000E-03 0. -1.
        -11    1    3    3    0    0 -0.22588701887E+02 -0.35688902879E+02  0.87316046647E+01  0.43129898701E+02  0.51100000000E-03 0.  1.
         12    1    3    3    0    0  0.26048517311E+02  0.27415988558E+02 -0.82717937156E+01  0.38711551945E+02  0.00000000000E+00 0. -1.
</event>
<event>
 7    1  0.1654239E-015  0.9000761E+02  0.7816164E-02  0.1186339E+00
        -11   -1    0    0    0    0  0.00000000000E+00  0.00000000000E+00  0.45593999997E+02  0.45594000000E+02  0.51100000000E-03 0. -1.
         11   -1    0    0    0    0 -0.00000000000E+00 -0.00000000000E+00 -0.45593999997E+02  0.45594000000E+02  0.51100000000E-03 0.  1.
    9900012    2    1    2    0    0  0.87066580045E+00 -0.54190326127E+00  0.58446062380E+00  0.90007613495E+02  0.89999873193E+02 0.  0.
        -12    1    1    2    0    0 -0.87066580045E+00  0.54190326127E+00 -0.58446062380E+00  0.11803865051E+01  0.00000000000E+00 0.  1.
         11    1    3    3    0    0 -0.63370374037E+01  0.29578531795E+01  0.42746045060E+01  0.81962907727E+01  0.51100000000E-03 0. -1.
        -11    1    3    3    0    0 -0.36616225865E+02  0.38881832873E+01  0.26581335745E+01  0.36917904060E+02  0.51100000000E-03 0.  1.
         12    1    3    3    0    0  0.43823929069E+02 -0.73879397280E+01 -0.63482774567E+01  0.44893418662E+02  0.00000000000E+00 0. -1.
</event>
<event>
 7    1  0.1654239E-015  0.9000773E+02  0.7816164E-02  0.1186339E+00
        -11   -1    0    0    0    0  0.00000000000E+00  0.00000000000E+00  0.45593999997E+02  0.45594000000E+02  0.51100000000E-03 0.  1.
         11   -1    0    0    0    0 -0.00000000000E+00 -0.00000000000E+00 -0.45593999997E+02  0.45594000000E+02  0.51100000000E-03 0. -1.
    9900012    2    1    2    0    0  0.10830103189E+01  0.41132151150E+00  0.22568296549E+00  0.90007733277E+02  0.89999994556E+02 0.  0.
        -12    1    1    2    0    0 -0.10830103189E+01 -0.41132151150E+00 -0.22568296549E+00  0.11802667231E+01  0.00000000000E+00 0.  1.
         11    1    3    3    0    0  0.59248642167E+01 -0.10676910199E+02 -0.87799620263E+01  0.15039553212E+02  0.51100000000E-03 0. -1.
        -11    1    3    3    0    0  0.29004751833E+02  0.18251791858E+02  0.18699444655E+02  0.39039374554E+02  0.51100000000E-03 0.  1.
         12    1    3    3    0    0 -0.33846605731E+02 -0.71635601478E+01 -0.96937996632E+01  0.35928805510E+02  0.00000000000E+00 0. -1.
</event>
<event>
 7    1  0.1654239E-015  0.9000769E+02  0.7816164E-02  0.1186339E+00
        -11   -1    0    0    0    0  0.00000000000E+00  0.00000000000E+00  0.45593999997E+02  0.45594000000E+02  0.51100000000E-03 0.  1.
         11   -1    0    0    0    0 -0.00000000000E+00 -0.00000000000E+00 -0.45593999997E+02  0.45594000000E+02  0.51100000000E-03 0. -1.
    9900012    2    1    2    0    0 -0.32104991565E+00 -0.89449155536E+00 -0.69995611066E+00  0.90007692096E+02  0.89999952832E+02 0.  0.
        -12    1    1    2    0    0  0.32104991565E+00  0.89449155536E+00  0.69995611066E+00  0.11803079038E+01  0.00000000000E+00 0.  1.
         11    1    3    3    0    0 -0.55191194693E+01 -0.13283638421E+02 -0.19587727695E+02  0.24302156405E+02  0.51100000000E-03 0. -1.
        -11    1    3    3    0    0  0.94788333719E+01  0.12724651009E+02 -0.20590252257E+02  0.25994682411E+02  0.51100000000E-03 0.  1.
         12    1    3    3    0    0 -0.42807638183E+01 -0.33550414407E+00  0.39478023841E+02  0.39710853280E+02  0.00000000000E+00 0. -1.
</event>
<event>
 7    1  0.1654239E-015  0.9000774E+02  0.7816164E-02  0.1186339E+00
        -11   -1    0    0    0    0  0.00000000000E+00  0.00000000000E+00  0.45593999997E+02  0.45594000000E+02  0.51100000000E-03 0.  1.
         11   -1    0    0    0    0 -0.00000000000E+00 -0.00000000000E+00 -0.45593999997E+02  0.45594000000E+02  0.51100000000E-03 0. -1.
    9900012    2    1    2    0    0 -0.11442673219E+01  0.24271198470E+00 -0.15736746494E+00  0.90007736754E+02  0.89999998079E+02 0.  0.
        -12    1    1    2    0    0  0.11442673219E+01 -0.24271198470E+00  0.15736746494E+00  0.11802632462E+01  0.00000000000E+00 0.  1.
         11    1    3    3    0    0  0.33154380730E+01 -0.40498568916E+02 -0.98451793132E+01  0.41809732956E+02  0.51100000000E-03 0. -1.
        -11    1    3    3    0    0 -0.26991816738E+01 -0.33014752637E+00  0.64045774574E+01  0.69579588793E+01  0.51100000000E-03 0.  1.
        -12    1    3    3    0    0 -0.17605237211E+01  0.41071428427E+02  0.32832343909E+01  0.41240044919E+02  0.00000000000E+00 0.  1.
</event>
<event>
 7    1  0.1654239E-015  0.9000789E+02  0.7816164E-02  0.1186339E+00
        -11   -1    0    0    0    0  0.00000000000E+00  0.00000000000E+00  0.45593999997E+02  0.45594000000E+02  0.51100000000E-03 0. -1.
         11   -1    0    0    0    0 -0.00000000000E+00 -0.00000000000E+00 -0.45593999997E+02  0.45594000000E+02  0.51100000000E-03 0.  1.
    9900012    2    1    2    0    0  0.10555732138E+01  0.32915826298E+00  0.41240123861E+00  0.90007892059E+02  0.90000155434E+02 0.  0.
        -12    1    1    2    0    0 -0.10555732138E+01 -0.32915826298E+00 -0.41240123861E+00  0.11801079414E+01  0.00000000000E+00 0.  1.
         11    1    3    3    0    0  0.21316274018E+02  0.32259239180E+02  0.15066035920E+02  0.41497319059E+02  0.51100000000E-03 0. -1.
        -11    1    3    3    0    0  0.65229993527E+01 -0.78722813664E+01 -0.26700542188E+01  0.10566528487E+02  0.51100000000E-03 0.  1.
        -12    1    3    3    0    0 -0.26783700157E+02 -0.24057799550E+02 -0.11983580463E+02  0.37944044513E+02  0.00000000000E+00 0.  1.
</event>
<event>
 7    1  0.1654239E-015  0.9000791E+02  0.7816164E-02  0.1186339E+00
        -11   -1    0    0    0    0  0.00000000000E+00  0.00000000000E+00  0.45593999997E+02  0.45594000000E+02  0.51100000000E-03 0.  1.
         11   -1    0    0    0    0 -0.00000000000E+00 -0.00000000000E+00 -0.45593999997E+02  0.45594000000E+02  0.51100000000E-03 0. -1.
    9900012    2    1    2    0    0  0.51830319873E+00  0.81488666578E+00 -0.67818948194E+00  0.90007907013E+02  0.90000170586E+02 0.  0.
        -12    1    1    2    0    0 -0.51830319873E+00 -0.81488666578E+00  0.67818948194E+00  0.11800929867E+01  0.00000000000E+00 0.  1.
         11    1    3    3    0    0 -0.31734976978E+01  0.44813365485E+01  0.99251293423E+01  0.11342912220E+02  0.51100000000E-03 0. -1.
        -11    1    3    3    0    0 -0.16377452611E+02 -0.34553776491E+01  0.29444463160E+02  0.33869410975E+02  0.51100000000E-03 0.  1.
         12    1    3    3    0    0  0.20069253508E+02 -0.21107223364E+00 -0.40047781984E+02  0.44795583819E+02  0.00000000000E+00 0. -1.
</event>
<event>
 7    1  0.1654239E-015  0.9000773E+02  0.7816164E-02  0.1186339E+00
        -11   -1    0    0    0    0  0.00000000000E+00  0.00000000000E+00  0.45593999997E+02  0.45594000000E+02  0.51100000000E-03 0.  1.
         11   -1    0    0    0    0 -0.00000000000E+00 -0.00000000000E+00 -0.45593999997E+02  0.45594000000E+02  0.51100000000E-03 0. -1.
    9900012    2    1    2    0    0  0.59711061096E-01  0.40433072606E+00 -0.11072488776E+01  0.90007725107E+02  0.89999986278E+02 0.  0.
        -12    1    1    2    0    0 -0.59711061096E-01 -0.40433072606E+00  0.11072488776E+01  0.11802748933E+01  0.00000000000E+00 0.  1.
         11    1    3    3    0    0 -0.21105962020E+01 -0.63339321852E+01 -0.65681877647E+01  0.93655968325E+01  0.51100000000E-03 0. -1.
        -11    1    3    3    0    0  0.39798780794E+02 -0.27114705107E+01 -0.56413041025E+01  0.40287955238E+02  0.51100000000E-03 0.  1.
         12    1    3    3    0    0 -0.37628473531E+02  0.94497334220E+01  0.11102242990E+02  0.40354173036E+02  0.00000000000E+00 0. -1.
</event>
<event>
 7    1  0.1654239E-015  0.9000762E+02  0.7816164E-02  0.1186339E+00
        -11   -1    0    0    0    0  0.00000000000E+00  0.00000000000E+00  0.45593999997E+02  0.45594000000E+02  0.51100000000E-03 0.  1.
         11   -1    0    0    0    0 -0.00000000000E+00 -0.00000000000E+00 -0.45593999997E+02  0.45594000000E+02  0.51100000000E-03 0. -1.
    9900012    2    1    2    0    0 -0.78000388460E+00  0.18139087540E+00  0.86717755136E+00  0.90007616327E+02  0.89999876063E+02 0.  0.
        -12    1    1    2    0    0  0.78000388460E+00 -0.18139087540E+00 -0.86717755136E+00  0.11803836729E+01  0.00000000000E+00 0.  1.
         11    1    3    3    0    0  0.50361479489E+01 -0.49417737507E+01 -0.25824559544E+02  0.26771099900E+02  0.51100000000E-03 0. -1.
        -11    1    3    3    0    0  0.16229576094E+02  0.11478764395E+02 -0.81783599538E+01  0.21495272597E+02  0.51100000000E-03 0.  1.
        -12    1    3    3    0    0 -0.22045727927E+02 -0.63555997690E+01  0.34870097049E+02  0.41741243830E+02  0.00000000000E+00 0.  1.
</event>
<event>
 7    1  0.1654239E-015  0.9000812E+02  0.7816164E-02  0.1186338E+00
        -11   -1    0    0    0    0  0.00000000000E+00  0.00000000000E+00  0.45593999997E+02  0.45594000000E+02  0.51100000000E-03 0.  1.
         11   -1    0    0    0    0 -0.00000000000E+00 -0.00000000000E+00 -0.45593999997E+02  0.45594000000E+02  0.51100000000E-03 0. -1.
    9900012    2    1    2    0    0 -0.41392569303E+00 -0.29447922788E+00 -0.10649224817E+01  0.90008121876E+02  0.90000388284E+02 0.  0.
        -12    1    1    2    0    0  0.41392569303E+00  0.29447922788E+00  0.10649224817E+01  0.11798781238E+01  0.00000000000E+00 0.  1.
         11    1    3    3    0    0  0.46649208339E+01 -0.72685370838E+01 -0.30870959577E+01  0.91718743688E+01  0.51100000000E-03 0. -1.
        -11    1    3    3    0    0  0.12785977577E+02 -0.91806867287E+01  0.35940337551E+02  0.39236132518E+02  0.51100000000E-03 0.  1.
         12    1    3    3    0    0 -0.17864824104E+02  0.16154744585E+02 -0.33918164076E+02  0.41600114989E+02  0.00000000000E+00 0. -1.
</event>
<event>
 7    1  0.1654239E-015  0.9000776E+02  0.7816164E-02  0.1186339E+00
        -11   -1    0    0    0    0  0.00000000000E+00  0.00000000000E+00  0.45593999997E+02  0.45594000000E+02  0.51100000000E-03 0. -1.
         11   -1    0    0    0    0 -0.00000000000E+00 -0.00000000000E+00 -0.45593999997E+02  0.45594000000E+02  0.51100000000E-03 0.  1.
    9900012    2    1    2    0    0 -0.73554884805E+00 -0.85251127917E+00  0.35377972547E+00  0.90007759481E+02  0.90000021106E+02 0.  0.
        -12    1    1    2    0    0  0.73554884805E+00  0.85251127917E+00 -0.35377972547E+00  0.11802405192E+01  0.00000000000E+00 0.  1.
         11    1    3    3    0    0 -0.38435636888E+01  0.26717606559E+01  0.74241150510E+01  0.87766036361E+01  0.51100000000E-03 0. -1.
        -11    1    3    3    0    0 -0.32592152873E+02  0.18304548134E+02  0.49182597352E+01  0.37702707998E+02  0.51100000000E-03 0.  1.
         12    1    3    3    0    0  0.35700167714E+02 -0.21828820069E+02 -0.11988595061E+02  0.43528447847E+02  0.00000000000E+00 0. -1.
</event>
<event>
 7    1  0.1654239E-015  0.9000781E+02  0.7816164E-02  0.1186339E+00
        -11   -1    0    0    0    0  0.00000000000E+00  0.00000000000E+00  0.45593999997E+02  0.45594000000E+02  0.51100000000E-03 0. -1.
         11   -1    0    0    0    0 -0.00000000000E+00 -0.00000000000E+00 -0.45593999997E+02  0.45594000000E+02  0.51100000000E-03 0.  1.
    9900012    2    1    2    0    0  0.71618347746E-01  0.96838494797E+00  0.67078204675E+00  0.90007810545E+02  0.90000072844E+02 0.  0.
        -12    1    1    2    0    0 -0.71618347746E-01 -0.96838494797E+00 -0.67078204675E+00  0.11801894549E+01  0.00000000000E+00 0.  1.
         11    1    3    3    0    0 -0.27988706683E+02 -0.25692154726E+02  0.84366276946E+01  0.38918263108E+02  0.51100000000E-03 0. -1.
        -11    1    3    3    0    0 -0.16020024701E+01 -0.13091229525E+01 -0.10045490546E+02  0.10256319778E+02  0.51100000000E-03 0.  1.
        -12    1    3    3    0    0  0.29662327501E+02  0.27969662626E+02  0.22796448976E+01  0.40833227659E+02  0.00000000000E+00 0.  1.
</event>
<event>
 7    1  0.1654239E-015  0.9000772E+02  0.7816164E-02  0.1186339E+00
        -11   -1    0    0    0    0  0.00000000000E+00  0.00000000000E+00  0.45593999997E+02  0.45594000000E+02  0.51100000000E-03 0.  1.
         11   -1    0    0    0    0 -0.00000000000E+00 -0.00000000000E+00 -0.45593999997E+02  0.45594000000E+02  0.51100000000E-03 0. -1.
    9900012    2    1    2    0    0  0.23329197293E+00  0.77113381731E+00 -0.86254240696E+00  0.90007723798E+02  0.89999984952E+02 0.  0.
        -12    1    1    2    0    0 -0.23329197293E+00 -0.77113381731E+00  0.86254240696E+00  0.11802762018E+01  0.00000000000E+00 0.  1.
         11    1    3    3    0    0  0.12571597548E+01  0.83622931521E+01  0.26694930774E+01  0.88676147279E+01  0.51100000000E-03 0. -1.
        -11    1    3    3    0    0  0.46177555590E+00 -0.23424205905E+02  0.33475932137E+02  0.40860062306E+02  0.51100000000E-03 0.  1.
         12    1    3    3    0    0 -0.14856433378E+01  0.15833046571E+02 -0.37007967622E+02  0.40280046764E+02  0.00000000000E+00 0. -1.
</event>
<event>
 7    1  0.1654239E-015  0.9000790E+02  0.7816164E-02  0.1186339E+00
        -11   -1    0    0    0    0  0.00000000000E+00  0.00000000000E+00  0.45593999997E+02  0.45594000000E+02  0.51100000000E-03 0. -1.
         11   -1    0    0    0    0 -0.00000000000E+00 -0.00000000000E+00 -0.45593999997E+02  0.45594000000E+02  0.51100000000E-03 0.  1.
    9900012    2    1    2    0    0  0.73295578866E+00  0.51551852560E+00  0.76788650619E+00  0.90007901180E+02  0.90000164676E+02 0.  0.
        -12    1    1    2    0    0 -0.73295578866E+00 -0.51551852560E+00 -0.76788650619E+00  0.11800988199E+01  0.00000000000E+00 0.  1.
         11    1    3    3    0    0 -0.81414642444E+01 -0.39004259802E+02 -0.77402999144E+01  0.40589751979E+02  0.51100000000E-03 0. -1.
        -11    1    3    3    0    0 -0.75804517200E+01  0.39866072043E+01 -0.21593952648E+01  0.88328519433E+01  0.51100000000E-03 0.  1.
        -12    1    3    3    0    0  0.16454871753E+02  0.35533171123E+02  0.10667581685E+02  0.40585297258E+02  0.00000000000E+00 0.  1.
</event>
<event>
 7    1  0.1654239E-015  0.9000774E+02  0.7816164E-02  0.1186339E+00
        -11   -1    0    0    0    0  0.00000000000E+00  0.00000000000E+00  0.45593999997E+02  0.45594000000E+02  0.51100000000E-03 0. -1.
         11   -1    0    0    0    0 -0.00000000000E+00 -0.00000000000E+00 -0.45593999997E+02  0.45594000000E+02  0.51100000000E-03 0.  1.
    9900012    2    1    2    0    0  0.82238973658E+00 -0.69291382025E+00  0.48638321692E+00  0.90007736015E+02  0.89999997330E+02 0.  0.
        -12    1    1    2    0    0 -0.82238973658E+00  0.69291382025E+00 -0.48638321692E+00  0.11802639852E+01  0.00000000000E+00 0.  1.
         11    1    3    3    0    0 -0.22923274956E+02  0.18784710428E+02  0.27694365256E+02  0.40562541189E+02  0.51100000000E-03 0. -1.
        -11    1    3    3    0    0 -0.21978720172E+01  0.45065697287E+01 -0.74041437765E+01  0.89421002817E+01  0.51100000000E-03 0.  1.
        -12    1    3    3    0    0  0.25943536710E+02 -0.23984193977E+02 -0.19803838262E+02  0.40503094544E+02  0.00000000000E+00 0.  1.
</event>
<event>
 7    1  0.1654239E-015  0.9000775E+02  0.7816164E-02  0.1186339E+00
        -11   -1    0    0    0    0  0.00000000000E+00  0.00000000000E+00  0.45593999997E+02  0.45594000000E+02  0.51100000000E-03 0. -1.
         11   -1    0    0    0    0 -0.00000000000E+00 -0.00000000000E+00 -0.45593999997E+02  0.45594000000E+02  0.51100000000E-03 0.  1.
    9900012    2    1    2    0    0  0.74529075302E+00 -0.91019643837E+00 -0.95228014614E-01  0.90007752468E+02  0.90000014000E+02 0.  0.
        -12    1    1    2    0    0 -0.74529075302E+00  0.91019643837E+00  0.95228014614E-01  0.11802475324E+01  0.00000000000E+00 0.  1.
         11    1    3    3    0    0 -0.88305189299E+01  0.39773340141E+01 -0.36927178745E+00  0.96919354283E+01  0.51100000000E-03 0. -1.
        -11    1    3    3    0    0  0.28564092765E+01 -0.25067294006E+02 -0.32562504825E+02  0.41192778779E+02  0.51100000000E-03 0.  1.
         12    1    3    3    0    0  0.67194004064E+01  0.20179763553E+02  0.32836548598E+02  0.39123038261E+02  0.00000000000E+00 0. -1.
</event>
<event>
 7    1  0.1654239E-015  0.9000774E+02  0.7816164E-02  0.1186339E+00
        -11   -1    0    0    0    0  0.00000000000E+00  0.00000000000E+00  0.45593999997E+02  0.45594000000E+02  0.51100000000E-03 0.  1.
         11   -1    0    0    0    0 -0.00000000000E+00 -0.00000000000E+00 -0.45593999997E+02  0.45594000000E+02  0.51100000000E-03 0. -1.
    9900012    2    1    2    0    0  0.11194478568E+01  0.29313562444E+00  0.23219135064E+00  0.90007743747E+02  0.90000005165E+02 0.  0.
        -12    1    1    2    0    0 -0.11194478568E+01 -0.29313562444E+00 -0.23219135064E+00  0.11802562526E+01  0.00000000000E+00 0.  1.
         11    1    3    3    0    0 -0.30345506171E+00 -0.70308615843E+01 -0.49910384339E+01  0.86276047952E+01  0.51100000000E-03 0. -1.
        -11    1    3    3    0    0  0.25274380661E+02  0.44856273607E+01 -0.29534324314E+02  0.39130441903E+02  0.51100000000E-03 0.  1.
         12    1    3    3    0    0 -0.23851477742E+02  0.28383698480E+01  0.34757554098E+02  0.42249697049E+02  0.00000000000E+00 0. -1.
</event>
<event>
 7    1  0.1654239E-015  0.9000771E+02  0.7816164E-02  0.1186339E+00
        -11   -1    0    0    0    0  0.00000000000E+00  0.00000000000E+00  0.45593999997E+02  0.45594000000E+02  0.51100000000E-03 0. -1.
         11   -1    0    0    0    0 -0.00000000000E+00 -0.00000000000E+00 -0.45593999997E+02  0.45594000000E+02  0.51100000000E-03 0.  1.
    9900012    2    1    2    0    0 -0.61421895469E+00 -0.84787963118E+00 -0.54490197784E+00  0.90007710646E+02  0.89999971627E+02 0.  0.
        -12    1    1    2    0    0  0.61421895469E+00  0.84787963118E+00  0.54490197784E+00  0.11802893538E+01  0.00000000000E+00 0.  1.
         11    1    3    3    0    0 -0.37312244909E+01  0.37167911153E+01  0.70170783056E+01  0.87735945087E+01  0.51100000000E-03 0. -1.
        -11    1    3    3    0    0 -0.18675712943E+02  0.31094886174E+02 -0.14134677055E+02  0.38928951898E+02  0.51100000000E-03 0.  1.
         12    1    3    3    0    0  0.21792718479E+02 -0.35659556921E+02  0.65726967715E+01  0.42305164240E+02  0.00000000000E+00 0. -1.
</event>
<event>
 7    1  0.1654239E-015  0.9000773E+02  0.7816164E-02  0.1186339E+00
        -11   -1    0    0    0    0  0.00000000000E+00  0.00000000000E+00  0.45593999997E+02  0.45594000000E+02  0.51100000000E-03 0.  1.
         11   -1    0    0    0    0 -0.00000000000E+00 -0.00000000000E+00 -0.45593999997E+02  0.45594000000E+02  0.51100000000E-03 0. -1.
    9900012    2    1    2    0    0 -0.26326573038E+00  0.21381324848E+00 -0.11304972634E+01  0.90007725027E+02  0.89999986197E+02 0.  0.
        -12    1    1    2    0    0  0.26326573038E+00 -0.21381324848E+00  0.11304972634E+01  0.11802749733E+01  0.00000000000E+00 0.  1.
         11    1    3    3    0    0  0.10581345264E+02 -0.27155479983E+02 -0.21805667258E+02  0.36398792363E+02  0.51100000000E-03 0. -1.
        -11    1    3    3    0    0  0.29489442424E+01 -0.87283513526E+01 -0.10577848342E+01  0.92735806728E+01  0.51100000000E-03 0.  1.
        -12    1    3    3    0    0 -0.13793555237E+02  0.36097644584E+02  0.21732954828E+02  0.44335351991E+02  0.00000000000E+00 0.  1.
</event>
<event>
 7    1  0.1654239E-015  0.9000780E+02  0.7816164E-02  0.1186339E+00
        -11   -1    0    0    0    0  0.00000000000E+00  0.00000000000E+00  0.45593999997E+02  0.45594000000E+02  0.51100000000E-03 0. -1.
         11   -1    0    0    0    0 -0.00000000000E+00 -0.00000000000E+00 -0.45593999997E+02  0.45594000000E+02  0.51100000000E-03 0.  1.
    9900012    2    1    2    0    0 -0.10040324799E+01  0.45938382325E+00  0.41685528526E+00  0.90007795337E+02  0.90000057435E+02 0.  0.
        -12    1    1    2    0    0  0.10040324799E+01 -0.45938382325E+00 -0.41685528526E+00  0.11802046630E+01  0.00000000000E+00 0.  1.
         11    1    3    3    0    0  0.19983858421E+02 -0.14042121847E+02 -0.20094655733E+02  0.31628009306E+02  0.51100000000E-03 0. -1.
        -11    1    3    3    0    0 -0.22772356600E+02  0.13501585953E+02 -0.96284043825E+01  0.28170538148E+02  0.51100000000E-03 0.  1.
         12    1    3    3    0    0  0.17844656988E+01  0.99991971820E+00  0.30139915401E+02  0.30209247883E+02  0.00000000000E+00 0. -1.
</event>
<event>
 7    1  0.2515956E-015  0.9000776E+02  0.7816164E-02  0.1186339E+00
        -11   -1    0    0    0    0  0.00000000000E+00  0.00000000000E+00  0.45593999997E+02  0.45594000000E+02  0.51100000000E-03 0. -1.
         11   -1    0    0    0    0 -0.00000000000E+00 -0.00000000000E+00 -0.45593999997E+02  0.45594000000E+02  0.51100000000E-03 0.  1.
    9900012    2    1    2    0    0 -0.10897209202E+01 -0.18262765390E+00  0.41487107440E+00  0.90007761654E+02  0.90000023308E+02 0.  0.
        -12    1    1    2    0    0  0.10897209202E+01  0.18262765390E+00 -0.41487107440E+00  0.11802383455E+01  0.00000000000E+00 0.  1.
         11    1    3    3    0    0  0.16425152495E+02 -0.18511471689E+02  0.29774662475E+02  0.38716801835E+02  0.51100000000E-03 0. -1.
        -11    1    3    3    0    0 -0.41998730940E+01 -0.83109301551E+01  0.22158452387E+00  0.93144830244E+01  0.51100000000E-03 0.  1.
        -12    1    3    3    0    0 -0.13315000321E+02  0.26639774191E+02 -0.29581375925E+02  0.41976476795E+02  0.00000000000E+00 0.  1.
</event>
<event>
 7    1  0.1654239E-015  0.9000766E+02  0.7816164E-02  0.1186339E+00
        -11   -1    0    0    0    0  0.00000000000E+00  0.00000000000E+00  0.45593999997E+02  0.45594000000E+02  0.51100000000E-03 0.  1.
         11   -1    0    0    0    0 -0.00000000000E+00 -0.00000000000E+00 -0.45593999997E+02  0.45594000000E+02  0.51100000000E-03 0. -1.
    9900012    2    1    2    0    0 -0.32114336391E+00 -0.17180167453E+00 -0.11227472180E+01  0.90007656749E+02  0.89999917018E+02 0.  0.
        -12    1    1    2    0    0  0.32114336391E+00  0.17180167453E+00  0.11227472180E+01  0.11803432513E+01  0.00000000000E+00 0.  1.
         11    1    3    3    0    0  0.83783005707E+01 -0.70904821340E+01  0.15522500271E+01  0.11085140403E+02  0.51100000000E-03 0. -1.
        -11    1    3    3    0    0 -0.29243100482E+01 -0.33657589929E+02  0.11294013461E+02  0.35622179740E+02  0.51100000000E-03 0.  1.
         12    1    3    3    0    0 -0.57751338865E+01  0.40576270389E+02 -0.13969010706E+02  0.43300336606E+02  0.00000000000E+00 0. -1.
</event>
<event>
 7    1  0.1654239E-015  0.9000705E+02  0.7816164E-02  0.1186340E+00
        -11   -1    0    0    0    0  0.00000000000E+00  0.00000000000E+00  0.45593999997E+02  0.45594000000E+02  0.51100000000E-03 0. -1.
         11   -1    0    0    0    0 -0.00000000000E+00 -0.00000000000E+00 -0.45593999997E+02  0.45594000000E+02  0.51100000000E-03 0.  1.
    9900012    2    1    2    0    0  0.94666341900E+00 -0.67872410856E+00 -0.19443891985E+00  0.90007049308E+02  0.89999301556E+02 0.  0.
        -12    1    1    2    0    0 -0.94666341900E+00  0.67872410856E+00  0.19443891985E+00  0.11809506924E+01  0.00000000000E+00 0.  1.
         11    1    3    3    0    0  0.52565923515E+01 -0.54660669524E+00  0.74252127457E+01  0.91139632767E+01  0.51100000000E-03 0. -1.
        -11    1    3    3    0    0  0.81530335819E+01 -0.14292592181E+02 -0.40093054378E+02  0.43338241283E+02  0.51100000000E-03 0.  1.
         12    1    3    3    0    0 -0.12462962514E+02  0.14160474768E+02  0.32473402713E+02  0.37554844748E+02  0.00000000000E+00 0. -1.
</event>
<event>
 7    1  0.1654239E-015  0.9000777E+02  0.7816164E-02  0.1186339E+00
        -11   -1    0    0    0    0  0.00000000000E+00  0.00000000000E+00  0.45593999997E+02  0.45594000000E+02  0.51100000000E-03 0. -1.
         11   -1    0    0    0    0 -0.00000000000E+00 -0.00000000000E+00 -0.45593999997E+02  0.45594000000E+02  0.51100000000E-03 0.  1.
    9900012    2    1    2    0    0 -0.10601311621E+00  0.46612346088E+00  0.10790922172E+01  0.90007767025E+02  0.90000028750E+02 0.  0.
        -12    1    1    2    0    0  0.10601311621E+00 -0.46612346088E+00 -0.10790922172E+01  0.11802329748E+01  0.00000000000E+00 0.  1.
         11    1    3    3    0    0 -0.88314330755E+01 -0.98350556729E+00 -0.24912343244E+01  0.92286370656E+01  0.51100000000E-03 0. -1.
        -11    1    3    3    0    0 -0.12693073018E+02  0.29955606494E+02 -0.19857505026E+02  0.38115259007E+02  0.51100000000E-03 0.  1.
         12    1    3    3    0    0  0.21418492978E+02 -0.28505977465E+02  0.23427831568E+02  0.42663870953E+02  0.00000000000E+00 0. -1.
</event>
<event>
 7    1  0.1654239E-015  0.9000744E+02  0.7816164E-02  0.1186340E+00
        -11   -1    0    0    0    0  0.00000000000E+00  0.00000000000E+00  0.45593999997E+02  0.45594000000E+02  0.51100000000E-03 0.  1.
         11   -1    0    0    0    0 -0.00000000000E+00 -0.00000000000E+00 -0.45593999997E+02  0.45594000000E+02  0.51100000000E-03 0. -1.
    9900012    2    1    2    0    0 -0.95836160261E+00  0.54803073900E+00  0.41824560891E+00  0.90007439099E+02  0.89999696494E+02 0.  0.
        -12    1    1    2    0    0  0.95836160261E+00 -0.54803073900E+00 -0.41824560891E+00  0.11805609013E+01  0.00000000000E+00 0.  1.
         11    1    3    3    0    0  0.10038322118E+02  0.24446196223E+01  0.92530523181E+00  0.10373054809E+02  0.51100000000E-03 0. -1.
        -11    1    3    3    0    0  0.24446248477E+02  0.24966809358E+02 -0.31434427292E+01  0.35083355976E+02  0.51100000000E-03 0.  1.
         12    1    3    3    0    0 -0.35442932198E+02 -0.26863398241E+02  0.26363831063E+01  0.44551028313E+02  0.00000000000E+00 0. -1.
</event>
<event>
 7    1  0.1654239E-015  0.9000745E+02  0.7816164E-02  0.1186340E+00
        -11   -1    0    0    0    0  0.00000000000E+00  0.00000000000E+00  0.45593999997E+02  0.45594000000E+02  0.51100000000E-03 0.  1.
         11   -1    0    0    0    0 -0.00000000000E+00 -0.00000000000E+00 -0.45593999997E+02  0.45594000000E+02  0.51100000000E-03 0. -1.
    9900012    2    1    2    0    0 -0.11389447456E+01  0.28356610503E+00 -0.12688212766E+00  0.90007447611E+02  0.89999705119E+02 0.  0.
        -12    1    1    2    0    0  0.11389447456E+01 -0.28356610503E+00  0.12688212766E+00  0.11805523892E+01  0.00000000000E+00 0.  1.
         11    1    3    3    0    0  0.12995999983E+02  0.20361604249E+02 -0.28240293625E+02  0.37161877340E+02  0.51100000000E-03 0. -1.
        -11    1    3    3    0    0  0.88556551315E+01 -0.11629995884E+01 -0.33408134480E+01  0.95360490040E+01  0.51100000000E-03 0.  1.
        -12    1    3    3    0    0 -0.22990599860E+02 -0.18915038555E+02  0.31454224946E+02  0.43309521267E+02  0.00000000000E+00 0.  1.
</event>
<event>
 7    1  0.1654239E-015  0.9000763E+02  0.7816164E-02  0.1186339E+00
        -11   -1    0    0    0    0  0.00000000000E+00  0.00000000000E+00  0.45593999997E+02  0.45594000000E+02  0.51100000000E-03 0.  1.
         11   -1    0    0    0    0 -0.00000000000E+00 -0.00000000000E+00 -0.45593999997E+02  0.45594000000E+02  0.51100000000E-03 0. -1.
    9900012    2    1    2    0    0  0.87899669576E+00  0.77846336075E+00  0.12093076144E+00  0.90007633682E+02  0.89999893647E+02 0.  0.
        -12    1    1    2    0    0 -0.87899669576E+00 -0.77846336075E+00 -0.12093076144E+00  0.11803663178E+01  0.00000000000E+00 0.  1.
         11    1    3    3    0    0  0.35541167808E+01 -0.88533841108E+01  0.96451092145E+00  0.95887662337E+01  0.51100000000E-03 0. -1.
        -11    1    3    3    0    0 -0.26132860942E+02 -0.10515316222E+02  0.26844819024E+02  0.38911985364E+02  0.51100000000E-03 0.  1.
         12    1    3    3    0    0  0.23457740857E+02  0.20147163693E+02 -0.27688399185E+02  0.41506882085E+02  0.00000000000E+00 0. -1.
</event>
<event>
 7    1  0.1654239E-015  0.9000775E+02  0.7816164E-02  0.1186339E+00
        -11   -1    0    0    0    0  0.00000000000E+00  0.00000000000E+00  0.45593999997E+02  0.45594000000E+02  0.51100000000E-03 0. -1.
         11   -1    0    0    0    0 -0.00000000000E+00 -0.00000000000E+00 -0.45593999997E+02  0.45594000000E+02  0.51100000000E-03 0.  1.
    9900012    2    1    2    0    0  0.79939219072E+00  0.24827753764E+00 -0.83205554003E+00  0.90007751707E+02  0.90000013230E+02 0.  0.
        -12    1    1    2    0    0 -0.79939219072E+00 -0.24827753764E+00  0.83205554003E+00  0.11802482925E+01  0.00000000000E+00 0.  1.
         11    1    3    3    0    0  0.98364720780E+00 -0.12209468793E+01 -0.78273408761E+01  0.79828277297E+01  0.51100000000E-03 0. -1.
        -11    1    3    3    0    0 -0.43835664103E+01 -0.32506667030E+02  0.26903417983E+02  0.42422788161E+02  0.51100000000E-03 0.  1.
         12    1    3    3    0    0  0.41993113932E+01  0.33975891447E+02 -0.19908132647E+02  0.39602135817E+02  0.00000000000E+00 0. -1.
</event>
<event>
 7    1  0.1654239E-015  0.9000774E+02  0.7816164E-02  0.1186339E+00
        -11   -1    0    0    0    0  0.00000000000E+00  0.00000000000E+00  0.45593999997E+02  0.45594000000E+02  0.51100000000E-03 0. -1.
         11   -1    0    0    0    0 -0.00000000000E+00 -0.00000000000E+00 -0.45593999997E+02  0.45594000000E+02  0.51100000000E-03 0.  1.
    9900012    2    1    2    0    0 -0.10100509692E+01  0.99270889302E-01  0.60246220833E+00  0.90007738003E+02  0.89999999344E+02 0.  0.
        -12    1    1    2    0    0  0.10100509692E+01 -0.99270889302E-01 -0.60246220833E+00  0.11802619973E+01  0.00000000000E+00 0.  1.
         11    1    3    3    0    0 -0.48840405045E+01 -0.35796827108E+02  0.23067540921E+02  0.42864648920E+02  0.51100000000E-03 0. -1.
        -11    1    3    3    0    0 -0.54643218728E+01  0.27909082773E+01 -0.73419027395E+01  0.95682557784E+01  0.51100000000E-03 0.  1.
        -12    1    3    3    0    0  0.93383114081E+01  0.33105189720E+02 -0.15123175973E+02  0.37574833304E+02  0.00000000000E+00 0.  1.
</event>
<event>
 7    1  0.1654239E-015  0.9000777E+02  0.7816164E-02  0.1186339E+00
        -11   -1    0    0    0    0  0.00000000000E+00  0.00000000000E+00  0.45593999997E+02  0.45594000000E+02  0.51100000000E-03 0. -1.
         11   -1    0    0    0    0 -0.00000000000E+00 -0.00000000000E+00 -0.45593999997E+02  0.45594000000E+02  0.51100000000E-03 0.  1.
    9900012    2    1    2    0    0 -0.99057695989E+00 -0.62020424459E+00  0.16446045377E+00  0.90007769828E+02  0.90000031590E+02 0.  0.
        -12    1    1    2    0    0  0.99057695989E+00  0.62020424459E+00 -0.16446045377E+00  0.11802301722E+01  0.00000000000E+00 0.  1.
         11    1    3    3    0    0  0.11914517485E+02  0.23912540278E+01  0.16924390031E+02  0.20835277798E+02  0.51100000000E-03 0. -1.
        -11    1    3    3    0    0  0.18674912322E+02 -0.11173921775E+02 -0.27282790874E+02  0.34899277302E+02  0.51100000000E-03 0.  1.
         12    1    3    3    0    0 -0.31580006767E+02  0.81624635031E+01  0.10522861297E+02  0.34273214727E+02  0.00000000000E+00 0. -1.
</event>
<event>
 7    1  0.1654239E-015  0.9000772E+02  0.7816164E-02  0.1186339E+00
        -11   -1    0    0    0    0  0.00000000000E+00  0.00000000000E+00  0.45593999997E+02  0.45594000000E+02  0.51100000000E-03 0. -1.
         11   -1    0    0    0    0 -0.00000000000E+00 -0.00000000000E+00 -0.45593999997E+02  0.45594000000E+02  0.51100000000E-03 0.  1.
    9900012    2    1    2    0    0  0.53964192054E+00  0.41397458814E+00  0.96460630904E+00  0.90007723044E+02  0.89999984188E+02 0.  0.
        -12    1    1    2    0    0 -0.53964192054E+00 -0.41397458814E+00 -0.96460630904E+00  0.11802769563E+01  0.00000000000E+00 0.  1.
         11    1    3    3    0    0  0.89947925042E+01  0.28075677497E+02  0.20982104097E+02  0.36185613878E+02  0.51100000000E-03 0. -1.
        -11    1    3    3    0    0  0.81265147342E+01  0.52715324772E+01  0.32561824100E+01  0.10219198625E+02  0.51100000000E-03 0.  1.
        -12    1    3    3    0    0 -0.16581665318E+02 -0.32933235386E+02 -0.23273680198E+02  0.43602910541E+02  0.00000000000E+00 0.  1.
</event>
<event>
 7    1  0.1654239E-015  0.9000750E+02  0.7816164E-02  0.1186340E+00
        -11   -1    0    0    0    0  0.00000000000E+00  0.00000000000E+00  0.45593999997E+02  0.45594000000E+02  0.51100000000E-03 0.  1.
         11   -1    0    0    0    0 -0.00000000000E+00 -0.00000000000E+00 -0.45593999997E+02  0.45594000000E+02  0.51100000000E-03 0. -1.
    9900012    2    1    2    0    0  0.22063495484E-01 -0.11619484412E+01  0.20731780653E+00  0.90007495171E+02  0.89999753307E+02 0.  0.
        -12    1    1    2    0    0 -0.22063495484E-01  0.11619484412E+01 -0.20731780653E+00  0.11805048288E+01  0.00000000000E+00 0.  1.
         11    1    3    3    0    0  0.14692240989E+02 -0.27592994068E+01 -0.37950864982E+02  0.40789016066E+02  0.51100000000E-03 0. -1.
        -11    1    3    3    0    0  0.60590123645E+00 -0.87823660855E+01  0.26484443127E+01  0.91930042917E+01  0.51100000000E-03 0.  1.
        -12    1    3    3    0    0 -0.15276078730E+02  0.10379717051E+02  0.35509738476E+02  0.40025474814E+02  0.00000000000E+00 0.  1.
</event>
<event>
 7    1  0.1654239E-015  0.9000770E+02  0.7816164E-02  0.1186339E+00
        -11   -1    0    0    0    0  0.00000000000E+00  0.00000000000E+00  0.45593999997E+02  0.45594000000E+02  0.51100000000E-03 0. -1.
         11   -1    0    0    0    0 -0.00000000000E+00 -0.00000000000E+00 -0.45593999997E+02  0.45594000000E+02  0.51100000000E-03 0.  1.
    9900012    2    1    2    0    0 -0.81700162710E-01 -0.35525562411E+00  0.11225962630E+01  0.90007701798E+02  0.89999962662E+02 0.  0.
        -12    1    1    2    0    0  0.81700162710E-01  0.35525562411E+00 -0.11225962630E+01  0.11802982016E+01  0.00000000000E+00 0.  1.
         11    1    3    3    0    0 -0.73594067579E+01  0.30044802493E+01  0.38532209108E+02  0.39343600603E+02  0.51100000000E-03 0. -1.
        -11    1    3    3    0    0 -0.35942525742E+01  0.12720218902E+02 -0.80768025263E+01  0.15490557117E+02  0.51100000000E-03 0.  1.
        -12    1    3    3    0    0  0.10871959169E+02 -0.16079954776E+02 -0.29332810319E+02  0.35173544078E+02  0.00000000000E+00 0.  1.
</event>
<event>
 7    1  0.1654239E-015  0.9000755E+02  0.7816164E-02  0.1186339E+00
        -11   -1    0    0    0    0  0.00000000000E+00  0.00000000000E+00  0.45593999997E+02  0.45594000000E+02  0.51100000000E-03 0. -1.
         11   -1    0    0    0    0 -0.00000000000E+00 -0.00000000000E+00 -0.45593999997E+02  0.45594000000E+02  0.51100000000E-03 0.  1.
    9900012    2    1    2    0    0 -0.76293201771E+00 -0.66035348361E+00  0.61263353825E+00  0.90007554390E+02  0.89999813307E+02 0.  0.
        -12    1    1    2    0    0  0.76293201771E+00  0.66035348361E+00 -0.61263353825E+00  0.11804456104E+01  0.00000000000E+00 0.  1.
         11    1    3    3    0    0 -0.36920759546E+00  0.12971389642E+02  0.48660143679E+01  0.13858981188E+02  0.51100000000E-03 0. -1.
        -11    1    3    3    0    0 -0.21169286414E+02 -0.13840546215E+01 -0.32622445497E+02  0.38913728232E+02  0.51100000000E-03 0.  1.
         12    1    3    3    0    0  0.20775561992E+02 -0.12247688504E+02  0.28369064667E+02  0.37234844969E+02  0.00000000000E+00 0. -1.
</event>
<event>
 7    1  0.1654239E-015  0.9000745E+02  0.7816164E-02  0.1186340E+00
        -11   -1    0    0    0    0  0.00000000000E+00  0.00000000000E+00  0.45593999997E+02  0.45594000000E+02  0.51100000000E-03 0.  1.
         11   -1    0    0    0    0 -0.00000000000E+00 -0.00000000000E+00 -0.45593999997E+02  0.45594000000E+02  0.51100000000E-03 0. -1.
    9900012    2    1    2    0    0  0.10400967728E+01 -0.38621891265E+00 -0.40339137775E+00  0.90007453115E+02  0.89999710695E+02 0.  0.
        -12    1    1    2    0    0 -0.10400967728E+01  0.38621891265E+00  0.40339137775E+00  0.11805468855E+01  0.00000000000E+00 0.  1.
         11    1    3    3    0    0 -0.93160007769E+01  0.23359438692E+02 -0.24455829133E+02  0.35079036836E+02  0.51100000000E-03 0. -1.
        -11    1    3    3    0    0  0.12772132127E+01  0.12120306573E+02  0.38858189135E+01  0.12791899542E+02  0.51100000000E-03 0.  1.
        -12    1    3    3    0    0  0.90788843370E+01 -0.35865964177E+02  0.20166618842E+02  0.42136516737E+02  0.00000000000E+00 0.  1.
</event>
<event>
 7    1  0.1654239E-015  0.9000775E+02  0.7816164E-02  0.1186339E+00
        -11   -1    0    0    0    0  0.00000000000E+00  0.00000000000E+00  0.45593999997E+02  0.45594000000E+02  0.51100000000E-03 0. -1.
         11   -1    0    0    0    0 -0.00000000000E+00 -0.00000000000E+00 -0.45593999997E+02  0.45594000000E+02  0.51100000000E-03 0.  1.
    9900012    2    1    2    0    0 -0.56556316688E+00 -0.95493832860E+00  0.40152395471E+00  0.90007749860E+02  0.90000011358E+02 0.  0.
        -12    1    1    2    0    0  0.56556316688E+00  0.95493832860E+00 -0.40152395471E+00  0.11802501402E+01  0.00000000000E+00 0.  1.
         11    1    3    3    0    0 -0.39229962005E+02  0.63855208574E+01 -0.21128916668E+01  0.39802375645E+02  0.51100000000E-03 0. -1.
        -11    1    3    3    0    0 -0.81464410086E+00  0.20024235088E+01  0.88801434277E+01  0.91394908216E+01  0.51100000000E-03 0.  1.
        -12    1    3    3    0    0  0.39479042939E+02 -0.93428826948E+01 -0.63657278062E+01  0.41065883394E+02  0.00000000000E+00 0.  1.
</event>
<event>
 7    1  0.1654239E-015  0.9000773E+02  0.7816164E-02  0.1186339E+00
        -11   -1    0    0    0    0  0.00000000000E+00  0.00000000000E+00  0.45593999997E+02  0.45594000000E+02  0.51100000000E-03 0. -1.
         11   -1    0    0    0    0 -0.00000000000E+00 -0.00000000000E+00 -0.45593999997E+02  0.45594000000E+02  0.51100000000E-03 0.  1.
    9900012    2    1    2    0    0  0.57262987563E+00  0.20621272471E+00 -0.10112377130E+01  0.90007732922E+02  0.89999994197E+02 0.  0.
        -12    1    1    2    0    0 -0.57262987563E+00 -0.20621272471E+00  0.10112377130E+01  0.11802670776E+01  0.00000000000E+00 0.  1.
         11    1    3    3    0    0  0.71486835121E+01 -0.62547183060E+01 -0.46132158956E+01  0.10559684569E+02  0.51100000000E-03 0. -1.
        -11    1    3    3    0    0 -0.19286054385E+01 -0.12103259970E+01 -0.37403682964E+02  0.37472922324E+02  0.51100000000E-03 0.  1.
         12    1    3    3    0    0 -0.46474481980E+01  0.76712570276E+01  0.41005661146E+02  0.41975126029E+02  0.00000000000E+00 0. -1.
</event>
<event>
 7    1  0.1654239E-015  0.9000797E+02  0.7816164E-02  0.1186339E+00
        -11   -1    0    0    0    0  0.00000000000E+00  0.00000000000E+00  0.45593999997E+02  0.45594000000E+02  0.51100000000E-03 0.  1.
         11   -1    0    0    0    0 -0.00000000000E+00 -0.00000000000E+00 -0.45593999997E+02  0.45594000000E+02  0.51100000000E-03 0. -1.
    9900012    2    1    2    0    0 -0.65475086931E+00 -0.63887197794E-02 -0.98169934663E+00  0.90007969016E+02  0.90000233406E+02 0.  0.
        -12    1    1    2    0    0  0.65475086931E+00  0.63887197794E-02  0.98169934663E+00  0.11800309842E+01  0.00000000000E+00 0.  1.
         11    1    3    3    0    0 -0.28125209573E+02  0.23938186605E+02 -0.70118650987E+01  0.37592957371E+02  0.51100000000E-03 0. -1.
        -11    1    3    3    0    0  0.25706250296E+01  0.95593038030E+01 -0.14567151591E+01  0.10005519555E+02  0.51100000000E-03 0.  1.
        -12    1    3    3    0    0  0.24899833674E+02 -0.33503879128E+02  0.74868809111E+01  0.42409492091E+02  0.00000000000E+00 0.  1.
</event>
<event>
 7    1  0.1654239E-015  0.9000770E+02  0.7816164E-02  0.1186339E+00
        -11   -1    0    0    0    0  0.00000000000E+00  0.00000000000E+00  0.45593999997E+02  0.45594000000E+02  0.51100000000E-03 0.  1.
         11   -1    0    0    0    0 -0.00000000000E+00 -0.00000000000E+00 -0.45593999997E+02  0.45594000000E+02  0.51100000000E-03 0. -1.
    9900012    2    1    2    0    0 -0.36937403567E+00  0.50975630490E+00 -0.99840587138E+00  0.90007702176E+02  0.89999963045E+02 0.  0.
        -12    1    1    2    0    0  0.36937403567E+00 -0.50975630490E+00  0.99840587138E+00  0.11802978237E+01  0.00000000000E+00 0.  1.
         11    1    3    3    0    0 -0.53430950424E+01 -0.10657196420E+01  0.69384106479E+01  0.88219026047E+01  0.51100000000E-03 0. -1.
        -11    1    3    3    0    0  0.20190832609E+02  0.35043764249E+02 -0.16090082462E+02  0.43527300492E+02  0.51100000000E-03 0.  1.
         12    1    3    3    0    0 -0.15217111602E+02 -0.33468288303E+02  0.81532659429E+01  0.37658499080E+02  0.00000000000E+00 0. -1.
</event>
<event>
 7    1  0.1654239E-015  0.9000773E+02  0.7816164E-02  0.1186339E+00
        -11   -1    0    0    0    0  0.00000000000E+00  0.00000000000E+00  0.45593999997E+02  0.45594000000E+02  0.51100000000E-03 0.  1.
         11   -1    0    0    0    0 -0.00000000000E+00 -0.00000000000E+00 -0.45593999997E+02  0.45594000000E+02  0.51100000000E-03 0. -1.
    9900012    2    1    2    0    0 -0.10331264765E+01 -0.14183929250E+00 -0.55278679018E+00  0.90007728024E+02  0.89999989234E+02 0.  0.
        -12    1    1    2    0    0  0.10331264765E+01  0.14183929250E+00  0.55278679018E+00  0.11802719758E+01  0.00000000000E+00 0.  1.
         11    1    3    3    0    0  0.24855483442E+02 -0.21725343967E+02 -0.13882934003E+02  0.35812309119E+02  0.51100000000E-03 0. -1.
        -11    1    3    3    0    0  0.87181418847E+01 -0.38932141518E+01  0.28202601922E+01  0.99557512105E+01  0.51100000000E-03 0.  1.
        -12    1    3    3    0    0 -0.34606751803E+02  0.25476718827E+02  0.10509887021E+02  0.44239667695E+02  0.00000000000E+00 0.  1.
</event>
<event>
 7    1  0.1654239E-015  0.9000786E+02  0.7816164E-02  0.1186339E+00
        -11   -1    0    0    0    0  0.00000000000E+00  0.00000000000E+00  0.45593999997E+02  0.45594000000E+02  0.51100000000E-03 0. -1.
         11   -1    0    0    0    0 -0.00000000000E+00 -0.00000000000E+00 -0.45593999997E+02  0.45594000000E+02  0.51100000000E-03 0.  1.
    9900012    2    1    2    0    0 -0.38573150426E+00 -0.73774334671E+00  0.83646285850E+00  0.90007862655E+02  0.90000125642E+02 0.  0.
        -12    1    1    2    0    0  0.38573150426E+00  0.73774334671E+00 -0.83646285850E+00  0.11801373448E+01  0.00000000000E+00 0.  1.
         11    1    3    3    0    0 -0.58202214911E+01  0.99831912205E-01 -0.57531839691E+01  0.81843796747E+01  0.51100000000E-03 0. -1.
        -11    1    3    3    0    0  0.19830614882E+01 -0.33875330348E+02 -0.19899028535E+02  0.39337537746E+02  0.51100000000E-03 0.  1.
         12    1    3    3    0    0  0.34514284987E+01  0.33037755089E+02  0.26488675362E+02  0.42485945234E+02  0.00000000000E+00 0. -1.
</event>
<event>
 7    1  0.1654239E-015  0.9000772E+02  0.7816164E-02  0.1186339E+00
        -11   -1    0    0    0    0  0.00000000000E+00  0.00000000000E+00  0.45593999997E+02  0.45594000000E+02  0.51100000000E-03 0. -1.
         11   -1    0    0    0    0 -0.00000000000E+00 -0.00000000000E+00 -0.45593999997E+02  0.45594000000E+02  0.51100000000E-03 0.  1.
    9900012    2    1    2    0    0  0.84392920611E+00 -0.61679728515E+00  0.54809615465E+00  0.90007718343E+02  0.89999979425E+02 0.  0.
        -12    1    1    2    0    0 -0.84392920611E+00  0.61679728515E+00 -0.54809615465E+00  0.11802816573E+01  0.00000000000E+00 0.  1.
         11    1    3    3    0    0  0.99017363690E+01 -0.23929042408E+02  0.33616297808E+02  0.42434643067E+02  0.51100000000E-03 0. -1.
        -11    1    3    3    0    0  0.62617867007E+01  0.10774165646E-01 -0.71176904169E+01  0.94800636021E+01  0.51100000000E-03 0.  1.
        -12    1    3    3    0    0 -0.15319593864E+02  0.23301470957E+02 -0.25950511236E+02  0.38093011673E+02  0.00000000000E+00 0.  1.
</event>
<event>
 7    1  0.1654239E-015  0.9000773E+02  0.7816164E-02  0.1186339E+00
        -11   -1    0    0    0    0  0.00000000000E+00  0.00000000000E+00  0.45593999997E+02  0.45594000000E+02  0.51100000000E-03 0.  1.
         11   -1    0    0    0    0 -0.00000000000E+00 -0.00000000000E+00 -0.45593999997E+02  0.45594000000E+02  0.51100000000E-03 0. -1.
    9900012    2    1    2    0    0 -0.74226491539E+00  0.63476874842E+00 -0.66268823149E+00  0.90007727040E+02  0.89999988237E+02 0.  0.
        -12    1    1    2    0    0  0.74226491539E+00 -0.63476874842E+00  0.66268823149E+00  0.11802729603E+01  0.00000000000E+00 0.  1.
         11    1    3    3    0    0 -0.26027517857E+02 -0.17490842548E+02 -0.25229823303E+02  0.40248046449E+02  0.51100000000E-03 0. -1.
        -11    1    3    3    0    0 -0.68371178995E+01  0.32149405956E+01  0.66780266248E+01  0.10083554139E+02  0.51100000000E-03 0.  1.
        -12    1    3    3    0    0  0.32122370841E+02  0.14910670700E+02  0.17889108447E+02  0.39676126452E+02  0.00000000000E+00 0.  1.
</event>
<event>
 7    1  0.1654239E-015  0.9000824E+02  0.7816164E-02  0.1186338E+00
        -11   -1    0    0    0    0  0.00000000000E+00  0.00000000000E+00  0.45593999997E+02  0.45594000000E+02  0.51100000000E-03 0. -1.
         11   -1    0    0    0    0 -0.00000000000E+00 -0.00000000000E+00 -0.45593999997E+02  0.45594000000E+02  0.51100000000E-03 0.  1.
    9900012    2    1    2    0    0  0.10270599886E+01  0.77556936989E-01  0.57530562351E+00  0.90008235676E+02  0.90000503586E+02 0.  0.
        -12    1    1    2    0    0 -0.10270599886E+01 -0.77556936989E-01 -0.57530562351E+00  0.11797643236E+01  0.00000000000E+00 0.  1.
         11    1    3    3    0    0  0.35143456865E+02  0.36226584372E+00  0.11620827227E+02  0.37016718151E+02  0.51100000000E-03 0. -1.
        -11    1    3    3    0    0  0.35061328762E+01  0.10423033347E+02  0.30511333997E+01  0.11412362033E+02  0.51100000000E-03 0.  1.
        -12    1    3    3    0    0 -0.37622529753E+02 -0.10707742253E+02 -0.14096655003E+02  0.41579155492E+02  0.00000000000E+00 0.  1.
</event>
<event>
 7    1  0.1654239E-015  0.9000776E+02  0.7816164E-02  0.1186339E+00
        -11   -1    0    0    0    0  0.00000000000E+00  0.00000000000E+00  0.45593999997E+02  0.45594000000E+02  0.51100000000E-03 0.  1.
         11   -1    0    0    0    0 -0.00000000000E+00 -0.00000000000E+00 -0.45593999997E+02  0.45594000000E+02  0.51100000000E-03 0. -1.
    9900012    2    1    2    0    0  0.15228469827E+00  0.64793762528E+00 -0.97465034629E+00  0.90007763967E+02  0.90000025652E+02 0.  0.
        -12    1    1    2    0    0 -0.15228469827E+00 -0.64793762528E+00  0.97465034629E+00  0.11802360328E+01  0.00000000000E+00 0.  1.
         11    1    3    3    0    0  0.28452963480E+02 -0.37244496942E+01 -0.23944145257E+02  0.37373315998E+02  0.51100000000E-03 0. -1.
        -11    1    3    3    0    0  0.42284600835E+01  0.45885608700E+01 -0.63057081176E+01  0.88711172160E+01  0.51100000000E-03 0.  1.
        -12    1    3    3    0    0 -0.32529138865E+02 -0.21617355059E+00  0.29275203029E+02  0.43763330754E+02  0.00000000000E+00 0.  1.
</event>
<event>
 7    1  0.1654239E-015  0.9000777E+02  0.7816164E-02  0.1186339E+00
        -11   -1    0    0    0    0  0.00000000000E+00  0.00000000000E+00  0.45593999997E+02  0.45594000000E+02  0.51100000000E-03 0.  1.
         11   -1    0    0    0    0 -0.00000000000E+00 -0.00000000000E+00 -0.45593999997E+02  0.45594000000E+02  0.51100000000E-03 0. -1.
    9900012    2    1    2    0    0  0.10399078738E+00 -0.50737643948E+00 -0.10605150859E+01  0.90007772402E+02  0.90000034198E+02 0.  0.
        -12    1    1    2    0    0 -0.10399078738E+00  0.50737643948E+00  0.10605150859E+01  0.11802275978E+01  0.00000000000E+00 0.  1.
         11    1    3    3    0    0 -0.83553572363E+01  0.27053484044E+02 -0.27799501101E+02  0.39680161985E+02  0.51100000000E-03 0. -1.
        -11    1    3    3    0    0  0.51121550377E+01  0.63287898178E+01  0.24428000151E+01  0.84944088589E+01  0.51100000000E-03 0.  1.
        -12    1    3    3    0    0  0.33471929859E+01 -0.33889650302E+02  0.24296186000E+02  0.41833201558E+02  0.00000000000E+00 0.  1.
</event>
<event>
 7    1  0.2412149E-015  0.9000804E+02  0.7816164E-02  0.1186338E+00
        -11   -1    0    0    0    0  0.00000000000E+00  0.00000000000E+00  0.45593999997E+02  0.45594000000E+02  0.51100000000E-03 0. -1.
         11   -1    0    0    0    0 -0.00000000000E+00 -0.00000000000E+00 -0.45593999997E+02  0.45594000000E+02  0.51100000000E-03 0.  1.
    9900012    2    1    2    0    0 -0.30912816086E+00  0.65059978666E+00  0.93458852048E+00  0.90008044067E+02  0.90000309448E+02 0.  0.
        -12    1    1    2    0    0  0.30912816086E+00 -0.65059978666E+00 -0.93458852048E+00  0.11799559334E+01  0.00000000000E+00 0.  1.
         11    1    3    3    0    0  0.90789142207E+01  0.32758915476E+01  0.11451622153E+00  0.96525262540E+01  0.51100000000E-03 0. -1.
        -11    1    3    3    0    0  0.92287844430E+01  0.13259941269E+02 -0.34088493114E+02  0.37722962076E+02  0.51100000000E-03 0.  1.
         12    1    3    3    0    0 -0.18616826825E+02 -0.15885233030E+02  0.34908565413E+02  0.42632555736E+02  0.00000000000E+00 0. -1.
</event>
<event>
 7    1  0.1654239E-015  0.9000778E+02  0.7816164E-02  0.1186339E+00
        -11   -1    0    0    0    0  0.00000000000E+00  0.00000000000E+00  0.45593999997E+02  0.45594000000E+02  0.51100000000E-03 0.  1.
         11   -1    0    0    0    0 -0.00000000000E+00 -0.00000000000E+00 -0.45593999997E+02  0.45594000000E+02  0.51100000000E-03 0. -1.
    9900012    2    1    2    0    0  0.48303308477E+00  0.10039045322E+01 -0.38958780037E+00  0.90007778019E+02  0.90000039889E+02 0.  0.
        -12    1    1    2    0    0 -0.48303308477E+00 -0.10039045322E+01  0.38958780037E+00  0.11802219812E+01  0.00000000000E+00 0.  1.
         11    1    3    3    0    0  0.40214161335E+02  0.16672668183E+02 -0.26846489127E+01  0.43616097673E+02  0.51100000000E-03 0. -1.
        -11    1    3    3    0    0 -0.65194156101E+01  0.34258305947E+01 -0.25128458713E+01  0.77816122876E+01  0.51100000000E-03 0.  1.
        -12    1    3    3    0    0 -0.33211712640E+02 -0.19094594245E+02  0.48079069837E+01  0.38610068058E+02  0.00000000000E+00 0.  1.
</event>
<event>
 7    1  0.1654239E-015  0.9000769E+02  0.7816164E-02  0.1186339E+00
        -11   -1    0    0    0    0  0.00000000000E+00  0.00000000000E+00  0.45593999997E+02  0.45594000000E+02  0.51100000000E-03 0. -1.
         11   -1    0    0    0    0 -0.00000000000E+00 -0.00000000000E+00 -0.45593999997E+02  0.45594000000E+02  0.51100000000E-03 0.  1.
    9900012    2    1    2    0    0  0.19838360879E+00 -0.48152594161E+00 -0.10592016074E+01  0.90007690153E+02  0.89999950863E+02 0.  0.
        -12    1    1    2    0    0 -0.19838360879E+00  0.48152594161E+00  0.10592016074E+01  0.11803098465E+01  0.00000000000E+00 0.  1.
         11    1    3    3    0    0 -0.25602454562E+01 -0.21153686138E+01 -0.79735141007E+01  0.86375093946E+01  0.51100000000E-03 0. -1.
        -11    1    3    3    0    0 -0.17297732488E+02 -0.12098088186E+02 -0.30295881641E+02  0.36924459802E+02  0.51100000000E-03 0.  1.
         12    1    3    3    0    0  0.20056361553E+02  0.13731930858E+02  0.37210194134E+02  0.44445720957E+02  0.00000000000E+00 0. -1.
</event>
<event>
 7    1  0.1654239E-015  0.9000749E+02  0.7816164E-02  0.1186340E+00
        -11   -1    0    0    0    0  0.00000000000E+00  0.00000000000E+00  0.45593999997E+02  0.45594000000E+02  0.51100000000E-03 0. -1.
         11   -1    0    0    0    0 -0.00000000000E+00 -0.00000000000E+00 -0.45593999997E+02  0.45594000000E+02  0.51100000000E-03 0.  1.
    9900012    2    1    2    0    0 -0.10932625181E+00 -0.25955866025E+00  0.11464223044E+01  0.90007488658E+02  0.89999746708E+02 0.  0.
        -12    1    1    2    0    0  0.10932625181E+00  0.25955866025E+00 -0.11464223044E+01  0.11805113416E+01  0.00000000000E+00 0.  1.
         11    1    3    3    0    0  0.23262208623E+02 -0.31824752545E+02 -0.11756563281E+02  0.41135896793E+02  0.51100000000E-03 0. -1.
        -11    1    3    3    0    0  0.99023820511E+00  0.47375888188E+01  0.11645757107E+02  0.12611462183E+02  0.51100000000E-03 0.  1.
        -12    1    3    3    0    0 -0.24361773080E+02  0.26827605066E+02  0.12572284777E+01  0.36260129683E+02  0.00000000000E+00 0.  1.
</event>
<event>
 7    1  0.1654239E-015  0.9000772E+02  0.7816164E-02  0.1186339E+00
        -11   -1    0    0    0    0  0.00000000000E+00  0.00000000000E+00  0.45593999997E+02  0.45594000000E+02  0.51100000000E-03 0.  1.
         11   -1    0    0    0    0 -0.00000000000E+00 -0.00000000000E+00 -0.45593999997E+02  0.45594000000E+02  0.51100000000E-03 0. -1.
    9900012    2    1    2    0    0  0.86240270255E+00 -0.61646425278E+00 -0.51893471851E+00  0.90007720441E+02  0.89999981550E+02 0.  0.
        -12    1    1    2    0    0 -0.86240270255E+00  0.61646425278E+00  0.51893471851E+00  0.11802795594E+01  0.00000000000E+00 0.  1.
         11    1    3    3    0    0 -0.32205679155E+01  0.30804994128E+02 -0.23111929878E+02  0.38645582204E+02  0.51100000000E-03 0. -1.
        -11    1    3    3    0    0  0.46883756565E+01  0.64706250088E+01  0.59965915131E+01  0.99904436507E+01  0.51100000000E-03 0.  1.
        -12    1    3    3    0    0 -0.60540503843E+00 -0.37892083390E+02  0.16596403647E+02  0.41371694586E+02  0.00000000000E+00 0.  1.
</event>
<event>
 7    1  0.1654239E-015  0.9000780E+02  0.7816164E-02  0.1186339E+00
        -11   -1    0    0    0    0  0.00000000000E+00  0.00000000000E+00  0.45593999997E+02  0.45594000000E+02  0.51100000000E-03 0. -1.
         11   -1    0    0    0    0 -0.00000000000E+00 -0.00000000000E+00 -0.45593999997E+02  0.45594000000E+02  0.51100000000E-03 0.  1.
    9900012    2    1    2    0    0  0.11165305236E+01  0.32851445984E-01  0.38099156211E+00  0.90007799086E+02  0.90000061234E+02 0.  0.
        -12    1    1    2    0    0 -0.11165305236E+01 -0.32851445984E-01 -0.38099156211E+00  0.11802009143E+01  0.00000000000E+00 0.  1.
         11    1    3    3    0    0  0.18949875048E+02 -0.29345499655E+02  0.19221081539E+02  0.39871118496E+02  0.51100000000E-03 0. -1.
        -11    1    3    3    0    0  0.61089432449E+01 -0.22444341628E+01 -0.78070032834E+00  0.65548581636E+01  0.51100000000E-03 0.  1.
        -12    1    3    3    0    0 -0.23942287769E+02  0.31622785264E+02 -0.18059389649E+02  0.43581822426E+02  0.00000000000E+00 0.  1.
</event>
<event>
 7    1  0.1654239E-015  0.9000776E+02  0.7816164E-02  0.1186339E+00
        -11   -1    0    0    0    0  0.00000000000E+00  0.00000000000E+00  0.45593999997E+02  0.45594000000E+02  0.51100000000E-03 0.  1.
         11   -1    0    0    0    0 -0.00000000000E+00 -0.00000000000E+00 -0.45593999997E+02  0.45594000000E+02  0.51100000000E-03 0. -1.
    9900012    2    1    2    0    0  0.41281561521E+00 -0.30759427633E+00 -0.10620485751E+01  0.90007755048E+02  0.90000016615E+02 0.  0.
        -12    1    1    2    0    0 -0.41281561521E+00  0.30759427633E+00  0.10620485751E+01  0.11802449521E+01  0.00000000000E+00 0.  1.
         11    1    3    3    0    0 -0.25065498013E+02 -0.33190569618E+01 -0.27013229646E+02  0.37000133863E+02  0.51100000000E-03 0. -1.
        -11    1    3    3    0    0 -0.80647019480E+01 -0.38431454462E+01 -0.15832964549E+01  0.90728172227E+01  0.51100000000E-03 0.  1.
        -12    1    3    3    0    0  0.33543015576E+02  0.68546081317E+01  0.27534477525E+02  0.43934803962E+02  0.00000000000E+00 0.  1.
</event>
<event>
 7    1  0.1654239E-015  0.9000774E+02  0.7816164E-02  0.1186339E+00
        -11   -1    0    0    0    0  0.00000000000E+00  0.00000000000E+00  0.45593999997E+02  0.45594000000E+02  0.51100000000E-03 0.  1.
         11   -1    0    0    0    0 -0.00000000000E+00 -0.00000000000E+00 -0.45593999997E+02  0.45594000000E+02  0.51100000000E-03 0. -1.
    9900012    2    1    2    0    0  0.43901339785E+00  0.23007139650E+00 -0.10711439149E+01  0.90007739479E+02  0.90000000840E+02 0.  0.
        -12    1    1    2    0    0 -0.43901339785E+00 -0.23007139650E+00  0.10711439149E+01  0.11802605210E+01  0.00000000000E+00 0.  1.
         11    1    3    3    0    0 -0.36444897608E+01  0.36758635018E+02 -0.45931497081E+01  0.37223333790E+02  0.51100000000E-03 0. -1.
        -11    1    3    3    0    0  0.10150955225E+01  0.46809507742E+01  0.98750121626E+01  0.10975317059E+02  0.51100000000E-03 0.  1.
        -12    1    3    3    0    0  0.30684076361E+01 -0.41209514395E+02 -0.63530063694E+01  0.41809088630E+02  0.00000000000E+00 0.  1.
</event>
<event>
 7    1  0.1654239E-015  0.9000783E+02  0.7816164E-02  0.1186339E+00
        -11   -1    0    0    0    0  0.00000000000E+00  0.00000000000E+00  0.45593999997E+02  0.45594000000E+02  0.51100000000E-03 0.  1.
         11   -1    0    0    0    0 -0.00000000000E+00 -0.00000000000E+00 -0.45593999997E+02  0.45594000000E+02  0.51100000000E-03 0. -1.
    9900012    2    1    2    0    0  0.13984204007E+00 -0.81343270246E+00 -0.84354930912E+00  0.90007828828E+02  0.90000091369E+02 0.  0.
        -12    1    1    2    0    0 -0.13984204007E+00  0.81343270246E+00  0.84354930912E+00  0.11801711717E+01  0.00000000000E+00 0.  1.
         11    1    3    3    0    0  0.45447874667E+01  0.17092473987E+01  0.67430448770E+01  0.83093486063E+01  0.51100000000E-03 0. -1.
        -11    1    3    3    0    0 -0.99476961905E+01  0.37462687496E+02  0.57492589478E+01  0.39184991931E+02  0.51100000000E-03 0.  1.
         12    1    3    3    0    0  0.55427507639E+01 -0.39985367597E+02 -0.13335853134E+02  0.42513488291E+02  0.00000000000E+00 0. -1.
</event>
<event>
 7    1  0.1654239E-015  0.9000772E+02  0.7816164E-02  0.1186339E+00
        -11   -1    0    0    0    0  0.00000000000E+00  0.00000000000E+00  0.45593999997E+02  0.45594000000E+02  0.51100000000E-03 0.  1.
         11   -1    0    0    0    0 -0.00000000000E+00 -0.00000000000E+00 -0.45593999997E+02  0.45594000000E+02  0.51100000000E-03 0. -1.
    9900012    2    1    2    0    0 -0.81839199917E+00 -0.60818479987E+00 -0.59448837766E+00  0.90007715862E+02  0.89999976911E+02 0.  0.
        -12    1    1    2    0    0  0.81839199917E+00  0.60818479987E+00  0.59448837766E+00  0.11802841379E+01  0.00000000000E+00 0.  1.
         11    1    3    3    0    0  0.26122420977E+02  0.93891637185E+01 -0.21559900693E+02  0.35147782166E+02  0.51100000000E-03 0. -1.
        -11    1    3    3    0    0  0.10675570335E+02 -0.25773891478E+01 -0.35799021962E+00  0.10988125138E+02  0.51100000000E-03 0.  1.
        -12    1    3    3    0    0 -0.37616383311E+02 -0.74199593706E+01  0.21323402535E+02  0.43871808558E+02  0.00000000000E+00 0.  1.
</event>
<event>
 7    1  0.1654239E-015  0.9000780E+02  0.7816164E-02  0.1186339E+00
        -11   -1    0    0    0    0  0.00000000000E+00  0.00000000000E+00  0.45593999997E+02  0.45594000000E+02  0.51100000000E-03 0.  1.
         11   -1    0    0    0    0 -0.00000000000E+00 -0.00000000000E+00 -0.45593999997E+02  0.45594000000E+02  0.51100000000E-03 0. -1.
    9900012    2    1    2    0    0  0.84307628371E+00 -0.77726018565E+00 -0.27922519758E+00  0.90007797591E+02  0.90000059719E+02 0.  0.
        -12    1    1    2    0    0 -0.84307628371E+00  0.77726018565E+00  0.27922519758E+00  0.11802024095E+01  0.00000000000E+00 0.  1.
         11    1    3    3    0    0  0.11393388809E+02  0.35910125626E+02  0.10045773910E+02  0.38990563022E+02  0.51100000000E-03 0. -1.
        -11    1    3    3    0    0 -0.88217243779E+01 -0.38634716647E+01  0.87516366866E+01  0.13013084925E+02  0.51100000000E-03 0.  1.
        -12    1    3    3    0    0 -0.17285881475E+01 -0.32823914147E+02 -0.19076635794E+02  0.38004149644E+02  0.00000000000E+00 0.  1.
</event>
<event>
 7    1  0.1654239E-015  0.9000779E+02  0.7816164E-02  0.1186339E+00
        -11   -1    0    0    0    0  0.00000000000E+00  0.00000000000E+00  0.45593999997E+02  0.45594000000E+02  0.51100000000E-03 0.  1.
         11   -1    0    0    0    0 -0.00000000000E+00 -0.00000000000E+00 -0.45593999997E+02  0.45594000000E+02  0.51100000000E-03 0. -1.
    9900012    2    1    2    0    0  0.32633316085E+00  0.99398643584E+00 -0.54625443740E+00  0.90007789732E+02  0.90000051756E+02 0.  0.
        -12    1    1    2    0    0 -0.32633316085E+00 -0.99398643584E+00  0.54625443740E+00  0.11802102681E+01  0.00000000000E+00 0.  1.
         11    1    3    3    0    0  0.22114878082E+02 -0.32147764126E+01 -0.36540392008E+02  0.42832264338E+02  0.51100000000E-03 0. -1.
        -11    1    3    3    0    0 -0.24051048327E+01 -0.73475422241E+01  0.69592611752E+01  0.10402029723E+02  0.51100000000E-03 0.  1.
        -12    1    3    3    0    0 -0.19383440089E+02  0.11556305072E+02  0.29034876395E+02  0.36773495671E+02  0.00000000000E+00 0.  1.
</event>
<event>
 7    1  0.1710490E-015  0.9000785E+02  0.7816164E-02  0.1186339E+00
        -11   -1    0    0    0    0  0.00000000000E+00  0.00000000000E+00  0.45593999997E+02  0.45594000000E+02  0.51100000000E-03 0.  1.
         11   -1    0    0    0    0 -0.00000000000E+00 -0.00000000000E+00 -0.45593999997E+02  0.45594000000E+02  0.51100000000E-03 0. -1.
    9900012    2    1    2    0    0  0.19871209780E+00 -0.11631131767E+01  0.20962984702E-01  0.90007848227E+02  0.90000111024E+02 0.  0.
        -12    1    1    2    0    0 -0.19871209780E+00  0.11631131767E+01 -0.20962984702E-01  0.11801517726E+01  0.00000000000E+00 0.  1.
         11    1    3    3    0    0 -0.54358942109E+01  0.15475995522E+01  0.70063297201E+01  0.90018146312E+01  0.51100000000E-03 0. -1.
        -11    1    3    3    0    0 -0.10204877930E+02  0.30685918106E+02  0.17401999205E+02  0.36723217182E+02  0.51100000000E-03 0.  1.
         12    1    3    3    0    0  0.15839484238E+02 -0.33396630835E+02 -0.24387365941E+02  0.44282816414E+02  0.00000000000E+00 0. -1.
</event>
<event>
 7    1  0.1654239E-015  0.9000753E+02  0.7816164E-02  0.1186339E+00
        -11   -1    0    0    0    0  0.00000000000E+00  0.00000000000E+00  0.45593999997E+02  0.45594000000E+02  0.51100000000E-03 0.  1.
         11   -1    0    0    0    0 -0.00000000000E+00 -0.00000000000E+00 -0.45593999997E+02  0.45594000000E+02  0.51100000000E-03 0. -1.
    9900012    2    1    2    0    0 -0.11341565623E+01  0.30164862506E+00  0.12730998979E+00  0.90007529401E+02  0.89999787989E+02 0.  0.
        -12    1    1    2    0    0  0.11341565623E+01 -0.30164862506E+00 -0.12730998979E+00  0.11804705987E+01  0.00000000000E+00 0.  1.
         11    1    3    3    0    0 -0.20273404976E+02  0.32443152141E+02  0.12830126092E+01  0.38278129419E+02  0.51100000000E-03 0. -1.
        -11    1    3    3    0    0  0.89916401684E+01  0.69071331442E+01  0.50520986779E+00  0.11349595520E+02  0.51100000000E-03 0.  1.
        -12    1    3    3    0    0  0.10147608245E+02 -0.39048636661E+02 -0.16609124872E+01  0.40379804463E+02  0.00000000000E+00 0.  1.
</event>
<event>
 7    1  0.1654239E-015  0.9000763E+02  0.7816164E-02  0.1186339E+00
        -11   -1    0    0    0    0  0.00000000000E+00  0.00000000000E+00  0.45593999997E+02  0.45594000000E+02  0.51100000000E-03 0.  1.
         11   -1    0    0    0    0 -0.00000000000E+00 -0.00000000000E+00 -0.45593999997E+02  0.45594000000E+02  0.51100000000E-03 0. -1.
    9900012    2    1    2    0    0  0.56223933479E+00 -0.16588438953E+00 -0.10245215304E+01  0.90007629267E+02  0.89999889174E+02 0.  0.
        -12    1    1    2    0    0 -0.56223933479E+00  0.16588438953E+00  0.10245215304E+01  0.11803707327E+01  0.00000000000E+00 0.  1.
         11    1    3    3    0    0 -0.83342948661E+01 -0.68040403225E+01  0.10126092614E+01  0.10806517173E+02  0.51100000000E-03 0. -1.
        -11    1    3    3    0    0 -0.11398227429E+02 -0.32809313211E+02  0.87326594562E+00  0.34743822696E+02  0.51100000000E-03 0.  1.
         12    1    3    3    0    0  0.20294761630E+02  0.39447469144E+02 -0.29103967374E+01  0.44457289398E+02  0.00000000000E+00 0. -1.
</event>
<event>
 7    1  0.1654239E-015  0.9000773E+02  0.7816164E-02  0.1186339E+00
        -11   -1    0    0    0    0  0.00000000000E+00  0.00000000000E+00  0.45593999997E+02  0.45594000000E+02  0.51100000000E-03 0. -1.
         11   -1    0    0    0    0 -0.00000000000E+00 -0.00000000000E+00 -0.45593999997E+02  0.45594000000E+02  0.51100000000E-03 0.  1.
    9900012    2    1    2    0    0 -0.15044414864E-01 -0.10722784789E+01  0.49298752534E+00  0.90007727078E+02  0.89999988275E+02 0.  0.
        -12    1    1    2    0    0  0.15044414864E-01  0.10722784789E+01 -0.49298752534E+00  0.11802729222E+01  0.00000000000E+00 0.  1.
         11    1    3    3    0    0  0.24252632016E+02 -0.13829819819E+02 -0.21783629074E+01  0.28003559437E+02  0.51100000000E-03 0. -1.
        -11    1    3    3    0    0  0.11569842716E+02 -0.84125245248E+01 -0.11159688729E+02  0.18143056031E+02  0.51100000000E-03 0.  1.
        -12    1    3    3    0    0 -0.35837519147E+02  0.21170065865E+02  0.13831039161E+02  0.43861111610E+02  0.00000000000E+00 0.  1.
</event>
<event>
 7    1  0.1654239E-015  0.9000773E+02  0.7816164E-02  0.1186339E+00
        -11   -1    0    0    0    0  0.00000000000E+00  0.00000000000E+00  0.45593999997E+02  0.45594000000E+02  0.51100000000E-03 0.  1.
         11   -1    0    0    0    0 -0.00000000000E+00 -0.00000000000E+00 -0.45593999997E+02  0.45594000000E+02  0.51100000000E-03 0. -1.
    9900012    2    1    2    0    0 -0.12600303088E+00  0.73183999566E+00 -0.91736636791E+00  0.90007734099E+02  0.89999995390E+02 0.  0.
        -12    1    1    2    0    0  0.12600303088E+00 -0.73183999566E+00  0.91736636791E+00  0.11802659006E+01  0.00000000000E+00 0.  1.
         11    1    3    3    0    0 -0.22749747981E+02 -0.35555647072E+02  0.21751920487E+01  0.42266849097E+02  0.51100000000E-03 0. -1.
        -11    1    3    3    0    0  0.47273133034E+01  0.35270477237E+01  0.69189344683E+01  0.90917111234E+01  0.51100000000E-03 0.  1.
        -12    1    3    3    0    0  0.17896431647E+02  0.32760439344E+02 -0.10011492885E+02  0.38649173879E+02  0.00000000000E+00 0.  1.
</event>
<event>
 7    1  0.1654239E-015  0.9000769E+02  0.7816164E-02  0.1186339E+00
        -11   -1    0    0    0    0  0.00000000000E+00  0.00000000000E+00  0.45593999997E+02  0.45594000000E+02  0.51100000000E-03 0.  1.
         11   -1    0    0    0    0 -0.00000000000E+00 -0.00000000000E+00 -0.45593999997E+02  0.45594000000E+02  0.51100000000E-03 0. -1.
    9900012    2    1    2    0    0 -0.48021078567E+00 -0.44929939723E+00 -0.98012995827E+00  0.90007691955E+02  0.89999952688E+02 0.  0.
        -12    1    1    2    0    0  0.48021078567E+00  0.44929939723E+00  0.98012995827E+00  0.11803080454E+01  0.00000000000E+00 0.  1.
         11    1    3    3    0    0  0.48666523446E+01 -0.78902321378E+01  0.32617426237E+01  0.98274632249E+01  0.51100000000E-03 0. -1.
        -11    1    3    3    0    0  0.35587036003E+02  0.49563309694E+01  0.90824802490E+01  0.37060677218E+02  0.51100000000E-03 0.  1.
         12    1    3    3    0    0 -0.40933899133E+02  0.24846017711E+01 -0.13324352831E+02  0.43119551512E+02  0.00000000000E+00 0. -1.
</event>
<event>
 7    1  0.1654239E-015  0.9000778E+02  0.7816164E-02  0.1186339E+00
        -11   -1    0    0    0    0  0.00000000000E+00  0.00000000000E+00  0.45593999997E+02  0.45594000000E+02  0.51100000000E-03 0. -1.
         11   -1    0    0    0    0 -0.00000000000E+00 -0.00000000000E+00 -0.45593999997E+02  0.45594000000E+02  0.51100000000E-03 0.  1.
    9900012    2    1    2    0    0 -0.55555662918E+00  0.91606367023E+00  0.49508197311E+00  0.90007778844E+02  0.90000040725E+02 0.  0.
        -12    1    1    2    0    0  0.55555662918E+00 -0.91606367023E+00 -0.49508197311E+00  0.11802211556E+01  0.00000000000E+00 0.  1.
         11    1    3    3    0    0 -0.99251898036E+01  0.23278422806E+01 -0.23544805213E+02  0.25657086645E+02  0.51100000000E-03 0. -1.
        -11    1    3    3    0    0 -0.15661086172E+02  0.86880106608E+01 -0.10309747769E+02  0.20664995733E+02  0.51100000000E-03 0.  1.
         12    1    3    3    0    0  0.25030719346E+02 -0.10099789271E+02  0.34349634954E+02  0.43685696467E+02  0.00000000000E+00 0. -1.
</event>
<event>
 7    1  0.2482920E-015  0.9000775E+02  0.7816164E-02  0.1186339E+00
        -11   -1    0    0    0    0  0.00000000000E+00  0.00000000000E+00  0.45593999997E+02  0.45594000000E+02  0.51100000000E-03 0.  1.
         11   -1    0    0    0    0 -0.00000000000E+00 -0.00000000000E+00 -0.45593999997E+02  0.45594000000E+02  0.51100000000E-03 0. -1.
    9900012    2    1    2    0    0 -0.83888998175E+00 -0.27123094222E-01 -0.82977071520E+00  0.90007749390E+02  0.90000010881E+02 0.  0.
        -12    1    1    2    0    0  0.83888998175E+00  0.27123094222E-01  0.82977071520E+00  0.11802506105E+01  0.00000000000E+00 0.  1.
         11    1    3    3    0    0 -0.96354069361E+01  0.21241511464E+01  0.12941495877E+01  0.99512767187E+01  0.51100000000E-03 0. -1.
        -11    1    3    3    0    0 -0.27135095228E+02  0.40003196887E+01  0.22989747112E+02  0.35788886867E+02  0.51100000000E-03 0.  1.
         12    1    3    3    0    0  0.35931612182E+02 -0.61515939294E+01 -0.25113667415E+02  0.44267585804E+02  0.00000000000E+00 0. -1.
</event>
<event>
 7    1  0.1654239E-015  0.9000766E+02  0.7816164E-02  0.1186339E+00
        -11   -1    0    0    0    0  0.00000000000E+00  0.00000000000E+00  0.45593999997E+02  0.45594000000E+02  0.51100000000E-03 0. -1.
         11   -1    0    0    0    0 -0.00000000000E+00 -0.00000000000E+00 -0.45593999997E+02  0.45594000000E+02  0.51100000000E-03 0.  1.
    9900012    2    1    2    0    0  0.35301058094E+00 -0.11076198756E+01 -0.20434625790E+00  0.90007662907E+02  0.89999923258E+02 0.  0.
        -12    1    1    2    0    0 -0.35301058094E+00  0.11076198756E+01  0.20434625790E+00  0.11803370926E+01  0.00000000000E+00 0.  1.
         11    1    3    3    0    0 -0.55957262148E+01  0.78522650105E+01  0.30026320752E+00  0.96467805988E+01  0.51100000000E-03 0. -1.
        -11    1    3    3    0    0  0.45002199353E+01  0.35425078365E+02  0.28657177464E+01  0.35824579483E+02  0.51100000000E-03 0.  1.
         12    1    3    3    0    0  0.14485168604E+01 -0.44384963251E+02 -0.33703272118E+01  0.44536302826E+02  0.00000000000E+00 0. -1.
</event>
<event>
 7    1  0.1654239E-015  0.9000768E+02  0.7816164E-02  0.1186339E+00
        -11   -1    0    0    0    0  0.00000000000E+00  0.00000000000E+00  0.45593999997E+02  0.45594000000E+02  0.51100000000E-03 0.  1.
         11   -1    0    0    0    0 -0.00000000000E+00 -0.00000000000E+00 -0.45593999997E+02  0.45594000000E+02  0.51100000000E-03 0. -1.
    9900012    2    1    2    0    0 -0.37886550489E+00  0.10103747357E+01  0.47828866423E+00  0.90007679610E+02  0.89999940181E+02 0.  0.
        -12    1    1    2    0    0  0.37886550489E+00 -0.10103747357E+01 -0.47828866423E+00  0.11803203903E+01  0.00000000000E+00 0.  1.
         11    1    3    3    0    0 -0.82900196120E+00 -0.30768359503E+01  0.80752786720E+01  0.86812608306E+01  0.51100000000E-03 0. -1.
        -11    1    3    3    0    0 -0.15137833644E+02  0.25107945629E+02  0.25691897322E+02  0.38982515688E+02  0.51100000000E-03 0.  1.
         12    1    3    3    0    0  0.15587970100E+02 -0.21020734943E+02 -0.33288887329E+02  0.42343903091E+02  0.00000000000E+00 0. -1.
</event>
<event>
 7    1  0.1654239E-015  0.9000773E+02  0.7816164E-02  0.1186339E+00
        -11   -1    0    0    0    0  0.00000000000E+00  0.00000000000E+00  0.45593999997E+02  0.45594000000E+02  0.51100000000E-03 0.  1.
         11   -1    0    0    0    0 -0.00000000000E+00 -0.00000000000E+00 -0.45593999997E+02  0.45594000000E+02  0.51100000000E-03 0. -1.
    9900012    2    1    2    0    0  0.30375093545E+00 -0.61905128127E+00 -0.95788724319E+00  0.90007730077E+02  0.89999991314E+02 0.  0.
        -12    1    1    2    0    0 -0.30375093545E+00  0.61905128127E+00  0.95788724319E+00  0.11802699226E+01  0.00000000000E+00 0.  1.
         11    1    3    3    0    0 -0.32738483571E+02  0.10453976215E+02  0.74959264402E+01  0.35175031466E+02  0.51100000000E-03 0. -1.
        -11    1    3    3    0    0 -0.33545147139E+01  0.11070427688E+02 -0.14679827945E+01  0.11660279238E+02  0.51100000000E-03 0.  1.
        -12    1    3    3    0    0  0.36396749220E+02 -0.22143455185E+02 -0.69858308889E+01  0.43172419373E+02  0.00000000000E+00 0.  1.
</event>
<event>
 7    1  0.1654239E-015  0.9000773E+02  0.7816164E-02  0.1186339E+00
        -11   -1    0    0    0    0  0.00000000000E+00  0.00000000000E+00  0.45593999997E+02  0.45594000000E+02  0.51100000000E-03 0. -1.
         11   -1    0    0    0    0 -0.00000000000E+00 -0.00000000000E+00 -0.45593999997E+02  0.45594000000E+02  0.51100000000E-03 0.  1.
    9900012    2    1    2    0    0  0.98149043856E+00 -0.32691741334E-01 -0.65471865449E+00  0.90007725139E+02  0.89999986311E+02 0.  0.
        -12    1    1    2    0    0 -0.98149043856E+00  0.32691741334E-01  0.65471865449E+00  0.11802748610E+01  0.00000000000E+00 0.  1.
         11    1    3    3    0    0  0.42838384140E+00 -0.29776871453E+02  0.28344343472E+02  0.41112618420E+02  0.51100000000E-03 0. -1.
        -11    1    3    3    0    0 -0.60035163808E+01 -0.20564318884E+01 -0.80643922915E+01  0.10261848973E+02  0.51100000000E-03 0.  1.
        -12    1    3    3    0    0  0.65566229779E+01  0.31800611600E+02 -0.20934669835E+02  0.38633257746E+02  0.00000000000E+00 0.  1.
</event>
<event>
 7    1  0.1654239E-015  0.9000779E+02  0.7816164E-02  0.1186339E+00
        -11   -1    0    0    0    0  0.00000000000E+00  0.00000000000E+00  0.45593999997E+02  0.45594000000E+02  0.51100000000E-03 0.  1.
         11   -1    0    0    0    0 -0.00000000000E+00 -0.00000000000E+00 -0.45593999997E+02  0.45594000000E+02  0.51100000000E-03 0. -1.
    9900012    2    1    2    0    0 -0.10332642785E+01 -0.54798570290E+00 -0.15804148183E+00  0.90007787939E+02  0.90000049939E+02 0.  0.
        -12    1    1    2    0    0  0.10332642785E+01  0.54798570290E+00  0.15804148183E+00  0.11802120614E+01  0.00000000000E+00 0.  1.
         11    1    3    3    0    0 -0.37552713485E+02 -0.12389910882E+02  0.16823718364E+02  0.42973872081E+02  0.51100000000E-03 0. -1.
        -11    1    3    3    0    0  0.17794696368E+01 -0.31018537432E+01 -0.70948578986E+01  0.79451254046E+01  0.51100000000E-03 0.  1.
        -12    1    3    3    0    0  0.34739979570E+02  0.14943778922E+02 -0.98869019469E+01  0.39088790453E+02  0.00000000000E+00 0.  1.
</event>
<event>
 7    1  0.1654239E-015  0.9000772E+02  0.7816164E-02  0.1186339E+00
        -11   -1    0    0    0    0  0.00000000000E+00  0.00000000000E+00  0.45593999997E+02  0.45594000000E+02  0.51100000000E-03 0.  1.
         11   -1    0    0    0    0 -0.00000000000E+00 -0.00000000000E+00 -0.45593999997E+02  0.45594000000E+02  0.51100000000E-03 0. -1.
    9900012    2    1    2    0    0  0.92859311524E+00  0.54954387716E+00  0.47831419237E+00  0.90007716935E+02  0.89999977999E+02 0.  0.
        -12    1    1    2    0    0 -0.92859311524E+00 -0.54954387716E+00 -0.47831419237E+00  0.11802830649E+01  0.00000000000E+00 0.  1.
         11    1    3    3    0    0  0.29191130418E+02 -0.17643651267E+01 -0.24392225685E+01  0.29345951788E+02  0.51100000000E-03 0. -1.
        -11    1    3    3    0    0  0.25526509856E+01 -0.74997186376E+01  0.21812366421E+02  0.23206489089E+02  0.51100000000E-03 0.  1.
        -12    1    3    3    0    0 -0.30815188288E+02  0.98136276415E+01 -0.18894829660E+02  0.37455276058E+02  0.00000000000E+00 0.  1.
</event>
<event>
 7    1  0.1654239E-015  0.9000767E+02  0.7816164E-02  0.1186339E+00
        -11   -1    0    0    0    0  0.00000000000E+00  0.00000000000E+00  0.45593999997E+02  0.45594000000E+02  0.51100000000E-03 0.  1.
         11   -1    0    0    0    0 -0.00000000000E+00 -0.00000000000E+00 -0.45593999997E+02  0.45594000000E+02  0.51100000000E-03 0. -1.
    9900012    2    1    2    0    0 -0.42377800487E+00  0.10658551978E+01 -0.27847867236E+00  0.90007667220E+02  0.89999927627E+02 0.  0.
        -12    1    1    2    0    0  0.42377800487E+00 -0.10658551978E+01  0.27847867236E+00  0.11803327798E+01  0.00000000000E+00 0.  1.
         11    1    3    3    0    0 -0.17808883358E+01 -0.12339480729E+02  0.76513397439E+01  0.14627964591E+02  0.51100000000E-03 0. -1.
        -11    1    3    3    0    0  0.26865931266E+02  0.19095495855E+02  0.18841528842E+02  0.37966030002E+02  0.51100000000E-03 0.  1.
         12    1    3    3    0    0 -0.25508820935E+02 -0.56901599278E+01 -0.26771347258E+02  0.37413672628E+02  0.00000000000E+00 0. -1.
</event>
<event>
 7    1  0.1654239E-015  0.9000778E+02  0.7816164E-02  0.1186339E+00
        -11   -1    0    0    0    0  0.00000000000E+00  0.00000000000E+00  0.45593999997E+02  0.45594000000E+02  0.51100000000E-03 0. -1.
         11   -1    0    0    0    0 -0.00000000000E+00 -0.00000000000E+00 -0.45593999997E+02  0.45594000000E+02  0.51100000000E-03 0.  1.
    9900012    2    1    2    0    0 -0.89220936518E+00 -0.65799121745E+00 -0.40486866365E+00  0.90007784499E+02  0.90000046455E+02 0.  0.
        -12    1    1    2    0    0  0.89220936518E+00  0.65799121745E+00  0.40486866365E+00  0.11802155008E+01  0.00000000000E+00 0.  1.
         11    1    3    3    0    0  0.14589289644E+02 -0.56763041415E+00  0.34720112177E+02  0.37665047013E+02  0.51100000000E-03 0. -1.
        -11    1    3    3    0    0  0.30824151513E+01  0.51848813055E+01  0.49890103734E+01  0.78278031455E+01  0.51100000000E-03 0.  1.
        -12    1    3    3    0    0 -0.18563914161E+02 -0.52752421088E+01 -0.40113991214E+02  0.44514934341E+02  0.00000000000E+00 0.  1.
</event>
<event>
 7    1  0.1654239E-015  0.9000765E+02  0.7816164E-02  0.1186339E+00
        -11   -1    0    0    0    0  0.00000000000E+00  0.00000000000E+00  0.45593999997E+02  0.45594000000E+02  0.51100000000E-03 0. -1.
         11   -1    0    0    0    0 -0.00000000000E+00 -0.00000000000E+00 -0.45593999997E+02  0.45594000000E+02  0.51100000000E-03 0.  1.
    9900012    2    1    2    0    0  0.71857688816E+00  0.88742755876E+00  0.29889656645E+00  0.90007652774E+02  0.89999912991E+02 0.  0.
        -12    1    1    2    0    0 -0.71857688816E+00 -0.88742755876E+00 -0.29889656645E+00  0.11803472259E+01  0.00000000000E+00 0.  1.
         11    1    3    3    0    0  0.73430111169E+01 -0.52006337992E+01  0.35104604649E+02  0.36239476707E+02  0.51100000000E-03 0. -1.
        -11    1    3    3    0    0 -0.50088447941E+00 -0.91022257128E+01  0.52315680117E+01  0.10510504379E+02  0.51100000000E-03 0.  1.
        -12    1    3    3    0    0 -0.61235497494E+01  0.15190287071E+02 -0.40037276094E+02  0.43257671688E+02  0.00000000000E+00 0.  1.
</event>
<event>
 7    1  0.1654239E-015  0.9000773E+02  0.7816164E-02  0.1186339E+00
        -11   -1    0    0    0    0  0.00000000000E+00  0.00000000000E+00  0.45593999997E+02  0.45594000000E+02  0.51100000000E-03 0.  1.
         11   -1    0    0    0    0 -0.00000000000E+00 -0.00000000000E+00 -0.45593999997E+02  0.45594000000E+02  0.51100000000E-03 0. -1.
    9900012    2    1    2    0    0 -0.38992372149E+00  0.10006748769E+01 -0.48952534300E+00  0.90007734869E+02  0.89999996169E+02 0.  0.
        -12    1    1    2    0    0  0.38992372149E+00 -0.10006748769E+01  0.48952534300E+00  0.11802651309E+01  0.00000000000E+00 0.  1.
         11    1    3    3    0    0 -0.24195820070E+02  0.16713568978E+02 -0.24873235078E+02  0.38515697065E+02  0.51100000000E-03 0. -1.
        -11    1    3    3    0    0 -0.20743743416E+01  0.89279433441E+01  0.21811679400E+01  0.94217140218E+01  0.51100000000E-03 0.  1.
        -12    1    3    3    0    0  0.25880270690E+02 -0.24640837446E+02  0.22202541795E+02  0.42070323783E+02  0.00000000000E+00 0.  1.
</event>
<event>
 7    1  0.1654239E-015  0.9000776E+02  0.7816164E-02  0.1186339E+00
        -11   -1    0    0    0    0  0.00000000000E+00  0.00000000000E+00  0.45593999997E+02  0.45594000000E+02  0.51100000000E-03 0.  1.
         11   -1    0    0    0    0 -0.00000000000E+00 -0.00000000000E+00 -0.45593999997E+02  0.45594000000E+02  0.51100000000E-03 0. -1.
    9900012    2    1    2    0    0 -0.10752875184E+01 -0.36700710022E+00 -0.31941930065E+00  0.90007760131E+02  0.90000021765E+02 0.  0.
        -12    1    1    2    0    0  0.10752875184E+01  0.36700710022E+00  0.31941930065E+00  0.11802398690E+01  0.00000000000E+00 0.  1.
         11    1    3    3    0    0  0.24584789721E+02 -0.27777328463E+02 -0.17993073696E+01  0.37137977455E+02  0.51100000000E-03 0. -1.
        -11    1    3    3    0    0 -0.41614492287E+01 -0.19253870428E+01  0.13743225232E+02  0.14487961036E+02  0.51100000000E-03 0.  1.
        -12    1    3    3    0    0 -0.21498628011E+02  0.29335708406E+02 -0.12263337163E+02  0.38381821640E+02  0.00000000000E+00 0.  1.
</event>
<event>
 7    1  0.1654239E-015  0.9000776E+02  0.7816164E-02  0.1186339E+00
        -11   -1    0    0    0    0  0.00000000000E+00  0.00000000000E+00  0.45593999997E+02  0.45594000000E+02  0.51100000000E-03 0. -1.
         11   -1    0    0    0    0 -0.00000000000E+00 -0.00000000000E+00 -0.45593999997E+02  0.45594000000E+02  0.51100000000E-03 0.  1.
    9900012    2    1    2    0    0 -0.84121238714E+00  0.76433122704E+00  0.31799059717E+00  0.90007763361E+02  0.90000025037E+02 0.  0.
        -12    1    1    2    0    0  0.84121238714E+00 -0.76433122704E+00 -0.31799059717E+00  0.11802366393E+01  0.00000000000E+00 0.  1.
         11    1    3    3    0    0 -0.24655933078E+02  0.15616539039E+02 -0.14693898914E+02  0.32675709526E+02  0.51100000000E-03 0. -1.
        -11    1    3    3    0    0 -0.11783878410E+02 -0.10461902611E+02 -0.46480944792E+01  0.16429119854E+02  0.51100000000E-03 0.  1.
        -12    1    3    3    0    0  0.35598599101E+02 -0.43903052008E+01  0.19659983991E+02  0.40902933981E+02  0.00000000000E+00 0.  1.
</event>
<event>
 7    1  0.1654239E-015  0.9000787E+02  0.7816164E-02  0.1186339E+00
        -11   -1    0    0    0    0  0.00000000000E+00  0.00000000000E+00  0.45593999997E+02  0.45594000000E+02  0.51100000000E-03 0.  1.
         11   -1    0    0    0    0 -0.00000000000E+00 -0.00000000000E+00 -0.45593999997E+02  0.45594000000E+02  0.51100000000E-03 0. -1.
    9900012    2    1    2    0    0 -0.19624433714E+00  0.97567111815E+00 -0.63423424967E+00  0.90007873289E+02  0.90000136416E+02 0.  0.
        -12    1    1    2    0    0  0.19624433714E+00 -0.97567111815E+00  0.63423424967E+00  0.11801267110E+01  0.00000000000E+00 0.  1.
         11    1    3    3    0    0  0.33457265711E+01 -0.28321053997E+02 -0.32415653891E+02  0.43174652323E+02  0.51100000000E-03 0. -1.
        -11    1    3    3    0    0 -0.74144140045E+01  0.59761061896E+01  0.39308038874E+01  0.10302358938E+02  0.51100000000E-03 0.  1.
        -12    1    3    3    0    0  0.38724430962E+01  0.23320618926E+02  0.27850615754E+02  0.36530862028E+02  0.00000000000E+00 0.  1.
</event>
<event>
 7    1  0.1654239E-015  0.9000773E+02  0.7816164E-02  0.1186339E+00
        -11   -1    0    0    0    0  0.00000000000E+00  0.00000000000E+00  0.45593999997E+02  0.45594000000E+02  0.51100000000E-03 0.  1.
         11   -1    0    0    0    0 -0.00000000000E+00 -0.00000000000E+00 -0.45593999997E+02  0.45594000000E+02  0.51100000000E-03 0. -1.
    9900012    2    1    2    0    0 -0.11132455453E+01  0.13879537167E+00  0.36669723465E+00  0.90007726023E+02  0.89999987206E+02 0.  0.
        -12    1    1    2    0    0  0.11132455453E+01 -0.13879537167E+00 -0.36669723465E+00  0.11802739772E+01  0.00000000000E+00 0.  1.
         11    1    3    3    0    0 -0.61095707435E+00  0.16020629315E+02 -0.17905088457E+02  0.24033851650E+02  0.51100000000E-03 0. -1.
        -11    1    3    3    0    0  0.26829674929E+02 -0.16873431545E+02 -0.22597405859E+01  0.31774999240E+02  0.51100000000E-03 0.  1.
         12    1    3    3    0    0 -0.27331963400E+02  0.99159760176E+00  0.20531526278E+02  0.34198875134E+02  0.00000000000E+00 0. -1.
</event>
<event>
 7    1  0.1654239E-015  0.9000778E+02  0.7816164E-02  0.1186339E+00
        -11   -1    0    0    0    0  0.00000000000E+00  0.00000000000E+00  0.45593999997E+02  0.45594000000E+02  0.51100000000E-03 0. -1.
         11   -1    0    0    0    0 -0.00000000000E+00 -0.00000000000E+00 -0.45593999997E+02  0.45594000000E+02  0.51100000000E-03 0.  1.
    9900012    2    1    2    0    0 -0.60060266556E-01 -0.72391049085E+00  0.93019323918E+00  0.90007782606E+02  0.90000044537E+02 0.  0.
        -12    1    1    2    0    0  0.60060266556E-01  0.72391049085E+00 -0.93019323918E+00  0.11802173938E+01  0.00000000000E+00 0.  1.
         11    1    3    3    0    0  0.26184969997E+02 -0.22342497846E+02  0.24381094478E+02  0.42181484468E+02  0.51100000000E-03 0. -1.
        -11    1    3    3    0    0 -0.52444873245E+01  0.58292874171E+01  0.48415957056E+01  0.92155460134E+01  0.51100000000E-03 0.  1.
        -12    1    3    3    0    0 -0.21000542939E+02  0.15789299939E+02 -0.28292496944E+02  0.38610752124E+02  0.00000000000E+00 0.  1.
</event>
<event>
 7    1  0.1654239E-015  0.9000774E+02  0.7816164E-02  0.1186339E+00
        -11   -1    0    0    0    0  0.00000000000E+00  0.00000000000E+00  0.45593999997E+02  0.45594000000E+02  0.51100000000E-03 0. -1.
         11   -1    0    0    0    0 -0.00000000000E+00 -0.00000000000E+00 -0.45593999997E+02  0.45594000000E+02  0.51100000000E-03 0.  1.
    9900012    2    1    2    0    0  0.26363567240E+00 -0.39181344644E-01  0.11497698546E+01  0.90007741696E+02  0.90000003086E+02 0.  0.
        -12    1    1    2    0    0 -0.26363567240E+00  0.39181344644E-01 -0.11497698546E+01  0.11802583040E+01  0.00000000000E+00 0.  1.
         11    1    3    3    0    0  0.12296557276E+02 -0.13327706150E+02  0.21450882858E+01  0.18260188282E+02  0.51100000000E-03 0. -1.
        -11    1    3    3    0    0  0.21505399162E+02 -0.67259943913E+01 -0.18301450139E+02  0.29028680148E+02  0.51100000000E-03 0.  1.
         12    1    3    3    0    0 -0.33538320765E+02  0.20014519197E+02  0.17306131708E+02  0.42718873266E+02  0.00000000000E+00 0. -1.
</event>
<event>
 7    1  0.1654239E-015  0.9000749E+02  0.7816164E-02  0.1186340E+00
        -11   -1    0    0    0    0  0.00000000000E+00  0.00000000000E+00  0.45593999997E+02  0.45594000000E+02  0.51100000000E-03 0.  1.
         11   -1    0    0    0    0 -0.00000000000E+00 -0.00000000000E+00 -0.45593999997E+02  0.45594000000E+02  0.51100000000E-03 0. -1.
    9900012    2    1    2    0    0  0.84446730363E+00  0.70179908216E+00 -0.43353041492E+00  0.90007493499E+02  0.89999751613E+02 0.  0.
        -12    1    1    2    0    0 -0.84446730363E+00 -0.70179908216E+00  0.43353041492E+00  0.11805065012E+01  0.00000000000E+00 0.  1.
         11    1    3    3    0    0 -0.78970702825E+01 -0.65471014662E+01  0.24917727374E+01  0.10556381401E+02  0.51100000000E-03 0. -1.
        -11    1    3    3    0    0 -0.15005114751E+02  0.34755103942E+02  0.12652353350E+02  0.39914317785E+02  0.51100000000E-03 0.  1.
         12    1    3    3    0    0  0.23746652337E+02 -0.27506203394E+02 -0.15577656503E+02  0.39536794312E+02  0.00000000000E+00 0. -1.
</event>
<event>
 7    1  0.1654239E-015  0.9000769E+02  0.7816164E-02  0.1186339E+00
        -11   -1    0    0    0    0  0.00000000000E+00  0.00000000000E+00  0.45593999997E+02  0.45594000000E+02  0.51100000000E-03 0.  1.
         11   -1    0    0    0    0 -0.00000000000E+00 -0.00000000000E+00 -0.45593999997E+02  0.45594000000E+02  0.51100000000E-03 0. -1.
    9900012    2    1    2    0    0  0.42078411891E+00  0.49233962640E+00 -0.98674637563E+00  0.90007692416E+02  0.89999953156E+02 0.  0.
        -12    1    1    2    0    0 -0.42078411891E+00 -0.49233962640E+00  0.98674637563E+00  0.11803075838E+01  0.00000000000E+00 0.  1.
         11    1    3    3    0    0  0.17178406781E+02 -0.20656552792E+02 -0.26913605125E+02  0.38028055089E+02  0.51100000000E-03 0. -1.
        -11    1    3    3    0    0  0.41924237439E+01 -0.66686365128E+01 -0.10260311418E+01  0.79435426577E+01  0.51100000000E-03 0.  1.
        -12    1    3    3    0    0 -0.20950046406E+02  0.27817528931E+02  0.26952889891E+02  0.44036094669E+02  0.00000000000E+00 0.  1.
</event>
<event>
 7    1  0.1654239E-015  0.9000755E+02  0.7816164E-02  0.1186339E+00
        -11   -1    0    0    0    0  0.00000000000E+00  0.00000000000E+00  0.45593999997E+02  0.45594000000E+02  0.51100000000E-03 0.  1.
         11   -1    0    0    0    0 -0.00000000000E+00 -0.00000000000E+00 -0.45593999997E+02  0.45594000000E+02  0.51100000000E-03 0. -1.
    9900012    2    1    2    0    0 -0.52605962043E+00  0.71694151347E+00 -0.77635456341E+00  0.90007546585E+02  0.89999805399E+02 0.  0.
        -12    1    1    2    0    0  0.52605962043E+00 -0.71694151347E+00  0.77635456341E+00  0.11804534155E+01  0.00000000000E+00 0.  1.
         11    1    3    3    0    0  0.76120418732E+01  0.16205073798E+02 -0.40287664440E+02  0.44086772444E+02  0.51100000000E-03 0. -1.
        -11    1    3    3    0    0 -0.58272969519E+01  0.11311732470E+01  0.59822547379E+01  0.84275924612E+01  0.51100000000E-03 0.  1.
        -12    1    3    3    0    0 -0.23108045417E+01 -0.16619305532E+02  0.33529055138E+02  0.37493181679E+02  0.00000000000E+00 0.  1.
</event>
<event>
 7    1  0.1654239E-015  0.9000772E+02  0.7816164E-02  0.1186339E+00
        -11   -1    0    0    0    0  0.00000000000E+00  0.00000000000E+00  0.45593999997E+02  0.45594000000E+02  0.51100000000E-03 0.  1.
         11   -1    0    0    0    0 -0.00000000000E+00 -0.00000000000E+00 -0.45593999997E+02  0.45594000000E+02  0.51100000000E-03 0. -1.
    9900012    2    1    2    0    0  0.36240488342E+00 -0.43408180705E+00 -0.10360010269E+01  0.90007719337E+02  0.89999980433E+02 0.  0.
        -12    1    1    2    0    0 -0.36240488342E+00  0.43408180705E+00  0.10360010269E+01  0.11802806626E+01  0.00000000000E+00 0.  1.
         11    1    3    3    0    0  0.56473409142E+00  0.93272052920E+01 -0.38664687570E+02  0.39777804720E+02  0.51100000000E-03 0. -1.
        -11    1    3    3    0    0 -0.43479628456E+01  0.92662910404E+01  0.32861569483E+01  0.10750244569E+02  0.51100000000E-03 0.  1.
        -12    1    3    3    0    0  0.41456336376E+01 -0.19027578139E+02  0.34342529595E+02  0.39479670048E+02  0.00000000000E+00 0.  1.
</event>
<event>
 7    1  0.1654239E-015  0.9000776E+02  0.7816164E-02  0.1186339E+00
        -11   -1    0    0    0    0  0.00000000000E+00  0.00000000000E+00  0.45593999997E+02  0.45594000000E+02  0.51100000000E-03 0.  1.
         11   -1    0    0    0    0 -0.00000000000E+00 -0.00000000000E+00 -0.45593999997E+02  0.45594000000E+02  0.51100000000E-03 0. -1.
    9900012    2    1    2    0    0 -0.13174315521E+00  0.11078602426E+01 -0.38503702483E+00  0.90007761005E+02  0.90000022650E+02 0.  0.
        -12    1    1    2    0    0  0.13174315521E+00 -0.11078602426E+01  0.38503702483E+00  0.11802389955E+01  0.00000000000E+00 0.  1.
         11    1    3    3    0    0 -0.32955322698E+02 -0.91757199932E+01 -0.12786124322E+02  0.36520297192E+02  0.51100000000E-03 0. -1.
        -11    1    3    3    0    0 -0.33432375662E+01 -0.68297823230E+01 -0.57678119530E+01  0.95441510356E+01  0.51100000000E-03 0.  1.
        -12    1    3    3    0    0  0.36166817109E+02  0.17113362559E+02  0.18168899250E+02  0.43943312777E+02  0.00000000000E+00 0.  1.
</event>
<event>
 7    1  0.1654239E-015  0.9000773E+02  0.7816164E-02  0.1186339E+00
        -11   -1    0    0    0    0  0.00000000000E+00  0.00000000000E+00  0.45593999997E+02  0.45594000000E+02  0.51100000000E-03 0.  1.
         11   -1    0    0    0    0 -0.00000000000E+00 -0.00000000000E+00 -0.45593999997E+02  0.45594000000E+02  0.51100000000E-03 0. -1.
    9900012    2    1    2    0    0 -0.12423661480E+00  0.64449275060E+00 -0.98093693885E+00  0.90007727608E+02  0.89999988812E+02 0.  0.
        -12    1    1    2    0    0  0.12423661480E+00 -0.64449275060E+00  0.98093693885E+00  0.11802723923E+01  0.00000000000E+00 0.  1.
         11    1    3    3    0    0 -0.23707325964E+02  0.21133145713E+02  0.15386459247E+02  0.35290087568E+02  0.51100000000E-03 0. -1.
        -11    1    3    3    0    0 -0.14261719933E+01 -0.76735245246E+01  0.12304295591E+02  0.14570951769E+02  0.51100000000E-03 0.  1.
        -12    1    3    3    0    0  0.25009261342E+02 -0.12815128438E+02 -0.28671691778E+02  0.40146688271E+02  0.00000000000E+00 0.  1.
</event>
<event>
 7    1  0.1654239E-015  0.9000771E+02  0.7816164E-02  0.1186339E+00
        -11   -1    0    0    0    0  0.00000000000E+00  0.00000000000E+00  0.45593999997E+02  0.45594000000E+02  0.51100000000E-03 0. -1.
         11   -1    0    0    0    0 -0.00000000000E+00 -0.00000000000E+00 -0.45593999997E+02  0.45594000000E+02  0.51100000000E-03 0.  1.
    9900012    2    1    2    0    0 -0.21872974474E+00 -0.69950592878E+00  0.92516598275E+00  0.90007710484E+02  0.89999971463E+02 0.  0.
        -12    1    1    2    0    0  0.21872974474E+00  0.69950592878E+00 -0.92516598275E+00  0.11802895159E+01  0.00000000000E+00 0.  1.
         11    1    3    3    0    0 -0.66944046394E+01 -0.12897112793E+01  0.27863686623E+02  0.28685596406E+02  0.51100000000E-03 0. -1.
        -11    1    3    3    0    0  0.70105577984E+01  0.15743375864E+02  0.11014136557E+02  0.20452701743E+02  0.51100000000E-03 0.  1.
        -12    1    3    3    0    0 -0.53488290366E+00 -0.15153170513E+02 -0.37952657197E+02  0.40869412335E+02  0.00000000000E+00 0.  1.
</event>
<event>
 7    1  0.1718933E-015  0.9000771E+02  0.7816164E-02  0.1186339E+00
        -11   -1    0    0    0    0  0.00000000000E+00  0.00000000000E+00  0.45593999997E+02  0.45594000000E+02  0.51100000000E-03 0. -1.
         11   -1    0    0    0    0 -0.00000000000E+00 -0.00000000000E+00 -0.45593999997E+02  0.45594000000E+02  0.51100000000E-03 0.  1.
    9900012    2    1    2    0    0  0.87985956648E+00  0.30984288893E+00  0.72313311661E+00  0.90007713180E+02  0.89999974194E+02 0.  0.
        -12    1    1    2    0    0 -0.87985956648E+00 -0.30984288893E+00 -0.72313311661E+00  0.11802868198E+01  0.00000000000E+00 0.  1.
         11    1    3    3    0    0  0.28779189260E+01 -0.33662595156E+01 -0.90139375396E+01  0.10043166368E+02  0.51100000000E-03 0. -1.
        -11    1    3    3    0    0 -0.16553645344E+02  0.39681536642E+01 -0.31734528909E+02  0.36011800052E+02  0.51100000000E-03 0.  1.
         12    1    3    3    0    0  0.14555585984E+02 -0.29205125968E+00  0.41471599565E+02  0.43952746760E+02  0.00000000000E+00 0. -1.
</event>
<event>
 7    1  0.1654239E-015  0.9000774E+02  0.7816164E-02  0.1186339E+00
        -11   -1    0    0    0    0  0.00000000000E+00  0.00000000000E+00  0.45593999997E+02  0.45594000000E+02  0.51100000000E-03 0. -1.
         11   -1    0    0    0    0 -0.00000000000E+00 -0.00000000000E+00 -0.45593999997E+02  0.45594000000E+02  0.51100000000E-03 0.  1.
    9900012    2    1    2    0    0 -0.42731010246E+00  0.71967778263E+00  0.83215298230E+00  0.90007742138E+02  0.90000003534E+02 0.  0.
        -12    1    1    2    0    0  0.42731010246E+00 -0.71967778263E+00 -0.83215298230E+00  0.11802578618E+01  0.00000000000E+00 0.  1.
         11    1    3    3    0    0  0.26589937773E+02 -0.21287026253E+02  0.13142178800E+02  0.36508617357E+02  0.51100000000E-03 0. -1.
        -11    1    3    3    0    0 -0.26076543212E+01 -0.87904520371E+01  0.51288151353E+01  0.10506029366E+02  0.51100000000E-03 0.  1.
        -12    1    3    3    0    0 -0.24409593554E+02  0.30797156073E+02 -0.17438840953E+02  0.42993095416E+02  0.00000000000E+00 0.  1.
</event>
<event>
 7    1  0.1654239E-015  0.9000739E+02  0.7816164E-02  0.1186340E+00
        -11   -1    0    0    0    0  0.00000000000E+00  0.00000000000E+00  0.45593999997E+02  0.45594000000E+02  0.51100000000E-03 0.  1.
         11   -1    0    0    0    0 -0.00000000000E+00 -0.00000000000E+00 -0.45593999997E+02  0.45594000000E+02  0.51100000000E-03 0. -1.
    9900012    2    1    2    0    0  0.29358620387E+00 -0.68595223333E+00 -0.91493967850E+00  0.90007390860E+02  0.89999647619E+02 0.  0.
        -12    1    1    2    0    0 -0.29358620387E+00  0.68595223333E+00  0.91493967850E+00  0.11806091397E+01  0.00000000000E+00 0.  1.
         11    1    3    3    0    0  0.60436516385E+01  0.82982965898E+01 -0.56911532215E+01  0.11737831004E+02  0.51100000000E-03 0. -1.
        -11    1    3    3    0    0 -0.15586188478E+02  0.26183997483E+02  0.22304618023E+02  0.37762772420E+02  0.51100000000E-03 0.  1.
         12    1    3    3    0    0  0.98361230431E+01 -0.35168246306E+02 -0.17528404480E+02  0.40506787436E+02  0.00000000000E+00 0. -1.
</event>
<event>
 7    1  0.1654239E-015  0.9000748E+02  0.7816164E-02  0.1186340E+00
        -11   -1    0    0    0    0  0.00000000000E+00  0.00000000000E+00  0.45593999997E+02  0.45594000000E+02  0.51100000000E-03 0. -1.
         11   -1    0    0    0    0 -0.00000000000E+00 -0.00000000000E+00 -0.45593999997E+02  0.45594000000E+02  0.51100000000E-03 0.  1.
    9900012    2    1    2    0    0  0.23484546707E+00 -0.35922101470E+00  0.10997464435E+01  0.90007477077E+02  0.89999734974E+02 0.  0.
        -12    1    1    2    0    0 -0.23484546707E+00  0.35922101470E+00 -0.10997464435E+01  0.11805229226E+01  0.00000000000E+00 0.  1.
         11    1    3    3    0    0 -0.18037371688E+02 -0.29940843384E+02  0.18540053184E+02  0.39566835258E+02  0.51100000000E-03 0. -1.
        -11    1    3    3    0    0 -0.52729612640E+01  0.47692300324E+01  0.57255139414E+01  0.91285916629E+01  0.51100000000E-03 0.  1.
        -12    1    3    3    0    0  0.23545178419E+02  0.24812392337E+02 -0.23165820682E+02  0.41312050157E+02  0.00000000000E+00 0.  1.
</event>
<event>
 7    1  0.1654239E-015  0.9000794E+02  0.7816164E-02  0.1186339E+00
        -11   -1    0    0    0    0  0.00000000000E+00  0.00000000000E+00  0.45593999997E+02  0.45594000000E+02  0.51100000000E-03 0.  1.
         11   -1    0    0    0    0 -0.00000000000E+00 -0.00000000000E+00 -0.45593999997E+02  0.45594000000E+02  0.51100000000E-03 0. -1.
    9900012    2    1    2    0    0 -0.88540119111E+00 -0.33842232765E+00 -0.70290248277E+00  0.90007942018E+02  0.90000206052E+02 0.  0.
        -12    1    1    2    0    0  0.88540119111E+00  0.33842232765E+00  0.70290248277E+00  0.11800579822E+01  0.00000000000E+00 0.  1.
         11    1    3    3    0    0  0.11482802832E+02 -0.14075159953E+02  0.33989004359E+02  0.38538517176E+02  0.51100000000E-03 0. -1.
        -11    1    3    3    0    0 -0.53315224243E+01  0.68765924045E+01  0.53665490470E+01  0.10223135693E+02  0.51100000000E-03 0.  1.
        -12    1    3    3    0    0 -0.70366815986E+01  0.68601452204E+01 -0.40058455889E+02  0.41246289149E+02  0.00000000000E+00 0.  1.
</event>
<event>
 7    1  0.1654239E-015  0.9000867E+02  0.7816164E-02  0.1186337E+00
        -11   -1    0    0    0    0  0.00000000000E+00  0.00000000000E+00  0.45593999997E+02  0.45594000000E+02  0.51100000000E-03 0.  1.
         11   -1    0    0    0    0 -0.00000000000E+00 -0.00000000000E+00 -0.45593999997E+02  0.45594000000E+02  0.51100000000E-03 0. -1.
    9900012    2    1    2    0    0 -0.93253789405E-01  0.51636240855E+00 -0.10561709201E+01  0.90008668232E+02  0.90000941848E+02 0.  0.
        -12    1    1    2    0    0  0.93253789405E-01 -0.51636240855E+00  0.10561709201E+01  0.11793317679E+01  0.00000000000E+00 0.  1.
         11    1    3    3    0    0 -0.20530885613E+02 -0.19853628553E+02 -0.23860069819E+02  0.37215410286E+02  0.51100000000E-03 0. -1.
        -11    1    3    3    0    0 -0.83931485776E+01  0.17898814275E+01 -0.38003053433E+01  0.93856773615E+01  0.51100000000E-03 0.  1.
        -12    1    3    3    0    0  0.28830780401E+02  0.18580109534E+02  0.26604204242E+02  0.43407580584E+02  0.00000000000E+00 0.  1.
</event>
<event>
 7    1  0.1654239E-015  0.9000782E+02  0.7816164E-02  0.1186339E+00
        -11   -1    0    0    0    0  0.00000000000E+00  0.00000000000E+00  0.45593999997E+02  0.45594000000E+02  0.51100000000E-03 0. -1.
         11   -1    0    0    0    0 -0.00000000000E+00 -0.00000000000E+00 -0.45593999997E+02  0.45594000000E+02  0.51100000000E-03 0.  1.
    9900012    2    1    2    0    0  0.47931971775E-01 -0.30261805836E+00  0.11397135061E+01  0.90007821183E+02  0.90000083623E+02 0.  0.
        -12    1    1    2    0    0 -0.47931971775E-01  0.30261805836E+00 -0.11397135061E+01  0.11801788166E+01  0.00000000000E+00 0.  1.
         11    1    3    3    0    0  0.10224172171E+02  0.43949554645E+01  0.14815573289E+01  0.11226947158E+02  0.51100000000E-03 0. -1.
        -11    1    3    3    0    0 -0.47372462343E+01  0.36701484851E+02 -0.10323401163E+01  0.37020348709E+02  0.51100000000E-03 0.  1.
         12    1    3    3    0    0 -0.54389939645E+01 -0.41399058374E+02  0.69049629344E+00  0.41760525317E+02  0.00000000000E+00 0. -1.
</event>
<event>
 7    1  0.1654239E-015  0.9000743E+02  0.7816164E-02  0.1186340E+00
        -11   -1    0    0    0    0  0.00000000000E+00  0.00000000000E+00  0.45593999997E+02  0.45594000000E+02  0.51100000000E-03 0.  1.
         11   -1    0    0    0    0 -0.00000000000E+00 -0.00000000000E+00 -0.45593999997E+02  0.45594000000E+02  0.51100000000E-03 0. -1.
    9900012    2    1    2    0    0 -0.11153321708E+01  0.37803948275E+00  0.82927053629E-01  0.90007425310E+02  0.89999682524E+02 0.  0.
        -12    1    1    2    0    0  0.11153321708E+01 -0.37803948275E+00 -0.82927053629E-01  0.11805746897E+01  0.00000000000E+00 0.  1.
         11    1    3    3    0    0  0.93137454051E+01 -0.53018154034E+01 -0.15317848908E+01  0.10825962556E+02  0.51100000000E-03 0. -1.
        -11    1    3    3    0    0 -0.28096039297E+02 -0.16500897227E+02  0.26075394389E+02  0.41732400198E+02  0.51100000000E-03 0.  1.
         12    1    3    3    0    0  0.17666961721E+02  0.22180752113E+02 -0.24460682445E+02  0.37449062557E+02  0.00000000000E+00 0. -1.
</event>
<event>
 7    1  0.1654239E-015  0.9000777E+02  0.7816164E-02  0.1186339E+00
        -11   -1    0    0    0    0  0.00000000000E+00  0.00000000000E+00  0.45593999997E+02  0.45594000000E+02  0.51100000000E-03 0.  1.
         11   -1    0    0    0    0 -0.00000000000E+00 -0.00000000000E+00 -0.45593999997E+02  0.45594000000E+02  0.51100000000E-03 0. -1.
    9900012    2    1    2    0    0 -0.42804917054E+00 -0.10104055105E+01  0.43451853661E+00  0.90007766232E+02  0.90000027946E+02 0.  0.
        -12    1    1    2    0    0  0.42804917054E+00  0.10104055105E+01 -0.43451853661E+00  0.11802337678E+01  0.00000000000E+00 0.  1.
         11    1    3    3    0    0  0.20006322230E+02  0.25778558851E+02 -0.91343541431E+00  0.32643856852E+02  0.51100000000E-03 0. -1.
        -11    1    3    3    0    0  0.10964573300E+00  0.11415831313E+02 -0.67120822887E+01  0.13243310600E+02  0.51100000000E-03 0.  1.
        -12    1    3    3    0    0 -0.20544017134E+02 -0.38204795674E+02  0.80600362396E+01  0.44120598780E+02  0.00000000000E+00 0.  1.
</event>
<event>
 7    1  0.1654239E-015  0.9000768E+02  0.7816164E-02  0.1186339E+00
        -11   -1    0    0    0    0  0.00000000000E+00  0.00000000000E+00  0.45593999997E+02  0.45594000000E+02  0.51100000000E-03 0. -1.
         11   -1    0    0    0    0 -0.00000000000E+00 -0.00000000000E+00 -0.45593999997E+02  0.45594000000E+02  0.51100000000E-03 0.  1.
    9900012    2    1    2    0    0 -0.96148239468E+00 -0.67956529879E+00  0.83064290680E-01  0.90007679252E+02  0.89999939819E+02 0.  0.
        -12    1    1    2    0    0  0.96148239468E+00  0.67956529879E+00 -0.83064290680E-01  0.11803207475E+01  0.00000000000E+00 0.  1.
         11    1    3    3    0    0  0.36035485136E+01 -0.26794434872E+01 -0.12716798452E+02  0.13486361349E+02  0.51100000000E-03 0. -1.
        -11    1    3    3    0    0  0.16199111292E+02 -0.19957916708E+02 -0.19517909767E+02  0.32275043732E+02  0.51100000000E-03 0.  1.
         12    1    3    3    0    0 -0.20764142201E+02  0.21957794897E+02  0.32317772510E+02  0.44246274171E+02  0.00000000000E+00 0. -1.
</event>
<event>
 7    1  0.1654239E-015  0.9000769E+02  0.7816164E-02  0.1186339E+00
        -11   -1    0    0    0    0  0.00000000000E+00  0.00000000000E+00  0.45593999997E+02  0.45594000000E+02  0.51100000000E-03 0.  1.
         11   -1    0    0    0    0 -0.00000000000E+00 -0.00000000000E+00 -0.45593999997E+02  0.45594000000E+02  0.51100000000E-03 0. -1.
    9900012    2    1    2    0    0  0.84835910456E+00  0.81963682096E+00  0.40185081802E-01  0.90007689647E+02  0.89999950350E+02 0.  0.
        -12    1    1    2    0    0 -0.84835910456E+00 -0.81963682096E+00 -0.40185081802E-01  0.11803103530E+01  0.00000000000E+00 0.  1.
         11    1    3    3    0    0  0.12404460426E+01  0.64680724693E+01  0.59722566560E+01  0.88905859019E+01  0.51100000000E-03 0. -1.
        -11    1    3    3    0    0 -0.33613922920E+02  0.19835098506E+02 -0.28223221998E+01  0.39131732005E+02  0.51100000000E-03 0.  1.
         12    1    3    3    0    0  0.33221835982E+02 -0.25483534154E+02 -0.31097493744E+01  0.41985371740E+02  0.00000000000E+00 0. -1.
</event>
<event>
 7    1  0.1654239E-015  0.9000778E+02  0.7816164E-02  0.1186339E+00
        -11   -1    0    0    0    0  0.00000000000E+00  0.00000000000E+00  0.45593999997E+02  0.45594000000E+02  0.51100000000E-03 0. -1.
         11   -1    0    0    0    0 -0.00000000000E+00 -0.00000000000E+00 -0.45593999997E+02  0.45594000000E+02  0.51100000000E-03 0.  1.
    9900012    2    1    2    0    0  0.40858139881E+00  0.44582469727E+00  0.10135242261E+01  0.90007775540E+02  0.90000037377E+02 0.  0.
        -12    1    1    2    0    0 -0.40858139881E+00 -0.44582469727E+00 -0.10135242261E+01  0.11802244604E+01  0.00000000000E+00 0.  1.
         11    1    3    3    0    0  0.33529617321E+01  0.16505359220E+00  0.40979435959E+02  0.41116709095E+02  0.51100000000E-03 0. -1.
        -11    1    3    3    0    0 -0.10272124351E+01 -0.94814578449E+01 -0.21338224670E+01  0.97727379395E+01  0.51100000000E-03 0.  1.
        -12    1    3    3    0    0 -0.19171678982E+01  0.97622289500E+01 -0.37832089266E+02  0.39118328505E+02  0.00000000000E+00 0.  1.
</event>
<event>
 7    1  0.1654239E-015  0.9000773E+02  0.7816164E-02  0.1186339E+00
        -11   -1    0    0    0    0  0.00000000000E+00  0.00000000000E+00  0.45593999997E+02  0.45594000000E+02  0.51100000000E-03 0.  1.
         11   -1    0    0    0    0 -0.00000000000E+00 -0.00000000000E+00 -0.45593999997E+02  0.45594000000E+02  0.51100000000E-03 0. -1.
    9900012    2    1    2    0    0  0.10034972429E+01  0.16539629427E+00 -0.59889174321E+00  0.90007731399E+02  0.89999992653E+02 0.  0.
        -12    1    1    2    0    0 -0.10034972429E+01 -0.16539629427E+00  0.59889174321E+00  0.11802686011E+01  0.00000000000E+00 0.  1.
         11    1    3    3    0    0  0.92635569008E+01  0.10544463460E+02 -0.32143624785E+02  0.35074375414E+02  0.51100000000E-03 0. -1.
        -11    1    3    3    0    0 -0.19569826185E+01  0.83875584159E+01 -0.73289689327E+01  0.11309054029E+02  0.51100000000E-03 0.  1.
        -12    1    3    3    0    0 -0.63030770395E+01 -0.18766625581E+02  0.38873701975E+02  0.43624301956E+02  0.00000000000E+00 0.  1.
</event>
<event>
 7    1  0.1654239E-015  0.9000785E+02  0.7816164E-02  0.1186339E+00
        -11   -1    0    0    0    0  0.00000000000E+00  0.00000000000E+00  0.45593999997E+02  0.45594000000E+02  0.51100000000E-03 0.  1.
         11   -1    0    0    0    0 -0.00000000000E+00 -0.00000000000E+00 -0.45593999997E+02  0.45594000000E+02  0.51100000000E-03 0. -1.
    9900012    2    1    2    0    0 -0.47747319084E-01 -0.69015661632E+00 -0.95611424366E+00  0.90007851531E+02  0.90000114371E+02 0.  0.
        -12    1    1    2    0    0  0.47747319084E-01  0.69015661632E+00  0.95611424366E+00  0.11801484688E+01  0.00000000000E+00 0.  1.
         11    1    3    3    0    0 -0.32650752467E+02 -0.18975863865E+02  0.38122679925E+01  0.37956401748E+02  0.51100000000E-03 0. -1.
        -11    1    3    3    0    0 -0.78715661802E+01  0.40847747131E+01 -0.18463760563E+01  0.90584790880E+01  0.51100000000E-03 0.  1.
        -12    1    3    3    0    0  0.40474571328E+02  0.14200932536E+02 -0.29220061799E+01  0.42992970696E+02  0.00000000000E+00 0.  1.
</event>
<event>
 7    1  0.1654239E-015  0.9000779E+02  0.7816164E-02  0.1186339E+00
        -11   -1    0    0    0    0  0.00000000000E+00  0.00000000000E+00  0.45593999997E+02  0.45594000000E+02  0.51100000000E-03 0.  1.
         11   -1    0    0    0    0 -0.00000000000E+00 -0.00000000000E+00 -0.45593999997E+02  0.45594000000E+02  0.51100000000E-03 0. -1.
    9900012    2    1    2    0    0 -0.10176723245E+01 -0.27609545181E+00  0.53009532032E+00  0.90007793786E+02  0.90000055864E+02 0.  0.
        -12    1    1    2    0    0  0.10176723245E+01  0.27609545181E+00 -0.53009532032E+00  0.11802062139E+01  0.00000000000E+00 0.  1.
         11    1    3    3    0    0  0.98290981146E+01 -0.38361034407E+02 -0.68503311659E+01  0.40188395936E+02  0.51100000000E-03 0. -1.
        -11    1    3    3    0    0  0.34870185588E+01  0.72511619076E+00 -0.65442466972E+01  0.74506548044E+01  0.51100000000E-03 0.  1.
        -12    1    3    3    0    0 -0.14333788998E+02  0.37359822765E+02  0.13924673183E+02  0.42368743046E+02  0.00000000000E+00 0.  1.
</event>
<event>
 7    1  0.1654239E-015  0.9000761E+02  0.7816164E-02  0.1186339E+00
        -11   -1    0    0    0    0  0.00000000000E+00  0.00000000000E+00  0.45593999997E+02  0.45594000000E+02  0.51100000000E-03 0.  1.
         11   -1    0    0    0    0 -0.00000000000E+00 -0.00000000000E+00 -0.45593999997E+02  0.45594000000E+02  0.51100000000E-03 0. -1.
    9900012    2    1    2    0    0  0.68490717999E+00 -0.76337760564E+00  0.58435458945E+00  0.90007612987E+02  0.89999872678E+02 0.  0.
        -12    1    1    2    0    0 -0.68490717999E+00  0.76337760564E+00 -0.58435458945E+00  0.11803870129E+01  0.00000000000E+00 0.  1.
         11    1    3    3    0    0  0.56675903055E+01 -0.38896700644E+01 -0.14991647706E+01  0.70355247389E+01  0.51100000000E-03 0. -1.
        -11    1    3    3    0    0 -0.11217781937E+02 -0.29318957428E+02  0.27147344376E+02  0.41502026495E+02  0.51100000000E-03 0.  1.
         12    1    3    3    0    0  0.62350988114E+01  0.32445249886E+02 -0.25063825016E+02  0.41470061753E+02  0.00000000000E+00 0. -1.
</event>
<event>
 7    1  0.1654239E-015  0.9000777E+02  0.7816164E-02  0.1186339E+00
        -11   -1    0    0    0    0  0.00000000000E+00  0.00000000000E+00  0.45593999997E+02  0.45594000000E+02  0.51100000000E-03 0.  1.
         11   -1    0    0    0    0 -0.00000000000E+00 -0.00000000000E+00 -0.45593999997E+02  0.45594000000E+02  0.51100000000E-03 0. -1.
    9900012    2    1    2    0    0  0.61820112274E+00 -0.39707321136E+00 -0.92363801198E+00  0.90007768268E+02  0.90000030009E+02 0.  0.
        -12    1    1    2    0    0 -0.61820112274E+00  0.39707321136E+00  0.92363801198E+00  0.11802317317E+01  0.00000000000E+00 0.  1.
         11    1    3    3    0    0 -0.22495699652E+01  0.78530821572E+01  0.69271731099E+00  0.81982511507E+01  0.51100000000E-03 0. -1.
        -11    1    3    3    0    0 -0.67139996521E+01  0.24455443395E+02  0.27193359943E+02  0.37183670182E+02  0.51100000000E-03 0.  1.
         12    1    3    3    0    0  0.95817707401E+01 -0.32705598764E+02 -0.28809715266E+02  0.44625846935E+02  0.00000000000E+00 0. -1.
</event>
<event>
 7    1  0.1654239E-015  0.9000775E+02  0.7816164E-02  0.1186339E+00
        -11   -1    0    0    0    0  0.00000000000E+00  0.00000000000E+00  0.45593999997E+02  0.45594000000E+02  0.51100000000E-03 0.  1.
         11   -1    0    0    0    0 -0.00000000000E+00 -0.00000000000E+00 -0.45593999997E+02  0.45594000000E+02  0.51100000000E-03 0. -1.
    9900012    2    1    2    0    0  0.95960260825E+00  0.61792009388E+00  0.30054603676E+00  0.90007749887E+02  0.90000011386E+02 0.  0.
        -12    1    1    2    0    0 -0.95960260825E+00 -0.61792009388E+00 -0.30054603676E+00  0.11802501126E+01  0.00000000000E+00 0.  1.
         11    1    3    3    0    0 -0.16541983844E+01  0.10123497335E+02  0.20819602339E+01  0.10466906384E+02  0.51100000000E-03 0. -1.
        -11    1    3    3    0    0 -0.37571828045E+02 -0.11114149316E+02 -0.30800005109E+01  0.39302073496E+02  0.51100000000E-03 0.  1.
         12    1    3    3    0    0  0.40185629038E+02  0.16085720747E+01  0.12985863138E+01  0.40238770007E+02  0.00000000000E+00 0. -1.
</event>
<event>
 7    1  0.1654239E-015  0.9000764E+02  0.7816164E-02  0.1186339E+00
        -11   -1    0    0    0    0  0.00000000000E+00  0.00000000000E+00  0.45593999997E+02  0.45594000000E+02  0.51100000000E-03 0. -1.
         11   -1    0    0    0    0 -0.00000000000E+00 -0.00000000000E+00 -0.45593999997E+02  0.45594000000E+02  0.51100000000E-03 0.  1.
    9900012    2    1    2    0    0 -0.13101917160E+00 -0.60304089689E+00  0.10061887187E+01  0.90007644086E+02  0.89999904188E+02 0.  0.
        -12    1    1    2    0    0  0.13101917160E+00  0.60304089689E+00 -0.10061887187E+01  0.11803559143E+01  0.00000000000E+00 0.  1.
         11    1    3    3    0    0  0.55781014270E+01 -0.29157691903E+01 -0.91435444688E+01  0.11100510403E+02  0.51100000000E-03 0. -1.
        -11    1    3    3    0    0  0.72819999326E+01  0.33389196467E+02 -0.14546202463E+02  0.37141055048E+02  0.51100000000E-03 0.  1.
         12    1    3    3    0    0 -0.12991120531E+02 -0.31076468174E+02  0.24695935651E+02  0.41766078634E+02  0.00000000000E+00 0. -1.
</event>
<event>
 7    1  0.1654239E-015  0.9000778E+02  0.7816164E-02  0.1186339E+00
        -11   -1    0    0    0    0  0.00000000000E+00  0.00000000000E+00  0.45593999997E+02  0.45594000000E+02  0.51100000000E-03 0.  1.
         11   -1    0    0    0    0 -0.00000000000E+00 -0.00000000000E+00 -0.45593999997E+02  0.45594000000E+02  0.51100000000E-03 0. -1.
    9900012    2    1    2    0    0  0.97778219261E+00  0.31824463331E+00  0.57928557402E+00  0.90007784156E+02  0.90000046107E+02 0.  0.
        -12    1    1    2    0    0 -0.97778219261E+00 -0.31824463331E+00 -0.57928557402E+00  0.11802158443E+01  0.00000000000E+00 0.  1.
         11    1    3    3    0    0 -0.71111898512E+01  0.43760055444E+01 -0.32362218674E+01  0.89549750340E+01  0.51100000000E-03 0. -1.
        -11    1    3    3    0    0 -0.30223382928E+02 -0.16002837029E+02 -0.14242534787E+02  0.37045829266E+02  0.51100000000E-03 0.  1.
         12    1    3    3    0    0  0.38312354971E+02  0.11945076118E+02  0.18058042229E+02  0.44006979856E+02  0.00000000000E+00 0. -1.
</event>
<event>
 7    1  0.1654239E-015  0.9000783E+02  0.7816164E-02  0.1186339E+00
        -11   -1    0    0    0    0  0.00000000000E+00  0.00000000000E+00  0.45593999997E+02  0.45594000000E+02  0.51100000000E-03 0. -1.
         11   -1    0    0    0    0 -0.00000000000E+00 -0.00000000000E+00 -0.45593999997E+02  0.45594000000E+02  0.51100000000E-03 0.  1.
    9900012    2    1    2    0    0 -0.51383451787E+00 -0.76542150920E+00  0.73682297283E+00  0.90007828787E+02  0.90000091327E+02 0.  0.
        -12    1    1    2    0    0  0.51383451787E+00  0.76542150920E+00 -0.73682297283E+00  0.11801712129E+01  0.00000000000E+00 0.  1.
         11    1    3    3    0    0  0.46270745209E+01  0.25263180647E+02  0.24310995352E+02  0.35364708542E+02  0.51100000000E-03 0. -1.
        -11    1    3    3    0    0 -0.11726872283E+00  0.87305636802E+01  0.43682579676E+01  0.97631025837E+01  0.51100000000E-03 0.  1.
        -12    1    3    3    0    0 -0.50236403159E+01 -0.34759165836E+02 -0.27942430346E+02  0.44880017662E+02  0.00000000000E+00 0.  1.
</event>
<event>
 7    1  0.1654239E-015  0.9000793E+02  0.7816164E-02  0.1186339E+00
        -11   -1    0    0    0    0  0.00000000000E+00  0.00000000000E+00  0.45593999997E+02  0.45594000000E+02  0.51100000000E-03 0.  1.
         11   -1    0    0    0    0 -0.00000000000E+00 -0.00000000000E+00 -0.45593999997E+02  0.45594000000E+02  0.51100000000E-03 0. -1.
    9900012    2    1    2    0    0 -0.58389985235E-01  0.63300849270E+00  0.99420822299E+00  0.90007932573E+02  0.90000196482E+02 0.  0.
        -12    1    1    2    0    0  0.58389985235E-01 -0.63300849270E+00 -0.99420822299E+00  0.11800674273E+01  0.00000000000E+00 0.  1.
         11    1    3    3    0    0 -0.72986311677E+01 -0.54272325316E+01 -0.44134152399E+00  0.91060228682E+01  0.51100000000E-03 0. -1.
        -11    1    3    3    0    0 -0.20991359262E+02  0.25675457594E+02 -0.21547755117E+02  0.39549614880E+02  0.51100000000E-03 0.  1.
         12    1    3    3    0    0  0.28231600444E+02 -0.19615216570E+02  0.22983304864E+02  0.41352294824E+02  0.00000000000E+00 0. -1.
</event>
<event>
 7    1  0.1654239E-015  0.9000770E+02  0.7816164E-02  0.1186339E+00
        -11   -1    0    0    0    0  0.00000000000E+00  0.00000000000E+00  0.45593999997E+02  0.45594000000E+02  0.51100000000E-03 0. -1.
         11   -1    0    0    0    0 -0.00000000000E+00 -0.00000000000E+00 -0.45593999997E+02  0.45594000000E+02  0.51100000000E-03 0.  1.
    9900012    2    1    2    0    0  0.47155124552E+00 -0.42368209581E-01  0.10811813902E+01  0.90007699682E+02  0.89999960518E+02 0.  0.
        -12    1    1    2    0    0 -0.47155124552E+00  0.42368209581E-01 -0.10811813902E+01  0.11803003181E+01  0.00000000000E+00 0.  1.
         11    1    3    3    0    0  0.21702125565E+02  0.11709066696E+02 -0.15298897013E+02  0.29019661387E+02  0.51100000000E-03 0. -1.
        -11    1    3    3    0    0  0.16322550816E+02  0.57633120098E+01  0.47366226812E+01  0.17946504539E+02  0.51100000000E-03 0.  1.
        -12    1    3    3    0    0 -0.37553125136E+02 -0.17514746915E+02  0.11643455722E+02  0.43041533756E+02  0.00000000000E+00 0.  1.
</event>
<event>
 7    1  0.1654239E-015  0.9000775E+02  0.7816164E-02  0.1186339E+00
        -11   -1    0    0    0    0  0.00000000000E+00  0.00000000000E+00  0.45593999997E+02  0.45594000000E+02  0.51100000000E-03 0. -1.
         11   -1    0    0    0    0 -0.00000000000E+00 -0.00000000000E+00 -0.45593999997E+02  0.45594000000E+02  0.51100000000E-03 0.  1.
    9900012    2    1    2    0    0  0.69004147676E+00 -0.94566981102E+00 -0.15013367948E+00  0.90007750555E+02  0.90000012062E+02 0.  0.
        -12    1    1    2    0    0 -0.69004147676E+00  0.94566981102E+00  0.15013367948E+00  0.11802494452E+01  0.00000000000E+00 0.  1.
         11    1    3    3    0    0  0.38197492532E+02  0.57599617858E+01  0.16397708330E+02  0.41965586309E+02  0.51100000000E-03 0. -1.
        -11    1    3    3    0    0 -0.46587013769E+01 -0.26148197884E+01  0.59665423031E+01  0.80087707147E+01  0.51100000000E-03 0.  1.
        -12    1    3    3    0    0 -0.32848749678E+02 -0.40908118085E+01 -0.22514384313E+02  0.40033393531E+02  0.00000000000E+00 0.  1.
</event>
<event>
 7    1  0.1654239E-015  0.9000776E+02  0.7816164E-02  0.1186339E+00
        -11   -1    0    0    0    0  0.00000000000E+00  0.00000000000E+00  0.45593999997E+02  0.45594000000E+02  0.51100000000E-03 0.  1.
         11   -1    0    0    0    0 -0.00000000000E+00 -0.00000000000E+00 -0.45593999997E+02  0.45594000000E+02  0.51100000000E-03 0. -1.
    9900012    2    1    2    0    0 -0.63227118015E-01  0.11699595245E+01 -0.14197092605E+00  0.90007763286E+02  0.90000024961E+02 0.  0.
        -12    1    1    2    0    0  0.63227118015E-01 -0.11699595245E+01  0.14197092605E+00  0.11802367141E+01  0.00000000000E+00 0.  1.
         11    1    3    3    0    0  0.33125291402E+01 -0.99341521091E+01 -0.36799193286E+02  0.38260173211E+02  0.51100000000E-03 0. -1.
        -11    1    3    3    0    0 -0.51396822884E+01 -0.16883581745E+01 -0.54653269846E+01  0.76900381443E+01  0.51100000000E-03 0.  1.
        -12    1    3    3    0    0  0.17639260302E+01  0.12792469808E+02  0.42122549344E+02  0.44057551930E+02  0.00000000000E+00 0.  1.
</event>
<event>
 7    1  0.1654239E-015  0.9000767E+02  0.7816164E-02  0.1186339E+00
        -11   -1    0    0    0    0  0.00000000000E+00  0.00000000000E+00  0.45593999997E+02  0.45594000000E+02  0.51100000000E-03 0.  1.
         11   -1    0    0    0    0 -0.00000000000E+00 -0.00000000000E+00 -0.45593999997E+02  0.45594000000E+02  0.51100000000E-03 0. -1.
    9900012    2    1    2    0    0 -0.27951745276E+00  0.53290322390E-01 -0.11455188187E+01  0.90007668170E+02  0.89999928590E+02 0.  0.
        -12    1    1    2    0    0  0.27951745276E+00 -0.53290322390E-01  0.11455188187E+01  0.11803318300E+01  0.00000000000E+00 0.  1.
         11    1    3    3    0    0  0.47120690878E+01 -0.20168743581E+01  0.69097594196E+01  0.86032640761E+01  0.51100000000E-03 0. -1.
        -11    1    3    3    0    0  0.95261640596E+01  0.32522675696E+02  0.18372954491E+02  0.38549159434E+02  0.51100000000E-03 0.  1.
         12    1    3    3    0    0 -0.14517750600E+02 -0.30452511015E+02 -0.26428232730E+02  0.42855244660E+02  0.00000000000E+00 0. -1.
</event>
<event>
 7    1  0.1673768E-015  0.9000781E+02  0.7816164E-02  0.1186339E+00
        -11   -1    0    0    0    0  0.00000000000E+00  0.00000000000E+00  0.45593999997E+02  0.45594000000E+02  0.51100000000E-03 0. -1.
         11   -1    0    0    0    0 -0.00000000000E+00 -0.00000000000E+00 -0.45593999997E+02  0.45594000000E+02  0.51100000000E-03 0.  1.
    9900012    2    1    2    0    0  0.76636260222E+00 -0.20879836059E+00 -0.87289809427E+00  0.90007805323E+02  0.90000067553E+02 0.  0.
        -12    1    1    2    0    0 -0.76636260222E+00  0.20879836059E+00  0.87289809427E+00  0.11801946773E+01  0.00000000000E+00 0.  1.
         11    1    3    3    0    0 -0.49437150883E+00 -0.43900370454E+01  0.86705990725E+01  0.97311929888E+01  0.51100000000E-03 0. -1.
        -11    1    3    3    0    0 -0.30103044175E+02  0.75801148044E+01  0.20104284498E+02  0.36984235351E+02  0.51100000000E-03 0.  1.
         12    1    3    3    0    0  0.31363778286E+02 -0.33988761196E+01 -0.29647781665E+02  0.43292376983E+02  0.00000000000E+00 0. -1.
</event>
<event>
 7    1  0.1654239E-015  0.9000798E+02  0.7816164E-02  0.1186339E+00
        -11   -1    0    0    0    0  0.00000000000E+00  0.00000000000E+00  0.45593999997E+02  0.45594000000E+02  0.51100000000E-03 0.  1.
         11   -1    0    0    0    0 -0.00000000000E+00 -0.00000000000E+00 -0.45593999997E+02  0.45594000000E+02  0.51100000000E-03 0. -1.
    9900012    2    1    2    0    0  0.50716163298E+00 -0.73289907839E+00 -0.77336466577E+00  0.90007980133E+02  0.90000244670E+02 0.  0.
        -12    1    1    2    0    0 -0.50716163298E+00  0.73289907839E+00  0.77336466577E+00  0.11800198673E+01  0.00000000000E+00 0.  1.
         11    1    3    3    0    0 -0.24201192967E+02  0.44337297493E+01 -0.28877361942E+02  0.37937550442E+02  0.51100000000E-03 0. -1.
        -11    1    3    3    0    0 -0.35432109340E+01  0.25459558928E+00 -0.62949876441E+01  0.72281416932E+01  0.51100000000E-03 0.  1.
        -12    1    3    3    0    0  0.28251565534E+02 -0.54212244170E+01  0.34398984920E+02  0.44842287998E+02  0.00000000000E+00 0.  1.
</event>
<event>
 7    1  0.1654239E-015  0.9000773E+02  0.7816164E-02  0.1186339E+00
        -11   -1    0    0    0    0  0.00000000000E+00  0.00000000000E+00  0.45593999997E+02  0.45594000000E+02  0.51100000000E-03 0. -1.
         11   -1    0    0    0    0 -0.00000000000E+00 -0.00000000000E+00 -0.45593999997E+02  0.45594000000E+02  0.51100000000E-03 0.  1.
    9900012    2    1    2    0    0 -0.10202930201E+01 -0.53313531618E+00 -0.26041715373E+00  0.90007725368E+02  0.89999986543E+02 0.  0.
        -12    1    1    2    0    0  0.10202930201E+01  0.53313531618E+00  0.26041715373E+00  0.11802746317E+01  0.00000000000E+00 0.  1.
         11    1    3    3    0    0 -0.11073666098E+02  0.19225972195E+02  0.32321301683E+02  0.39203706846E+02  0.51100000000E-03 0. -1.
        -11    1    3    3    0    0 -0.50716206563E+01 -0.71518142818E+01  0.37057699702E+01  0.95185353356E+01  0.51100000000E-03 0.  1.
        -12    1    3    3    0    0  0.15124993734E+02 -0.12607293230E+02 -0.36287488807E+02  0.41285483187E+02  0.00000000000E+00 0.  1.
</event>
<event>
 7    1  0.1654239E-015  0.9000774E+02  0.7816164E-02  0.1186339E+00
        -11   -1    0    0    0    0  0.00000000000E+00  0.00000000000E+00  0.45593999997E+02  0.45594000000E+02  0.51100000000E-03 0.  1.
         11   -1    0    0    0    0 -0.00000000000E+00 -0.00000000000E+00 -0.45593999997E+02  0.45594000000E+02  0.51100000000E-03 0. -1.
    9900012    2    1    2    0    0  0.44655584338E+00 -0.10586839586E+01 -0.26981328855E+00  0.90007736023E+02  0.89999997338E+02 0.  0.
        -12    1    1    2    0    0 -0.44655584338E+00  0.10586839586E+01  0.26981328855E+00  0.11802639773E+01  0.00000000000E+00 0.  1.
         11    1    3    3    0    0  0.53796527883E+01 -0.67010465336E+00  0.77465296477E+01  0.94550740987E+01  0.51100000000E-03 0. -1.
        -11    1    3    3    0    0  0.11501630027E+02 -0.37524705179E+02 -0.73905664190E+01  0.39937594624E+02  0.51100000000E-03 0.  1.
         12    1    3    3    0    0 -0.16434726972E+02  0.37136125874E+02 -0.62577651725E+00  0.40615067300E+02  0.00000000000E+00 0. -1.
</event>
<event>
 7    1  0.1654239E-015  0.9000767E+02  0.7816164E-02  0.1186339E+00
        -11   -1    0    0    0    0  0.00000000000E+00  0.00000000000E+00  0.45593999997E+02  0.45594000000E+02  0.51100000000E-03 0.  1.
         11   -1    0    0    0    0 -0.00000000000E+00 -0.00000000000E+00 -0.45593999997E+02  0.45594000000E+02  0.51100000000E-03 0. -1.
    9900012    2    1    2    0    0 -0.11648225066E+01  0.62476410255E-01  0.18017275522E+00  0.90007670811E+02  0.89999931265E+02 0.  0.
        -12    1    1    2    0    0  0.11648225066E+01 -0.62476410255E-01 -0.18017275522E+00  0.11803291894E+01  0.00000000000E+00 0.  1.
         11    1    3    3    0    0 -0.32444961039E+02 -0.48796195742E+01 -0.27263460459E+02  0.42658908337E+02  0.51100000000E-03 0. -1.
        -11    1    3    3    0    0  0.51564635983E+01 -0.77312932245E+01  0.44093734955E+01  0.10286135652E+02  0.51100000000E-03 0.  1.
        -12    1    3    3    0    0  0.26123674934E+02  0.12673389209E+02  0.23034259719E+02  0.37062626822E+02  0.00000000000E+00 0.  1.
</event>
<event>
 7    1  0.1654239E-015  0.9000780E+02  0.7816164E-02  0.1186339E+00
        -11   -1    0    0    0    0  0.00000000000E+00  0.00000000000E+00  0.45593999997E+02  0.45594000000E+02  0.51100000000E-03 0.  1.
         11   -1    0    0    0    0 -0.00000000000E+00 -0.00000000000E+00 -0.45593999997E+02  0.45594000000E+02  0.51100000000E-03 0. -1.
    9900012    2    1    2    0    0  0.10035533335E+01  0.30156975130E+00 -0.54297083369E+00  0.90007796232E+02  0.90000058342E+02 0.  0.
        -12    1    1    2    0    0 -0.10035533335E+01 -0.30156975130E+00  0.54297083369E+00  0.11802037681E+01  0.00000000000E+00 0.  1.
         11    1    3    3    0    0 -0.69311203127E-01 -0.57206363113E+01  0.30496335953E+01  0.64831126148E+01  0.51100000000E-03 0. -1.
        -11    1    3    3    0    0  0.11296428241E+02 -0.14309790425E+02  0.34575075253E+02  0.39087276984E+02  0.51100000000E-03 0.  1.
         12    1    3    3    0    0 -0.10223563704E+02  0.20331996488E+02 -0.38167679682E+02  0.44437406633E+02  0.00000000000E+00 0. -1.
</event>
<event>
 7    1  0.1654239E-015  0.9000779E+02  0.7816164E-02  0.1186339E+00
        -11   -1    0    0    0    0  0.00000000000E+00  0.00000000000E+00  0.45593999997E+02  0.45594000000E+02  0.51100000000E-03 0.  1.
         11   -1    0    0    0    0 -0.00000000000E+00 -0.00000000000E+00 -0.45593999997E+02  0.45594000000E+02  0.51100000000E-03 0. -1.
    9900012    2    1    2    0    0 -0.29016244053E+00 -0.11184326290E+00 -0.11385017575E+01  0.90007792641E+02  0.90000054704E+02 0.  0.
        -12    1    1    2    0    0  0.29016244053E+00  0.11184326290E+00  0.11385017575E+01  0.11802073586E+01  0.00000000000E+00 0.  1.
         11    1    3    3    0    0 -0.14800636972E+02 -0.25052923805E+02 -0.34601944599E+01  0.29303255654E+02  0.51100000000E-03 0. -1.
        -11    1    3    3    0    0 -0.17244175882E+02  0.74710924386E+01  0.13081893871E+02  0.22897920683E+02  0.51100000000E-03 0.  1.
        -12    1    3    3    0    0  0.31754650414E+02  0.17469988103E+02 -0.10760201168E+02  0.37806616305E+02  0.00000000000E+00 0.  1.
</event>
<event>
 7    1  0.1654239E-015  0.9000772E+02  0.7816164E-02  0.1186339E+00
        -11   -1    0    0    0    0  0.00000000000E+00  0.00000000000E+00  0.45593999997E+02  0.45594000000E+02  0.51100000000E-03 0. -1.
         11   -1    0    0    0    0 -0.00000000000E+00 -0.00000000000E+00 -0.45593999997E+02  0.45594000000E+02  0.51100000000E-03 0.  1.
    9900012    2    1    2    0    0  0.89585366748E+00  0.65890658760E+00 -0.39540489327E+00  0.90007721764E+02  0.89999982891E+02 0.  0.
        -12    1    1    2    0    0 -0.89585366748E+00 -0.65890658760E+00  0.39540489327E+00  0.11802782360E+01  0.00000000000E+00 0.  1.
         11    1    3    3    0    0  0.10281396172E+00 -0.89122603594E+01  0.44160415702E+01  0.99468778436E+01  0.51100000000E-03 0. -1.
        -11    1    3    3    0    0  0.33617975810E+02 -0.15325789773E+02  0.60878798827E+01  0.37444764807E+02  0.51100000000E-03 0.  1.
         12    1    3    3    0    0 -0.32824936105E+02  0.24896956720E+02 -0.10899326346E+02  0.42616079113E+02  0.00000000000E+00 0. -1.
</event>
<event>
 7    1  0.1654239E-015  0.9000800E+02  0.7816164E-02  0.1186339E+00
        -11   -1    0    0    0    0  0.00000000000E+00  0.00000000000E+00  0.45593999997E+02  0.45594000000E+02  0.51100000000E-03 0.  1.
         11   -1    0    0    0    0 -0.00000000000E+00 -0.00000000000E+00 -0.45593999997E+02  0.45594000000E+02  0.51100000000E-03 0. -1.
    9900012    2    1    2    0    0 -0.29022113396E+00  0.11354109663E+01 -0.13786086578E+00  0.90008003395E+02  0.90000268240E+02 0.  0.
        -12    1    1    2    0    0  0.29022113396E+00 -0.11354109663E+01  0.13786086578E+00  0.11799966047E+01  0.00000000000E+00 0.  1.
         11    1    3    3    0    0  0.67095552663E+01  0.73757533936E+00  0.80085959877E+01  0.10473765283E+02  0.51100000000E-03 0. -1.
        -11    1    3    3    0    0  0.10814290565E+02  0.31540521848E+02 -0.23206601553E+02  0.40623881582E+02  0.51100000000E-03 0.  1.
         12    1    3    3    0    0 -0.17814066965E+02 -0.31142686221E+02  0.15060144700E+02  0.38910356530E+02  0.00000000000E+00 0. -1.
</event>
<event>
 7    1  0.1764367E-015  0.9000769E+02  0.7816164E-02  0.1186339E+00
        -11   -1    0    0    0    0  0.00000000000E+00  0.00000000000E+00  0.45593999997E+02  0.45594000000E+02  0.51100000000E-03 0.  1.
         11   -1    0    0    0    0 -0.00000000000E+00 -0.00000000000E+00 -0.45593999997E+02  0.45594000000E+02  0.51100000000E-03 0. -1.
    9900012    2    1    2    0    0  0.97726755484E+00 -0.64826735806E+00 -0.13355427945E+00  0.90007686827E+02  0.89999947493E+02 0.  0.
        -12    1    1    2    0    0 -0.97726755484E+00  0.64826735806E+00  0.13355427945E+00  0.11803131732E+01  0.00000000000E+00 0.  1.
         11    1    3    3    0    0  0.23671687825E+01  0.37781651229E+01 -0.87201238590E+01  0.97938031488E+01  0.51100000000E-03 0. -1.
        -11    1    3    3    0    0  0.22577114587E+02 -0.26425178280E+02 -0.17126210121E+02  0.38746912439E+02  0.51100000000E-03 0.  1.
         12    1    3    3    0    0 -0.23967015815E+02  0.21998745799E+02  0.25712779700E+02  0.41466971239E+02  0.00000000000E+00 0. -1.
</event>
<event>
 7    1  0.1654239E-015  0.9000777E+02  0.7816164E-02  0.1186339E+00
        -11   -1    0    0    0    0  0.00000000000E+00  0.00000000000E+00  0.45593999997E+02  0.45594000000E+02  0.51100000000E-03 0.  1.
         11   -1    0    0    0    0 -0.00000000000E+00 -0.00000000000E+00 -0.45593999997E+02  0.45594000000E+02  0.51100000000E-03 0. -1.
    9900012    2    1    2    0    0  0.31860080753E+00 -0.91350206576E+00 -0.67597819450E+00  0.90007771625E+02  0.90000033410E+02 0.  0.
        -12    1    1    2    0    0 -0.31860080753E+00  0.91350206576E+00  0.67597819450E+00  0.11802283754E+01  0.00000000000E+00 0.  1.
         11    1    3    3    0    0  0.77019718480E+01  0.31880725043E+02  0.13886736925E+02  0.35616603745E+02  0.51100000000E-03 0. -1.
        -11    1    3    3    0    0  0.89008330197E+01 -0.50263678130E+01  0.96916271345E+01  0.14086051207E+02  0.51100000000E-03 0.  1.
        -12    1    3    3    0    0 -0.16284204060E+02 -0.27767859296E+02 -0.24254342254E+02  0.40305116672E+02  0.00000000000E+00 0.  1.
</event>
<event>
 7    1  0.1654239E-015  0.9000770E+02  0.7816164E-02  0.1186339E+00
        -11   -1    0    0    0    0  0.00000000000E+00  0.00000000000E+00  0.45593999997E+02  0.45594000000E+02  0.51100000000E-03 0.  1.
         11   -1    0    0    0    0 -0.00000000000E+00 -0.00000000000E+00 -0.45593999997E+02  0.45594000000E+02  0.51100000000E-03 0. -1.
    9900012    2    1    2    0    0  0.56516185842E+00 -0.80922803213E+00 -0.64717905717E+00  0.90007703992E+02  0.89999964885E+02 0.  0.
        -12    1    1    2    0    0 -0.56516185842E+00  0.80922803213E+00  0.64717905717E+00  0.11802960079E+01  0.00000000000E+00 0.  1.
         11    1    3    3    0    0  0.25268400154E+02  0.21672449540E+02 -0.10777915829E+02  0.34990721417E+02  0.51100000000E-03 0. -1.
        -11    1    3    3    0    0  0.54906109173E+01  0.14953525474E+01 -0.10012181990E+02  0.11516365570E+02  0.51100000000E-03 0.  1.
        -12    1    3    3    0    0 -0.30193849212E+02 -0.23977030120E+02  0.20142918761E+02  0.43500617005E+02  0.00000000000E+00 0.  1.
</event>
<event>
 7    1  0.1654239E-015  0.9000766E+02  0.7816164E-02  0.1186339E+00
        -11   -1    0    0    0    0  0.00000000000E+00  0.00000000000E+00  0.45593999997E+02  0.45594000000E+02  0.51100000000E-03 0. -1.
         11   -1    0    0    0    0 -0.00000000000E+00 -0.00000000000E+00 -0.45593999997E+02  0.45594000000E+02  0.51100000000E-03 0.  1.
    9900012    2    1    2    0    0  0.10289842236E+01 -0.22786699728E+00  0.53148387323E+00  0.90007658097E+02  0.89999918384E+02 0.  0.
        -12    1    1    2    0    0 -0.10289842236E+01  0.22786699728E+00 -0.53148387323E+00  0.11803419031E+01  0.00000000000E+00 0.  1.
         11    1    3    3    0    0  0.11318848735E+02  0.30637964245E+01  0.33031157565E+02  0.35050828172E+02  0.51100000000E-03 0. -1.
        -11    1    3    3    0    0  0.78626051975E+01 -0.31594628552E+01  0.73180881861E+01  0.11196302112E+02  0.51100000000E-03 0.  1.
        -12    1    3    3    0    0 -0.18152469709E+02 -0.13220056664E+00 -0.39817761878E+02  0.43760527813E+02  0.00000000000E+00 0.  1.
</event>
<event>
 7    1  0.1654239E-015  0.9000777E+02  0.7816164E-02  0.1186339E+00
        -11   -1    0    0    0    0  0.00000000000E+00  0.00000000000E+00  0.45593999997E+02  0.45594000000E+02  0.51100000000E-03 0.  1.
         11   -1    0    0    0    0 -0.00000000000E+00 -0.00000000000E+00 -0.45593999997E+02  0.45594000000E+02  0.51100000000E-03 0. -1.
    9900012    2    1    2    0    0 -0.66111125935E-01  0.85899798283E+00 -0.80666167368E+00  0.90007766434E+02  0.90000028151E+02 0.  0.
        -12    1    1    2    0    0  0.66111125935E-01 -0.85899798283E+00  0.80666167368E+00  0.11802335664E+01  0.00000000000E+00 0.  1.
         11    1    3    3    0    0 -0.61338996619E+01  0.77763332351E+01  0.64209709197E+00  0.99251384163E+01  0.51100000000E-03 0. -1.
        -11    1    3    3    0    0  0.49519616862E+01  0.17177625987E+02  0.33292582592E+02  0.37788739262E+02  0.51100000000E-03 0.  1.
         12    1    3    3    0    0  0.11158268497E+01 -0.24094961240E+02 -0.34741341358E+02  0.42293888755E+02  0.00000000000E+00 0. -1.
</event>
<event>
 7    1  0.1654239E-015  0.9000787E+02  0.7816164E-02  0.1186339E+00
        -11   -1    0    0    0    0  0.00000000000E+00  0.00000000000E+00  0.45593999997E+02  0.45594000000E+02  0.51100000000E-03 0. -1.
         11   -1    0    0    0    0 -0.00000000000E+00 -0.00000000000E+00 -0.45593999997E+02  0.45594000000E+02  0.51100000000E-03 0.  1.
    9900012    2    1    2    0    0  0.98738777109E+00  0.20945937567E+00  0.61147756450E+00  0.90007867528E+02  0.90000130579E+02 0.  0.
        -12    1    1    2    0    0 -0.98738777109E+00 -0.20945937567E+00 -0.61147756450E+00  0.11801324724E+01  0.00000000000E+00 0.  1.
         11    1    3    3    0    0  0.65312030646E+01  0.51812593226E+01 -0.23941047078E+01  0.86737419406E+01  0.51100000000E-03 0. -1.
        -11    1    3    3    0    0 -0.27658592685E+02  0.28428872938E+01 -0.29961292859E+02  0.40874916850E+02  0.51100000000E-03 0.  1.
         12    1    3    3    0    0  0.22114777391E+02 -0.78146872407E+01  0.32966875131E+02  0.40459208737E+02  0.00000000000E+00 0. -1.
</event>
<event>
 7    1  0.1654239E-015  0.9000807E+02  0.7816164E-02  0.1186338E+00
        -11   -1    0    0    0    0  0.00000000000E+00  0.00000000000E+00  0.45593999997E+02  0.45594000000E+02  0.51100000000E-03 0.  1.
         11   -1    0    0    0    0 -0.00000000000E+00 -0.00000000000E+00 -0.45593999997E+02  0.45594000000E+02  0.51100000000E-03 0. -1.
    9900012    2    1    2    0    0 -0.10665933215E+01  0.37728753339E+00 -0.33507775223E+00  0.90008065978E+02  0.90000331648E+02 0.  0.
        -12    1    1    2    0    0  0.10665933215E+01 -0.37728753339E+00  0.33507775223E+00  0.11799340221E+01  0.00000000000E+00 0.  1.
         11    1    3    3    0    0 -0.25905263649E+02 -0.18864535965E+02 -0.19259505579E+02  0.37388259618E+02  0.51100000000E-03 0. -1.
        -11    1    3    3    0    0 -0.39176335471E+01 -0.70768068309E+01 -0.20621710936E+01  0.83475503839E+01  0.51100000000E-03 0.  1.
        -12    1    3    3    0    0  0.28756303875E+02  0.26318630329E+02  0.20986598920E+02  0.44272255976E+02  0.00000000000E+00 0.  1.
</event>
<event>
 7    1  0.1654239E-015  0.9000769E+02  0.7816164E-02  0.1186339E+00
        -11   -1    0    0    0    0  0.00000000000E+00  0.00000000000E+00  0.45593999997E+02  0.45594000000E+02  0.51100000000E-03 0. -1.
         11   -1    0    0    0    0 -0.00000000000E+00 -0.00000000000E+00 -0.45593999997E+02  0.45594000000E+02  0.51100000000E-03 0.  1.
    9900012    2    1    2    0    0 -0.48853432769E+00 -0.28715556748E+00  0.10353745879E+01  0.90007692986E+02  0.89999953734E+02 0.  0.
        -12    1    1    2    0    0  0.48853432769E+00  0.28715556748E+00 -0.10353745879E+01  0.11803070136E+01  0.00000000000E+00 0.  1.
         11    1    3    3    0    0 -0.66453650854E+01 -0.36911467150E+02  0.77040796442E+00  0.37512808652E+02  0.51100000000E-03 0. -1.
        -11    1    3    3    0    0 -0.16819995417E+00 -0.29196108862E+01  0.10715324346E+02  0.11107231656E+02  0.51100000000E-03 0.  1.
        -12    1    3    3    0    0  0.63250307119E+01  0.39543922468E+02 -0.10450357723E+02  0.41387652678E+02  0.00000000000E+00 0.  1.
</event>
<event>
 7    1  0.1654239E-015  0.9000782E+02  0.7816164E-02  0.1186339E+00
        -11   -1    0    0    0    0  0.00000000000E+00  0.00000000000E+00  0.45593999997E+02  0.45594000000E+02  0.51100000000E-03 0.  1.
         11   -1    0    0    0    0 -0.00000000000E+00 -0.00000000000E+00 -0.45593999997E+02  0.45594000000E+02  0.51100000000E-03 0. -1.
    9900012    2    1    2    0    0 -0.12444912221E+00  0.31043956284E+00 -0.11318001082E+01  0.90007817052E+02  0.90000079437E+02 0.  0.
        -12    1    1    2    0    0  0.12444912221E+00 -0.31043956284E+00  0.11318001082E+01  0.11801829481E+01  0.00000000000E+00 0.  1.
         11    1    3    3    0    0  0.18901295277E+00  0.66116533596E+01 -0.36198885426E+02  0.36798219963E+02  0.51100000000E-03 0. -1.
        -11    1    3    3    0    0 -0.30822314112E+01  0.11442799338E+02 -0.20027770167E+01  0.12018690577E+02  0.51100000000E-03 0.  1.
        -12    1    3    3    0    0  0.27687693363E+01 -0.17744013134E+02  0.37069862335E+02  0.41190906512E+02  0.00000000000E+00 0.  1.
</event>
<event>
 7    1  0.1654239E-015  0.9000734E+02  0.7816164E-02  0.1186340E+00
        -11   -1    0    0    0    0  0.00000000000E+00  0.00000000000E+00  0.45593999997E+02  0.45594000000E+02  0.51100000000E-03 0.  1.
         11   -1    0    0    0    0 -0.00000000000E+00 -0.00000000000E+00 -0.45593999997E+02  0.45594000000E+02  0.51100000000E-03 0. -1.
    9900012    2    1    2    0    0  0.31826072358E+00 -0.10074917099E+01  0.52690521398E+00  0.90007339787E+02  0.89999595871E+02 0.  0.
        -12    1    1    2    0    0 -0.31826072358E+00  0.10074917099E+01 -0.52690521398E+00  0.11806602128E+01  0.00000000000E+00 0.  1.
         11    1    3    3    0    0  0.35029527772E+02  0.23180744106E+02  0.92975141728E+01  0.43021604843E+02  0.51100000000E-03 0. -1.
        -11    1    3    3    0    0 -0.55475421147E+01 -0.53830049799E+01  0.54770663787E+01  0.94736594042E+01  0.51100000000E-03 0.  1.
        -12    1    3    3    0    0 -0.29163724934E+02 -0.18805230836E+02 -0.14247675338E+02  0.37512075540E+02  0.00000000000E+00 0.  1.
</event>
<event>
 7    1  0.1654239E-015  0.9000690E+02  0.7816164E-02  0.1186341E+00
        -11   -1    0    0    0    0  0.00000000000E+00  0.00000000000E+00  0.45593999997E+02  0.45594000000E+02  0.51100000000E-03 0.  1.
         11   -1    0    0    0    0 -0.00000000000E+00 -0.00000000000E+00 -0.45593999997E+02  0.45594000000E+02  0.51100000000E-03 0. -1.
    9900012    2    1    2    0    0  0.10415681501E+01  0.28300703862E-01  0.55616895457E+00  0.90006903456E+02  0.89999153777E+02 0.  0.
        -12    1    1    2    0    0 -0.10415681501E+01 -0.28300703862E-01 -0.55616895457E+00  0.11810965444E+01  0.00000000000E+00 0.  1.
         11    1    3    3    0    0 -0.85850566741E+01  0.15231930687E+01  0.51178486056E+01  0.10110177537E+02  0.51100000000E-03 0. -1.
        -11    1    3    3    0    0 -0.16171553290E+02 -0.28682602370E+02  0.16579370851E+02  0.36865788377E+02  0.51100000000E-03 0.  1.
         12    1    3    3    0    0  0.25798178115E+02  0.27187710005E+02 -0.21141050502E+02  0.43030937542E+02  0.00000000000E+00 0. -1.
</event>
<event>
 7    1  0.1654239E-015  0.9000768E+02  0.7816164E-02  0.1186339E+00
        -11   -1    0    0    0    0  0.00000000000E+00  0.00000000000E+00  0.45593999997E+02  0.45594000000E+02  0.51100000000E-03 0. -1.
         11   -1    0    0    0    0 -0.00000000000E+00 -0.00000000000E+00 -0.45593999997E+02  0.45594000000E+02  0.51100000000E-03 0.  1.
    9900012    2    1    2    0    0  0.66581770025E+00  0.83910715782E+00  0.49571129876E+00  0.90007684905E+02  0.89999945546E+02 0.  0.
        -12    1    1    2    0    0 -0.66581770025E+00 -0.83910715782E+00 -0.49571129876E+00  0.11803150952E+01  0.00000000000E+00 0.  1.
         11    1    3    3    0    0  0.26260581927E+01  0.28358290133E+01 -0.88304667408E+01  0.96392557257E+01  0.51100000000E-03 0. -1.
        -11    1    3    3    0    0 -0.38497006980E+02 -0.88693947312E+01 -0.63654192997E+01  0.40015050574E+02  0.51100000000E-03 0.  1.
         12    1    3    3    0    0  0.36536766487E+02  0.68726728757E+01  0.15691597339E+02  0.40353378605E+02  0.00000000000E+00 0. -1.
</event>
<event>
 7    1  0.1654239E-015  0.9000784E+02  0.7816164E-02  0.1186339E+00
        -11   -1    0    0    0    0  0.00000000000E+00  0.00000000000E+00  0.45593999997E+02  0.45594000000E+02  0.51100000000E-03 0.  1.
         11   -1    0    0    0    0 -0.00000000000E+00 -0.00000000000E+00 -0.45593999997E+02  0.45594000000E+02  0.51100000000E-03 0. -1.
    9900012    2    1    2    0    0  0.90135103282E+00  0.24699129919E+00 -0.72065778390E+00  0.90007836440E+02  0.90000099081E+02 0.  0.
        -12    1    1    2    0    0 -0.90135103282E+00 -0.24699129919E+00  0.72065778390E+00  0.11801635597E+01  0.00000000000E+00 0.  1.
         11    1    3    3    0    0 -0.29193366875E+00  0.73209184157E+01 -0.35527153292E+02  0.36274780399E+02  0.51100000000E-03 0. -1.
        -11    1    3    3    0    0  0.86542626268E+01  0.31799244384E+01 -0.60008153785E+01  0.11000816630E+02  0.51100000000E-03 0.  1.
        -12    1    3    3    0    0 -0.74609779253E+01 -0.10253851555E+02  0.40807310887E+02  0.42732239411E+02  0.00000000000E+00 0.  1.
</event>
<event>
 7    1  0.1654239E-015  0.9000793E+02  0.7816164E-02  0.1186339E+00
        -11   -1    0    0    0    0  0.00000000000E+00  0.00000000000E+00  0.45593999997E+02  0.45594000000E+02  0.51100000000E-03 0.  1.
         11   -1    0    0    0    0 -0.00000000000E+00 -0.00000000000E+00 -0.45593999997E+02  0.45594000000E+02  0.51100000000E-03 0. -1.
    9900012    2    1    2    0    0  0.99343589921E+00  0.35351154538E-01 -0.63592120046E+00  0.90007932051E+02  0.90000195954E+02 0.  0.
        -12    1    1    2    0    0 -0.99343589921E+00 -0.35351154538E-01  0.63592120046E+00  0.11800679485E+01  0.00000000000E+00 0.  1.
         11    1    3    3    0    0 -0.65823540122E+01  0.23558367353E+01  0.10395931327E+02  0.12528078044E+02  0.51100000000E-03 0. -1.
        -11    1    3    3    0    0  0.37232344612E+02  0.13438605504E+02 -0.17499608243E+02  0.43279093014E+02  0.51100000000E-03 0.  1.
         12    1    3    3    0    0 -0.29656554700E+02 -0.15759091085E+02  0.64677557149E+01  0.34200760993E+02  0.00000000000E+00 0. -1.
</event>
<event>
 7    1  0.1654239E-015  0.9000773E+02  0.7816164E-02  0.1186339E+00
        -11   -1    0    0    0    0  0.00000000000E+00  0.00000000000E+00  0.45593999997E+02  0.45594000000E+02  0.51100000000E-03 0.  1.
         11   -1    0    0    0    0 -0.00000000000E+00 -0.00000000000E+00 -0.45593999997E+02  0.45594000000E+02  0.51100000000E-03 0. -1.
    9900012    2    1    2    0    0 -0.30794365960E+00  0.11355207227E+01 -0.93768391375E-01  0.90007733454E+02  0.89999994735E+02 0.  0.
        -12    1    1    2    0    0  0.30794365960E+00 -0.11355207227E+01  0.93768391375E-01  0.11802665463E+01  0.00000000000E+00 0.  1.
         11    1    3    3    0    0  0.14547967543E+01  0.82086355306E+01 -0.83418519954E+01  0.11793414512E+02  0.51100000000E-03 0. -1.
        -11    1    3    3    0    0  0.33791897556E+02  0.13202970484E+02 -0.83295988341E+00  0.36289180102E+02  0.51100000000E-03 0.  1.
         12    1    3    3    0    0 -0.35554637970E+02 -0.20276085292E+02  0.90810434875E+01  0.41925138840E+02  0.00000000000E+00 0. -1.
</event>
<event>
 7    1  0.1654239E-015  0.9000772E+02  0.7816164E-02  0.1186339E+00
        -11   -1    0    0    0    0  0.00000000000E+00  0.00000000000E+00  0.45593999997E+02  0.45594000000E+02  0.51100000000E-03 0. -1.
         11   -1    0    0    0    0 -0.00000000000E+00 -0.00000000000E+00 -0.45593999997E+02  0.45594000000E+02  0.51100000000E-03 0.  1.
    9900012    2    1    2    0    0  0.60963552731E-01 -0.11108170925E+01 -0.39425422663E+00  0.90007717168E+02  0.89999978235E+02 0.  0.
        -12    1    1    2    0    0 -0.60963552731E-01  0.11108170925E+01  0.39425422663E+00  0.11802828317E+01  0.00000000000E+00 0.  1.
         11    1    3    3    0    0 -0.12315073510E+02 -0.26856491568E+02  0.88868396429E+01  0.30853007860E+02  0.51100000000E-03 0. -1.
        -11    1    3    3    0    0  0.16461432756E+01 -0.11883902023E+02  0.99206134486E+01  0.15567770760E+02  0.51100000000E-03 0.  1.
        -12    1    3    3    0    0  0.10729893787E+02  0.37629576498E+02 -0.19201707318E+02  0.43586938549E+02  0.00000000000E+00 0.  1.
</event>
<event>
 7    1  0.1654239E-015  0.9000777E+02  0.7816164E-02  0.1186339E+00
        -11   -1    0    0    0    0  0.00000000000E+00  0.00000000000E+00  0.45593999997E+02  0.45594000000E+02  0.51100000000E-03 0. -1.
         11   -1    0    0    0    0 -0.00000000000E+00 -0.00000000000E+00 -0.45593999997E+02  0.45594000000E+02  0.51100000000E-03 0.  1.
    9900012    2    1    2    0    0  0.10896014628E+00  0.80326665873E+00  0.85780374395E+00  0.90007772521E+02  0.90000034319E+02 0.  0.
        -12    1    1    2    0    0 -0.10896014628E+00 -0.80326665873E+00 -0.85780374395E+00  0.11802274788E+01  0.00000000000E+00 0.  1.
         11    1    3    3    0    0 -0.10321392197E+02 -0.16645285981E+00 -0.51011719454E+01  0.11514373579E+02  0.51100000000E-03 0. -1.
        -11    1    3    3    0    0  0.67861658651E+00  0.78976862775E+01 -0.34967430620E+02  0.35854639497E+02  0.51100000000E-03 0.  1.
         12    1    3    3    0    0  0.97517357565E+01 -0.69279667589E+01  0.40926406309E+02  0.42638759446E+02  0.00000000000E+00 0. -1.
</event>
<event>
 7    1  0.1654239E-015  0.9000774E+02  0.7816164E-02  0.1186339E+00
        -11   -1    0    0    0    0  0.00000000000E+00  0.00000000000E+00  0.45593999997E+02  0.45594000000E+02  0.51100000000E-03 0.  1.
         11   -1    0    0    0    0 -0.00000000000E+00 -0.00000000000E+00 -0.45593999997E+02  0.45594000000E+02  0.51100000000E-03 0. -1.
    9900012    2    1    2    0    0  0.74742327399E+00  0.90526562704E+00  0.12192716150E+00  0.90007740012E+02  0.90000001380E+02 0.  0.
        -12    1    1    2    0    0 -0.74742327399E+00 -0.90526562704E+00 -0.12192716150E+00  0.11802599878E+01  0.00000000000E+00 0.  1.
         11    1    3    3    0    0  0.43186852020E+01 -0.46799141957E+01  0.76244183671E+01  0.99340019353E+01  0.51100000000E-03 0. -1.
        -11    1    3    3    0    0 -0.19082280306E+02  0.20912487317E+02  0.27088939488E+02  0.39182600607E+02  0.51100000000E-03 0.  1.
         12    1    3    3    0    0  0.15511018378E+02 -0.15327307494E+02 -0.34591430694E+02  0.40891137470E+02  0.00000000000E+00 0. -1.
</event>
<event>
 7    1  0.1654239E-015  0.9000786E+02  0.7816164E-02  0.1186339E+00
        -11   -1    0    0    0    0  0.00000000000E+00  0.00000000000E+00  0.45593999997E+02  0.45594000000E+02  0.51100000000E-03 0.  1.
         11   -1    0    0    0    0 -0.00000000000E+00 -0.00000000000E+00 -0.45593999997E+02  0.45594000000E+02  0.51100000000E-03 0. -1.
    9900012    2    1    2    0    0 -0.74927547798E+00 -0.87149460732E+00  0.26796135599E+00  0.90007864465E+02  0.90000127476E+02 0.  0.
        -12    1    1    2    0    0  0.74927547798E+00  0.87149460732E+00 -0.26796135599E+00  0.11801355349E+01  0.00000000000E+00 0.  1.
         11    1    3    3    0    0 -0.25929248999E+00 -0.76438430255E+01  0.47395293069E+01  0.89977056579E+01  0.51100000000E-03 0. -1.
        -11    1    3    3    0    0  0.14454734523E+02 -0.24997129212E+01  0.34917100641E+02  0.37873365737E+02  0.51100000000E-03 0.  1.
         12    1    3    3    0    0 -0.14944717511E+02  0.92720613394E+01 -0.39388668592E+02  0.43136793070E+02  0.00000000000E+00 0. -1.
</event>
<event>
 7    1  0.1654239E-015  0.9000741E+02  0.7816164E-02  0.1186340E+00
        -11   -1    0    0    0    0  0.00000000000E+00  0.00000000000E+00  0.45593999997E+02  0.45594000000E+02  0.51100000000E-03 0.  1.
         11   -1    0    0    0    0 -0.00000000000E+00 -0.00000000000E+00 -0.45593999997E+02  0.45594000000E+02  0.51100000000E-03 0. -1.
    9900012    2    1    2    0    0  0.28402871434E+00 -0.10539198833E+01  0.44985395714E+00  0.90007412005E+02  0.89999669043E+02 0.  0.
        -12    1    1    2    0    0 -0.28402871434E+00  0.10539198833E+01 -0.44985395714E+00  0.11805879949E+01  0.00000000000E+00 0.  1.
         11    1    3    3    0    0 -0.16473037424E+02 -0.22293909281E+02 -0.26260964057E+02  0.38183996471E+02  0.51100000000E-03 0. -1.
        -11    1    3    3    0    0 -0.87663252766E+01 -0.16159140120E+01  0.96341668240E+00  0.89659248778E+01  0.51100000000E-03 0.  1.
        -12    1    3    3    0    0  0.25523391415E+02  0.22855903410E+02  0.25747401332E+02  0.42857490656E+02  0.00000000000E+00 0.  1.
</event>
<event>
 7    1  0.1654239E-015  0.9000785E+02  0.7816164E-02  0.1186339E+00
        -11   -1    0    0    0    0  0.00000000000E+00  0.00000000000E+00  0.45593999997E+02  0.45594000000E+02  0.51100000000E-03 0.  1.
         11   -1    0    0    0    0 -0.00000000000E+00 -0.00000000000E+00 -0.45593999997E+02  0.45594000000E+02  0.51100000000E-03 0. -1.
    9900012    2    1    2    0    0 -0.83254274768E+00  0.24215298633E+00  0.80061982099E+00  0.90007848487E+02  0.90000111287E+02 0.  0.
        -12    1    1    2    0    0  0.83254274768E+00 -0.24215298633E+00 -0.80061982099E+00  0.11801515128E+01  0.00000000000E+00 0.  1.
         11    1    3    3    0    0  0.15491879021E+01 -0.10340898796E+02  0.20916543744E+00  0.10458390006E+02  0.51100000000E-03 0. -1.
        -11    1    3    3    0    0  0.17638500004E+01 -0.28927440262E+02  0.20121126408E+02  0.35281265498E+02  0.51100000000E-03 0.  1.
         12    1    3    3    0    0 -0.41455806503E+01  0.39510492045E+02 -0.19529672025E+02  0.44268192983E+02  0.00000000000E+00 0. -1.
</event>
<event>
 7    1  0.1654239E-015  0.9000777E+02  0.7816164E-02  0.1186339E+00
        -11   -1    0    0    0    0  0.00000000000E+00  0.00000000000E+00  0.45593999997E+02  0.45594000000E+02  0.51100000000E-03 0.  1.
         11   -1    0    0    0    0 -0.00000000000E+00 -0.00000000000E+00 -0.45593999997E+02  0.45594000000E+02  0.51100000000E-03 0. -1.
    9900012    2    1    2    0    0  0.98948447985E+00  0.62496038009E+00  0.15257159915E+00  0.90007774129E+02  0.90000035948E+02 0.  0.
        -12    1    1    2    0    0 -0.98948447985E+00 -0.62496038009E+00 -0.15257159915E+00  0.11802258705E+01  0.00000000000E+00 0.  1.
         11    1    3    3    0    0 -0.96093625934E-01 -0.10463993981E+02 -0.11450638988E+01  0.10526897720E+02  0.51100000000E-03 0. -1.
        -11    1    3    3    0    0  0.54239622894E+01  0.32884145575E+02  0.28851844685E+02  0.44081916237E+02  0.51100000000E-03 0.  1.
         12    1    3    3    0    0 -0.43383841837E+01 -0.21795191214E+02 -0.27554209187E+02  0.35398960173E+02  0.00000000000E+00 0. -1.
</event>
<event>
 7    1  0.1654239E-015  0.9000776E+02  0.7816164E-02  0.1186339E+00
        -11   -1    0    0    0    0  0.00000000000E+00  0.00000000000E+00  0.45593999997E+02  0.45594000000E+02  0.51100000000E-03 0.  1.
         11   -1    0    0    0    0 -0.00000000000E+00 -0.00000000000E+00 -0.45593999997E+02  0.45594000000E+02  0.51100000000E-03 0. -1.
    9900012    2    1    2    0    0  0.10337460455E+01  0.56034130697E+00 -0.10172398685E+00  0.90007762297E+02  0.90000023959E+02 0.  0.
        -12    1    1    2    0    0 -0.10337460455E+01 -0.56034130697E+00  0.10172398685E+00  0.11802377034E+01  0.00000000000E+00 0.  1.
         11    1    3    3    0    0 -0.30530726532E+02 -0.17892130538E+02 -0.22027888403E+02  0.41683107675E+02  0.51100000000E-03 0. -1.
        -11    1    3    3    0    0  0.10358360270E+02  0.20665604522E+01 -0.37519917278E+01  0.11209091925E+02  0.51100000000E-03 0.  1.
        -12    1    3    3    0    0  0.21206112307E+02  0.16385911392E+02  0.25678156144E+02  0.37115562697E+02  0.00000000000E+00 0.  1.
</event>
<event>
 7    1  0.1654239E-015  0.9000752E+02  0.7816164E-02  0.1186339E+00
        -11   -1    0    0    0    0  0.00000000000E+00  0.00000000000E+00  0.45593999997E+02  0.45594000000E+02  0.51100000000E-03 0. -1.
         11   -1    0    0    0    0 -0.00000000000E+00 -0.00000000000E+00 -0.45593999997E+02  0.45594000000E+02  0.51100000000E-03 0.  1.
    9900012    2    1    2    0    0 -0.35987042525E+00  0.89582575326E+00  0.67935347745E+00  0.90007520584E+02  0.89999779056E+02 0.  0.
        -12    1    1    2    0    0  0.35987042525E+00 -0.89582575326E+00 -0.67935347745E+00  0.11804794155E+01  0.00000000000E+00 0.  1.
         11    1    3    3    0    0  0.46683944119E+01  0.15798168210E+02 -0.56991006724E+00  0.16483349870E+02  0.51100000000E-03 0. -1.
        -11    1    3    3    0    0 -0.57943784888E+01 -0.97092761194E+01 -0.35059631135E+02  0.36837787670E+02  0.51100000000E-03 0.  1.
         12    1    3    3    0    0  0.76611365165E+00 -0.51930663375E+01  0.36308894679E+02  0.36686383045E+02  0.00000000000E+00 0. -1.
</event>
<event>
 7    1  0.1654239E-015  0.9000774E+02  0.7816164E-02  0.1186339E+00
        -11   -1    0    0    0    0  0.00000000000E+00  0.00000000000E+00  0.45593999997E+02  0.45594000000E+02  0.51100000000E-03 0. -1.
         11   -1    0    0    0    0 -0.00000000000E+00 -0.00000000000E+00 -0.45593999997E+02  0.45594000000E+02  0.51100000000E-03 0.  1.
    9900012    2    1    2    0    0 -0.14233671704E+00  0.39446774447E+00  0.11032465182E+01  0.90007738409E+02  0.89999999756E+02 0.  0.
        -12    1    1    2    0    0  0.14233671704E+00 -0.39446774447E+00 -0.11032465182E+01  0.11802615906E+01  0.00000000000E+00 0.  1.
         11    1    3    3    0    0 -0.46286127620E+01  0.25669919833E+01  0.68461073027E+01  0.86534784569E+01  0.51100000000E-03 0. -1.
        -11    1    3    3    0    0 -0.20186350559E+02 -0.74582522118E+01 -0.36009131093E+02  0.41949634055E+02  0.51100000000E-03 0.  1.
         12    1    3    3    0    0  0.24672626604E+02  0.52857279729E+01  0.30266270309E+02  0.39404625898E+02  0.00000000000E+00 0. -1.
</event>
<event>
 7    1  0.1654239E-015  0.9000769E+02  0.7816164E-02  0.1186339E+00
        -11   -1    0    0    0    0  0.00000000000E+00  0.00000000000E+00  0.45593999997E+02  0.45594000000E+02  0.51100000000E-03 0.  1.
         11   -1    0    0    0    0 -0.00000000000E+00 -0.00000000000E+00 -0.45593999997E+02  0.45594000000E+02  0.51100000000E-03 0. -1.
    9900012    2    1    2    0    0 -0.94048465800E+00 -0.45143851762E+00 -0.55210505285E+00  0.90007691516E+02  0.89999952244E+02 0.  0.
        -12    1    1    2    0    0  0.94048465800E+00  0.45143851762E+00  0.55210505285E+00  0.11803084836E+01  0.00000000000E+00 0.  1.
         11    1    3    3    0    0  0.45788000619E+01 -0.75927815486E+01 -0.30779820928E+01  0.93856121631E+01  0.51100000000E-03 0. -1.
        -11    1    3    3    0    0  0.36896707014E+02 -0.14014228267E+01 -0.27923371614E+01  0.37028747231E+02  0.51100000000E-03 0.  1.
         12    1    3    3    0    0 -0.42415991734E+02  0.85427658577E+01  0.53182142014E+01  0.43593332122E+02  0.00000000000E+00 0. -1.
</event>
<event>
 7    1  0.1654239E-015  0.9000783E+02  0.7816164E-02  0.1186339E+00
        -11   -1    0    0    0    0  0.00000000000E+00  0.00000000000E+00  0.45593999997E+02  0.45594000000E+02  0.51100000000E-03 0. -1.
         11   -1    0    0    0    0 -0.00000000000E+00 -0.00000000000E+00 -0.45593999997E+02  0.45594000000E+02  0.51100000000E-03 0.  1.
    9900012    2    1    2    0    0  0.10427250966E+01 -0.28912092732E+00 -0.47110955992E+00  0.90007825964E+02  0.90000088467E+02 0.  0.
        -12    1    1    2    0    0 -0.10427250966E+01  0.28912092732E+00  0.47110955992E+00  0.11801740360E+01  0.00000000000E+00 0.  1.
         11    1    3    3    0    0 -0.19430092184E+02  0.26662602168E+02  0.22424149627E+02  0.39890667122E+02  0.51100000000E-03 0. -1.
        -11    1    3    3    0    0 -0.43518964217E+01  0.15725934321E+01 -0.84574781900E+01  0.96405907580E+01  0.51100000000E-03 0.  1.
        -12    1    3    3    0    0  0.24824713702E+02 -0.28524316528E+02 -0.14437780997E+02  0.40476568084E+02  0.00000000000E+00 0.  1.
</event>
<event>
 7    1  0.1654239E-015  0.9000770E+02  0.7816164E-02  0.1186339E+00
        -11   -1    0    0    0    0  0.00000000000E+00  0.00000000000E+00  0.45593999997E+02  0.45594000000E+02  0.51100000000E-03 0. -1.
         11   -1    0    0    0    0 -0.00000000000E+00 -0.00000000000E+00 -0.45593999997E+02  0.45594000000E+02  0.51100000000E-03 0.  1.
    9900012    2    1    2    0    0 -0.14930104631E+00  0.67286776291E+00  0.95815190406E+00  0.90007704740E+02  0.89999965643E+02 0.  0.
        -12    1    1    2    0    0  0.14930104631E+00 -0.67286776291E+00 -0.95815190406E+00  0.11802952597E+01  0.00000000000E+00 0.  1.
         11    1    3    3    0    0 -0.96582988721E+01  0.60443180423E+01 -0.18331259407E+01  0.11540228277E+02  0.51100000000E-03 0. -1.
        -11    1    3    3    0    0 -0.23157569232E+02 -0.29467796855E+02 -0.23442594762E+01  0.37551559448E+02  0.51100000000E-03 0.  1.
         12    1    3    3    0    0  0.32666567058E+02  0.24096346575E+02  0.51355373210E+01  0.40915917016E+02  0.00000000000E+00 0. -1.
</event>
<event>
 7    1  0.1654239E-015  0.9000745E+02  0.7816164E-02  0.1186340E+00
        -11   -1    0    0    0    0  0.00000000000E+00  0.00000000000E+00  0.45593999997E+02  0.45594000000E+02  0.51100000000E-03 0. -1.
         11   -1    0    0    0    0 -0.00000000000E+00 -0.00000000000E+00 -0.45593999997E+02  0.45594000000E+02  0.51100000000E-03 0.  1.
    9900012    2    1    2    0    0  0.94559313741E+00 -0.66789365979E+00  0.23125616506E+00  0.90007446005E+02  0.89999703491E+02 0.  0.
        -12    1    1    2    0    0 -0.94559313741E+00  0.66789365979E+00 -0.23125616506E+00  0.11805539955E+01  0.00000000000E+00 0.  1.
         11    1    3    3    0    0  0.31846869183E+01 -0.60922784896E+01 -0.37121374619E+01  0.78126853744E+01  0.51100000000E-03 0. -1.
        -11    1    3    3    0    0  0.35587921944E+02 -0.88408889379E-02 -0.16079333706E+02  0.39051827603E+02  0.51100000000E-03 0.  1.
         12    1    3    3    0    0 -0.37827015725E+02  0.54332257187E+01  0.20022727333E+02  0.43142933027E+02  0.00000000000E+00 0. -1.
</event>
<event>
 7    1  0.1654239E-015  0.9000780E+02  0.7816164E-02  0.1186339E+00
        -11   -1    0    0    0    0  0.00000000000E+00  0.00000000000E+00  0.45593999997E+02  0.45594000000E+02  0.51100000000E-03 0. -1.
         11   -1    0    0    0    0 -0.00000000000E+00 -0.00000000000E+00 -0.45593999997E+02  0.45594000000E+02  0.51100000000E-03 0.  1.
    9900012    2    1    2    0    0 -0.50347896781E+00  0.10533116983E+01 -0.17293353562E+00  0.90007803994E+02  0.90000066207E+02 0.  0.
        -12    1    1    2    0    0  0.50347896781E+00 -0.10533116983E+01  0.17293353562E+00  0.11801960060E+01  0.00000000000E+00 0.  1.
         11    1    3    3    0    0 -0.16876745799E+02  0.24338479578E+01  0.24815679448E+02  0.30109236313E+02  0.51100000000E-03 0. -1.
        -11    1    3    3    0    0  0.12028010631E+01 -0.98210539638E+01  0.14043946647E+02  0.17179414107E+02  0.51100000000E-03 0.  1.
        -12    1    3    3    0    0  0.15170465768E+02  0.84405177043E+01 -0.39032559631E+02  0.42719153574E+02  0.00000000000E+00 0.  1.
</event>
<event>
 7    1  0.1654239E-015  0.9000698E+02  0.7816164E-02  0.1186341E+00
        -11   -1    0    0    0    0  0.00000000000E+00  0.00000000000E+00  0.45593999997E+02  0.45594000000E+02  0.51100000000E-03 0. -1.
         11   -1    0    0    0    0 -0.00000000000E+00 -0.00000000000E+00 -0.45593999997E+02  0.45594000000E+02  0.51100000000E-03 0.  1.
    9900012    2    1    2    0    0 -0.91263168609E+00  0.42252420895E+00 -0.61918596441E+00  0.90006977324E+02  0.89999228622E+02 0.  0.
        -12    1    1    2    0    0  0.91263168609E+00 -0.42252420895E+00  0.61918596441E+00  0.11810226755E+01  0.00000000000E+00 0.  1.
         11    1    3    3    0    0 -0.17344641360E+02  0.10681568197E+02  0.32535320892E+02  0.38385929569E+02  0.51100000000E-03 0. -1.
        -11    1    3    3    0    0  0.57902883184E+01  0.37970912523E+01  0.56904432478E+01  0.89625044160E+01  0.51100000000E-03 0.  1.
        -12    1    3    3    0    0  0.10641721355E+02 -0.14056135241E+02 -0.38844950104E+02  0.42658543340E+02  0.00000000000E+00 0.  1.
</event>
<event>
 7    1  0.1654239E-015  0.9000767E+02  0.7816164E-02  0.1186339E+00
        -11   -1    0    0    0    0  0.00000000000E+00  0.00000000000E+00  0.45593999997E+02  0.45594000000E+02  0.51100000000E-03 0.  1.
         11   -1    0    0    0    0 -0.00000000000E+00 -0.00000000000E+00 -0.45593999997E+02  0.45594000000E+02  0.51100000000E-03 0. -1.
    9900012    2    1    2    0    0 -0.61644549663E+00 -0.22877188078E+00 -0.98021777013E+00  0.90007674409E+02  0.89999934911E+02 0.  0.
        -12    1    1    2    0    0  0.61644549663E+00  0.22877188078E+00  0.98021777013E+00  0.11803255909E+01  0.00000000000E+00 0.  1.
         11    1    3    3    0    0  0.89485358494E+01  0.28951762089E+01 -0.32611530635E+02  0.33940687526E+02  0.51100000000E-03 0. -1.
        -11    1    3    3    0    0 -0.19271793933E+02  0.59250186107E+01 -0.16579761140E+01  0.20230095699E+02  0.51100000000E-03 0.  1.
        -12    1    3    3    0    0  0.97068125874E+01 -0.90489667003E+01  0.33289288979E+02  0.35836891183E+02  0.00000000000E+00 0.  1.
</event>
<event>
 7    1  0.1654239E-015  0.9000779E+02  0.7816164E-02  0.1186339E+00
        -11   -1    0    0    0    0  0.00000000000E+00  0.00000000000E+00  0.45593999997E+02  0.45594000000E+02  0.51100000000E-03 0.  1.
         11   -1    0    0    0    0 -0.00000000000E+00 -0.00000000000E+00 -0.45593999997E+02  0.45594000000E+02  0.51100000000E-03 0. -1.
    9900012    2    1    2    0    0 -0.30462625959E-01 -0.10976938412E+01 -0.43246492154E+00  0.90007794235E+02  0.90000056318E+02 0.  0.
        -12    1    1    2    0    0  0.30462625959E-01  0.10976938412E+01  0.43246492154E+00  0.11802057655E+01  0.00000000000E+00 0.  1.
         11    1    3    3    0    0  0.22240951152E+02  0.29746666192E+02 -0.14381870081E+02  0.39829163247E+02  0.51100000000E-03 0. -1.
        -11    1    3    3    0    0 -0.45547892280E+01  0.46753425333E+01 -0.27923744667E+01  0.70994568904E+01  0.51100000000E-03 0.  1.
        -12    1    3    3    0    0 -0.17716624550E+02 -0.35519702566E+02  0.16741779626E+02  0.43079174097E+02  0.00000000000E+00 0.  1.
</event>
<event>
 7    1  0.1654239E-015  0.9000775E+02  0.7816164E-02  0.1186339E+00
        -11   -1    0    0    0    0  0.00000000000E+00  0.00000000000E+00  0.45593999997E+02  0.45594000000E+02  0.51100000000E-03 0.  1.
         11   -1    0    0    0    0 -0.00000000000E+00 -0.00000000000E+00 -0.45593999997E+02  0.45594000000E+02  0.51100000000E-03 0. -1.
    9900012    2    1    2    0    0  0.59428795206E+00  0.33270306529E+00 -0.96391048248E+00  0.90007748790E+02  0.90000010274E+02 0.  0.
        -12    1    1    2    0    0 -0.59428795206E+00 -0.33270306529E+00  0.96391048248E+00  0.11802512096E+01  0.00000000000E+00 0.  1.
         11    1    3    3    0    0  0.26441349357E+02  0.17473935409E+02 -0.27978924721E+02  0.42276513613E+02  0.51100000000E-03 0. -1.
        -11    1    3    3    0    0 -0.84885307968E+01  0.56069964619E+00 -0.27989093257E+01  0.89556369319E+01  0.51100000000E-03 0.  1.
        -12    1    3    3    0    0 -0.17358530608E+02 -0.17701931990E+02  0.29813923564E+02  0.38775598246E+02  0.00000000000E+00 0.  1.
</event>
<event>
 7    1  0.1654239E-015  0.9000778E+02  0.7816164E-02  0.1186339E+00
        -11   -1    0    0    0    0  0.00000000000E+00  0.00000000000E+00  0.45593999997E+02  0.45594000000E+02  0.51100000000E-03 0. -1.
         11   -1    0    0    0    0 -0.00000000000E+00 -0.00000000000E+00 -0.45593999997E+02  0.45594000000E+02  0.51100000000E-03 0.  1.
    9900012    2    1    2    0    0 -0.51808251510E+00  0.50804287814E-01  0.10592064728E+01  0.90007784376E+02  0.90000046329E+02 0.  0.
        -12    1    1    2    0    0  0.51808251510E+00 -0.50804287814E-01 -0.10592064728E+01  0.11802156244E+01  0.00000000000E+00 0.  1.
         11    1    3    3    0    0 -0.14392514380E+02  0.19640830779E+02  0.24633304102E+02  0.34636777781E+02  0.51100000000E-03 0. -1.
        -11    1    3    3    0    0  0.44871705436E+01  0.10699791794E+02  0.50479548178E+01  0.12653145539E+02  0.51100000000E-03 0.  1.
        -12    1    3    3    0    0  0.93872613209E+01 -0.30289818285E+02 -0.28622052447E+02  0.42717861055E+02  0.00000000000E+00 0.  1.
</event>
<event>
 7    1  0.1654239E-015  0.9000752E+02  0.7816164E-02  0.1186339E+00
        -11   -1    0    0    0    0  0.00000000000E+00  0.00000000000E+00  0.45593999997E+02  0.45594000000E+02  0.51100000000E-03 0.  1.
         11   -1    0    0    0    0 -0.00000000000E+00 -0.00000000000E+00 -0.45593999997E+02  0.45594000000E+02  0.51100000000E-03 0. -1.
    9900012    2    1    2    0    0  0.62259393107E+00 -0.94141672777E+00 -0.34589265518E+00  0.90007521120E+02  0.89999779598E+02 0.  0.
        -12    1    1    2    0    0 -0.62259393107E+00  0.94141672777E+00  0.34589265518E+00  0.11804788805E+01  0.00000000000E+00 0.  1.
         11    1    3    3    0    0  0.75912676259E+01  0.70979068783E+01 -0.33128398319E+01  0.10907911543E+02  0.51100000000E-03 0. -1.
        -11    1    3    3    0    0  0.13387782800E+02 -0.22473028209E+02  0.31663046761E+02  0.41070893046E+02  0.51100000000E-03 0.  1.
         12    1    3    3    0    0 -0.20356456495E+02  0.14433704603E+02 -0.28696099584E+02  0.38028716530E+02  0.00000000000E+00 0. -1.
</event>
<event>
 7    1  0.1654239E-015  0.9000748E+02  0.7816164E-02  0.1186340E+00
        -11   -1    0    0    0    0  0.00000000000E+00  0.00000000000E+00  0.45593999997E+02  0.45594000000E+02  0.51100000000E-03 0.  1.
         11   -1    0    0    0    0 -0.00000000000E+00 -0.00000000000E+00 -0.45593999997E+02  0.45594000000E+02  0.51100000000E-03 0. -1.
    9900012    2    1    2    0    0 -0.71545932531E+00  0.57439973979E+00 -0.74283491741E+00  0.90007482816E+02  0.89999740789E+02 0.  0.
        -12    1    1    2    0    0  0.71545932531E+00 -0.57439973979E+00  0.74283491741E+00  0.11805171840E+01  0.00000000000E+00 0.  1.
         11    1    3    3    0    0  0.28355179118E+01  0.87749005241E+01 -0.30402436426E+01  0.97098981820E+01  0.51100000000E-03 0. -1.
        -11    1    3    3    0    0  0.37894080575E+02  0.17391797625E-01 -0.10929007380E+01  0.37909841432E+02  0.51100000000E-03 0.  1.
         12    1    3    3    0    0 -0.41445057812E+02 -0.82178925820E+01  0.33903094632E+01  0.42387743202E+02  0.00000000000E+00 0. -1.
</event>
<event>
 7    1  0.1654239E-015  0.9000797E+02  0.7816164E-02  0.1186339E+00
        -11   -1    0    0    0    0  0.00000000000E+00  0.00000000000E+00  0.45593999997E+02  0.45594000000E+02  0.51100000000E-03 0.  1.
         11   -1    0    0    0    0 -0.00000000000E+00 -0.00000000000E+00 -0.45593999997E+02  0.45594000000E+02  0.51100000000E-03 0. -1.
    9900012    2    1    2    0    0 -0.63722997970E+00 -0.57794657256E+00  0.80770858049E+00  0.90007967187E+02  0.90000231554E+02 0.  0.
        -12    1    1    2    0    0  0.63722997970E+00  0.57794657256E+00 -0.80770858049E+00  0.11800328126E+01  0.00000000000E+00 0.  1.
         11    1    3    3    0    0 -0.48641254887E+01 -0.46605426609E+01  0.57415479970E+01  0.88513133673E+01  0.51100000000E-03 0. -1.
        -11    1    3    3    0    0  0.15157864775E+00 -0.21792188971E+02  0.30256540322E+02  0.37287809117E+02  0.51100000000E-03 0.  1.
         12    1    3    3    0    0  0.40753168613E+01  0.25874785060E+02 -0.35190379738E+02  0.43868844703E+02  0.00000000000E+00 0. -1.
</event>
<event>
 7    1  0.1654239E-015  0.9000784E+02  0.7816164E-02  0.1186339E+00
        -11   -1    0    0    0    0  0.00000000000E+00  0.00000000000E+00  0.45593999997E+02  0.45594000000E+02  0.51100000000E-03 0. -1.
         11   -1    0    0    0    0 -0.00000000000E+00 -0.00000000000E+00 -0.45593999997E+02  0.45594000000E+02  0.51100000000E-03 0.  1.
    9900012    2    1    2    0    0 -0.31554482190E+00  0.45292230579E+00  0.10431098941E+01  0.90007836706E+02  0.90000099350E+02 0.  0.
        -12    1    1    2    0    0  0.31554482190E+00 -0.45292230579E+00 -0.10431098941E+01  0.11801632942E+01  0.00000000000E+00 0.  1.
         11    1    3    3    0    0 -0.33670800468E+02 -0.11597883245E+02 -0.24793537088E+01  0.35698471886E+02  0.51100000000E-03 0. -1.
        -11    1    3    3    0    0 -0.68997520655E+01 -0.13817025457E+01 -0.76824466309E+01  0.10418045258E+02  0.51100000000E-03 0.  1.
        -12    1    3    3    0    0  0.40255007711E+02  0.13432508097E+02  0.11204910234E+02  0.43891319563E+02  0.00000000000E+00 0.  1.
</event>
<event>
 7    1  0.1654239E-015  0.9000779E+02  0.7816164E-02  0.1186339E+00
        -11   -1    0    0    0    0  0.00000000000E+00  0.00000000000E+00  0.45593999997E+02  0.45594000000E+02  0.51100000000E-03 0. -1.
         11   -1    0    0    0    0 -0.00000000000E+00 -0.00000000000E+00 -0.45593999997E+02  0.45594000000E+02  0.51100000000E-03 0.  1.
    9900012    2    1    2    0    0  0.60049364279E+00 -0.66321078252E-01  0.10138547870E+01  0.90007791277E+02  0.90000053322E+02 0.  0.
        -12    1    1    2    0    0 -0.60049364279E+00  0.66321078252E-01 -0.10138547870E+01  0.11802087229E+01  0.00000000000E+00 0.  1.
         11    1    3    3    0    0 -0.23460001961E+02 -0.24671632082E+02  0.22687524652E+02  0.40911916316E+02  0.51100000000E-03 0. -1.
        -11    1    3    3    0    0  0.74117006671E+01 -0.46966098062E+01  0.44262663347E+00  0.87856342428E+01  0.51100000000E-03 0.  1.
        -12    1    3    3    0    0  0.16648794936E+02  0.29301920810E+02 -0.22116296498E+02  0.40310240718E+02  0.00000000000E+00 0.  1.
</event>
<event>
 7    1  0.1654239E-015  0.9000780E+02  0.7816164E-02  0.1186339E+00
        -11   -1    0    0    0    0  0.00000000000E+00  0.00000000000E+00  0.45593999997E+02  0.45594000000E+02  0.51100000000E-03 0.  1.
         11   -1    0    0    0    0 -0.00000000000E+00 -0.00000000000E+00 -0.45593999997E+02  0.45594000000E+02  0.51100000000E-03 0. -1.
    9900012    2    1    2    0    0 -0.86172902032E-01 -0.65626701930E+00 -0.97712206813E+00  0.90007796752E+02  0.90000058869E+02 0.  0.
        -12    1    1    2    0    0  0.86172902032E-01  0.65626701930E+00  0.97712206813E+00  0.11802032476E+01  0.00000000000E+00 0.  1.
         11    1    3    3    0    0  0.38553322786E+01  0.55827346089E+01 -0.44163626029E+01  0.80953549393E+01  0.51100000000E-03 0. -1.
        -11    1    3    3    0    0 -0.18430094198E+02  0.23006252599E+02  0.28316264091E+02  0.40875014901E+02  0.51100000000E-03 0.  1.
         12    1    3    3    0    0  0.14488589017E+02 -0.29245254228E+02 -0.24877023556E+02  0.41037426912E+02  0.00000000000E+00 0. -1.
</event>
<event>
 7    1  0.1654239E-015  0.9000791E+02  0.7816164E-02  0.1186339E+00
        -11   -1    0    0    0    0  0.00000000000E+00  0.00000000000E+00  0.45593999997E+02  0.45594000000E+02  0.51100000000E-03 0. -1.
         11   -1    0    0    0    0 -0.00000000000E+00 -0.00000000000E+00 -0.45593999997E+02  0.45594000000E+02  0.51100000000E-03 0.  1.
    9900012    2    1    2    0    0 -0.16809640266E+00  0.11655616702E+01 -0.76327370690E-01  0.90007908362E+02  0.90000171952E+02 0.  0.
        -12    1    1    2    0    0  0.16809640266E+00 -0.11655616702E+01  0.76327370690E-01  0.11800916384E+01  0.00000000000E+00 0.  1.
         11    1    3    3    0    0  0.92929175650E+01  0.34270007644E+01  0.41092672828E+01  0.10723279768E+02  0.51100000000E-03 0. -1.
        -11    1    3    3    0    0  0.85197981202E+01  0.35857465103E+02  0.64836635327E+00  0.36861431643E+02  0.51100000000E-03 0.  1.
         12    1    3    3    0    0 -0.17980812088E+02 -0.38118904197E+02 -0.48339610067E+01  0.42423196951E+02  0.00000000000E+00 0. -1.
</event>
<event>
 7    1  0.2563044E-015  0.9000779E+02  0.7816164E-02  0.1186339E+00
        -11   -1    0    0    0    0  0.00000000000E+00  0.00000000000E+00  0.45593999997E+02  0.45594000000E+02  0.51100000000E-03 0. -1.
         11   -1    0    0    0    0 -0.00000000000E+00 -0.00000000000E+00 -0.45593999997E+02  0.45594000000E+02  0.51100000000E-03 0.  1.
    9900012    2    1    2    0    0 -0.58306903579E+00  0.60544250983E+00  0.82847510172E+00  0.90007787677E+02  0.90000049674E+02 0.  0.
        -12    1    1    2    0    0  0.58306903579E+00 -0.60544250983E+00 -0.82847510172E+00  0.11802123230E+01  0.00000000000E+00 0.  1.
         11    1    3    3    0    0 -0.60652278750E+01  0.76526769753E+01 -0.29845724003E+01  0.10210686889E+02  0.51100000000E-03 0. -1.
        -11    1    3    3    0    0 -0.79379640242E+01  0.23705979591E+01 -0.35894442016E+02  0.36838050647E+02  0.51100000000E-03 0.  1.
         12    1    3    3    0    0  0.13420122863E+02 -0.94178324246E+01  0.39707489518E+02  0.42959050142E+02  0.00000000000E+00 0. -1.
</event>
<event>
 7    1  0.1654239E-015  0.9000807E+02  0.7816164E-02  0.1186338E+00
        -11   -1    0    0    0    0  0.00000000000E+00  0.00000000000E+00  0.45593999997E+02  0.45594000000E+02  0.51100000000E-03 0. -1.
         11   -1    0    0    0    0 -0.00000000000E+00 -0.00000000000E+00 -0.45593999997E+02  0.45594000000E+02  0.51100000000E-03 0.  1.
    9900012    2    1    2    0    0  0.52370464149E+00 -0.19634613740E+00  0.10389489919E+01  0.90008070610E+02  0.90000336342E+02 0.  0.
        -12    1    1    2    0    0 -0.52370464149E+00  0.19634613740E+00 -0.10389489919E+01  0.11799293898E+01  0.00000000000E+00 0.  1.
         11    1    3    3    0    0 -0.10702772733E+02 -0.13519764238E+02  0.36126706288E+02  0.40030891530E+02  0.51100000000E-03 0. -1.
        -11    1    3    3    0    0 -0.83990673289E+01 -0.14932031708E+01 -0.20171213695E+01  0.87660006037E+01  0.51100000000E-03 0.  1.
        -12    1    3    3    0    0  0.19625544703E+02  0.14816621272E+02 -0.33070635926E+02  0.41211178476E+02  0.00000000000E+00 0.  1.
</event>
<event>
 7    1  0.1654239E-015  0.9000773E+02  0.7816164E-02  0.1186339E+00
        -11   -1    0    0    0    0  0.00000000000E+00  0.00000000000E+00  0.45593999997E+02  0.45594000000E+02  0.51100000000E-03 0.  1.
         11   -1    0    0    0    0 -0.00000000000E+00 -0.00000000000E+00 -0.45593999997E+02  0.45594000000E+02  0.51100000000E-03 0. -1.
    9900012    2    1    2    0    0 -0.65527456514E+00  0.82437806663E+00 -0.53296656982E+00  0.90007729981E+02  0.89999991217E+02 0.  0.
        -12    1    1    2    0    0  0.65527456514E+00 -0.82437806663E+00  0.53296656982E+00  0.11802700187E+01  0.00000000000E+00 0.  1.
         11    1    3    3    0    0 -0.77650771612E+01  0.29514302602E+01  0.38965802902E+01  0.91755491454E+01  0.51100000000E-03 0. -1.
        -11    1    3    3    0    0 -0.26271542433E+02 -0.23739373930E+02  0.12584849649E+02  0.37578321640E+02  0.51100000000E-03 0.  1.
         12    1    3    3    0    0  0.33381345029E+02  0.21612321736E+02 -0.17014396509E+02  0.43253859196E+02  0.00000000000E+00 0. -1.
</event>
<event>
 7    1  0.1654239E-015  0.9000754E+02  0.7816164E-02  0.1186339E+00
        -11   -1    0    0    0    0  0.00000000000E+00  0.00000000000E+00  0.45593999997E+02  0.45594000000E+02  0.51100000000E-03 0.  1.
         11   -1    0    0    0    0 -0.00000000000E+00 -0.00000000000E+00 -0.45593999997E+02  0.45594000000E+02  0.51100000000E-03 0. -1.
    9900012    2    1    2    0    0  0.22084977680E+00  0.11288082404E+01 -0.26554059614E+00  0.90007536330E+02  0.89999795009E+02 0.  0.
        -12    1    1    2    0    0 -0.22084977680E+00 -0.11288082404E+01  0.26554059614E+00  0.11804636698E+01  0.00000000000E+00 0.  1.
         11    1    3    3    0    0  0.13420495017E+01  0.13965936383E+01  0.18079198482E+02  0.18182656260E+02  0.51100000000E-03 0. -1.
        -11    1    3    3    0    0 -0.32347374754E+02 -0.90159884635E+01  0.18347011397E+01  0.33630444987E+02  0.51100000000E-03 0.  1.
         12    1    3    3    0    0  0.31226175029E+02  0.87482030656E+01 -0.20179440218E+02  0.38194435084E+02  0.00000000000E+00 0. -1.
</event>
<event>
 7    1  0.1654239E-015  0.9000779E+02  0.7816164E-02  0.1186339E+00
        -11   -1    0    0    0    0  0.00000000000E+00  0.00000000000E+00  0.45593999997E+02  0.45594000000E+02  0.51100000000E-03 0. -1.
         11   -1    0    0    0    0 -0.00000000000E+00 -0.00000000000E+00 -0.45593999997E+02  0.45594000000E+02  0.51100000000E-03 0.  1.
    9900012    2    1    2    0    0 -0.84859331523E+00 -0.52723547741E+00  0.62833480996E+00  0.90007791333E+02  0.90000053379E+02 0.  0.
        -12    1    1    2    0    0  0.84859331523E+00  0.52723547741E+00 -0.62833480996E+00  0.11802086666E+01  0.00000000000E+00 0.  1.
         11    1    3    3    0    0 -0.18951149513E+02  0.16160868581E+02 -0.57461145289E+01  0.25560468963E+02  0.51100000000E-03 0. -1.
        -11    1    3    3    0    0 -0.12094138475E+02 -0.28919847901E+02  0.56966325459E+01  0.31860279513E+02  0.51100000000E-03 0.  1.
         12    1    3    3    0    0  0.30196694672E+02  0.12231743842E+02  0.67781679294E+00  0.32587042857E+02  0.00000000000E+00 0. -1.
</event>
<event>
 7    1  0.1654239E-015  0.9000763E+02  0.7816164E-02  0.1186339E+00
        -11   -1    0    0    0    0  0.00000000000E+00  0.00000000000E+00  0.45593999997E+02  0.45594000000E+02  0.51100000000E-03 0. -1.
         11   -1    0    0    0    0 -0.00000000000E+00 -0.00000000000E+00 -0.45593999997E+02  0.45594000000E+02  0.51100000000E-03 0.  1.
    9900012    2    1    2    0    0  0.30997020347E+00  0.34721016803E+00  0.10847321982E+01  0.90007627021E+02  0.89999886898E+02 0.  0.
        -12    1    1    2    0    0 -0.30997020347E+00 -0.34721016803E+00 -0.10847321982E+01  0.11803729790E+01  0.00000000000E+00 0.  1.
         11    1    3    3    0    0  0.86806702504E+01 -0.36098661438E+02  0.39807414673E+01  0.37340510126E+02  0.51100000000E-03 0. -1.
        -11    1    3    3    0    0  0.74714936008E+01 -0.44725858013E+01 -0.33856538539E+00  0.87144631021E+01  0.51100000000E-03 0.  1.
        -12    1    3    3    0    0 -0.15842193648E+02  0.40918457407E+02 -0.25574438837E+01  0.43952653792E+02  0.00000000000E+00 0.  1.
</event>
<event>
 7    1  0.1654239E-015  0.9000769E+02  0.7816164E-02  0.1186339E+00
        -11   -1    0    0    0    0  0.00000000000E+00  0.00000000000E+00  0.45593999997E+02  0.45594000000E+02  0.51100000000E-03 0. -1.
         11   -1    0    0    0    0 -0.00000000000E+00 -0.00000000000E+00 -0.45593999997E+02  0.45594000000E+02  0.51100000000E-03 0.  1.
    9900012    2    1    2    0    0  0.69438745182E+00 -0.16994343235E-01  0.95429581634E+00  0.90007685107E+02  0.89999945751E+02 0.  0.
        -12    1    1    2    0    0 -0.69438745182E+00  0.16994343235E-01 -0.95429581634E+00  0.11803148927E+01  0.00000000000E+00 0.  1.
         11    1    3    3    0    0 -0.18732578288E+02  0.23763894162E+02  0.22982979837E+02  0.37998019916E+02  0.51100000000E-03 0. -1.
        -11    1    3    3    0    0 -0.95582733663E+01 -0.50378143930E+01  0.45711324198E+00  0.10814301474E+02  0.51100000000E-03 0.  1.
        -12    1    3    3    0    0  0.28985239106E+02 -0.18743074112E+02 -0.22485797263E+02  0.41195363717E+02  0.00000000000E+00 0.  1.
</event>
<event>
 7    1  0.1654239E-015  0.9000771E+02  0.7816164E-02  0.1186339E+00
        -11   -1    0    0    0    0  0.00000000000E+00  0.00000000000E+00  0.45593999997E+02  0.45594000000E+02  0.51100000000E-03 0.  1.
         11   -1    0    0    0    0 -0.00000000000E+00 -0.00000000000E+00 -0.45593999997E+02  0.45594000000E+02  0.51100000000E-03 0. -1.
    9900012    2    1    2    0    0  0.11136219079E+01 -0.22546717115E-01 -0.39041559554E+00  0.90007709169E+02  0.89999970130E+02 0.  0.
        -12    1    1    2    0    0 -0.11136219079E+01  0.22546717115E-01  0.39041559554E+00  0.11802908309E+01  0.00000000000E+00 0.  1.
         11    1    3    3    0    0  0.18076684647E+02  0.22387576450E+02 -0.25948703444E+02  0.38746681379E+02  0.51100000000E-03 0. -1.
        -11    1    3    3    0    0 -0.69914766017E+01  0.48157996150E+01 -0.44063354780E+01  0.95649601991E+01  0.51100000000E-03 0.  1.
        -12    1    3    3    0    0 -0.99715861376E+01 -0.27225922782E+02  0.29964623327E+02  0.41696067591E+02  0.00000000000E+00 0.  1.
</event>
<event>
 7    1  0.1654239E-015  0.9000782E+02  0.7816164E-02  0.1186339E+00
        -11   -1    0    0    0    0  0.00000000000E+00  0.00000000000E+00  0.45593999997E+02  0.45594000000E+02  0.51100000000E-03 0. -1.
         11   -1    0    0    0    0 -0.00000000000E+00 -0.00000000000E+00 -0.45593999997E+02  0.45594000000E+02  0.51100000000E-03 0.  1.
    9900012    2    1    2    0    0 -0.11651456496E+01  0.71800516192E-01  0.17347626397E+00  0.90007824711E+02  0.90000087197E+02 0.  0.
        -12    1    1    2    0    0  0.11651456496E+01 -0.71800516192E-01 -0.17347626397E+00  0.11801752892E+01  0.00000000000E+00 0.  1.
         11    1    3    3    0    0  0.89131961613E+01 -0.28679979051E+02  0.21495399702E+02  0.36932891476E+02  0.51100000000E-03 0. -1.
        -11    1    3    3    0    0 -0.82911233202E+01 -0.50401824370E+01  0.43168029452E+01  0.10619837703E+02  0.51100000000E-03 0.  1.
        -12    1    3    3    0    0 -0.17872184907E+01  0.33791962004E+02 -0.25638726383E+02  0.42455095532E+02  0.00000000000E+00 0.  1.
</event>
<event>
 7    1  0.1654239E-015  0.9000770E+02  0.7816164E-02  0.1186339E+00
        -11   -1    0    0    0    0  0.00000000000E+00  0.00000000000E+00  0.45593999997E+02  0.45594000000E+02  0.51100000000E-03 0. -1.
         11   -1    0    0    0    0 -0.00000000000E+00 -0.00000000000E+00 -0.45593999997E+02  0.45594000000E+02  0.51100000000E-03 0.  1.
    9900012    2    1    2    0    0  0.81283345053E+00  0.85510146291E+00  0.34682577336E-01  0.90007703592E+02  0.89999964479E+02 0.  0.
        -12    1    1    2    0    0 -0.81283345053E+00 -0.85510146291E+00 -0.34682577336E-01  0.11802964083E+01  0.00000000000E+00 0.  1.
         11    1    3    3    0    0  0.85871222087E+00  0.21818471687E+01 -0.80731125570E+01  0.84067229267E+01  0.51100000000E-03 0. -1.
        -11    1    3    3    0    0 -0.33057198476E+02 -0.22916176341E+02 -0.37892476126E+01  0.40401582975E+02  0.51100000000E-03 0.  1.
         12    1    3    3    0    0  0.33011319706E+02  0.21589430635E+02  0.11897042747E+02  0.41199397690E+02  0.00000000000E+00 0. -1.
</event>
<event>
 7    1  0.1654239E-015  0.9000786E+02  0.7816164E-02  0.1186339E+00
        -11   -1    0    0    0    0  0.00000000000E+00  0.00000000000E+00  0.45593999997E+02  0.45594000000E+02  0.51100000000E-03 0.  1.
         11   -1    0    0    0    0 -0.00000000000E+00 -0.00000000000E+00 -0.45593999997E+02  0.45594000000E+02  0.51100000000E-03 0. -1.
    9900012    2    1    2    0    0  0.57322985456E+00  0.60633496878E+00 -0.83455883949E+00  0.90007863136E+02  0.90000126130E+02 0.  0.
        -12    1    1    2    0    0 -0.57322985456E+00 -0.60633496878E+00  0.83455883949E+00  0.11801368637E+01  0.00000000000E+00 0.  1.
         11    1    3    3    0    0  0.86458609543E+01 -0.71452063457E+01 -0.24052902652E+02  0.26539536763E+02  0.51100000000E-03 0. -1.
        -11    1    3    3    0    0 -0.16483307949E+01  0.23014880034E+01 -0.19613031273E+02  0.19816277083E+02  0.51100000000E-03 0.  1.
        -12    1    3    3    0    0 -0.64243003049E+01  0.54500533111E+01  0.42831375086E+02  0.43652049290E+02  0.00000000000E+00 0.  1.
</event>
<event>
 7    1  0.1654239E-015  0.9000767E+02  0.7816164E-02  0.1186339E+00
        -11   -1    0    0    0    0  0.00000000000E+00  0.00000000000E+00  0.45593999997E+02  0.45594000000E+02  0.51100000000E-03 0.  1.
         11   -1    0    0    0    0 -0.00000000000E+00 -0.00000000000E+00 -0.45593999997E+02  0.45594000000E+02  0.51100000000E-03 0. -1.
    9900012    2    1    2    0    0  0.79789995595E+00 -0.43770479391E+00  0.75163143472E+00  0.90007669690E+02  0.89999930130E+02 0.  0.
        -12    1    1    2    0    0 -0.79789995595E+00  0.43770479391E+00 -0.75163143472E+00  0.11803303097E+01  0.00000000000E+00 0.  1.
         11    1    3    3    0    0  0.11233771318E+02 -0.32736335348E+02  0.51597649134E+01  0.34992691298E+02  0.51100000000E-03 0. -1.
        -11    1    3    3    0    0  0.50603814299E+01 -0.82608009329E+01  0.45160243797E+01  0.10688440893E+02  0.51100000000E-03 0.  1.
        -12    1    3    3    0    0 -0.15496252792E+02  0.40559431487E+02 -0.89241578583E+01  0.44326537499E+02  0.00000000000E+00 0.  1.
</event>
<event>
 7    1  0.1654239E-015  0.9000770E+02  0.7816164E-02  0.1186339E+00
        -11   -1    0    0    0    0  0.00000000000E+00  0.00000000000E+00  0.45593999997E+02  0.45594000000E+02  0.51100000000E-03 0. -1.
         11   -1    0    0    0    0 -0.00000000000E+00 -0.00000000000E+00 -0.45593999997E+02  0.45594000000E+02  0.51100000000E-03 0.  1.
    9900012    2    1    2    0    0  0.91239031687E+00 -0.30497662135E+00  0.68383557800E+00  0.90007704305E+02  0.89999965202E+02 0.  0.
        -12    1    1    2    0    0 -0.91239031687E+00  0.30497662135E+00 -0.68383557800E+00  0.11802956950E+01  0.00000000000E+00 0.  1.
         11    1    3    3    0    0  0.40273578476E+01  0.25182304090E+01  0.12436837556E+02  0.13313002076E+02  0.51100000000E-03 0. -1.
        -11    1    3    3    0    0  0.30452162376E+02  0.97378897971E+01 -0.22710830724E+02  0.39216610301E+02  0.51100000000E-03 0.  1.
         12    1    3    3    0    0 -0.33567129907E+02 -0.12561096827E+02  0.10957828746E+02  0.37478091928E+02  0.00000000000E+00 0. -1.
</event>
<event>
 7    1  0.1654239E-015  0.9000766E+02  0.7816164E-02  0.1186339E+00
        -11   -1    0    0    0    0  0.00000000000E+00  0.00000000000E+00  0.45593999997E+02  0.45594000000E+02  0.51100000000E-03 0. -1.
         11   -1    0    0    0    0 -0.00000000000E+00 -0.00000000000E+00 -0.45593999997E+02  0.45594000000E+02  0.51100000000E-03 0.  1.
    9900012    2    1    2    0    0 -0.50305445114E+00 -0.48769854013E+00  0.94988434234E+00  0.90007663645E+02  0.89999924005E+02 0.  0.
        -12    1    1    2    0    0  0.50305445114E+00  0.48769854013E+00 -0.94988434234E+00  0.11803363549E+01  0.00000000000E+00 0.  1.
         11    1    3    3    0    0 -0.24489210244E+01 -0.40127034380E+01  0.82481046530E+01  0.94936944175E+01  0.51100000000E-03 0. -1.
        -11    1    3    3    0    0 -0.17306014743E+02 -0.28723550922E+02  0.15107861081E+02  0.36780266320E+02  0.51100000000E-03 0.  1.
         12    1    3    3    0    0  0.19251881317E+02  0.32248555820E+02 -0.22406081392E+02  0.43733702908E+02  0.00000000000E+00 0. -1.
</event>
<event>
 7    1  0.1654239E-015  0.9000773E+02  0.7816164E-02  0.1186339E+00
        -11   -1    0    0    0    0  0.00000000000E+00  0.00000000000E+00  0.45593999997E+02  0.45594000000E+02  0.51100000000E-03 0.  1.
         11   -1    0    0    0    0 -0.00000000000E+00 -0.00000000000E+00 -0.45593999997E+02  0.45594000000E+02  0.51100000000E-03 0. -1.
    9900012    2    1    2    0    0 -0.61680901038E+00  0.14367307043E+00  0.99596164240E+00  0.90007731005E+02  0.89999992255E+02 0.  0.
        -12    1    1    2    0    0  0.61680901038E+00 -0.14367307043E+00 -0.99596164240E+00  0.11802689946E+01  0.00000000000E+00 0.  1.
         11    1    3    3    0    0 -0.12187778402E+02 -0.99325552660E+01 -0.29552261215E+01  0.15997842298E+02  0.51100000000E-03 0. -1.
        -11    1    3    3    0    0 -0.82945379156E+01 -0.22602224154E+02  0.21178963729E+02  0.32065688841E+02  0.51100000000E-03 0.  1.
         12    1    3    3    0    0  0.19865507307E+02  0.32678452491E+02 -0.17227775965E+02  0.41944199867E+02  0.00000000000E+00 0. -1.
</event>
<event>
 7    1  0.1654239E-015  0.9000776E+02  0.7816164E-02  0.1186339E+00
        -11   -1    0    0    0    0  0.00000000000E+00  0.00000000000E+00  0.45593999997E+02  0.45594000000E+02  0.51100000000E-03 0. -1.
         11   -1    0    0    0    0 -0.00000000000E+00 -0.00000000000E+00 -0.45593999997E+02  0.45594000000E+02  0.51100000000E-03 0.  1.
    9900012    2    1    2    0    0  0.88641382413E+00  0.77886910001E+00  0.24357911300E-01  0.90007762799E+02  0.90000024468E+02 0.  0.
        -12    1    1    2    0    0 -0.88641382413E+00 -0.77886910001E+00 -0.24357911300E-01  0.11802372009E+01  0.00000000000E+00 0.  1.
         11    1    3    3    0    0 -0.17908138003E+02 -0.26223534820E+02 -0.19013536483E+02  0.37012021764E+02  0.51100000000E-03 0. -1.
        -11    1    3    3    0    0  0.54276093886E-01 -0.18977671485E+01 -0.86167234025E+01  0.88234000533E+01  0.51100000000E-03 0.  1.
        -12    1    3    3    0    0  0.18740275733E+02  0.28900171069E+02  0.27654617797E+02  0.44172340982E+02  0.00000000000E+00 0.  1.
</event>
<event>
 7    1  0.1654239E-015  0.9000775E+02  0.7816164E-02  0.1186339E+00
        -11   -1    0    0    0    0  0.00000000000E+00  0.00000000000E+00  0.45593999997E+02  0.45594000000E+02  0.51100000000E-03 0.  1.
         11   -1    0    0    0    0 -0.00000000000E+00 -0.00000000000E+00 -0.45593999997E+02  0.45594000000E+02  0.51100000000E-03 0. -1.
    9900012    2    1    2    0    0  0.92793121909E+00  0.23856348970E+00 -0.68922074192E+00  0.90007748282E+02  0.90000009760E+02 0.  0.
        -12    1    1    2    0    0 -0.92793121909E+00 -0.23856348970E+00  0.68922074192E+00  0.11802517177E+01  0.00000000000E+00 0.  1.
         11    1    3    3    0    0  0.17331342415E+02 -0.55074282475E+01 -0.26904359041E+02  0.32473862281E+02  0.51100000000E-03 0. -1.
        -11    1    3    3    0    0 -0.26205365337E+01  0.15367211403E+01 -0.14254630191E+02  0.14574745477E+02  0.51100000000E-03 0.  1.
        -12    1    3    3    0    0 -0.13782874662E+02  0.42092705968E+01  0.40469768490E+02  0.42959140524E+02  0.00000000000E+00 0.  1.
</event>
<event>
 7    1  0.1654239E-015  0.9000774E+02  0.7816164E-02  0.1186339E+00
        -11   -1    0    0    0    0  0.00000000000E+00  0.00000000000E+00  0.45593999997E+02  0.45594000000E+02  0.51100000000E-03 0.  1.
         11   -1    0    0    0    0 -0.00000000000E+00 -0.00000000000E+00 -0.45593999997E+02  0.45594000000E+02  0.51100000000E-03 0. -1.
    9900012    2    1    2    0    0 -0.11261859171E+01 -0.26769753498E+00 -0.23032995724E+00  0.90007742156E+02  0.90000003552E+02 0.  0.
        -12    1    1    2    0    0  0.11261859171E+01  0.26769753498E+00  0.23032995724E+00  0.11802578445E+01  0.00000000000E+00 0.  1.
         11    1    3    3    0    0 -0.79197452381E+01  0.34768246707E+01 -0.37383350563E+01  0.94226229725E+01  0.51100000000E-03 0. -1.
        -11    1    3    3    0    0 -0.10499160285E+02  0.18141193673E+02  0.33569849419E+02  0.39576129988E+02  0.51100000000E-03 0.  1.
         12    1    3    3    0    0  0.17292719606E+02 -0.21885715878E+02 -0.30061844320E+02  0.41008989195E+02  0.00000000000E+00 0. -1.
</event>
<event>
 7    1  0.1654239E-015  0.9000771E+02  0.7816164E-02  0.1186339E+00
        -11   -1    0    0    0    0  0.00000000000E+00  0.00000000000E+00  0.45593999997E+02  0.45594000000E+02  0.51100000000E-03 0.  1.
         11   -1    0    0    0    0 -0.00000000000E+00 -0.00000000000E+00 -0.45593999997E+02  0.45594000000E+02  0.51100000000E-03 0. -1.
    9900012    2    1    2    0    0  0.20879691516E+00  0.58296720850E+00 -0.10048053057E+01  0.90007711637E+02  0.89999972630E+02 0.  0.
        -12    1    1    2    0    0 -0.20879691516E+00 -0.58296720850E+00  0.10048053057E+01  0.11802883632E+01  0.00000000000E+00 0.  1.
         11    1    3    3    0    0  0.29085652824E+01  0.73919111643E+01 -0.51055393235E+01  0.94428086239E+01  0.51100000000E-03 0. -1.
        -11    1    3    3    0    0 -0.28208481351E+02  0.23275157706E+02 -0.11215884657E+02  0.38252417639E+02  0.51100000000E-03 0.  1.
         12    1    3    3    0    0  0.25508712984E+02 -0.30084101662E+02  0.15316618675E+02  0.42312485374E+02  0.00000000000E+00 0. -1.
</event>
<event>
 7    1  0.1654239E-015  0.9000807E+02  0.7816164E-02  0.1186338E+00
        -11   -1    0    0    0    0  0.00000000000E+00  0.00000000000E+00  0.45593999997E+02  0.45594000000E+02  0.51100000000E-03 0.  1.
         11   -1    0    0    0    0 -0.00000000000E+00 -0.00000000000E+00 -0.45593999997E+02  0.45594000000E+02  0.51100000000E-03 0. -1.
    9900012    2    1    2    0    0  0.89860658662E-01 -0.45914112755E+00 -0.10832155393E+01  0.90008067198E+02  0.90000332884E+02 0.  0.
        -12    1    1    2    0    0 -0.89860658662E-01  0.45914112755E+00  0.10832155393E+01  0.11799328021E+01  0.00000000000E+00 0.  1.
         11    1    3    3    0    0  0.26992371584E+01 -0.82976550044E+01 -0.46759802872E+01  0.98995834113E+01  0.51100000000E-03 0. -1.
        -11    1    3    3    0    0  0.37242448087E+02 -0.40798234113E+00 -0.73585189120E+01  0.37964643946E+02  0.51100000000E-03 0.  1.
         12    1    3    3    0    0 -0.39851824586E+02  0.82464962180E+01  0.10951283660E+02  0.42143839841E+02  0.00000000000E+00 0. -1.
</event>
<event>
 7    1  0.1654239E-015  0.9000776E+02  0.7816164E-02  0.1186339E+00
        -11   -1    0    0    0    0  0.00000000000E+00  0.00000000000E+00  0.45593999997E+02  0.45594000000E+02  0.51100000000E-03 0.  1.
         11   -1    0    0    0    0 -0.00000000000E+00 -0.00000000000E+00 -0.45593999997E+02  0.45594000000E+02  0.51100000000E-03 0. -1.
    9900012    2    1    2    0    0 -0.12676071327E+00 -0.13791751217E+00 -0.11652799662E+01  0.90007759805E+02  0.90000021434E+02 0.  0.
        -12    1    1    2    0    0  0.12676071327E+00  0.13791751217E+00  0.11652799662E+01  0.11802401952E+01  0.00000000000E+00 0.  1.
         11    1    3    3    0    0  0.79403804330E+01  0.45027552465E+01 -0.47577527780E+01  0.10293719347E+02  0.51100000000E-03 0. -1.
        -11    1    3    3    0    0  0.25201130881E+02  0.22346849949E+02  0.12559538189E+02  0.35947471401E+02  0.51100000000E-03 0.  1.
         12    1    3    3    0    0 -0.33268272027E+02 -0.26987522708E+02 -0.89670653769E+01  0.43766569057E+02  0.00000000000E+00 0. -1.
</event>
<event>
 7    1  0.1654239E-015  0.9000776E+02  0.7816164E-02  0.1186339E+00
        -11   -1    0    0    0    0  0.00000000000E+00  0.00000000000E+00  0.45593999997E+02  0.45594000000E+02  0.51100000000E-03 0. -1.
         11   -1    0    0    0    0 -0.00000000000E+00 -0.00000000000E+00 -0.45593999997E+02  0.45594000000E+02  0.51100000000E-03 0.  1.
    9900012    2    1    2    0    0  0.24600554600E+00 -0.11541609743E+01  0.19131024347E-01  0.90007757534E+02  0.90000019133E+02 0.  0.
        -12    1    1    2    0    0 -0.24600554600E+00  0.11541609743E+01 -0.19131024347E-01  0.11802424664E+01  0.00000000000E+00 0.  1.
         11    1    3    3    0    0 -0.26209079660E+02  0.17424328546E+02  0.16569193481E+02  0.35567699599E+02  0.51100000000E-03 0. -1.
        -11    1    3    3    0    0 -0.53726592984E+01  0.83982674960E+01 -0.49735833598E+01  0.11141494360E+02  0.51100000000E-03 0.  1.
        -12    1    3    3    0    0  0.31827744504E+02 -0.26976757016E+02 -0.11576479097E+02  0.43298563575E+02  0.00000000000E+00 0.  1.
</event>
<event>
 7    1  0.1654239E-015  0.9000771E+02  0.7816164E-02  0.1186339E+00
        -11   -1    0    0    0    0  0.00000000000E+00  0.00000000000E+00  0.45593999997E+02  0.45594000000E+02  0.51100000000E-03 0. -1.
         11   -1    0    0    0    0 -0.00000000000E+00 -0.00000000000E+00 -0.45593999997E+02  0.45594000000E+02  0.51100000000E-03 0.  1.
    9900012    2    1    2    0    0  0.57729665293E+00 -0.35318232667E+00  0.96698853595E+00  0.90007713590E+02  0.89999974609E+02 0.  0.
        -12    1    1    2    0    0 -0.57729665293E+00  0.35318232667E+00 -0.96698853595E+00  0.11802864102E+01  0.00000000000E+00 0.  1.
         11    1    3    3    0    0  0.37475732288E+02 -0.45219902211E+01  0.75976627766E+01  0.38504589155E+02  0.51100000000E-03 0. -1.
        -11    1    3    3    0    0  0.15781436481E+01  0.10155509491E+02  0.41735502957E+01  0.11092494432E+02  0.51100000000E-03 0.  1.
        -12    1    3    3    0    0 -0.38476579283E+02 -0.59867015969E+01 -0.10804224536E+02  0.40410630002E+02  0.00000000000E+00 0.  1.
</event>
<event>
 7    1  0.1654239E-015  0.9000775E+02  0.7816164E-02  0.1186339E+00
        -11   -1    0    0    0    0  0.00000000000E+00  0.00000000000E+00  0.45593999997E+02  0.45594000000E+02  0.51100000000E-03 0.  1.
         11   -1    0    0    0    0 -0.00000000000E+00 -0.00000000000E+00 -0.45593999997E+02  0.45594000000E+02  0.51100000000E-03 0. -1.
    9900012    2    1    2    0    0 -0.30482173556E+00 -0.11367370288E+01  0.88946389798E-01  0.90007746289E+02  0.90000007740E+02 0.  0.
        -12    1    1    2    0    0  0.30482173556E+00  0.11367370288E+01 -0.88946389798E-01  0.11802537114E+01  0.00000000000E+00 0.  1.
         11    1    3    3    0    0 -0.64098242727E+01 -0.25983866416E+01 -0.78884823248E+01  0.10491216040E+02  0.51100000000E-03 0. -1.
        -11    1    3    3    0    0 -0.16804928093E+02 -0.22864230674E+02  0.28568614786E+02  0.40265921119E+02  0.51100000000E-03 0.  1.
         12    1    3    3    0    0  0.22909930630E+02  0.24325880286E+02 -0.20591186072E+02  0.39250609129E+02  0.00000000000E+00 0. -1.
</event>
<event>
 7    1  0.1654239E-015  0.9000784E+02  0.7816164E-02  0.1186339E+00
        -11   -1    0    0    0    0  0.00000000000E+00  0.00000000000E+00  0.45593999997E+02  0.45594000000E+02  0.51100000000E-03 0.  1.
         11   -1    0    0    0    0 -0.00000000000E+00 -0.00000000000E+00 -0.45593999997E+02  0.45594000000E+02  0.51100000000E-03 0. -1.
    9900012    2    1    2    0    0 -0.42986330226E+00  0.92816391539E+00 -0.58865527979E+00  0.90007836558E+02  0.90000099200E+02 0.  0.
        -12    1    1    2    0    0  0.42986330226E+00 -0.92816391539E+00  0.58865527979E+00  0.11801634424E+01  0.00000000000E+00 0.  1.
         11    1    3    3    0    0 -0.57641101750E+00 -0.74352729176E+01  0.52716391080E+01  0.91326727833E+01  0.51100000000E-03 0. -1.
        -11    1    3    3    0    0  0.74190469339E+01 -0.23999358061E+02  0.25093178067E+02  0.35506042169E+02  0.51100000000E-03 0.  1.
         12    1    3    3    0    0 -0.72724992187E+01  0.32362794894E+02 -0.30953472455E+02  0.45369121605E+02  0.00000000000E+00 0. -1.
</event>
<event>
 7    1  0.1654239E-015  0.9000771E+02  0.7816164E-02  0.1186339E+00
        -11   -1    0    0    0    0  0.00000000000E+00  0.00000000000E+00  0.45593999997E+02  0.45594000000E+02  0.51100000000E-03 0.  1.
         11   -1    0    0    0    0 -0.00000000000E+00 -0.00000000000E+00 -0.45593999997E+02  0.45594000000E+02  0.51100000000E-03 0. -1.
    9900012    2    1    2    0    0 -0.16061193459E+00  0.11076672781E+01 -0.37464570994E+00  0.90007710883E+02  0.89999971866E+02 0.  0.
        -12    1    1    2    0    0  0.16061193459E+00 -0.11076672781E+01  0.37464570994E+00  0.11802891173E+01  0.00000000000E+00 0.  1.
         11    1    3    3    0    0  0.63192844957E+01 -0.36971557549E+01 -0.12535215841E+01  0.74278956533E+01  0.51100000000E-03 0. -1.
        -11    1    3    3    0    0  0.26066041649E+02 -0.11191735662E+00 -0.28384314427E+02  0.38537259353E+02  0.51100000000E-03 0.  1.
         12    1    3    3    0    0 -0.32545938079E+02  0.49167403896E+01  0.29263190301E+02  0.44042555876E+02  0.00000000000E+00 0. -1.
</event>
<event>
 7    1  0.1654239E-015  0.9000785E+02  0.7816164E-02  0.1186339E+00
        -11   -1    0    0    0    0  0.00000000000E+00  0.00000000000E+00  0.45593999997E+02  0.45594000000E+02  0.51100000000E-03 0.  1.
         11   -1    0    0    0    0 -0.00000000000E+00 -0.00000000000E+00 -0.45593999997E+02  0.45594000000E+02  0.51100000000E-03 0. -1.
    9900012    2    1    2    0    0 -0.70129885391E+00  0.87530057035E+00  0.36712073917E+00  0.90007852209E+02  0.90000115058E+02 0.  0.
        -12    1    1    2    0    0  0.70129885391E+00 -0.87530057035E+00 -0.36712073917E+00  0.11801477908E+01  0.00000000000E+00 0.  1.
         11    1    3    3    0    0 -0.29441869832E+02 -0.12156341118E+02 -0.22714950863E+02  0.39122491249E+02  0.51100000000E-03 0. -1.
        -11    1    3    3    0    0 -0.28175838630E+01 -0.66234758967E+01  0.14228181238E+00  0.71992677513E+01  0.51100000000E-03 0.  1.
        -12    1    3    3    0    0  0.31558154841E+02  0.19655117585E+02  0.22939789790E+02  0.43686093209E+02  0.00000000000E+00 0.  1.
</event>
<event>
 7    1  0.2039727E-015  0.9000777E+02  0.7816164E-02  0.1186339E+00
        -11   -1    0    0    0    0  0.00000000000E+00  0.00000000000E+00  0.45593999997E+02  0.45594000000E+02  0.51100000000E-03 0.  1.
         11   -1    0    0    0    0 -0.00000000000E+00 -0.00000000000E+00 -0.45593999997E+02  0.45594000000E+02  0.51100000000E-03 0. -1.
    9900012    2    1    2    0    0  0.23143897753E+00  0.10887348617E+01 -0.39247486693E+00  0.90007769463E+02  0.90000031220E+02 0.  0.
        -12    1    1    2    0    0 -0.23143897753E+00 -0.10887348617E+01  0.39247486693E+00  0.11802305370E+01  0.00000000000E+00 0.  1.
         11    1    3    3    0    0  0.39122521535E+01  0.85654502904E+01  0.18777707537E+01  0.96020143124E+01  0.51100000000E-03 0. -1.
        -11    1    3    3    0    0 -0.23776201340E+02  0.23377044209E+02  0.18498718888E+02  0.38131306650E+02  0.51100000000E-03 0.  1.
         12    1    3    3    0    0  0.20095388164E+02 -0.30853759638E+02 -0.20768964508E+02  0.42274448500E+02  0.00000000000E+00 0. -1.
</event>
<event>
 7    1  0.1654239E-015  0.9000726E+02  0.7816164E-02  0.1186340E+00
        -11   -1    0    0    0    0  0.00000000000E+00  0.00000000000E+00  0.45593999997E+02  0.45594000000E+02  0.51100000000E-03 0. -1.
         11   -1    0    0    0    0 -0.00000000000E+00 -0.00000000000E+00 -0.45593999997E+02  0.45594000000E+02  0.51100000000E-03 0.  1.
    9900012    2    1    2    0    0  0.11590324328E+01 -0.22429607618E-01 -0.22423456380E+00  0.90007262770E+02  0.89999517837E+02 0.  0.
        -12    1    1    2    0    0 -0.11590324328E+01  0.22429607618E-01  0.22423456380E+00  0.11807372304E+01  0.00000000000E+00 0.  1.
         11    1    3    3    0    0  0.57464461053E+01  0.51751566998E+01 -0.65330521576E+01  0.10123470772E+02  0.51100000000E-03 0. -1.
        -11    1    3    3    0    0  0.14308683132E+02 -0.28651687603E+02 -0.21755413546E+02  0.38716348411E+02  0.51100000000E-03 0.  1.
         12    1    3    3    0    0 -0.18896096804E+02  0.23454101295E+02  0.28064231140E+02  0.41167443587E+02  0.00000000000E+00 0. -1.
</event>
<event>
 7    1  0.1654239E-015  0.9000740E+02  0.7816164E-02  0.1186340E+00
        -11   -1    0    0    0    0  0.00000000000E+00  0.00000000000E+00  0.45593999997E+02  0.45594000000E+02  0.51100000000E-03 0.  1.
         11   -1    0    0    0    0 -0.00000000000E+00 -0.00000000000E+00 -0.45593999997E+02  0.45594000000E+02  0.51100000000E-03 0. -1.
    9900012    2    1    2    0    0 -0.95853391912E+00  0.68617614585E+00 -0.64771174028E-01  0.90007398339E+02  0.89999655196E+02 0.  0.
        -12    1    1    2    0    0  0.95853391912E+00 -0.68617614585E+00  0.64771174028E-01  0.11806016611E+01  0.00000000000E+00 0.  1.
         11    1    3    3    0    0 -0.10460426096E+02  0.40048173722E+01 -0.88842468123E+00  0.11236030214E+02  0.51100000000E-03 0. -1.
        -11    1    3    3    0    0  0.23277687233E+02 -0.12063358244E+02  0.33326224885E+02  0.42402978673E+02  0.51100000000E-03 0.  1.
         12    1    3    3    0    0 -0.13775795056E+02  0.87447170179E+01 -0.32502571378E+02  0.36368389452E+02  0.00000000000E+00 0. -1.
</event>
<event>
 7    1  0.1654239E-015  0.9000788E+02  0.7816164E-02  0.1186339E+00
        -11   -1    0    0    0    0  0.00000000000E+00  0.00000000000E+00  0.45593999997E+02  0.45594000000E+02  0.51100000000E-03 0.  1.
         11   -1    0    0    0    0 -0.00000000000E+00 -0.00000000000E+00 -0.45593999997E+02  0.45594000000E+02  0.51100000000E-03 0. -1.
    9900012    2    1    2    0    0 -0.11386447260E+01  0.30517060205E+00 -0.55072979305E-01  0.90007883929E+02  0.90000147197E+02 0.  0.
        -12    1    1    2    0    0  0.11386447260E+01 -0.30517060205E+00  0.55072979305E-01  0.11801160712E+01  0.00000000000E+00 0.  1.
         11    1    3    3    0    0 -0.49401598585E+01  0.50507327069E+01 -0.41570698628E+02  0.42166788649E+02  0.51100000000E-03 0. -1.
        -11    1    3    3    0    0  0.66228672562E+00  0.77902871336E+01  0.54509525490E+01  0.95310063101E+01  0.51100000000E-03 0.  1.
        -12    1    3    3    0    0  0.31392284068E+01 -0.12535849238E+02  0.36064673099E+02  0.38310088970E+02  0.00000000000E+00 0.  1.
</event>
<event>
 7    1  0.1654239E-015  0.9000760E+02  0.7816164E-02  0.1186339E+00
        -11   -1    0    0    0    0  0.00000000000E+00  0.00000000000E+00  0.45593999997E+02  0.45594000000E+02  0.51100000000E-03 0. -1.
         11   -1    0    0    0    0 -0.00000000000E+00 -0.00000000000E+00 -0.45593999997E+02  0.45594000000E+02  0.51100000000E-03 0.  1.
    9900012    2    1    2    0    0  0.62200413201E+00 -0.78222110942E+00 -0.62815850056E+00  0.90007600870E+02  0.89999860401E+02 0.  0.
        -12    1    1    2    0    0 -0.62200413201E+00  0.78222110942E+00  0.62815850056E+00  0.11803991300E+01  0.00000000000E+00 0.  1.
         11    1    3    3    0    0  0.26577175053E+01  0.31137821306E+02  0.60584613615E+01  0.31832881308E+02  0.51100000000E-03 0. -1.
        -11    1    3    3    0    0  0.98005576785E+01  0.92394812313E+01 -0.73457042647E+01  0.15342044050E+02  0.51100000000E-03 0.  1.
        -12    1    3    3    0    0 -0.11836271052E+02 -0.41159523647E+02  0.65908440268E+00  0.42832675512E+02  0.00000000000E+00 0.  1.
</event>
<event>
 7    1  0.1654239E-015  0.9000782E+02  0.7816164E-02  0.1186339E+00
        -11   -1    0    0    0    0  0.00000000000E+00  0.00000000000E+00  0.45593999997E+02  0.45594000000E+02  0.51100000000E-03 0.  1.
         11   -1    0    0    0    0 -0.00000000000E+00 -0.00000000000E+00 -0.45593999997E+02  0.45594000000E+02  0.51100000000E-03 0. -1.
    9900012    2    1    2    0    0  0.11597410331E+01 -0.11461072027E+00 -0.18624613585E+00  0.90007820986E+02  0.90000083423E+02 0.  0.
        -12    1    1    2    0    0 -0.11597410331E+01  0.11461072027E+00  0.18624613585E+00  0.11801790137E+01  0.00000000000E+00 0.  1.
         11    1    3    3    0    0 -0.20167304646E+01  0.17056891773E+02  0.11308503876E+01  0.17212889984E+02  0.51100000000E-03 0. -1.
        -11    1    3    3    0    0  0.22245392250E+02  0.18220339224E+02  0.10940412966E+02  0.30765741888E+02  0.51100000000E-03 0.  1.
         12    1    3    3    0    0 -0.19068920752E+02 -0.35391841717E+02 -0.12257509489E+02  0.42029189115E+02  0.00000000000E+00 0. -1.
</event>
<event>
 7    1  0.1654239E-015  0.9000780E+02  0.7816164E-02  0.1186339E+00
        -11   -1    0    0    0    0  0.00000000000E+00  0.00000000000E+00  0.45593999997E+02  0.45594000000E+02  0.51100000000E-03 0. -1.
         11   -1    0    0    0    0 -0.00000000000E+00 -0.00000000000E+00 -0.45593999997E+02  0.45594000000E+02  0.51100000000E-03 0.  1.
    9900012    2    1    2    0    0 -0.25515131695E+00 -0.10488482479E+01  0.47716290507E+00  0.90007801169E+02  0.90000063345E+02 0.  0.
        -12    1    1    2    0    0  0.25515131695E+00  0.10488482479E+01 -0.47716290507E+00  0.11801988306E+01  0.00000000000E+00 0.  1.
         11    1    3    3    0    0 -0.76319094987E+01  0.38201876379E+02  0.13158120507E+02  0.41118919453E+02  0.51100000000E-03 0. -1.
        -11    1    3    3    0    0 -0.32826317103E+01 -0.35365068786E+01  0.55865676006E+01  0.73818893019E+01  0.51100000000E-03 0.  1.
        -12    1    3    3    0    0  0.10659389892E+02 -0.35714217748E+02 -0.18267525203E+02  0.41506992414E+02  0.00000000000E+00 0.  1.
</event>
<event>
 7    1  0.1654239E-015  0.9000769E+02  0.7816164E-02  0.1186339E+00
        -11   -1    0    0    0    0  0.00000000000E+00  0.00000000000E+00  0.45593999997E+02  0.45594000000E+02  0.51100000000E-03 0. -1.
         11   -1    0    0    0    0 -0.00000000000E+00 -0.00000000000E+00 -0.45593999997E+02  0.45594000000E+02  0.51100000000E-03 0.  1.
    9900012    2    1    2    0    0 -0.81118801737E-01  0.22757145323E+00  0.11553235749E+01  0.90007685809E+02  0.89999946462E+02 0.  0.
        -12    1    1    2    0    0  0.81118801737E-01 -0.22757145323E+00 -0.11553235749E+01  0.11803141908E+01  0.00000000000E+00 0.  1.
         11    1    3    3    0    0  0.30294047532E+02  0.16062522936E+02 -0.17184488094E+01  0.34332011673E+02  0.51100000000E-03 0. -1.
        -11    1    3    3    0    0 -0.64298712851E+01 -0.93258364940E+01 -0.19312468693E+02  0.22389415319E+02  0.51100000000E-03 0.  1.
        -12    1    3    3    0    0 -0.23945295049E+02 -0.65091149886E+01  0.22186241077E+02  0.33286258817E+02  0.00000000000E+00 0.  1.
</event>
<event>
 7    1  0.1654239E-015  0.9000766E+02  0.7816164E-02  0.1186339E+00
        -11   -1    0    0    0    0  0.00000000000E+00  0.00000000000E+00  0.45593999997E+02  0.45594000000E+02  0.51100000000E-03 0. -1.
         11   -1    0    0    0    0 -0.00000000000E+00 -0.00000000000E+00 -0.45593999997E+02  0.45594000000E+02  0.51100000000E-03 0.  1.
    9900012    2    1    2    0    0  0.46780313822E+00 -0.50280228148E+00  0.95997099509E+00  0.90007663513E+02  0.89999923872E+02 0.  0.
        -12    1    1    2    0    0 -0.46780313822E+00  0.50280228148E+00 -0.95997099509E+00  0.11803364867E+01  0.00000000000E+00 0.  1.
         11    1    3    3    0    0  0.10966708702E+02  0.16375413316E+02  0.28551026252E+02  0.34692707610E+02  0.51100000000E-03 0. -1.
        -11    1    3    3    0    0 -0.71971715496E+01  0.97295500630E+01  0.50156281377E+01  0.13100379713E+02  0.51100000000E-03 0.  1.
        -12    1    3    3    0    0 -0.33017340142E+01 -0.26607765661E+02 -0.32606683394E+02  0.42214576190E+02  0.00000000000E+00 0.  1.
</event>
<event>
 7    1  0.1654239E-015  0.9000767E+02  0.7816164E-02  0.1186339E+00
        -11   -1    0    0    0    0  0.00000000000E+00  0.00000000000E+00  0.45593999997E+02  0.45594000000E+02  0.51100000000E-03 0.  1.
         11   -1    0    0    0    0 -0.00000000000E+00 -0.00000000000E+00 -0.45593999997E+02  0.45594000000E+02  0.51100000000E-03 0. -1.
    9900012    2    1    2    0    0 -0.86844602478E+00  0.55691417785E+00  0.57343125127E+00  0.90007671529E+02  0.89999931993E+02 0.  0.
        -12    1    1    2    0    0  0.86844602478E+00 -0.55691417785E+00 -0.57343125127E+00  0.11803284710E+01  0.00000000000E+00 0.  1.
         11    1    3    3    0    0 -0.10754980207E+01  0.29002097350E+01  0.10440052589E+02  0.10888645959E+02  0.51100000000E-03 0. -1.
        -11    1    3    3    0    0 -0.21467895656E+02  0.68848542748E+01  0.27120154322E+02  0.35267187767E+02  0.51100000000E-03 0.  1.
         12    1    3    3    0    0  0.21674947652E+02 -0.92281498319E+01 -0.36986775660E+02  0.43851837803E+02  0.00000000000E+00 0. -1.
</event>
<event>
 7    1  0.1654239E-015  0.9000774E+02  0.7816164E-02  0.1186339E+00
        -11   -1    0    0    0    0  0.00000000000E+00  0.00000000000E+00  0.45593999997E+02  0.45594000000E+02  0.51100000000E-03 0.  1.
         11   -1    0    0    0    0 -0.00000000000E+00 -0.00000000000E+00 -0.45593999997E+02  0.45594000000E+02  0.51100000000E-03 0. -1.
    9900012    2    1    2    0    0  0.31084043683E+00  0.11270101639E+01 -0.16195787496E+00  0.90007744079E+02  0.90000005500E+02 0.  0.
        -12    1    1    2    0    0 -0.31084043683E+00 -0.11270101639E+01  0.16195787496E+00  0.11802559214E+01  0.00000000000E+00 0.  1.
         11    1    3    3    0    0  0.18123095322E+01 -0.76339045819E+01  0.71840912560E+01  0.10638239161E+02  0.51100000000E-03 0. -1.
        -11    1    3    3    0    0  0.28051189983E+02  0.30938557702E+02 -0.34530044999E+00  0.41763415148E+02  0.51100000000E-03 0.  1.
         12    1    3    3    0    0 -0.29552659078E+02 -0.22177642957E+02 -0.70007486809E+01  0.37606089770E+02  0.00000000000E+00 0. -1.
</event>
<event>
 7    1  0.1654239E-015  0.9000756E+02  0.7816164E-02  0.1186339E+00
        -11   -1    0    0    0    0  0.00000000000E+00  0.00000000000E+00  0.45593999997E+02  0.45594000000E+02  0.51100000000E-03 0. -1.
         11   -1    0    0    0    0 -0.00000000000E+00 -0.00000000000E+00 -0.45593999997E+02  0.45594000000E+02  0.51100000000E-03 0.  1.
    9900012    2    1    2    0    0  0.59395119521E+00  0.10071998347E+01  0.16192461739E+00  0.90007555545E+02  0.89999814478E+02 0.  0.
        -12    1    1    2    0    0 -0.59395119521E+00 -0.10071998347E+01 -0.16192461739E+00  0.11804444549E+01  0.00000000000E+00 0.  1.
         11    1    3    3    0    0 -0.63983439753E+01 -0.34296844082E+02  0.75054965447E+01  0.35686759425E+02  0.51100000000E-03 0. -1.
        -11    1    3    3    0    0  0.11705854829E+01 -0.38444404432E+01  0.10248489885E+02  0.11008248629E+02  0.51100000000E-03 0.  1.
        -12    1    3    3    0    0  0.58217096876E+01  0.39148484360E+02 -0.17592061812E+02  0.43312547491E+02  0.00000000000E+00 0.  1.
</event>
<event>
 7    1  0.1654239E-015  0.9000769E+02  0.7816164E-02  0.1186339E+00
        -11   -1    0    0    0    0  0.00000000000E+00  0.00000000000E+00  0.45593999997E+02  0.45594000000E+02  0.51100000000E-03 0. -1.
         11   -1    0    0    0    0 -0.00000000000E+00 -0.00000000000E+00 -0.45593999997E+02  0.45594000000E+02  0.51100000000E-03 0.  1.
    9900012    2    1    2    0    0  0.12220290242E-01  0.11078655665E+01  0.40696920671E+00  0.90007686743E+02  0.89999947408E+02 0.  0.
        -12    1    1    2    0    0 -0.12220290242E-01 -0.11078655665E+01 -0.40696920671E+00  0.11803132567E+01  0.00000000000E+00 0.  1.
         11    1    3    3    0    0 -0.30681872409E+02  0.97855845162E+01  0.16518240788E+02  0.36193745838E+02  0.51100000000E-03 0. -1.
        -11    1    3    3    0    0 -0.93045294714E+01 -0.46036816768E+01  0.30605147433E+00  0.10385654598E+02  0.51100000000E-03 0.  1.
        -12    1    3    3    0    0  0.39998622170E+02 -0.40740372729E+01 -0.16417323056E+02  0.43428286307E+02  0.00000000000E+00 0.  1.
</event>
<event>
 7    1  0.1654239E-015  0.9000729E+02  0.7816164E-02  0.1186340E+00
        -11   -1    0    0    0    0  0.00000000000E+00  0.00000000000E+00  0.45593999997E+02  0.45594000000E+02  0.51100000000E-03 0.  1.
         11   -1    0    0    0    0 -0.00000000000E+00 -0.00000000000E+00 -0.45593999997E+02  0.45594000000E+02  0.51100000000E-03 0. -1.
    9900012    2    1    2    0    0  0.70058585226E+00 -0.58277623601E+00 -0.75074555029E+00  0.90007293619E+02  0.89999549093E+02 0.  0.
        -12    1    1    2    0    0 -0.70058585226E+00  0.58277623601E+00  0.75074555029E+00  0.11807063813E+01  0.00000000000E+00 0.  1.
         11    1    3    3    0    0  0.60915988452E+01  0.29461266138E+02 -0.86349625693E+01  0.31299143084E+02  0.51100000000E-03 0. -1.
        -11    1    3    3    0    0 -0.58138190159E+01  0.10881044666E+02 -0.81131098666E+01  0.14765506308E+02  0.51100000000E-03 0.  1.
        -12    1    3    3    0    0  0.42280602293E+00 -0.40925087040E+02  0.15997326886E+02  0.43942644227E+02  0.00000000000E+00 0.  1.
</event>
<event>
 7    1  0.1654239E-015  0.9000774E+02  0.7816164E-02  0.1186339E+00
        -11   -1    0    0    0    0  0.00000000000E+00  0.00000000000E+00  0.45593999997E+02  0.45594000000E+02  0.51100000000E-03 0. -1.
         11   -1    0    0    0    0 -0.00000000000E+00 -0.00000000000E+00 -0.45593999997E+02  0.45594000000E+02  0.51100000000E-03 0.  1.
    9900012    2    1    2    0    0  0.29086882540E-01  0.22121295525E+00  0.11589797810E+01  0.90007739287E+02  0.90000000645E+02 0.  0.
        -12    1    1    2    0    0 -0.29086882540E-01 -0.22121295525E+00 -0.11589797810E+01  0.11802607132E+01  0.00000000000E+00 0.  1.
         11    1    3    3    0    0 -0.73957422761E+01 -0.21563809954E+02 -0.31224320274E+01  0.23009660701E+02  0.51100000000E-03 0. -1.
        -11    1    3    3    0    0  0.72582749256E+01 -0.21106280823E+02  0.85358002147E+01  0.23895973105E+02  0.51100000000E-03 0.  1.
        -12    1    3    3    0    0  0.16655423298E+00  0.42891303732E+02 -0.42543884063E+01  0.43102105481E+02  0.00000000000E+00 0.  1.
</event>
<event>
 7    1  0.1654239E-015  0.9000777E+02  0.7816164E-02  0.1186339E+00
        -11   -1    0    0    0    0  0.00000000000E+00  0.00000000000E+00  0.45593999997E+02  0.45594000000E+02  0.51100000000E-03 0. -1.
         11   -1    0    0    0    0 -0.00000000000E+00 -0.00000000000E+00 -0.45593999997E+02  0.45594000000E+02  0.51100000000E-03 0.  1.
    9900012    2    1    2    0    0  0.11219782030E+01 -0.23050876738E+00  0.28456418934E+00  0.90007768600E+02  0.90000030345E+02 0.  0.
        -12    1    1    2    0    0 -0.11219782030E+01  0.23050876738E+00 -0.28456418934E+00  0.11802314001E+01  0.00000000000E+00 0.  1.
         11    1    3    3    0    0 -0.25826562572E+02 -0.12643462799E+02 -0.33882265310E+02  0.44439581328E+02  0.51100000000E-03 0.  1.
        -11    1    3    3    0    0  0.84638095768E+01  0.35009008305E+01  0.70313698335E+01  0.11546971082E+02  0.51100000000E-03 0. -1.
        -12    1    3    3    0    0  0.18484731199E+02  0.89120532015E+01  0.27135459665E+02  0.34021216189E+02  0.00000000000E+00 0.  1.
</event>
<event>
 7    1  0.1654239E-015  0.9000768E+02  0.7816164E-02  0.1186339E+00
        -11   -1    0    0    0    0  0.00000000000E+00  0.00000000000E+00  0.45593999997E+02  0.45594000000E+02  0.51100000000E-03 0.  1.
         11   -1    0    0    0    0 -0.00000000000E+00 -0.00000000000E+00 -0.45593999997E+02  0.45594000000E+02  0.51100000000E-03 0. -1.
    9900012    2    1    2    0    0  0.55710439196E+00  0.97043588464E+00 -0.37557268880E+00  0.90007675488E+02  0.89999936004E+02 0.  0.
        -12    1    1    2    0    0 -0.55710439196E+00 -0.97043588464E+00  0.37557268880E+00  0.11803245123E+01  0.00000000000E+00 0.  1.
         11    1    3    3    0    0 -0.24850265574E+02 -0.35107098907E+01 -0.23086551258E+01  0.25202989343E+02  0.51100000000E-03 0. -1.
        -11    1    3    3    0    0  0.17393393468E+02  0.94373884091E+01  0.29584054427E+02  0.35592284458E+02  0.51100000000E-03 0.  1.
         12    1    3    3    0    0  0.80139764980E+01 -0.49562426337E+01 -0.27650971990E+02  0.29212401687E+02  0.00000000000E+00 0. -1.
</event>
<event>
 7    1  0.1654239E-015  0.9000778E+02  0.7816164E-02  0.1186339E+00
        -11   -1    0    0    0    0  0.00000000000E+00  0.00000000000E+00  0.45593999997E+02  0.45594000000E+02  0.51100000000E-03 0. -1.
         11   -1    0    0    0    0 -0.00000000000E+00 -0.00000000000E+00 -0.45593999997E+02  0.45594000000E+02  0.51100000000E-03 0.  1.
    9900012    2    1    2    0    0 -0.11236180355E+01  0.26021942888E+00  0.25039168148E+00  0.90007776447E+02  0.90000038296E+02 0.  0.
        -12    1    1    2    0    0  0.11236180355E+01 -0.26021942888E+00 -0.25039168148E+00  0.11802235530E+01  0.00000000000E+00 0.  1.
         11    1    3    3    0    0 -0.10245465653E+01  0.57084872328E+01 -0.80694729025E+01  0.99374501426E+01  0.51100000000E-03 0. -1.
        -11    1    3    3    0    0 -0.34445661896E+02 -0.14633697209E+01 -0.15786989851E+02  0.37919310690E+02  0.51100000000E-03 0.  1.
         12    1    3    3    0    0  0.34346590425E+02 -0.39848980830E+01  0.24106854435E+02  0.42151015615E+02  0.00000000000E+00 0. -1.
</event>
<event>
 7    1  0.1654239E-015  0.9000773E+02  0.7816164E-02  0.1186339E+00
        -11   -1    0    0    0    0  0.00000000000E+00  0.00000000000E+00  0.45593999997E+02  0.45594000000E+02  0.51100000000E-03 0.  1.
         11   -1    0    0    0    0 -0.00000000000E+00 -0.00000000000E+00 -0.45593999997E+02  0.45594000000E+02  0.51100000000E-03 0. -1.
    9900012    2    1    2    0    0 -0.51362387001E+00  0.16405986141E+00 -0.10499101186E+01  0.90007730380E+02  0.89999991621E+02 0.  0.
        -12    1    1    2    0    0  0.51362387001E+00 -0.16405986141E+00  0.10499101186E+01  0.11802696197E+01  0.00000000000E+00 0.  1.
         11    1    3    3    0    0 -0.78309500594E+00 -0.75838642690E+01 -0.45564552406E+01  0.88819772382E+01  0.51100000000E-03 0. -1.
        -11    1    3    3    0    0  0.12588692700E+02 -0.18632170723E+02 -0.29513139708E+02  0.37103347362E+02  0.51100000000E-03 0.  1.
         12    1    3    3    0    0 -0.12319221564E+02  0.26380094854E+02  0.33019684830E+02  0.44022405780E+02  0.00000000000E+00 0. -1.
</event>
<event>
 7    1  0.1654239E-015  0.9000774E+02  0.7816164E-02  0.1186339E+00
        -11   -1    0    0    0    0  0.00000000000E+00  0.00000000000E+00  0.45593999997E+02  0.45594000000E+02  0.51100000000E-03 0.  1.
         11   -1    0    0    0    0 -0.00000000000E+00 -0.00000000000E+00 -0.45593999997E+02  0.45594000000E+02  0.51100000000E-03 0. -1.
    9900012    2    1    2    0    0  0.63242756945E+00 -0.88282834634E+00 -0.46223444578E+00  0.90007741044E+02  0.90000002426E+02 0.  0.
        -12    1    1    2    0    0 -0.63242756945E+00  0.88282834634E+00  0.46223444578E+00  0.11802589557E+01  0.00000000000E+00 0.  1.
         11    1    3    3    0    0 -0.69296520727E+01  0.37820439229E+01 -0.64249681833E+01  0.10178612405E+02  0.51100000000E-03 0. -1.
        -11    1    3    3    0    0  0.16666065203E+02 -0.35624477761E+02  0.20595247829E+02  0.44396231580E+02  0.51100000000E-03 0.  1.
         12    1    3    3    0    0 -0.91039855613E+01  0.30959605492E+02 -0.14632514092E+02  0.35432897059E+02  0.00000000000E+00 0. -1.
</event>
<event>
 7    1  0.1654239E-015  0.9000771E+02  0.7816164E-02  0.1186339E+00
        -11   -1    0    0    0    0  0.00000000000E+00  0.00000000000E+00  0.45593999997E+02  0.45594000000E+02  0.51100000000E-03 0.  1.
         11   -1    0    0    0    0 -0.00000000000E+00 -0.00000000000E+00 -0.45593999997E+02  0.45594000000E+02  0.51100000000E-03 0. -1.
    9900012    2    1    2    0    0 -0.81044879599E+00  0.37005170604E+00  0.77414953261E+00  0.90007714859E+02  0.89999975895E+02 0.  0.
        -12    1    1    2    0    0  0.81044879599E+00 -0.37005170604E+00 -0.77414953261E+00  0.11802851414E+01  0.00000000000E+00 0.  1.
         11    1    3    3    0    0  0.14251870786E+02  0.10509919940E+02 -0.33365079205E+02  0.37773042619E+02  0.51100000000E-03 0. -1.
        -11    1    3    3    0    0 -0.68053908314E+01 -0.19637037947E+02  0.63541916838E+01  0.21732518398E+02  0.51100000000E-03 0.  1.
        -12    1    3    3    0    0 -0.82569287504E+01  0.94971697124E+01  0.27785037054E+02  0.30502153842E+02  0.00000000000E+00 0.  1.
</event>
<event>
 7    1  0.1741054E-015  0.9000781E+02  0.7816164E-02  0.1186339E+00
        -11   -1    0    0    0    0  0.00000000000E+00  0.00000000000E+00  0.45593999997E+02  0.45594000000E+02  0.51100000000E-03 0. -1.
         11   -1    0    0    0    0 -0.00000000000E+00 -0.00000000000E+00 -0.45593999997E+02  0.45594000000E+02  0.51100000000E-03 0.  1.
    9900012    2    1    2    0    0  0.47330432353E+00  0.94861660501E+00  0.51860118440E+00  0.90007814576E+02  0.90000076929E+02 0.  0.
        -12    1    1    2    0    0 -0.47330432353E+00 -0.94861660501E+00 -0.51860118440E+00  0.11801854238E+01  0.00000000000E+00 0.  1.
         11    1    3    3    0    0  0.48318629017E+01  0.84428540666E+01 -0.20574646281E+01  0.99429293897E+01  0.51100000000E-03 0. -1.
        -11    1    3    3    0    0 -0.43261729804E+01  0.35181335578E+02 -0.74651702395E+01  0.36223899744E+02  0.51100000000E-03 0.  1.
         12    1    3    3    0    0 -0.32385597752E-01 -0.42675573040E+02  0.10041236052E+02  0.43840985442E+02  0.00000000000E+00 0. -1.
</event>
<event>
 7    1  0.1757540E-015  0.9000794E+02  0.7816164E-02  0.1186339E+00
        -11   -1    0    0    0    0  0.00000000000E+00  0.00000000000E+00  0.45593999997E+02  0.45594000000E+02  0.51100000000E-03 0. -1.
         11   -1    0    0    0    0 -0.00000000000E+00 -0.00000000000E+00 -0.45593999997E+02  0.45594000000E+02  0.51100000000E-03 0.  1.
    9900012    2    1    2    0    0 -0.24325884555E+00 -0.11516183735E+01 -0.84465914875E-01  0.90007943122E+02  0.90000207171E+02 0.  0.
        -12    1    1    2    0    0  0.24325884555E+00  0.11516183735E+01  0.84465914875E-01  0.11800568779E+01  0.00000000000E+00 0.  1.
         11    1    3    3    0    0  0.22532855052E+00 -0.38082080318E+01  0.88948867031E+01  0.96784415631E+01  0.51100000000E-03 0. -1.
        -11    1    3    3    0    0  0.42040435050E+01  0.38791174464E+02  0.84764492343E+01  0.39928428344E+02  0.51100000000E-03 0.  1.
         12    1    3    3    0    0 -0.46726309011E+01 -0.36134584806E+02 -0.17455801852E+02  0.40401073215E+02  0.00000000000E+00 0. -1.
</event>
<event>
 7    1  0.1654239E-015  0.9000785E+02  0.7816164E-02  0.1186339E+00
        -11   -1    0    0    0    0  0.00000000000E+00  0.00000000000E+00  0.45593999997E+02  0.45594000000E+02  0.51100000000E-03 0.  1.
         11   -1    0    0    0    0 -0.00000000000E+00 -0.00000000000E+00 -0.45593999997E+02  0.45594000000E+02  0.51100000000E-03 0. -1.
    9900012    2    1    2    0    0  0.39929173875E+00  0.84652913943E+00 -0.71882225404E+00  0.90007851319E+02  0.90000114156E+02 0.  0.
        -12    1    1    2    0    0 -0.39929173875E+00 -0.84652913943E+00  0.71882225404E+00  0.11801486811E+01  0.00000000000E+00 0.  1.
         11    1    3    3    0    0 -0.17378039001E+02 -0.30462427621E+02  0.72456719144E+01  0.35811387823E+02  0.51100000000E-03 0. -1.
        -11    1    3    3    0    0 -0.76977715144E+01 -0.50514544784E+01 -0.16246258149E+01  0.93494538843E+01  0.51100000000E-03 0.  1.
        -12    1    3    3    0    0  0.25475102254E+02  0.36360411239E+02 -0.63398683536E+01  0.44847009611E+02  0.00000000000E+00 0.  1.
</event>
<event>
 7    1  0.1654239E-015  0.9000778E+02  0.7816164E-02  0.1186339E+00
        -11   -1    0    0    0    0  0.00000000000E+00  0.00000000000E+00  0.45593999997E+02  0.45594000000E+02  0.51100000000E-03 0.  1.
         11   -1    0    0    0    0 -0.00000000000E+00 -0.00000000000E+00 -0.45593999997E+02  0.45594000000E+02  0.51100000000E-03 0. -1.
    9900012    2    1    2    0    0 -0.67311537326E+00 -0.11606407485E+00 -0.96247661980E+00  0.90007781199E+02  0.90000043111E+02 0.  0.
        -12    1    1    2    0    0  0.67311537326E+00  0.11606407485E+00  0.96247661980E+00  0.11802188013E+01  0.00000000000E+00 0.  1.
         11    1    3    3    0    0 -0.18556607080E+02  0.24169869387E+02 -0.20680746191E+02  0.36826940082E+02  0.51100000000E-03 0. -1.
        -11    1    3    3    0    0 -0.15408472912E+00  0.24616423417E+00 -0.10369575145E+02  0.10373641014E+02  0.51100000000E-03 0.  1.
        -12    1    3    3    0    0  0.18037576436E+02 -0.24532097696E+02  0.30087844716E+02  0.42807200103E+02  0.00000000000E+00 0.  1.
</event>
<event>
 7    1  0.1654239E-015  0.9000770E+02  0.7816164E-02  0.1186339E+00
        -11   -1    0    0    0    0  0.00000000000E+00  0.00000000000E+00  0.45593999997E+02  0.45594000000E+02  0.51100000000E-03 0.  1.
         11   -1    0    0    0    0 -0.00000000000E+00 -0.00000000000E+00 -0.45593999997E+02  0.45594000000E+02  0.51100000000E-03 0. -1.
    9900012    2    1    2    0    0 -0.23189378307E+00 -0.71350915754E+00 -0.91116869593E+00  0.90007704089E+02  0.89999964983E+02 0.  0.
        -12    1    1    2    0    0  0.23189378307E+00  0.71350915754E+00  0.91116869593E+00  0.11802959108E+01  0.00000000000E+00 0.  1.
         11    1    3    3    0    0 -0.29651870531E+02 -0.21589299123E+02  0.21371930374E+02  0.42451038512E+02  0.51100000000E-03 0. -1.
        -11    1    3    3    0    0  0.46098539888E+01 -0.40852736713E+01 -0.65968385149E+01  0.90254359130E+01  0.51100000000E-03 0.  1.
        -12    1    3    3    0    0  0.24810122759E+02  0.24961063637E+02 -0.15686260555E+02  0.38531229664E+02  0.00000000000E+00 0.  1.
</event>
<event>
 7    1  0.1654239E-015  0.9000799E+02  0.7816164E-02  0.1186339E+00
        -11   -1    0    0    0    0  0.00000000000E+00  0.00000000000E+00  0.45593999997E+02  0.45594000000E+02  0.51100000000E-03 0.  1.
         11   -1    0    0    0    0 -0.00000000000E+00 -0.00000000000E+00 -0.45593999997E+02  0.45594000000E+02  0.51100000000E-03 0. -1.
    9900012    2    1    2    0    0 -0.10914650141E+01 -0.11750491497E+00 -0.43281834450E+00  0.90007985169E+02  0.90000249773E+02 0.  0.
        -12    1    1    2    0    0  0.10914650141E+01  0.11750491497E+00  0.43281834450E+00  0.11800148310E+01  0.00000000000E+00 0.  1.
         11    1    3    3    0    0  0.22519626188E+02  0.42859056424E+01  0.60178889594E+01  0.23700580976E+02  0.51100000000E-03 0. -1.
        -11    1    3    3    0    0 -0.61392105311E+01  0.14983701336E+02  0.22247732272E+02  0.27516591417E+02  0.51100000000E-03 0.  1.
         12    1    3    3    0    0 -0.17471880671E+02 -0.19387111893E+02 -0.28698439576E+02  0.38790812776E+02  0.00000000000E+00 0. -1.
</event>
<event>
 7    1  0.1654239E-015  0.9000780E+02  0.7816164E-02  0.1186339E+00
        -11   -1    0    0    0    0  0.00000000000E+00  0.00000000000E+00  0.45593999997E+02  0.45594000000E+02  0.51100000000E-03 0. -1.
         11   -1    0    0    0    0 -0.00000000000E+00 -0.00000000000E+00 -0.45593999997E+02  0.45594000000E+02  0.51100000000E-03 0.  1.
    9900012    2    1    2    0    0  0.48048674485E-01  0.10715490441E+01 -0.49228707795E+00  0.90007799764E+02  0.90000061921E+02 0.  0.
        -12    1    1    2    0    0 -0.48048674485E-01 -0.10715490441E+01  0.49228707795E+00  0.11802002357E+01  0.00000000000E+00 0.  1.
         11    1    3    3    0    0  0.17809700311E+01 -0.16921598739E+01 -0.92599831338E+01  0.95803208292E+01  0.51100000000E-03 0. -1.
        -11    1    3    3    0    0 -0.23431121103E+02  0.13697308732E+02 -0.26281348482E+02  0.37780192971E+02  0.51100000000E-03 0.  1.
         12    1    3    3    0    0  0.21698199747E+02 -0.10933599814E+02  0.35049044537E+02  0.42647285964E+02  0.00000000000E+00 0. -1.
</event>
<event>
 7    1  0.1654239E-015  0.9000777E+02  0.7816164E-02  0.1186339E+00
        -11   -1    0    0    0    0  0.00000000000E+00  0.00000000000E+00  0.45593999997E+02  0.45594000000E+02  0.51100000000E-03 0. -1.
         11   -1    0    0    0    0 -0.00000000000E+00 -0.00000000000E+00 -0.45593999997E+02  0.45594000000E+02  0.51100000000E-03 0.  1.
    9900012    2    1    2    0    0 -0.37687850696E+00 -0.39970888901E+00  0.10445736294E+01  0.90007771771E+02  0.90000033559E+02 0.  0.
        -12    1    1    2    0    0  0.37687850696E+00  0.39970888901E+00 -0.10445736294E+01  0.11802282288E+01  0.00000000000E+00 0.  1.
         11    1    3    3    0    0 -0.27960172573E+02  0.89457911611E+01  0.15330490098E+02  0.33118308482E+02  0.51100000000E-03 0. -1.
        -11    1    3    3    0    0 -0.51342422589E+01  0.11712187821E+02 -0.12587783556E+02  0.17944026367E+02  0.51100000000E-03 0.  1.
         12    1    3    3    0    0  0.32717536325E+02 -0.21057687871E+02 -0.16981329122E+01  0.38945436922E+02  0.00000000000E+00 0. -1.
</event>
<event>
 7    1  0.1654239E-015  0.9000717E+02  0.7816164E-02  0.1186340E+00
        -11   -1    0    0    0    0  0.00000000000E+00  0.00000000000E+00  0.45593999997E+02  0.45594000000E+02  0.51100000000E-03 0. -1.
         11   -1    0    0    0    0 -0.00000000000E+00 -0.00000000000E+00 -0.45593999997E+02  0.45594000000E+02  0.51100000000E-03 0.  1.
    9900012    2    1    2    0    0  0.11328250912E+01 -0.14587018480E+00  0.29965153141E+00  0.90007169005E+02  0.89999422834E+02 0.  0.
        -12    1    1    2    0    0 -0.11328250912E+01  0.14587018480E+00 -0.29965153141E+00  0.11808309949E+01  0.00000000000E+00 0.  1.
         11    1    3    3    0    0 -0.10589341100E+02 -0.35477043609E+02  0.66845156981E+01  0.37622300814E+02  0.51100000000E-03 0. -1.
        -11    1    3    3    0    0 -0.10206736674E+02  0.70866836198E+00  0.23122813745E+01  0.10489343631E+02  0.51100000000E-03 0.  1.
        -12    1    3    3    0    0  0.21928902866E+02  0.34622505062E+02 -0.86971455412E+01  0.41895524561E+02  0.00000000000E+00 0.  1.
</event>
<event>
 7    1  0.1654239E-015  0.9000766E+02  0.7816164E-02  0.1186339E+00
        -11   -1    0    0    0    0  0.00000000000E+00  0.00000000000E+00  0.45593999997E+02  0.45594000000E+02  0.51100000000E-03 0.  1.
         11   -1    0    0    0    0 -0.00000000000E+00 -0.00000000000E+00 -0.45593999997E+02  0.45594000000E+02  0.51100000000E-03 0. -1.
    9900012    2    1    2    0    0 -0.27813446333E+00 -0.24330524138E-01 -0.11468449996E+01  0.90007659283E+02  0.89999919586E+02 0.  0.
        -12    1    1    2    0    0  0.27813446333E+00  0.24330524138E-01  0.11468449996E+01  0.11803407166E+01  0.00000000000E+00 0.  1.
         11    1    3    3    0    0  0.28329630446E+02 -0.18920776190E+02 -0.23062499694E+01  0.34145021921E+02  0.51100000000E-03 0. -1.
        -11    1    3    3    0    0 -0.15917934773E+02 -0.10246213165E+02 -0.10925610703E+02  0.21857138448E+02  0.51100000000E-03 0.  1.
        -12    1    3    3    0    0 -0.12689830136E+02  0.29142658830E+02  0.12085015673E+02  0.34005498914E+02  0.00000000000E+00 0.  1.
</event>
<event>
 7    1  0.1654239E-015  0.9000772E+02  0.7816164E-02  0.1186339E+00
        -11   -1    0    0    0    0  0.00000000000E+00  0.00000000000E+00  0.45593999997E+02  0.45594000000E+02  0.51100000000E-03 0.  1.
         11   -1    0    0    0    0 -0.00000000000E+00 -0.00000000000E+00 -0.45593999997E+02  0.45594000000E+02  0.51100000000E-03 0. -1.
    9900012    2    1    2    0    0  0.74315371254E+00  0.90549604818E+00  0.14441064058E+00  0.90007722504E+02  0.89999983641E+02 0.  0.
        -12    1    1    2    0    0 -0.74315371254E+00 -0.90549604818E+00 -0.14441064058E+00  0.11802774957E+01  0.00000000000E+00 0.  1.
         11    1    3    3    0    0  0.60458004347E+01 -0.22861246884E+02 -0.16623493651E+02  0.28905515968E+02  0.51100000000E-03 0. -1.
        -11    1    3    3    0    0  0.18241977817E+02  0.13357996628E+02  0.25348592047E+02  0.33966997919E+02  0.51100000000E-03 0.  1.
         12    1    3    3    0    0 -0.23544624539E+02  0.10408746304E+02 -0.85806877556E+01  0.27135208617E+02  0.00000000000E+00 0. -1.
</event>
<event>
 7    1  0.1654239E-015  0.9000775E+02  0.7816164E-02  0.1186339E+00
        -11   -1    0    0    0    0  0.00000000000E+00  0.00000000000E+00  0.45593999997E+02  0.45594000000E+02  0.51100000000E-03 0.  1.
         11   -1    0    0    0    0 -0.00000000000E+00 -0.00000000000E+00 -0.45593999997E+02  0.45594000000E+02  0.51100000000E-03 0. -1.
    9900012    2    1    2    0    0  0.11212071210E+01 -0.19385450094E+00 -0.31354747820E+00  0.90007747062E+02  0.90000008524E+02 0.  0.
        -12    1    1    2    0    0 -0.11212071210E+01  0.19385450094E+00  0.31354747820E+00  0.11802529376E+01  0.00000000000E+00 0.  1.
         11    1    3    3    0    0  0.17593340264E+02  0.27501044248E+02 -0.14900370511E+02  0.35886684133E+02  0.51100000000E-03 0. -1.
        -11    1    3    3    0    0  0.62717036003E+01  0.69500529240E+01 -0.18404420112E+01  0.95406880650E+01  0.51100000000E-03 0.  1.
        -12    1    3    3    0    0 -0.22743836744E+02 -0.34644951673E+02  0.16427265044E+02  0.44580374865E+02  0.00000000000E+00 0.  1.
</event>
<event>
 7    1  0.1654239E-015  0.9000833E+02  0.7816164E-02  0.1186338E+00
        -11   -1    0    0    0    0  0.00000000000E+00  0.00000000000E+00  0.45593999997E+02  0.45594000000E+02  0.51100000000E-03 0.  1.
         11   -1    0    0    0    0 -0.00000000000E+00 -0.00000000000E+00 -0.45593999997E+02  0.45594000000E+02  0.51100000000E-03 0. -1.
    9900012    2    1    2    0    0 -0.10308354391E+00  0.10683247798E+01 -0.48955736310E+00  0.90008334597E+02  0.90000603811E+02 0.  0.
        -12    1    1    2    0    0  0.10308354391E+00 -0.10683247798E+01  0.48955736310E+00  0.11796654034E+01  0.00000000000E+00 0.  1.
         11    1    3    3    0    0 -0.29408675411E+02 -0.23058603407E+01 -0.20165473077E+02  0.35732806859E+02  0.51100000000E-03 0. -1.
        -11    1    3    3    0    0 -0.65805778550E+01  0.61468410188E+01 -0.53156647901E+01  0.10456765840E+02  0.51100000000E-03 0.  1.
        -12    1    3    3    0    0  0.35886169722E+02 -0.27726558983E+01  0.24991580504E+02  0.43818761897E+02  0.00000000000E+00 0.  1.
</event>
<event>
 7    1  0.1654239E-015  0.9000764E+02  0.7816164E-02  0.1186339E+00
        -11   -1    0    0    0    0  0.00000000000E+00  0.00000000000E+00  0.45593999997E+02  0.45594000000E+02  0.51100000000E-03 0.  1.
         11   -1    0    0    0    0 -0.00000000000E+00 -0.00000000000E+00 -0.45593999997E+02  0.45594000000E+02  0.51100000000E-03 0. -1.
    9900012    2    1    2    0    0 -0.27089279561E+00 -0.76067292203E+00 -0.86096158119E+00  0.90007635207E+02  0.89999895191E+02 0.  0.
        -12    1    1    2    0    0  0.27089279561E+00  0.76067292203E+00  0.86096158119E+00  0.11803647933E+01  0.00000000000E+00 0.  1.
         11    1    3    3    0    0 -0.29766413396E+02 -0.66428476167E+01 -0.15243494111E+02  0.34095907436E+02  0.51100000000E-03 0. -1.
        -11    1    3    3    0    0 -0.43559173476E+01 -0.11315283429E+02 -0.51967021045E+01  0.13191488469E+02  0.51100000000E-03 0.  1.
        -12    1    3    3    0    0  0.33851437948E+02  0.17197458123E+02  0.19579234635E+02  0.42720239301E+02  0.00000000000E+00 0.  1.
</event>
<event>
 7    1  0.1654239E-015  0.9000772E+02  0.7816164E-02  0.1186339E+00
        -11   -1    0    0    0    0  0.00000000000E+00  0.00000000000E+00  0.45593999997E+02  0.45594000000E+02  0.51100000000E-03 0. -1.
         11   -1    0    0    0    0 -0.00000000000E+00 -0.00000000000E+00 -0.45593999997E+02  0.45594000000E+02  0.51100000000E-03 0.  1.
    9900012    2    1    2    0    0 -0.41383218281E+00  0.10118357641E+01  0.44496235562E+00  0.90007720293E+02  0.89999981401E+02 0.  0.
        -12    1    1    2    0    0  0.41383218281E+00 -0.10118357641E+01 -0.44496235562E+00  0.11802797071E+01  0.00000000000E+00 0.  1.
         11    1    3    3    0    0 -0.66426669670E+01  0.16380028808E+02  0.31405338485E+02  0.36037836420E+02  0.51100000000E-03 0. -1.
        -11    1    3    3    0    0 -0.79247245372E+01 -0.52185268266E+01  0.72737020712E+01  0.11955794550E+02  0.51100000000E-03 0.  1.
        -12    1    3    3    0    0  0.14153559321E+02 -0.10149666218E+02 -0.38234078201E+02  0.42014089323E+02  0.00000000000E+00 0.  1.
</event>
<event>
 7    1  0.1654239E-015  0.9000712E+02  0.7816164E-02  0.1186340E+00
        -11   -1    0    0    0    0  0.00000000000E+00  0.00000000000E+00  0.45593999997E+02  0.45594000000E+02  0.51100000000E-03 0. -1.
         11   -1    0    0    0    0 -0.00000000000E+00 -0.00000000000E+00 -0.45593999997E+02  0.45594000000E+02  0.51100000000E-03 0.  1.
    9900012    2    1    2    0    0 -0.92346916627E+00 -0.31631105061E+00 -0.66455832060E+00  0.90007116541E+02  0.89999369677E+02 0.  0.
        -12    1    1    2    0    0  0.92346916627E+00  0.31631105061E+00  0.66455832060E+00  0.11808834588E+01  0.00000000000E+00 0.  1.
         11    1    3    3    0    0 -0.10891355250E+02 -0.19660551211E+01  0.10020567584E+01  0.11112655395E+02  0.51100000000E-03 0. -1.
        -11    1    3    3    0    0  0.30442853269E+02  0.29774012245E+02 -0.85495543948E+01  0.43432177023E+02  0.51100000000E-03 0.  1.
         12    1    3    3    0    0 -0.20474967186E+02 -0.28124268175E+02  0.68829393158E+01  0.35462284123E+02  0.00000000000E+00 0. -1.
</event>
<event>
 7    1  0.1654239E-015  0.9000794E+02  0.7816164E-02  0.1186339E+00
        -11   -1    0    0    0    0  0.00000000000E+00  0.00000000000E+00  0.45593999997E+02  0.45594000000E+02  0.51100000000E-03 0.  1.
         11   -1    0    0    0    0 -0.00000000000E+00 -0.00000000000E+00 -0.45593999997E+02  0.45594000000E+02  0.51100000000E-03 0. -1.
    9900012    2    1    2    0    0  0.89058512472E+00  0.76073421082E+00  0.14383165877E+00  0.90007938158E+02  0.90000202142E+02 0.  0.
        -12    1    1    2    0    0 -0.89058512472E+00 -0.76073421082E+00 -0.14383165877E+00  0.11800618416E+01  0.00000000000E+00 0.  1.
         11    1    3    3    0    0 -0.26576950583E+02 -0.10847778950E+02 -0.25422109715E+02  0.38344390373E+02  0.51100000000E-03 0. -1.
        -11    1    3    3    0    0 -0.63445484454E+01  0.33267694495E+01 -0.17962779140E+01  0.73856147037E+01  0.51100000000E-03 0.  1.
        -12    1    3    3    0    0  0.33812084153E+02  0.82817437110E+01  0.27362219288E+02  0.44277933082E+02  0.00000000000E+00 0.  1.
</event>
<event>
 7    1  0.1654239E-015  0.9000786E+02  0.7816164E-02  0.1186339E+00
        -11   -1    0    0    0    0  0.00000000000E+00  0.00000000000E+00  0.45593999997E+02  0.45594000000E+02  0.51100000000E-03 0. -1.
         11   -1    0    0    0    0 -0.00000000000E+00 -0.00000000000E+00 -0.45593999997E+02  0.45594000000E+02  0.51100000000E-03 0.  1.
    9900012    2    1    2    0    0  0.44143686433E+00 -0.10918940645E+01  0.75062121837E-01  0.90007858705E+02  0.90000121640E+02 0.  0.
        -12    1    1    2    0    0 -0.44143686433E+00  0.10918940645E+01 -0.75062121837E-01  0.11801412947E+01  0.00000000000E+00 0.  1.
         11    1    3    3    0    0 -0.28818993929E+02 -0.11211715799E+02  0.23903881410E+02  0.39084939925E+02  0.51100000000E-03 0. -1.
        -11    1    3    3    0    0  0.27097692883E+01 -0.94176199380E+01  0.71368882465E+00  0.98256687758E+01  0.51100000000E-03 0.  1.
        -12    1    3    3    0    0  0.26550661505E+02  0.19537441672E+02 -0.24542508113E+02  0.41097250004E+02  0.00000000000E+00 0.  1.
</event>
<event>
 7    1  0.1654239E-015  0.9000782E+02  0.7816164E-02  0.1186339E+00
        -11   -1    0    0    0    0  0.00000000000E+00  0.00000000000E+00  0.45593999997E+02  0.45594000000E+02  0.51100000000E-03 0. -1.
         11   -1    0    0    0    0 -0.00000000000E+00 -0.00000000000E+00 -0.45593999997E+02  0.45594000000E+02  0.51100000000E-03 0.  1.
    9900012    2    1    2    0    0 -0.81189275202E+00 -0.82765218597E+00  0.22055655473E+00  0.90007820702E+02  0.90000083135E+02 0.  0.
        -12    1    1    2    0    0  0.81189275202E+00  0.82765218597E+00 -0.22055655473E+00  0.11801792981E+01  0.00000000000E+00 0.  1.
         11    1    3    3    0    0 -0.44544056524E+01  0.25045869350E+02  0.24779901184E+02  0.35513107498E+02  0.51100000000E-03 0. -1.
        -11    1    3    3    0    0 -0.64457629137E+01  0.68465456110E+01  0.36940570973E+01  0.10102925539E+02  0.51100000000E-03 0.  1.
        -12    1    3    3    0    0  0.10088275814E+02 -0.32720067147E+02 -0.28253401727E+02  0.44391787665E+02  0.00000000000E+00 0.  1.
</event>
<event>
 7    1  0.1654239E-015  0.9000788E+02  0.7816164E-02  0.1186339E+00
        -11   -1    0    0    0    0  0.00000000000E+00  0.00000000000E+00  0.45593999997E+02  0.45594000000E+02  0.51100000000E-03 0. -1.
         11   -1    0    0    0    0 -0.00000000000E+00 -0.00000000000E+00 -0.45593999997E+02  0.45594000000E+02  0.51100000000E-03 0.  1.
    9900012    2    1    2    0    0 -0.36575889201E+00  0.40345433660E+00 -0.10469664951E+01  0.90007875510E+02  0.90000138667E+02 0.  0.
        -12    1    1    2    0    0  0.36575889201E+00 -0.40345433660E+00  0.10469664951E+01  0.11801244895E+01  0.00000000000E+00 0.  1.
         11    1    3    3    0    0 -0.21794411036E+01  0.30690382767E+01 -0.80851596187E+01  0.89184508626E+01  0.51100000000E-03 0. -1.
        -11    1    3    3    0    0  0.13899250832E+01  0.34479726695E+02 -0.15294664858E+02  0.37745333726E+02  0.51100000000E-03 0.  1.
         12    1    3    3    0    0  0.42375712843E+00 -0.37145310635E+02  0.22332857981E+02  0.43344090922E+02  0.00000000000E+00 0. -1.
</event>
<event>
 7    1  0.1654239E-015  0.9000797E+02  0.7816164E-02  0.1186339E+00
        -11   -1    0    0    0    0  0.00000000000E+00  0.00000000000E+00  0.45593999997E+02  0.45594000000E+02  0.51100000000E-03 0.  1.
         11   -1    0    0    0    0 -0.00000000000E+00 -0.00000000000E+00 -0.45593999997E+02  0.45594000000E+02  0.51100000000E-03 0. -1.
    9900012    2    1    2    0    0 -0.78875918836E+00  0.31416351454E+00  0.81952655117E+00  0.90007973077E+02  0.90000237521E+02 0.  0.
        -12    1    1    2    0    0  0.78875918836E+00 -0.31416351454E+00 -0.81952655117E+00  0.11800269231E+01  0.00000000000E+00 0.  1.
         11    1    3    3    0    0  0.71679425280E+01  0.42995663078E+01  0.56920085042E+01  0.10112597668E+02  0.51100000000E-03 0. -1.
        -11    1    3    3    0    0 -0.51010820725E+01 -0.19341433893E+01  0.37239444463E+02  0.37636925660E+02  0.51100000000E-03 0.  1.
         12    1    3    3    0    0 -0.28556196438E+01 -0.20512594040E+01 -0.42111926416E+02  0.42258449749E+02  0.00000000000E+00 0. -1.
</event>
<event>
 7    1  0.1654239E-015  0.9000795E+02  0.7816164E-02  0.1186339E+00
        -11   -1    0    0    0    0  0.00000000000E+00  0.00000000000E+00  0.45593999997E+02  0.45594000000E+02  0.51100000000E-03 0.  1.
         11   -1    0    0    0    0 -0.00000000000E+00 -0.00000000000E+00 -0.45593999997E+02  0.45594000000E+02  0.51100000000E-03 0. -1.
    9900012    2    1    2    0    0  0.27586776861E+00 -0.46399504761E+00 -0.10493396100E+01  0.90007954218E+02  0.90000218414E+02 0.  0.
        -12    1    1    2    0    0 -0.27586776861E+00  0.46399504761E+00  0.10493396100E+01  0.11800457818E+01  0.00000000000E+00 0.  1.
         11    1    3    3    0    0 -0.43638584176E+01  0.93429492309E+01 -0.49916215793E+01  0.11456450012E+02  0.51100000000E-03 0. -1.
        -11    1    3    3    0    0 -0.18299949851E+02  0.11471954673E+02  0.30594137709E+02  0.37449902149E+02  0.51100000000E-03 0.  1.
         12    1    3    3    0    0  0.22939676037E+02 -0.21278898951E+02 -0.26651855740E+02  0.41101602057E+02  0.00000000000E+00 0. -1.
</event>
<event>
 7    1  0.1654239E-015  0.9000778E+02  0.7816164E-02  0.1186339E+00
        -11   -1    0    0    0    0  0.00000000000E+00  0.00000000000E+00  0.45593999997E+02  0.45594000000E+02  0.51100000000E-03 0. -1.
         11   -1    0    0    0    0 -0.00000000000E+00 -0.00000000000E+00 -0.45593999997E+02  0.45594000000E+02  0.51100000000E-03 0.  1.
    9900012    2    1    2    0    0  0.85065380812E+00 -0.79660896899E+00 -0.18633697080E+00  0.90007780013E+02  0.90000041909E+02 0.  0.
        -12    1    1    2    0    0 -0.85065380812E+00  0.79660896899E+00  0.18633697080E+00  0.11802199869E+01  0.00000000000E+00 0.  1.
         11    1    3    3    0    0  0.10610104159E+02 -0.34584939274E+02 -0.10716431588E+02  0.37729752730E+02  0.51100000000E-03 0. -1.
        -11    1    3    3    0    0  0.36428167039E+00 -0.11685868271E+01 -0.10281632824E+02  0.10354239233E+02  0.51100000000E-03 0.  1.
        -12    1    3    3    0    0 -0.10123732022E+02  0.34956917132E+02  0.20811727441E+02  0.41923788050E+02  0.00000000000E+00 0.  1.
</event>
<event>
 7    1  0.1654239E-015  0.9000774E+02  0.7816164E-02  0.1186339E+00
        -11   -1    0    0    0    0  0.00000000000E+00  0.00000000000E+00  0.45593999997E+02  0.45594000000E+02  0.51100000000E-03 0. -1.
         11   -1    0    0    0    0 -0.00000000000E+00 -0.00000000000E+00 -0.45593999997E+02  0.45594000000E+02  0.51100000000E-03 0.  1.
    9900012    2    1    2    0    0  0.11385051309E+00 -0.11657145222E+01 -0.14544802388E+00  0.90007742649E+02  0.90000004052E+02 0.  0.
        -12    1    1    2    0    0 -0.11385051309E+00  0.11657145222E+01  0.14544802388E+00  0.11802573508E+01  0.00000000000E+00 0.  1.
         11    1    3    3    0    0 -0.55959115301E+01 -0.76388128762E+01  0.15444545831E+02  0.18116282295E+02  0.51100000000E-03 0. -1.
        -11    1    3    3    0    0  0.24024883714E+02 -0.24085628255E+02 -0.12044460533E+02  0.36088523878E+02  0.51100000000E-03 0.  1.
         12    1    3    3    0    0 -0.18315121671E+02  0.30558726609E+02 -0.35455333214E+01  0.35802936476E+02  0.00000000000E+00 0. -1.
</event>
<event>
 7    1  0.1654239E-015  0.9000777E+02  0.7816164E-02  0.1186339E+00
        -11   -1    0    0    0    0  0.00000000000E+00  0.00000000000E+00  0.45593999997E+02  0.45594000000E+02  0.51100000000E-03 0.  1.
         11   -1    0    0    0    0 -0.00000000000E+00 -0.00000000000E+00 -0.45593999997E+02  0.45594000000E+02  0.51100000000E-03 0. -1.
    9900012    2    1    2    0    0 -0.25049312151E+00  0.11485395200E+01 -0.10510403116E+00  0.90007772611E+02  0.90000034409E+02 0.  0.
        -12    1    1    2    0    0  0.25049312151E+00 -0.11485395200E+01  0.10510403116E+00  0.11802273892E+01  0.00000000000E+00 0.  1.
         11    1    3    3    0    0 -0.98512602625E+01 -0.20100588257E+02 -0.17968345526E+02  0.28704397193E+02  0.51100000000E-03 0. -1.
        -11    1    3    3    0    0  0.23428931969E+01 -0.70680678900E+01 -0.15348288661E+02  0.17059211509E+02  0.51100000000E-03 0.  1.
        -12    1    3    3    0    0  0.72578739441E+01  0.28317195667E+02  0.33211530156E+02  0.44244163908E+02  0.00000000000E+00 0.  1.
</event>
<event>
 7    1  0.1866725E-015  0.9000778E+02  0.7816164E-02  0.1186339E+00
        -11   -1    0    0    0    0  0.00000000000E+00  0.00000000000E+00  0.45593999997E+02  0.45594000000E+02  0.51100000000E-03 0.  1.
         11   -1    0    0    0    0 -0.00000000000E+00 -0.00000000000E+00 -0.45593999997E+02  0.45594000000E+02  0.51100000000E-03 0. -1.
    9900012    2    1    2    0    0  0.31497395159E+00  0.11166229445E+01 -0.21646739714E+00  0.90007782425E+02  0.90000044353E+02 0.  0.
        -12    1    1    2    0    0 -0.31497395159E+00 -0.11166229445E+01  0.21646739714E+00  0.11802175750E+01  0.00000000000E+00 0.  1.
         11    1    3    3    0    0  0.72740818510E+01  0.15217107252E+01  0.61305624042E+01  0.96338811472E+01  0.51100000000E-03 0. -1.
        -11    1    3    3    0    0 -0.80100152567E+01 -0.21785628595E+02  0.30157526229E+02  0.38055884515E+02  0.51100000000E-03 0.  1.
         12    1    3    3    0    0  0.10509073573E+01  0.21380540815E+02 -0.36504556030E+02  0.42318016763E+02  0.00000000000E+00 0. -1.
</event>
<event>
 7    1  0.1654239E-015  0.9000775E+02  0.7816164E-02  0.1186339E+00
        -11   -1    0    0    0    0  0.00000000000E+00  0.00000000000E+00  0.45593999997E+02  0.45594000000E+02  0.51100000000E-03 0.  1.
         11   -1    0    0    0    0 -0.00000000000E+00 -0.00000000000E+00 -0.45593999997E+02  0.45594000000E+02  0.51100000000E-03 0. -1.
    9900012    2    1    2    0    0 -0.36687450423E+00  0.46961851764E+00 -0.10187525824E+01  0.90007747790E+02  0.90000009261E+02 0.  0.
        -12    1    1    2    0    0  0.36687450423E+00 -0.46961851764E+00  0.10187525824E+01  0.11802522095E+01  0.00000000000E+00 0.  1.
         11    1    3    3    0    0  0.75047591053E+01  0.30995785967E+02 -0.16590121497E+02  0.35948467123E+02  0.51100000000E-03 0. -1.
        -11    1    3    3    0    0 -0.22929771069E+01  0.42990430989E+01 -0.95750860932E+01  0.10743453334E+02  0.51100000000E-03 0.  1.
        -12    1    3    3    0    0 -0.55786565027E+01 -0.34825210548E+02  0.25146455008E+02  0.43315827334E+02  0.00000000000E+00 0.  1.
</event>
<event>
 7    1  0.1654239E-015  0.9000775E+02  0.7816164E-02  0.1186339E+00
        -11   -1    0    0    0    0  0.00000000000E+00  0.00000000000E+00  0.45593999997E+02  0.45594000000E+02  0.51100000000E-03 0.  1.
         11   -1    0    0    0    0 -0.00000000000E+00 -0.00000000000E+00 -0.45593999997E+02  0.45594000000E+02  0.51100000000E-03 0. -1.
    9900012    2    1    2    0    0 -0.71485805491E+00  0.83128628330E-01  0.93544812455E+00  0.90007747654E+02  0.90000009123E+02 0.  0.
        -12    1    1    2    0    0  0.71485805491E+00 -0.83128628330E-01 -0.93544812455E+00  0.11802523464E+01  0.00000000000E+00 0.  1.
         11    1    3    3    0    0  0.89368177154E+01  0.33438999239E+01 -0.37118905076E+01  0.10238481771E+02  0.51100000000E-03 0. -1.
        -11    1    3    3    0    0  0.15074692717E+02  0.40087736238E+01  0.35969862276E+02  0.39206474196E+02  0.51100000000E-03 0.  1.
         12    1    3    3    0    0 -0.24726368488E+02 -0.72695449194E+01 -0.31322523644E+02  0.40562791686E+02  0.00000000000E+00 0. -1.
</event>
<event>
 7    1  0.1654239E-015  0.9000770E+02  0.7816164E-02  0.1186339E+00
        -11   -1    0    0    0    0  0.00000000000E+00  0.00000000000E+00  0.45593999997E+02  0.45594000000E+02  0.51100000000E-03 0.  1.
         11   -1    0    0    0    0 -0.00000000000E+00 -0.00000000000E+00 -0.45593999997E+02  0.45594000000E+02  0.51100000000E-03 0. -1.
    9900012    2    1    2    0    0 -0.10412296580E+01 -0.54270726129E+00 -0.12004498936E+00  0.90007702931E+02  0.89999963809E+02 0.  0.
        -12    1    1    2    0    0  0.10412296580E+01  0.54270726129E+00  0.12004498936E+00  0.11802970692E+01  0.00000000000E+00 0.  1.
         11    1    3    3    0    0  0.50388669758E+01 -0.61530708906E+01  0.58134485918E+01  0.98512256383E+01  0.51100000000E-03 0. -1.
        -11    1    3    3    0    0  0.36485622914E+02  0.68879464207E+01  0.21020697396E+00  0.37130697173E+02  0.51100000000E-03 0.  1.
         12    1    3    3    0    0 -0.42565719548E+02 -0.12775827914E+01 -0.61437005551E+01  0.43025780120E+02  0.00000000000E+00 0. -1.
</event>
<event>
 7    1  0.1654239E-015  0.9000780E+02  0.7816164E-02  0.1186339E+00
        -11   -1    0    0    0    0  0.00000000000E+00  0.00000000000E+00  0.45593999997E+02  0.45594000000E+02  0.51100000000E-03 0. -1.
         11   -1    0    0    0    0 -0.00000000000E+00 -0.00000000000E+00 -0.45593999997E+02  0.45594000000E+02  0.51100000000E-03 0.  1.
    9900012    2    1    2    0    0 -0.69823697784E+00  0.11459218645E+00  0.94456648663E+00  0.90007799977E+02  0.90000062137E+02 0.  0.
        -12    1    1    2    0    0  0.69823697784E+00 -0.11459218645E+00 -0.94456648663E+00  0.11802000229E+01  0.00000000000E+00 0.  1.
         11    1    3    3    0    0 -0.32457482885E+02  0.26817744081E+01  0.22383019729E+02  0.39518093093E+02  0.51100000000E-03 0. -1.
        -11    1    3    3    0    0  0.67662789197E+01 -0.66913281538E+00  0.88594267288E+01  0.11167797964E+02  0.51100000000E-03 0.  1.
        -12    1    3    3    0    0  0.24992966988E+02 -0.18980494063E+01 -0.30297879971E+02  0.39321908920E+02  0.00000000000E+00 0.  1.
</event>
<event>
 7    1  0.1654239E-015  0.9000775E+02  0.7816164E-02  0.1186339E+00
        -11   -1    0    0    0    0  0.00000000000E+00  0.00000000000E+00  0.45593999997E+02  0.45594000000E+02  0.51100000000E-03 0. -1.
         11   -1    0    0    0    0 -0.00000000000E+00 -0.00000000000E+00 -0.45593999997E+02  0.45594000000E+02  0.51100000000E-03 0.  1.
    9900012    2    1    2    0    0 -0.83179911318E+00  0.40350897287E+00  0.73367616948E+00  0.90007750036E+02  0.90000011536E+02 0.  0.
        -12    1    1    2    0    0  0.83179911318E+00 -0.40350897287E+00 -0.73367616948E+00  0.11802499640E+01  0.00000000000E+00 0.  1.
         11    1    3    3    0    0  0.20459208369E+02 -0.33210766179E+02  0.39715220388E+01  0.39208509087E+02  0.51100000000E-03 0. -1.
        -11    1    3    3    0    0 -0.65444329585E+01 -0.40748831707E+01  0.54049350707E+01  0.94152853904E+01  0.51100000000E-03 0.  1.
        -12    1    3    3    0    0 -0.14746574524E+02  0.37689158323E+02 -0.86427809400E+01  0.41383955558E+02  0.00000000000E+00 0.  1.
</event>
<event>
 7    1  0.1654239E-015  0.9000776E+02  0.7816164E-02  0.1186339E+00
        -11   -1    0    0    0    0  0.00000000000E+00  0.00000000000E+00  0.45593999997E+02  0.45594000000E+02  0.51100000000E-03 0.  1.
         11   -1    0    0    0    0 -0.00000000000E+00 -0.00000000000E+00 -0.45593999997E+02  0.45594000000E+02  0.51100000000E-03 0. -1.
    9900012    2    1    2    0    0  0.11609658918E+01 -0.74993711581E-01 -0.19872580467E+00  0.90007763666E+02  0.90000025346E+02 0.  0.
        -12    1    1    2    0    0 -0.11609658918E+01  0.74993711581E-01  0.19872580467E+00  0.11802363340E+01  0.00000000000E+00 0.  1.
         11    1    3    3    0    0 -0.75699378489E+01 -0.16222627315E+01  0.27647112002E+01  0.82206644310E+01  0.51100000000E-03 0. -1.
        -11    1    3    3    0    0 -0.46561585997E+01  0.34272650068E+02  0.19685699934E+02  0.39797250379E+02  0.51100000000E-03 0.  1.
         12    1    3    3    0    0  0.13387062340E+02 -0.32725381048E+02 -0.22649136939E+02  0.41989848856E+02  0.00000000000E+00 0. -1.
</event>
<event>
 7    1  0.2749353E-015  0.9000778E+02  0.7816164E-02  0.1186339E+00
        -11   -1    0    0    0    0  0.00000000000E+00  0.00000000000E+00  0.45593999997E+02  0.45594000000E+02  0.51100000000E-03 0.  1.
         11   -1    0    0    0    0 -0.00000000000E+00 -0.00000000000E+00 -0.45593999997E+02  0.45594000000E+02  0.51100000000E-03 0. -1.
    9900012    2    1    2    0    0 -0.60433051384E+00  0.80001831817E+00 -0.62263852059E+00  0.90007778238E+02  0.90000040111E+02 0.  0.
        -12    1    1    2    0    0  0.60433051384E+00 -0.80001831817E+00  0.62263852059E+00  0.11802217617E+01  0.00000000000E+00 0.  1.
         11    1    3    3    0    0 -0.35462935015E+01 -0.84931526901E+01  0.10661282879E+01  0.92653370151E+01  0.51100000000E-03 0. -1.
        -11    1    3    3    0    0 -0.17480591318E+02 -0.22011549968E+02  0.22684744124E+02  0.36120313137E+02  0.51100000000E-03 0.  1.
         12    1    3    3    0    0  0.20422554306E+02  0.31304720976E+02 -0.24373510933E+02  0.44622128087E+02  0.00000000000E+00 0. -1.
</event>
<event>
 7    1  0.1654239E-015  0.9000848E+02  0.7816164E-02  0.1186338E+00
        -11   -1    0    0    0    0  0.00000000000E+00  0.00000000000E+00  0.45593999997E+02  0.45594000000E+02  0.51100000000E-03 0. -1.
         11   -1    0    0    0    0 -0.00000000000E+00 -0.00000000000E+00 -0.45593999997E+02  0.45594000000E+02  0.51100000000E-03 0.  1.
    9900012    2    1    2    0    0  0.65330509993E+00 -0.61765689142E+00  0.76351176858E+00  0.90008484078E+02  0.90000755265E+02 0.  0.
        -12    1    1    2    0    0 -0.65330509993E+00  0.61765689142E+00 -0.76351176858E+00  0.11795159218E+01  0.00000000000E+00 0.  1.
         11    1    3    3    0    0 -0.15778715337E+02  0.35559912235E+02  0.17971510271E+02  0.42853825938E+02  0.51100000000E-03 0. -1.
        -11    1    3    3    0    0  0.83705510197E+00 -0.25719803489E+01 -0.87433777278E+01  0.91521799868E+01  0.51100000000E-03 0.  1.
        -12    1    3    3    0    0  0.15594965335E+02 -0.33605588778E+02 -0.84646207751E+01  0.38002478153E+02  0.00000000000E+00 0.  1.
</event>
<event>
 7    1  0.1654239E-015  0.9000766E+02  0.7816164E-02  0.1186339E+00
        -11   -1    0    0    0    0  0.00000000000E+00  0.00000000000E+00  0.45593999997E+02  0.45594000000E+02  0.51100000000E-03 0.  1.
         11   -1    0    0    0    0 -0.00000000000E+00 -0.00000000000E+00 -0.45593999997E+02  0.45594000000E+02  0.51100000000E-03 0. -1.
    9900012    2    1    2    0    0  0.11506704891E+01 -0.43757876740E-01 -0.25931919951E+00  0.90007659467E+02  0.89999919772E+02 0.  0.
        -12    1    1    2    0    0 -0.11506704891E+01  0.43757876740E-01  0.25931919951E+00  0.11803405329E+01  0.00000000000E+00 0.  1.
         11    1    3    3    0    0  0.27210868083E+02 -0.25383136117E+02 -0.12169578846E+02  0.39151418754E+02  0.51100000000E-03 0. -1.
        -11    1    3    3    0    0  0.41134255030E+01  0.42387375098E+01 -0.72485129342E+01  0.93502997313E+01  0.51100000000E-03 0.  1.
        -12    1    3    3    0    0 -0.30173623096E+02  0.21100640730E+02  0.19158772580E+02  0.41505940982E+02  0.00000000000E+00 0.  1.
</event>
<event>
 7    1  0.1654239E-015  0.9000772E+02  0.7816164E-02  0.1186339E+00
        -11   -1    0    0    0    0  0.00000000000E+00  0.00000000000E+00  0.45593999997E+02  0.45594000000E+02  0.51100000000E-03 0. -1.
         11   -1    0    0    0    0 -0.00000000000E+00 -0.00000000000E+00 -0.45593999997E+02  0.45594000000E+02  0.51100000000E-03 0.  1.
    9900012    2    1    2    0    0  0.90278988029E-01 -0.27452254944E-01  0.11765058905E+01  0.90007716122E+02  0.89999977175E+02 0.  0.
        -12    1    1    2    0    0 -0.90278988029E-01  0.27452254944E-01 -0.11765058905E+01  0.11802838779E+01  0.00000000000E+00 0.  1.
         11    1    3    3    0    0 -0.13660417249E+02 -0.13494034243E+02 -0.27542325162E+01  0.19397983313E+02  0.51100000000E-03 0. -1.
        -11    1    3    3    0    0  0.14163897485E+02 -0.25980838497E+02 -0.53807799088E+01  0.30076116001E+02  0.51100000000E-03 0.  1.
         12    1    3    3    0    0 -0.41320124771E+00  0.39447420486E+02  0.93115183155E+01  0.40533616809E+02  0.00000000000E+00 0. -1.
</event>
<event>
 7    1  0.1654239E-015  0.9000777E+02  0.7816164E-02  0.1186339E+00
        -11   -1    0    0    0    0  0.00000000000E+00  0.00000000000E+00  0.45593999997E+02  0.45594000000E+02  0.51100000000E-03 0.  1.
         11   -1    0    0    0    0 -0.00000000000E+00 -0.00000000000E+00 -0.45593999997E+02  0.45594000000E+02  0.51100000000E-03 0. -1.
    9900012    2    1    2    0    0  0.51261706028E+00 -0.40659362791E+00 -0.98226924874E+00  0.90007768029E+02  0.90000029767E+02 0.  0.
        -12    1    1    2    0    0 -0.51261706028E+00  0.40659362791E+00  0.98226924874E+00  0.11802319712E+01  0.00000000000E+00 0.  1.
         11    1    3    3    0    0 -0.12148215765E+02  0.32022824707E+02 -0.97922871341E+01  0.35622034418E+02  0.51100000000E-03 0. -1.
        -11    1    3    3    0    0 -0.48693581627E+01  0.46395297486E+01 -0.76626165558E+01  0.10195664664E+02  0.51100000000E-03 0.  1.
        -12    1    3    3    0    0  0.17530190988E+02 -0.37068948083E+02  0.16472634441E+02  0.44190068947E+02  0.00000000000E+00 0.  1.
</event>
<event>
 7    1  0.1654239E-015  0.9000772E+02  0.7816164E-02  0.1186339E+00
        -11   -1    0    0    0    0  0.00000000000E+00  0.00000000000E+00  0.45593999997E+02  0.45594000000E+02  0.51100000000E-03 0.  1.
         11   -1    0    0    0    0 -0.00000000000E+00 -0.00000000000E+00 -0.45593999997E+02  0.45594000000E+02  0.51100000000E-03 0. -1.
    9900012    2    1    2    0    0 -0.38854071864E-01 -0.77142954603E+00 -0.89244478471E+00  0.90007715764E+02  0.89999976812E+02 0.  0.
        -12    1    1    2    0    0  0.38854071864E-01  0.77142954603E+00  0.89244478471E+00  0.11802842357E+01  0.00000000000E+00 0.  1.
         11    1    3    3    0    0  0.10573633287E+01  0.11721707731E+02 -0.35001085580E+02  0.36926852579E+02  0.51100000000E-03 0. -1.
        -11    1    3    3    0    0 -0.72647905831E+01  0.34540128800E+01 -0.56308031039E+01  0.98190290278E+01  0.51100000000E-03 0.  1.
        -12    1    3    3    0    0  0.61685731825E+01 -0.15947150157E+02  0.39739443899E+02  0.43261834158E+02  0.00000000000E+00 0.  1.
</event>
<event>
 7    1  0.1654239E-015  0.9000806E+02  0.7816164E-02  0.1186338E+00
        -11   -1    0    0    0    0  0.00000000000E+00  0.00000000000E+00  0.45593999997E+02  0.45594000000E+02  0.51100000000E-03 0. -1.
         11   -1    0    0    0    0 -0.00000000000E+00 -0.00000000000E+00 -0.45593999997E+02  0.45594000000E+02  0.51100000000E-03 0.  1.
    9900012    2    1    2    0    0  0.70207183527E+00 -0.70011554162E+00  0.63968322440E+00  0.90008058789E+02  0.90000324365E+02 0.  0.
        -12    1    1    2    0    0 -0.70207183527E+00  0.70011554162E+00 -0.63968322440E+00  0.11799412109E+01  0.00000000000E+00 0.  1.
         11    1    3    3    0    0  0.43398295479E+01  0.43853446301E+00 -0.83697112575E+01  0.94381406948E+01  0.51100000000E-03 0. -1.
        -11    1    3    3    0    0  0.16128350664E+02 -0.36273537680E+02  0.29931684001E+01  0.39810203319E+02  0.51100000000E-03 0.  1.
         12    1    3    3    0    0 -0.19766108376E+02  0.35134887675E+02  0.60162260818E+01  0.40759714775E+02  0.00000000000E+00 0. -1.
</event>
<event>
 7    1  0.1654239E-015  0.9000810E+02  0.7816164E-02  0.1186338E+00
        -11   -1    0    0    0    0  0.00000000000E+00  0.00000000000E+00  0.45593999997E+02  0.45594000000E+02  0.51100000000E-03 0. -1.
         11   -1    0    0    0    0 -0.00000000000E+00 -0.00000000000E+00 -0.45593999997E+02  0.45594000000E+02  0.51100000000E-03 0.  1.
    9900012    2    1    2    0    0 -0.71005605706E+00  0.84177370929E+00 -0.42355496957E+00  0.90008101109E+02  0.90000367242E+02 0.  0.
        -12    1    1    2    0    0  0.71005605706E+00 -0.84177370929E+00  0.42355496957E+00  0.11798988915E+01  0.00000000000E+00 0.  1.
         11    1    3    3    0    0  0.10030057219E+01  0.99062247924E+01  0.24523242830E+01  0.10254423668E+02  0.51100000000E-03 0. -1.
        -11    1    3    3    0    0  0.18079166935E+02  0.23772886309E+02 -0.21819917538E+02  0.36988041340E+02  0.51100000000E-03 0.  1.
         12    1    3    3    0    0 -0.19792228714E+02 -0.32837337392E+02  0.18944038285E+02  0.42765636100E+02  0.00000000000E+00 0. -1.
</event>
<event>
 7    1  0.1654239E-015  0.9000778E+02  0.7816164E-02  0.1186339E+00
        -11   -1    0    0    0    0  0.00000000000E+00  0.00000000000E+00  0.45593999997E+02  0.45594000000E+02  0.51100000000E-03 0. -1.
         11   -1    0    0    0    0 -0.00000000000E+00 -0.00000000000E+00 -0.45593999997E+02  0.45594000000E+02  0.51100000000E-03 0.  1.
    9900012    2    1    2    0    0  0.11036747168E+01 -0.17980275926E+00 -0.37749663397E+00  0.90007775182E+02  0.90000037014E+02 0.  0.
        -12    1    1    2    0    0 -0.11036747168E+01  0.17980275926E+00  0.37749663397E+00  0.11802248182E+01  0.00000000000E+00 0.  1.
         11    1    3    3    0    0 -0.68586496526E+01  0.40519458736E+01 -0.46773868595E+01  0.92378183850E+01  0.51100000000E-03 0. -1.
        -11    1    3    3    0    0 -0.31951568982E+02  0.14916639797E+02  0.85898788683E+01  0.36293180110E+02  0.51100000000E-03 0.  1.
         12    1    3    3    0    0  0.39913893351E+02 -0.19148388430E+02 -0.42899886428E+01  0.44476776687E+02  0.00000000000E+00 0. -1.
</event>
<event>
 7    1  0.1654239E-015  0.9000781E+02  0.7816164E-02  0.1186339E+00
        -11   -1    0    0    0    0  0.00000000000E+00  0.00000000000E+00  0.45593999997E+02  0.45594000000E+02  0.51100000000E-03 0.  1.
         11   -1    0    0    0    0 -0.00000000000E+00 -0.00000000000E+00 -0.45593999997E+02  0.45594000000E+02  0.51100000000E-03 0. -1.
    9900012    2    1    2    0    0 -0.10197480148E+01 -0.29120914003E+00  0.51784411515E+00  0.90007808785E+02  0.90000071061E+02 0.  0.
        -12    1    1    2    0    0  0.10197480148E+01  0.29120914003E+00 -0.51784411515E+00  0.11801912152E+01  0.00000000000E+00 0.  1.
         11    1    3    3    0    0 -0.26054661333E+02  0.33998845195E+02  0.50263547844E+01  0.43128077797E+02  0.51100000000E-03 0. -1.
        -11    1    3    3    0    0  0.71652119272E+01 -0.32355632485E+01  0.55997375878E+01  0.96522636106E+01  0.51100000000E-03 0.  1.
        -12    1    3    3    0    0  0.17869701391E+02 -0.31054491087E+02 -0.10108248257E+02  0.37227467377E+02  0.00000000000E+00 0.  1.
</event>
<event>
 7    1  0.1654239E-015  0.9000773E+02  0.7816164E-02  0.1186339E+00
        -11   -1    0    0    0    0  0.00000000000E+00  0.00000000000E+00  0.45593999997E+02  0.45594000000E+02  0.51100000000E-03 0.  1.
         11   -1    0    0    0    0 -0.00000000000E+00 -0.00000000000E+00 -0.45593999997E+02  0.45594000000E+02  0.51100000000E-03 0. -1.
    9900012    2    1    2    0    0 -0.74593623764E+00  0.90395920168E+00  0.13954890902E+00  0.90007730113E+02  0.89999991350E+02 0.  0.
        -12    1    1    2    0    0  0.74593623764E+00 -0.90395920168E+00 -0.13954890902E+00  0.11802698873E+01  0.00000000000E+00 0.  1.
         11    1    3    3    0    0  0.21601574844E+02  0.81751548436E+01 -0.29674795254E+02  0.37603918228E+02  0.51100000000E-03 0. -1.
        -11    1    3    3    0    0 -0.89210866387E+00  0.85140217871E+01 -0.39246988376E+01  0.94174139809E+01  0.51100000000E-03 0.  1.
        -12    1    3    3    0    0 -0.21455402418E+02 -0.15785217429E+02  0.33739043000E+02  0.42986397904E+02  0.00000000000E+00 0.  1.
</event>
<event>
 7    1  0.1654239E-015  0.9000776E+02  0.7816164E-02  0.1186339E+00
        -11   -1    0    0    0    0  0.00000000000E+00  0.00000000000E+00  0.45593999997E+02  0.45594000000E+02  0.51100000000E-03 0. -1.
         11   -1    0    0    0    0 -0.00000000000E+00 -0.00000000000E+00 -0.45593999997E+02  0.45594000000E+02  0.51100000000E-03 0.  1.
    9900012    2    1    2    0    0 -0.58994048442E+00 -0.78385299296E+00 -0.65613597671E+00  0.90007758622E+02  0.90000020236E+02 0.  0.
        -12    1    1    2    0    0  0.58994048442E+00  0.78385299296E+00  0.65613597671E+00  0.11802413777E+01  0.00000000000E+00 0.  1.
         11    1    3    3    0    0  0.46886601587E+01 -0.76831612130E+01  0.82542497322E+01  0.12212581185E+02  0.51100000000E-03 0. -1.
        -11    1    3    3    0    0 -0.27419275834E+02 -0.21628261874E+02  0.10928897926E+02  0.36592884679E+02  0.51100000000E-03 0.  1.
        -12    1    3    3    0    0  0.22140675191E+02  0.28527570094E+02 -0.19839283635E+02  0.41202292758E+02  0.00000000000E+00 0.  1.
</event>
<event>
 7    1  0.1654239E-015  0.9000773E+02  0.7816164E-02  0.1186339E+00
        -11   -1    0    0    0    0  0.00000000000E+00  0.00000000000E+00  0.45593999997E+02  0.45594000000E+02  0.51100000000E-03 0. -1.
         11   -1    0    0    0    0 -0.00000000000E+00 -0.00000000000E+00 -0.45593999997E+02  0.45594000000E+02  0.51100000000E-03 0.  1.
    9900012    2    1    2    0    0  0.44896287357E+00  0.49968562524E+00  0.97046096906E+00  0.90007725507E+02  0.89999986684E+02 0.  0.
        -12    1    1    2    0    0 -0.44896287357E+00 -0.49968562524E+00 -0.97046096906E+00  0.11802744928E+01  0.00000000000E+00 0.  1.
         11    1    3    3    0    0  0.16477028069E+02 -0.33505341834E+02  0.13106077171E+02  0.39571070802E+02  0.51100000000E-03 0. -1.
        -11    1    3    3    0    0 -0.17447895945E+01  0.25893623241E+01  0.93005928115E+01  0.98107142900E+01  0.51100000000E-03 0.  1.
        -12    1    3    3    0    0 -0.14283275601E+02  0.31415665135E+02 -0.21436209013E+02  0.40625940415E+02  0.00000000000E+00 0.  1.
</event>
<event>
 7    1  0.1654239E-015  0.9000773E+02  0.7816164E-02  0.1186339E+00
        -11   -1    0    0    0    0  0.00000000000E+00  0.00000000000E+00  0.45593999997E+02  0.45594000000E+02  0.51100000000E-03 0. -1.
         11   -1    0    0    0    0 -0.00000000000E+00 -0.00000000000E+00 -0.45593999997E+02  0.45594000000E+02  0.51100000000E-03 0.  1.
    9900012    2    1    2    0    0 -0.78089890584E+00 -0.80687525319E+00  0.36358232288E+00  0.90007727624E+02  0.89999988829E+02 0.  0.
        -12    1    1    2    0    0  0.78089890584E+00  0.80687525319E+00 -0.36358232288E+00  0.11802723757E+01  0.00000000000E+00 0.  1.
         11    1    3    3    0    0  0.32955908899E+00  0.71205580482E+01 -0.26435235087E+01  0.76025767285E+01  0.51100000000E-03 0. -1.
        -11    1    3    3    0    0 -0.20791830264E+02  0.29178344083E+02  0.14821172459E+02  0.38772968966E+02  0.51100000000E-03 0.  1.
         12    1    3    3    0    0  0.19681372269E+02 -0.37105777384E+02 -0.11814066627E+02  0.43632181930E+02  0.00000000000E+00 0. -1.
</event>
<event>
 7    1  0.1654239E-015  0.9000772E+02  0.7816164E-02  0.1186339E+00
        -11   -1    0    0    0    0  0.00000000000E+00  0.00000000000E+00  0.45593999997E+02  0.45594000000E+02  0.51100000000E-03 0. -1.
         11   -1    0    0    0    0 -0.00000000000E+00 -0.00000000000E+00 -0.45593999997E+02  0.45594000000E+02  0.51100000000E-03 0.  1.
    9900012    2    1    2    0    0 -0.20372990100E+00  0.11352030235E+01  0.25074822909E+00  0.90007717639E+02  0.89999978712E+02 0.  0.
        -12    1    1    2    0    0  0.20372990100E+00 -0.11352030235E+01 -0.25074822909E+00  0.11802823609E+01  0.00000000000E+00 0.  1.
         11    1    3    3    0    0 -0.63939666163E+01 -0.74580086965E+01 -0.34410137081E+01  0.10408903804E+02  0.51100000000E-03 0. -1.
        -11    1    3    3    0    0 -0.12912702637E+02 -0.38276257346E+01 -0.33430378272E+02  0.36041348474E+02  0.51100000000E-03 0.  1.
         12    1    3    3    0    0  0.19102939352E+02  0.12420837455E+02  0.37122140209E+02  0.43557465361E+02  0.00000000000E+00 0. -1.
</event>
<event>
 7    1  0.1654239E-015  0.9000778E+02  0.7816164E-02  0.1186339E+00
        -11   -1    0    0    0    0  0.00000000000E+00  0.00000000000E+00  0.45593999997E+02  0.45594000000E+02  0.51100000000E-03 0. -1.
         11   -1    0    0    0    0 -0.00000000000E+00 -0.00000000000E+00 -0.45593999997E+02  0.45594000000E+02  0.51100000000E-03 0.  1.
    9900012    2    1    2    0    0  0.69861523311E+00  0.73005034838E+00  0.60982077269E+00  0.90007780474E+02  0.90000042376E+02 0.  0.
        -12    1    1    2    0    0 -0.69861523311E+00 -0.73005034838E+00 -0.60982077269E+00  0.11802195262E+01  0.00000000000E+00 0.  1.
         11    1    3    3    0    0  0.30264057258E+02 -0.27183091734E+02 -0.57348456811E+01  0.41081894956E+02  0.51100000000E-03 0. -1.
        -11    1    3    3    0    0 -0.58978578075E+01 -0.37245460492E+01  0.63236114165E+01  0.94151490481E+01  0.51100000000E-03 0.  1.
        -12    1    3    3    0    0 -0.23667584218E+02  0.31637688132E+02  0.21055037369E-01  0.39510736469E+02  0.00000000000E+00 0.  1.
</event>
<event>
 7    1  0.1977092E-015  0.9000771E+02  0.7816164E-02  0.1186339E+00
        -11   -1    0    0    0    0  0.00000000000E+00  0.00000000000E+00  0.45593999997E+02  0.45594000000E+02  0.51100000000E-03 0.  1.
         11   -1    0    0    0    0 -0.00000000000E+00 -0.00000000000E+00 -0.45593999997E+02  0.45594000000E+02  0.51100000000E-03 0. -1.
    9900012    2    1    2    0    0 -0.10924825613E+01 -0.12746063218E+00  0.42816683638E+00  0.90007707155E+02  0.89999968090E+02 0.  0.
        -12    1    1    2    0    0  0.10924825613E+01  0.12746063218E+00 -0.42816683638E+00  0.11802928447E+01  0.00000000000E+00 0.  1.
         11    1    3    3    0    0  0.80513638663E+01  0.26779484942E+01 -0.43876550483E+01  0.95523497282E+01  0.51100000000E-03 0. -1.
        -11    1    3    3    0    0  0.29579136049E+02 -0.15403243760E+02 -0.13278220672E+02  0.35895631380E+02  0.51100000000E-03 0.  1.
         12    1    3    3    0    0 -0.38722982476E+02  0.12597834634E+02  0.18094042557E+02  0.44559726047E+02  0.00000000000E+00 0. -1.
</event>
<event>
 7    1  0.1654239E-015  0.9000774E+02  0.7816164E-02  0.1186339E+00
        -11   -1    0    0    0    0  0.00000000000E+00  0.00000000000E+00  0.45593999997E+02  0.45594000000E+02  0.51100000000E-03 0.  1.
         11   -1    0    0    0    0 -0.00000000000E+00 -0.00000000000E+00 -0.45593999997E+02  0.45594000000E+02  0.51100000000E-03 0. -1.
    9900012    2    1    2    0    0  0.55841701365E-01 -0.62659500971E+00 -0.99864169214E+00  0.90007735271E+02  0.89999996576E+02 0.  0.
        -12    1    1    2    0    0 -0.55841701365E-01  0.62659500971E+00  0.99864169214E+00  0.11802647292E+01  0.00000000000E+00 0.  1.
         11    1    3    3    0    0 -0.47555865910E+01 -0.56492605500E+01 -0.39134351867E+02  0.39824957563E+02  0.51100000000E-03 0. -1.
        -11    1    3    3    0    0 -0.30213883057E+01  0.64370428288E+01 -0.34066535653E+01  0.78847699046E+01  0.51100000000E-03 0.  1.
        -12    1    3    3    0    0  0.78328165980E+01 -0.14143772885E+01  0.41542363740E+02  0.42298007803E+02  0.00000000000E+00 0.  1.
</event>
<event>
 7    1  0.1654239E-015  0.9000771E+02  0.7816164E-02  0.1186339E+00
        -11   -1    0    0    0    0  0.00000000000E+00  0.00000000000E+00  0.45593999997E+02  0.45594000000E+02  0.51100000000E-03 0.  1.
         11   -1    0    0    0    0 -0.00000000000E+00 -0.00000000000E+00 -0.45593999997E+02  0.45594000000E+02  0.51100000000E-03 0. -1.
    9900012    2    1    2    0    0 -0.20482392336E+00  0.11623737801E+01  0.52301808429E-02  0.90007706393E+02  0.89999967317E+02 0.  0.
        -12    1    1    2    0    0  0.20482392336E+00 -0.11623737801E+01 -0.52301808429E-02  0.11802936071E+01  0.00000000000E+00 0.  1.
         11    1    3    3    0    0  0.88639222697E+01 -0.10337085180E+02  0.36317026782E+01  0.14093037736E+02  0.51100000000E-03 0. -1.
        -11    1    3    3    0    0 -0.13611587094E+02 -0.30583367554E+02 -0.63261176978E+00  0.33481604981E+02  0.51100000000E-03 0.  1.
         12    1    3    3    0    0  0.45428409014E+01  0.42082826514E+02 -0.29938607276E+01  0.42433063676E+02  0.00000000000E+00 0. -1.
</event>
<event>
 7    1  0.1654239E-015  0.9000775E+02  0.7816164E-02  0.1186339E+00
        -11   -1    0    0    0    0  0.00000000000E+00  0.00000000000E+00  0.45593999997E+02  0.45594000000E+02  0.51100000000E-03 0. -1.
         11   -1    0    0    0    0 -0.00000000000E+00 -0.00000000000E+00 -0.45593999997E+02  0.45594000000E+02  0.51100000000E-03 0.  1.
    9900012    2    1    2    0    0  0.11157784172E+01  0.38339088843E+00  0.32291254547E-01  0.90007748851E+02  0.90000010336E+02 0.  0.
        -12    1    1    2    0    0 -0.11157784172E+01 -0.38339088843E+00 -0.32291254547E-01  0.11802511490E+01  0.00000000000E+00 0.  1.
         11    1    3    3    0    0 -0.89055788494E+01 -0.45921186937E+01  0.35488007479E+02  0.36875405948E+02  0.51100000000E-03 0. -1.
        -11    1    3    3    0    0  0.27662813426E+01  0.10469494630E+01  0.81930914715E+01  0.87106350955E+01  0.51100000000E-03 0.  1.
        -12    1    3    3    0    0  0.72550759240E+01  0.39285601192E+01 -0.43648807696E+02  0.44421707808E+02  0.00000000000E+00 0.  1.
</event>
<event>
 7    1  0.1654239E-015  0.9000778E+02  0.7816164E-02  0.1186339E+00
        -11   -1    0    0    0    0  0.00000000000E+00  0.00000000000E+00  0.45593999997E+02  0.45594000000E+02  0.51100000000E-03 0.  1.
         11   -1    0    0    0    0 -0.00000000000E+00 -0.00000000000E+00 -0.45593999997E+02  0.45594000000E+02  0.51100000000E-03 0. -1.
    9900012    2    1    2    0    0  0.90190156793E+00 -0.73126670315E+00 -0.21152789403E+00  0.90007779055E+02  0.90000040938E+02 0.  0.
        -12    1    1    2    0    0 -0.90190156793E+00  0.73126670315E+00  0.21152789403E+00  0.11802209451E+01  0.00000000000E+00 0.  1.
         11    1    3    3    0    0  0.31866522160E+02 -0.29715527918E+02  0.14786810275E+01  0.43596723867E+02  0.51100000000E-03 0. -1.
        -11    1    3    3    0    0 -0.90314771099E+01 -0.61413865771E+00 -0.30342532340E+01  0.95473262239E+01  0.51100000000E-03 0.  1.
        -12    1    3    3    0    0 -0.21933143483E+02  0.29598399873E+02  0.13440443124E+01  0.36863728964E+02  0.00000000000E+00 0.  1.
</event>
<event>
 7    1  0.2548179E-015  0.9000772E+02  0.7816164E-02  0.1186339E+00
        -11   -1    0    0    0    0  0.00000000000E+00  0.00000000000E+00  0.45593999997E+02  0.45594000000E+02  0.51100000000E-03 0.  1.
         11   -1    0    0    0    0 -0.00000000000E+00 -0.00000000000E+00 -0.45593999997E+02  0.45594000000E+02  0.51100000000E-03 0. -1.
    9900012    2    1    2    0    0 -0.77871162235E-01 -0.11758049506E+01  0.66874915337E-01  0.90007723145E+02  0.89999984291E+02 0.  0.
        -12    1    1    2    0    0  0.77871162235E-01  0.11758049506E+01 -0.66874915337E-01  0.11802768549E+01  0.00000000000E+00 0.  1.
         11    1    3    3    0    0 -0.18109218178E+01 -0.94555641531E+01  0.27438215395E+01  0.10010778600E+02  0.51100000000E-03 0. -1.
        -11    1    3    3    0    0 -0.24372439145E+02 -0.26718366675E+02  0.10170213099E+01  0.36179016573E+02  0.51100000000E-03 0.  1.
         12    1    3    3    0    0  0.26105489800E+02  0.34998125877E+02 -0.36939679341E+01  0.43817927971E+02  0.00000000000E+00 0. -1.
</event>
<event>
 7    1  0.1654239E-015  0.9000769E+02  0.7816164E-02  0.1186339E+00
        -11   -1    0    0    0    0  0.00000000000E+00  0.00000000000E+00  0.45593999997E+02  0.45594000000E+02  0.51100000000E-03 0.  1.
         11   -1    0    0    0    0 -0.00000000000E+00 -0.00000000000E+00 -0.45593999997E+02  0.45594000000E+02  0.51100000000E-03 0. -1.
    9900012    2    1    2    0    0 -0.61943423992E+00 -0.11219517636E+00 -0.99842236012E+00  0.90007689132E+02  0.89999949829E+02 0.  0.
        -12    1    1    2    0    0  0.61943423992E+00  0.11219517636E+00  0.99842236012E+00  0.11803108677E+01  0.00000000000E+00 0.  1.
         11    1    3    3    0    0 -0.21377212142E+00  0.74029528498E+01  0.49292835603E+01  0.88964738012E+01  0.51100000000E-03 0. -1.
        -11    1    3    3    0    0  0.34692662433E+02 -0.23922653200E+02 -0.24776295759E+01  0.42213893583E+02  0.51100000000E-03 0.  1.
         12    1    3    3    0    0 -0.35098324552E+02  0.16407505174E+02 -0.34500763446E+01  0.38897321748E+02  0.00000000000E+00 0. -1.
</event>
<event>
 7    1  0.1654239E-015  0.9000776E+02  0.7816164E-02  0.1186339E+00
        -11   -1    0    0    0    0  0.00000000000E+00  0.00000000000E+00  0.45593999997E+02  0.45594000000E+02  0.51100000000E-03 0. -1.
         11   -1    0    0    0    0 -0.00000000000E+00 -0.00000000000E+00 -0.45593999997E+02  0.45594000000E+02  0.51100000000E-03 0.  1.
    9900012    2    1    2    0    0  0.99417245168E+00 -0.14373701858E+00  0.61961951746E+00  0.90007759541E+02  0.90000021167E+02 0.  0.
        -12    1    1    2    0    0 -0.99417245168E+00  0.14373701858E+00 -0.61961951746E+00  0.11802404588E+01  0.00000000000E+00 0.  1.
         11    1    3    3    0    0 -0.76040951467E+01  0.36708353302E+01  0.25911716494E+01  0.88324099655E+01  0.51100000000E-03 0. -1.
        -11    1    3    3    0    0 -0.35610323044E+02 -0.12585476640E+01 -0.79001483338E+01  0.36497827244E+02  0.51100000000E-03 0.  1.
         12    1    3    3    0    0  0.44208590643E+02 -0.25560246848E+01  0.59285962018E+01  0.44677522332E+02  0.00000000000E+00 0. -1.
</event>
<event>
 7    1  0.1654239E-015  0.9000778E+02  0.7816164E-02  0.1186339E+00
        -11   -1    0    0    0    0  0.00000000000E+00  0.00000000000E+00  0.45593999997E+02  0.45594000000E+02  0.51100000000E-03 0.  1.
         11   -1    0    0    0    0 -0.00000000000E+00 -0.00000000000E+00 -0.45593999997E+02  0.45594000000E+02  0.51100000000E-03 0. -1.
    9900012    2    1    2    0    0  0.46607612025E+00 -0.40762191256E+00 -0.10047563214E+01  0.90007780597E+02  0.90000042501E+02 0.  0.
        -12    1    1    2    0    0 -0.46607612025E+00  0.40762191256E+00  0.10047563214E+01  0.11802194028E+01  0.00000000000E+00 0.  1.
         11    1    3    3    0    0  0.80281067648E+01  0.58011503767E+01 -0.35602775737E+01  0.10525180311E+02  0.51100000000E-03 0. -1.
        -11    1    3    3    0    0  0.12691202878E+02 -0.41650501935E+01  0.37075206447E+02  0.39407933300E+02  0.51100000000E-03 0.  1.
         12    1    3    3    0    0 -0.20253233523E+02 -0.20437220958E+01 -0.34519685194E+02  0.40074666986E+02  0.00000000000E+00 0. -1.
</event>
<event>
 7    1  0.1654239E-015  0.9000773E+02  0.7816164E-02  0.1186339E+00
        -11   -1    0    0    0    0  0.00000000000E+00  0.00000000000E+00  0.45593999997E+02  0.45594000000E+02  0.51100000000E-03 0.  1.
         11   -1    0    0    0    0 -0.00000000000E+00 -0.00000000000E+00 -0.45593999997E+02  0.45594000000E+02  0.51100000000E-03 0. -1.
    9900012    2    1    2    0    0 -0.23901483441E+00  0.11262375988E+01 -0.25978293690E+00  0.90007734608E+02  0.89999995905E+02 0.  0.
        -12    1    1    2    0    0  0.23901483441E+00 -0.11262375988E+01  0.25978293690E+00  0.11802653915E+01  0.00000000000E+00 0.  1.
         11    1    3    3    0    0  0.18637596136E+02  0.39322837628E+01 -0.32547545575E+02  0.37711610527E+02  0.51100000000E-03 0. -1.
        -11    1    3    3    0    0 -0.79560435782E+01  0.15763090033E+01 -0.73518606477E+01  0.10946836746E+02  0.51100000000E-03 0.  1.
        -12    1    3    3    0    0 -0.10920567393E+02 -0.43823551673E+01  0.39639623285E+02  0.41349287336E+02  0.00000000000E+00 0.  1.
</event>
<event>
 7    1  0.1654239E-015  0.9000774E+02  0.7816164E-02  0.1186339E+00
        -11   -1    0    0    0    0  0.00000000000E+00  0.00000000000E+00  0.45593999997E+02  0.45594000000E+02  0.51100000000E-03 0.  1.
         11   -1    0    0    0    0 -0.00000000000E+00 -0.00000000000E+00 -0.45593999997E+02  0.45594000000E+02  0.51100000000E-03 0. -1.
    9900012    2    1    2    0    0 -0.10133712063E+01 -0.19472945101E+00  0.57285662535E+00  0.90007743471E+02  0.90000004885E+02 0.  0.
        -12    1    1    2    0    0  0.10133712063E+01  0.19472945101E+00 -0.57285662535E+00  0.11802565289E+01  0.00000000000E+00 0.  1.
         11    1    3    3    0    0  0.11857732446E+02  0.44085478288E+01 -0.19245184960E+02  0.23030811039E+02  0.51100000000E-03 0. -1.
        -11    1    3    3    0    0  0.18919691992E+02  0.46554660536E+01 -0.10455360048E+02  0.22112047920E+02  0.51100000000E-03 0.  1.
        -12    1    3    3    0    0 -0.31790795644E+02 -0.92587433334E+01  0.30273401633E+02  0.44864884512E+02  0.00000000000E+00 0.  1.
</event>
<event>
 7    1  0.1654239E-015  0.9000778E+02  0.7816164E-02  0.1186339E+00
        -11   -1    0    0    0    0  0.00000000000E+00  0.00000000000E+00  0.45593999997E+02  0.45594000000E+02  0.51100000000E-03 0.  1.
         11   -1    0    0    0    0 -0.00000000000E+00 -0.00000000000E+00 -0.45593999997E+02  0.45594000000E+02  0.51100000000E-03 0. -1.
    9900012    2    1    2    0    0 -0.35551065638E+00 -0.10954480364E+01  0.25793905071E+00  0.90007776809E+02  0.90000038663E+02 0.  0.
        -12    1    1    2    0    0  0.35551065638E+00  0.10954480364E+01 -0.25793905071E+00  0.11802231912E+01  0.00000000000E+00 0.  1.
         11    1    3    3    0    0  0.32084748699E+02 -0.20472530323E+02  0.78769244309E+01  0.38866457719E+02  0.51100000000E-03 0. -1.
        -11    1    3    3    0    0  0.93316044957E-01 -0.56876723266E+00  0.93569406692E+01  0.93746756209E+01  0.51100000000E-03 0.  1.
        -12    1    3    3    0    0 -0.32533575400E+02  0.19945849519E+02 -0.16975926049E+02  0.41766643468E+02  0.00000000000E+00 0.  1.
</event>
<event>
 7    1  0.1654239E-015  0.9000759E+02  0.7816164E-02  0.1186339E+00
        -11   -1    0    0    0    0  0.00000000000E+00  0.00000000000E+00  0.45593999997E+02  0.45594000000E+02  0.51100000000E-03 0. -1.
         11   -1    0    0    0    0 -0.00000000000E+00 -0.00000000000E+00 -0.45593999997E+02  0.45594000000E+02  0.51100000000E-03 0.  1.
    9900012    2    1    2    0    0 -0.28609370154E+00  0.72509412991E+00  0.88642859314E+00  0.90007590430E+02  0.89999849823E+02 0.  0.
        -12    1    1    2    0    0  0.28609370154E+00 -0.72509412991E+00 -0.88642859314E+00  0.11804095705E+01  0.00000000000E+00 0.  1.
         11    1    3    3    0    0 -0.30325718534E+02 -0.15999677114E+02  0.19653865250E+02  0.39521048719E+02  0.51100000000E-03 0. -1.
        -11    1    3    3    0    0  0.28571873517E+00 -0.59052288615E+01  0.36017741110E+01  0.69228707998E+01  0.51100000000E-03 0.  1.
        -12    1    3    3    0    0  0.29753906097E+02  0.22630000105E+02 -0.22369210768E+02  0.43563670910E+02  0.00000000000E+00 0.  1.
</event>
<event>
 7    1  0.1654239E-015  0.9000757E+02  0.7816164E-02  0.1186339E+00
        -11   -1    0    0    0    0  0.00000000000E+00  0.00000000000E+00  0.45593999997E+02  0.45594000000E+02  0.51100000000E-03 0.  1.
         11   -1    0    0    0    0 -0.00000000000E+00 -0.00000000000E+00 -0.45593999997E+02  0.45594000000E+02  0.51100000000E-03 0. -1.
    9900012    2    1    2    0    0  0.67490797011E+00  0.66651766288E+00  0.70261286160E+00  0.90007571520E+02  0.89999830664E+02 0.  0.
        -12    1    1    2    0    0 -0.67490797011E+00 -0.66651766288E+00 -0.70261286160E+00  0.11804284800E+01  0.00000000000E+00 0.  1.
         11    1    3    3    0    0 -0.26232455178E+00  0.85406483675E+01 -0.23368121173E+01  0.88584524517E+01  0.51100000000E-03 0. -1.
        -11    1    3    3    0    0 -0.32161856233E+02  0.19219545542E+02 -0.44294284291E+01  0.37727917563E+02  0.51100000000E-03 0.  1.
         12    1    3    3    0    0  0.33099088754E+02 -0.27093676247E+02  0.74688534080E+01  0.43421201505E+02  0.00000000000E+00 0. -1.
</event>
<event>
 7    1  0.1654239E-015  0.9000772E+02  0.7816164E-02  0.1186339E+00
        -11   -1    0    0    0    0  0.00000000000E+00  0.00000000000E+00  0.45593999997E+02  0.45594000000E+02  0.51100000000E-03 0. -1.
         11   -1    0    0    0    0 -0.00000000000E+00 -0.00000000000E+00 -0.45593999997E+02  0.45594000000E+02  0.51100000000E-03 0.  1.
    9900012    2    1    2    0    0 -0.99931567542E-01  0.76227033435E+00  0.89555132155E+00  0.90007722681E+02  0.89999983820E+02 0.  0.
        -12    1    1    2    0    0  0.99931567542E-01 -0.76227033435E+00 -0.89555132155E+00  0.11802773193E+01  0.00000000000E+00 0.  1.
         11    1    3    3    0    0 -0.10484401034E+02 -0.20634971680E+02  0.36957883549E+02  0.43607452093E+02  0.51100000000E-03 0. -1.
        -11    1    3    3    0    0  0.74004440732E+01  0.45338998590E+01 -0.30300056189E+01  0.91925923832E+01  0.51100000000E-03 0.  1.
        -12    1    3    3    0    0  0.29840253936E+01  0.16863342156E+02 -0.33032326609E+02  0.37207678205E+02  0.00000000000E+00 0.  1.
</event>
<event>
 7    1  0.1654239E-015  0.9000773E+02  0.7816164E-02  0.1186339E+00
        -11   -1    0    0    0    0  0.00000000000E+00  0.00000000000E+00  0.45593999997E+02  0.45594000000E+02  0.51100000000E-03 0.  1.
         11   -1    0    0    0    0 -0.00000000000E+00 -0.00000000000E+00 -0.45593999997E+02  0.45594000000E+02  0.51100000000E-03 0. -1.
    9900012    2    1    2    0    0  0.94447763455E+00 -0.20042748777E+00 -0.67883520404E+00  0.90007734600E+02  0.89999995897E+02 0.  0.
        -12    1    1    2    0    0 -0.94447763455E+00  0.20042748777E+00  0.67883520404E+00  0.11802653999E+01  0.00000000000E+00 0.  1.
         11    1    3    3    0    0 -0.32508773083E+02  0.19821056039E+02  0.18343210113E+02  0.42263080193E+02  0.51100000000E-03 0. -1.
        -11    1    3    3    0    0  0.58594994896E+01 -0.45067497466E+01  0.41835346843E+01  0.84939090096E+01  0.51100000000E-03 0.  1.
        -12    1    3    3    0    0  0.27593751228E+02 -0.15514733780E+02 -0.23205580001E+02  0.39250745398E+02  0.00000000000E+00 0.  1.
</event>
<event>
 7    1  0.3398677E-015  0.9000755E+02  0.7816164E-02  0.1186339E+00
        -11   -1    0    0    0    0  0.00000000000E+00  0.00000000000E+00  0.45593999997E+02  0.45594000000E+02  0.51100000000E-03 0. -1.
         11   -1    0    0    0    0 -0.00000000000E+00 -0.00000000000E+00 -0.45593999997E+02  0.45594000000E+02  0.51100000000E-03 0.  1.
    9900012    2    1    2    0    0 -0.40325760482E+00 -0.33749635153E+00  0.10568564129E+01  0.90007548408E+02  0.89999807247E+02 0.  0.
        -12    1    1    2    0    0  0.40325760482E+00  0.33749635153E+00 -0.10568564129E+01  0.11804515918E+01  0.00000000000E+00 0.  1.
         11    1    3    3    0    0 -0.48010161567E+01  0.43549068429E+01 -0.69599732199E+01  0.95108462941E+01  0.51100000000E-03 0. -1.
        -11    1    3    3    0    0  0.87741261412E+01  0.67367953163E+01 -0.34512239353E+02  0.36241748938E+02  0.51100000000E-03 0.  1.
         12    1    3    3    0    0 -0.43763675893E+01 -0.11429198511E+02  0.42529068985E+02  0.44254953176E+02  0.00000000000E+00 0. -1.
</event>
<event>
 7    1  0.1654239E-015  0.9000776E+02  0.7816164E-02  0.1186339E+00
        -11   -1    0    0    0    0  0.00000000000E+00  0.00000000000E+00  0.45593999997E+02  0.45594000000E+02  0.51100000000E-03 0. -1.
         11   -1    0    0    0    0 -0.00000000000E+00 -0.00000000000E+00 -0.45593999997E+02  0.45594000000E+02  0.51100000000E-03 0.  1.
    9900012    2    1    2    0    0  0.89004367707E+00  0.37658666446E+00 -0.67746907922E+00  0.90007762898E+02  0.90000024569E+02 0.  0.
        -12    1    1    2    0    0 -0.89004367707E+00 -0.37658666446E+00  0.67746907922E+00  0.11802371017E+01  0.00000000000E+00 0.  1.
         11    1    3    3    0    0  0.12770912274E+02  0.36568303208E+02  0.17452975345E+02  0.42484624848E+02  0.51100000000E-03 0. -1.
        -11    1    3    3    0    0 -0.71789030304E+01 -0.10624298835E+01 -0.76926927484E+01  0.10575581684E+02  0.51100000000E-03 0.  1.
        -12    1    3    3    0    0 -0.47019655668E+01 -0.35129286660E+02 -0.10437751676E+02  0.36947556366E+02  0.00000000000E+00 0.  1.
</event>
<event>
 7    1  0.1654239E-015  0.9000773E+02  0.7816164E-02  0.1186339E+00
        -11   -1    0    0    0    0  0.00000000000E+00  0.00000000000E+00  0.45593999997E+02  0.45594000000E+02  0.51100000000E-03 0.  1.
         11   -1    0    0    0    0 -0.00000000000E+00 -0.00000000000E+00 -0.45593999997E+02  0.45594000000E+02  0.51100000000E-03 0. -1.
    9900012    2    1    2    0    0  0.11272548600E+01  0.24656208172E+00 -0.24809205335E+00  0.90007726283E+02  0.89999987470E+02 0.  0.
        -12    1    1    2    0    0 -0.11272548600E+01 -0.24656208172E+00  0.24809205335E+00  0.11802737168E+01  0.00000000000E+00 0.  1.
         11    1    3    3    0    0 -0.11736213900E+02  0.34677194721E+02 -0.10865185586E+02  0.38187678753E+02  0.51100000000E-03 0. -1.
        -11    1    3    3    0    0 -0.53080177444E+01  0.11456907059E+01 -0.64042117392E+01  0.83965223652E+01  0.51100000000E-03 0.  1.
        -12    1    3    3    0    0  0.18171486505E+02 -0.35576323346E+02  0.17021305272E+02  0.43423525165E+02  0.00000000000E+00 0.  1.
</event>
<event>
 7    1  0.1654239E-015  0.9000779E+02  0.7816164E-02  0.1186339E+00
        -11   -1    0    0    0    0  0.00000000000E+00  0.00000000000E+00  0.45593999997E+02  0.45594000000E+02  0.51100000000E-03 0. -1.
         11   -1    0    0    0    0 -0.00000000000E+00 -0.00000000000E+00 -0.45593999997E+02  0.45594000000E+02  0.51100000000E-03 0.  1.
    9900012    2    1    2    0    0  0.63723133778E+00 -0.98453798659E+00  0.13230779361E+00  0.90007794858E+02  0.90000056950E+02 0.  0.
        -12    1    1    2    0    0 -0.63723133778E+00  0.98453798659E+00 -0.13230779361E+00  0.11802051420E+01  0.00000000000E+00 0.  1.
         11    1    3    3    0    0 -0.93962486393E+01  0.10939967544E+00 -0.15921695295E+01  0.95308163791E+01  0.51100000000E-03 0. -1.
        -11    1    3    3    0    0  0.19594378308E+02  0.15398195885E+02 -0.32707788398E+02  0.41119867704E+02  0.51100000000E-03 0.  1.
         12    1    3    3    0    0 -0.95608983310E+01 -0.16492133547E+02  0.34432265722E+02  0.39357110775E+02  0.00000000000E+00 0. -1.
</event>
<event>
 7    1  0.1654239E-015  0.9000775E+02  0.7816164E-02  0.1186339E+00
        -11   -1    0    0    0    0  0.00000000000E+00  0.00000000000E+00  0.45593999997E+02  0.45594000000E+02  0.51100000000E-03 0. -1.
         11   -1    0    0    0    0 -0.00000000000E+00 -0.00000000000E+00 -0.45593999997E+02  0.45594000000E+02  0.51100000000E-03 0.  1.
    9900012    2    1    2    0    0 -0.79265343033E+00  0.85523280830E+00  0.18240307729E+00  0.90007748544E+02  0.90000010025E+02 0.  0.
        -12    1    1    2    0    0  0.79265343033E+00 -0.85523280830E+00 -0.18240307729E+00  0.11802514561E+01  0.00000000000E+00 0.  1.
         11    1    3    3    0    0 -0.51260755057E+01  0.85555971412E+01  0.37994606346E+00  0.99809444345E+01  0.51100000000E-03 0. -1.
        -11    1    3    3    0    0 -0.48313152299E+01  0.14870836565E+01 -0.38889493104E+02  0.39216650785E+02  0.51100000000E-03 0.  1.
         12    1    3    3    0    0  0.91647373052E+01 -0.91874479894E+01  0.38691950118E+02  0.40810153324E+02  0.00000000000E+00 0. -1.
</event>
<event>
 7    1  0.1654239E-015  0.9000785E+02  0.7816164E-02  0.1186339E+00
        -11   -1    0    0    0    0  0.00000000000E+00  0.00000000000E+00  0.45593999997E+02  0.45594000000E+02  0.51100000000E-03 0. -1.
         11   -1    0    0    0    0 -0.00000000000E+00 -0.00000000000E+00 -0.45593999997E+02  0.45594000000E+02  0.51100000000E-03 0.  1.
    9900012    2    1    2    0    0 -0.95750455205E+00 -0.63043175388E+00 -0.28018340339E+00  0.90007846661E+02  0.90000109437E+02 0.  0.
        -12    1    1    2    0    0  0.95750455205E+00  0.63043175388E+00  0.28018340339E+00  0.11801533388E+01  0.00000000000E+00 0.  1.
         11    1    3    3    0    0 -0.89724696000E+01 -0.33319475089E+02  0.22394770792E+02  0.41136582138E+02  0.51100000000E-03 0. -1.
        -11    1    3    3    0    0  0.61813443746E+01 -0.31359950918E+01 -0.65687447361E+01  0.95494445473E+01  0.51100000000E-03 0.  1.
        -12    1    3    3    0    0  0.18336206734E+01  0.35825038427E+02 -0.16106209460E+02  0.39321819976E+02  0.00000000000E+00 0.  1.
</event>
<event>
 7    1  0.1654239E-015  0.9000773E+02  0.7816164E-02  0.1186339E+00
        -11   -1    0    0    0    0  0.00000000000E+00  0.00000000000E+00  0.45593999997E+02  0.45594000000E+02  0.51100000000E-03 0.  1.
         11   -1    0    0    0    0 -0.00000000000E+00 -0.00000000000E+00 -0.45593999997E+02  0.45594000000E+02  0.51100000000E-03 0. -1.
    9900012    2    1    2    0    0  0.90171548162E+00  0.27055939917E+00 -0.71185421065E+00  0.90007733244E+02  0.89999994523E+02 0.  0.
        -12    1    1    2    0    0 -0.90171548162E+00 -0.27055939917E+00  0.71185421065E+00  0.11802667561E+01  0.00000000000E+00 0.  1.
         11    1    3    3    0    0  0.20421802935E+02 -0.30396555769E+02 -0.12418360372E+02  0.38668027003E+02  0.51100000000E-03 0. -1.
        -11    1    3    3    0    0 -0.36465237742E+01 -0.47136450960E+01 -0.62235186994E+01  0.86167146286E+01  0.51100000000E-03 0.  1.
        -12    1    3    3    0    0 -0.15873563679E+02  0.35380760264E+02  0.17930024861E+02  0.42722991612E+02  0.00000000000E+00 0.  1.
</event>
<event>
 7    1  0.1654239E-015  0.9000778E+02  0.7816164E-02  0.1186339E+00
        -11   -1    0    0    0    0  0.00000000000E+00  0.00000000000E+00  0.45593999997E+02  0.45594000000E+02  0.51100000000E-03 0.  1.
         11   -1    0    0    0    0 -0.00000000000E+00 -0.00000000000E+00 -0.45593999997E+02  0.45594000000E+02  0.51100000000E-03 0. -1.
    9900012    2    1    2    0    0 -0.28834846537E+00 -0.47606790280E+00 -0.10407400780E+01  0.90007777396E+02  0.90000039257E+02 0.  0.
        -12    1    1    2    0    0  0.28834846537E+00  0.47606790280E+00  0.10407400780E+01  0.11802226042E+01  0.00000000000E+00 0.  1.
         11    1    3    3    0    0 -0.14845308163E+02  0.13818296379E+02 -0.30397150442E+02  0.36541965526E+02  0.51100000000E-03 0. -1.
        -11    1    3    3    0    0  0.50258323818E+01  0.22646910465E+01 -0.90344190360E+01  0.10583408914E+02  0.51100000000E-03 0.  1.
        -12    1    3    3    0    0  0.95311273158E+01 -0.16559055328E+02  0.38390829400E+02  0.42882402956E+02  0.00000000000E+00 0.  1.
</event>
<event>
 7    1  0.1654239E-015  0.9000807E+02  0.7816164E-02  0.1186338E+00
        -11   -1    0    0    0    0  0.00000000000E+00  0.00000000000E+00  0.45593999997E+02  0.45594000000E+02  0.51100000000E-03 0.  1.
         11   -1    0    0    0    0 -0.00000000000E+00 -0.00000000000E+00 -0.45593999997E+02  0.45594000000E+02  0.51100000000E-03 0. -1.
    9900012    2    1    2    0    0 -0.35260047774E+00  0.87981595910E+00 -0.70272720598E+00  0.90008072568E+02  0.90000338325E+02 0.  0.
        -12    1    1    2    0    0  0.35260047774E+00 -0.87981595910E+00  0.70272720598E+00  0.11799274320E+01  0.00000000000E+00 0.  1.
         11    1    3    3    0    0 -0.34179837495E+02  0.73606574267E+01 -0.15464222469E+02  0.38230651914E+02  0.51100000000E-03 0. -1.
        -11    1    3    3    0    0 -0.30078171189E+01 -0.11300639038E+02 -0.28336141492E+00  0.11697508300E+02  0.51100000000E-03 0.  1.
        -12    1    3    3    0    0  0.36835054136E+02  0.48197975703E+01  0.15044856678E+02  0.40079912354E+02  0.00000000000E+00 0.  1.
</event>
<event>
 7    1  0.1654239E-015  0.9000779E+02  0.7816164E-02  0.1186339E+00
        -11   -1    0    0    0    0  0.00000000000E+00  0.00000000000E+00  0.45593999997E+02  0.45594000000E+02  0.51100000000E-03 0.  1.
         11   -1    0    0    0    0 -0.00000000000E+00 -0.00000000000E+00 -0.45593999997E+02  0.45594000000E+02  0.51100000000E-03 0. -1.
    9900012    2    1    2    0    0 -0.65525860638E+00  0.98132368260E+00 -0.23268086278E-01  0.90007787555E+02  0.90000049551E+02 0.  0.
        -12    1    1    2    0    0  0.65525860638E+00 -0.98132368260E+00  0.23268086279E-01  0.11802124449E+01  0.00000000000E+00 0.  1.
         11    1    3    3    0    0 -0.16701374310E+01 -0.14755513426E+01 -0.83104491083E+01  0.86040790005E+01  0.51100000000E-03 0. -1.
        -11    1    3    3    0    0 -0.18442374311E+02 -0.31360080085E+02  0.18863502587E+02  0.40980574951E+02  0.51100000000E-03 0.  1.
         12    1    3    3    0    0  0.19457253136E+02  0.33816955110E+02 -0.10576321565E+02  0.40423133604E+02  0.00000000000E+00 0. -1.
</event>
<event>
 7    1  0.1654239E-015  0.9000780E+02  0.7816164E-02  0.1186339E+00
        -11   -1    0    0    0    0  0.00000000000E+00  0.00000000000E+00  0.45593999997E+02  0.45594000000E+02  0.51100000000E-03 0.  1.
         11   -1    0    0    0    0 -0.00000000000E+00 -0.00000000000E+00 -0.45593999997E+02  0.45594000000E+02  0.51100000000E-03 0. -1.
    9900012    2    1    2    0    0 -0.41088227941E+00  0.58713549289E+00  0.93771565253E+00  0.90007803839E+02  0.90000066049E+02 0.  0.
        -12    1    1    2    0    0  0.41088227941E+00 -0.58713549289E+00 -0.93771565253E+00  0.11801961615E+01  0.00000000000E+00 0.  1.
         11    1    3    3    0    0  0.22674726907E+01 -0.13794217548E+02 -0.19985202806E+02  0.24389141059E+02  0.51100000000E-03 0. -1.
        -11    1    3    3    0    0 -0.29264523781E+02  0.16279737783E+02  0.32658875305E+01  0.33646816135E+02  0.51100000000E-03 0.  1.
         12    1    3    3    0    0  0.26586168811E+02 -0.18983847423E+01  0.17657030928E+02  0.31971846644E+02  0.00000000000E+00 0. -1.
</event>
<event>
 7    1  0.1654239E-015  0.9000771E+02  0.7816164E-02  0.1186339E+00
        -11   -1    0    0    0    0  0.00000000000E+00  0.00000000000E+00  0.45593999997E+02  0.45594000000E+02  0.51100000000E-03 0. -1.
         11   -1    0    0    0    0 -0.00000000000E+00 -0.00000000000E+00 -0.45593999997E+02  0.45594000000E+02  0.51100000000E-03 0.  1.
    9900012    2    1    2    0    0  0.20206958754E+00 -0.96393099968E+00 -0.65045915411E+00  0.90007706731E+02  0.89999967660E+02 0.  0.
        -12    1    1    2    0    0 -0.20206958754E+00  0.96393099968E+00  0.65045915411E+00  0.11802932693E+01  0.00000000000E+00 0.  1.
         11    1    3    3    0    0  0.69104327063E+01 -0.22553964702E+00  0.60758326735E+01  0.92043843498E+01  0.51100000000E-03 0. -1.
        -11    1    3    3    0    0  0.32593206946E+02 -0.12500029288E+02 -0.16530682700E+02  0.38624232575E+02  0.51100000000E-03 0.  1.
         12    1    3    3    0    0 -0.39301570065E+02  0.11761637935E+02  0.98043908726E+01  0.42179089806E+02  0.00000000000E+00 0. -1.
</event>
<event>
 7    1  0.1654239E-015  0.9000770E+02  0.7816164E-02  0.1186339E+00
        -11   -1    0    0    0    0  0.00000000000E+00  0.00000000000E+00  0.45593999997E+02  0.45594000000E+02  0.51100000000E-03 0. -1.
         11   -1    0    0    0    0 -0.00000000000E+00 -0.00000000000E+00 -0.45593999997E+02  0.45594000000E+02  0.51100000000E-03 0.  1.
    9900012    2    1    2    0    0 -0.11013175176E+00  0.11421717217E+01 -0.27645531820E+00  0.90007698010E+02  0.89999958824E+02 0.  0.
        -12    1    1    2    0    0  0.11013175176E+00 -0.11421717217E+01  0.27645531820E+00  0.11803019900E+01  0.00000000000E+00 0.  1.
         11    1    3    3    0    0 -0.21974993110E+02 -0.33502891958E+02  0.40287100913E+01  0.40268779433E+02  0.51100000000E-03 0. -1.
        -11    1    3    3    0    0  0.81693265436E+01  0.12531281584E+01  0.81027258480E+01  0.11574212405E+02  0.51100000000E-03 0.  1.
        -12    1    3    3    0    0  0.13695534815E+02  0.33391935522E+02 -0.12407891258E+02  0.38164706172E+02  0.00000000000E+00 0.  1.
</event>
<event>
 7    1  0.1654239E-015  0.9000764E+02  0.7816164E-02  0.1186339E+00
        -11   -1    0    0    0    0  0.00000000000E+00  0.00000000000E+00  0.45593999997E+02  0.45594000000E+02  0.51100000000E-03 0.  1.
         11   -1    0    0    0    0 -0.00000000000E+00 -0.00000000000E+00 -0.45593999997E+02  0.45594000000E+02  0.51100000000E-03 0. -1.
    9900012    2    1    2    0    0 -0.72371838448E+00  0.15757680990E+00 -0.91905326563E+00  0.90007636642E+02  0.89999896646E+02 0.  0.
        -12    1    1    2    0    0  0.72371838448E+00 -0.15757680990E+00  0.91905326563E+00  0.11803633577E+01  0.00000000000E+00 0.  1.
         11    1    3    3    0    0 -0.13424167310E+02  0.32283127411E+02  0.23078715891E+01  0.35039047574E+02  0.51100000000E-03 0. -1.
        -11    1    3    3    0    0  0.51581827798E+01  0.63366126127E+01  0.10620389032E+02  0.13399707924E+02  0.51100000000E-03 0.  1.
        -12    1    3    3    0    0  0.75422661452E+01 -0.38462163214E+02 -0.13847313887E+02  0.41568881144E+02  0.00000000000E+00 0.  1.
</event>
<event>
 7    1  0.1654239E-015  0.9000775E+02  0.7816164E-02  0.1186339E+00
        -11   -1    0    0    0    0  0.00000000000E+00  0.00000000000E+00  0.45593999997E+02  0.45594000000E+02  0.51100000000E-03 0.  1.
         11   -1    0    0    0    0 -0.00000000000E+00 -0.00000000000E+00 -0.45593999997E+02  0.45594000000E+02  0.51100000000E-03 0. -1.
    9900012    2    1    2    0    0 -0.84553611411E+00 -0.68481745488E+00  0.45726815992E+00  0.90007745605E+02  0.90000007047E+02 0.  0.
        -12    1    1    2    0    0  0.84553611411E+00  0.68481745488E+00 -0.45726815992E+00  0.11802543950E+01  0.00000000000E+00 0.  1.
         11    1    3    3    0    0 -0.19539660427E+01 -0.99208596116E+01  0.19114362419E+01  0.10290530963E+02  0.51100000000E-03 0. -1.
        -11    1    3    3    0    0  0.10349128371E+02 -0.39527436406E+01  0.36683042440E+02  0.38319371644E+02  0.51100000000E-03 0.  1.
         12    1    3    3    0    0 -0.92406984422E+01  0.13188785797E+02 -0.38137210522E+02  0.41397842998E+02  0.00000000000E+00 0. -1.
</event>
<event>
 7    1  0.1654239E-015  0.9000867E+02  0.7816164E-02  0.1186337E+00
        -11   -1    0    0    0    0  0.00000000000E+00  0.00000000000E+00  0.45593999997E+02  0.45594000000E+02  0.51100000000E-03 0. -1.
         11   -1    0    0    0    0 -0.00000000000E+00 -0.00000000000E+00 -0.45593999997E+02  0.45594000000E+02  0.51100000000E-03 0.  1.
    9900012    2    1    2    0    0 -0.58908221687E+00 -0.10013821812E+01  0.20256356244E+00  0.90008671323E+02  0.90000944980E+02 0.  0.
        -12    1    1    2    0    0  0.58908221687E+00  0.10013821812E+01 -0.20256356244E+00  0.11793286768E+01  0.00000000000E+00 0.  1.
         11    1    3    3    0    0 -0.35502869385E+02  0.20777314820E+01  0.11874412271E+02  0.37493631055E+02  0.51100000000E-03 0. -1.
        -11    1    3    3    0    0 -0.24866286785E+01 -0.57925225454E+01  0.79875911816E+01  0.10175374822E+02  0.51100000000E-03 0.  1.
        -12    1    3    3    0    0  0.37400415846E+02  0.27134088823E+01 -0.19659439891E+02  0.42339665446E+02  0.00000000000E+00 0.  1.
</event>
<event>
 7    1  0.1654239E-015  0.9000773E+02  0.7816164E-02  0.1186339E+00
        -11   -1    0    0    0    0  0.00000000000E+00  0.00000000000E+00  0.45593999997E+02  0.45594000000E+02  0.51100000000E-03 0.  1.
         11   -1    0    0    0    0 -0.00000000000E+00 -0.00000000000E+00 -0.45593999997E+02  0.45594000000E+02  0.51100000000E-03 0. -1.
    9900012    2    1    2    0    0  0.95434857701E+00 -0.23108557180E+00 -0.65486228982E+00  0.90007734620E+02  0.89999995917E+02 0.  0.
        -12    1    1    2    0    0 -0.95434857701E+00  0.23108557180E+00  0.65486228982E+00  0.11802653797E+01  0.00000000000E+00 0.  1.
         11    1    3    3    0    0 -0.36189601304E+02 -0.35794003172E+01 -0.17275865822E+02  0.40261084055E+02  0.51100000000E-03 0. -1.
        -11    1    3    3    0    0  0.45648657178E+01 -0.99415016327E+01  0.25802283772E+00  0.10942487367E+02  0.51100000000E-03 0.  1.
        -12    1    3    3    0    0  0.32579084163E+02  0.13289816378E+02  0.16362980694E+02  0.38804163198E+02  0.00000000000E+00 0.  1.
</event>
<event>
 7    1  0.1654239E-015  0.9000764E+02  0.7816164E-02  0.1186339E+00
        -11   -1    0    0    0    0  0.00000000000E+00  0.00000000000E+00  0.45593999997E+02  0.45594000000E+02  0.51100000000E-03 0.  1.
         11   -1    0    0    0    0 -0.00000000000E+00 -0.00000000000E+00 -0.45593999997E+02  0.45594000000E+02  0.51100000000E-03 0. -1.
    9900012    2    1    2    0    0 -0.72465292425E+00 -0.91478422201E+00 -0.17694237993E+00  0.90007635379E+02  0.89999895366E+02 0.  0.
        -12    1    1    2    0    0  0.72465292425E+00  0.91478422201E+00  0.17694237993E+00  0.11803646213E+01  0.00000000000E+00 0.  1.
         11    1    3    3    0    0  0.11691219918E+02 -0.52450867443E+00  0.21129978981E+01  0.11892203029E+02  0.51100000000E-03 0. -1.
        -11    1    3    3    0    0 -0.12454143330E+02 -0.38170495857E+02  0.12450751491E+01  0.40170171178E+02  0.51100000000E-03 0.  1.
         12    1    3    3    0    0  0.38270488574E-01  0.37780220310E+02 -0.35350154271E+01  0.37945261171E+02  0.00000000000E+00 0. -1.
</event>
<event>
 7    1  0.1654239E-015  0.9000776E+02  0.7816164E-02  0.1186339E+00
        -11   -1    0    0    0    0  0.00000000000E+00  0.00000000000E+00  0.45593999997E+02  0.45594000000E+02  0.51100000000E-03 0.  1.
         11   -1    0    0    0    0 -0.00000000000E+00 -0.00000000000E+00 -0.45593999997E+02  0.45594000000E+02  0.51100000000E-03 0. -1.
    9900012    2    1    2    0    0 -0.54683745688E+00  0.52881180256E+00  0.90237623960E+00  0.90007764428E+02  0.90000026119E+02 0.  0.
        -12    1    1    2    0    0  0.54683745688E+00 -0.52881180256E+00 -0.90237623960E+00  0.11802355716E+01  0.00000000000E+00 0.  1.
         11    1    3    3    0    0  0.15658900963E+01 -0.59534879227E+01 -0.74782713836E+01  0.96861020739E+01  0.51100000000E-03 0. -1.
        -11    1    3    3    0    0 -0.27640732046E+02 -0.23019445329E+02  0.17878463204E+02  0.40168947933E+02  0.51100000000E-03 0.  1.
         12    1    3    3    0    0  0.25528004493E+02  0.29501745054E+02 -0.94978155805E+01  0.40152714421E+02  0.00000000000E+00 0. -1.
</event>
<event>
 7    1  0.1654239E-015  0.9000774E+02  0.7816164E-02  0.1186339E+00
        -11   -1    0    0    0    0  0.00000000000E+00  0.00000000000E+00  0.45593999997E+02  0.45594000000E+02  0.51100000000E-03 0.  1.
         11   -1    0    0    0    0 -0.00000000000E+00 -0.00000000000E+00 -0.45593999997E+02  0.45594000000E+02  0.51100000000E-03 0. -1.
    9900012    2    1    2    0    0  0.13944067357E+00 -0.40027709261E+00 -0.11015212636E+01  0.90007739628E+02  0.90000000991E+02 0.  0.
        -12    1    1    2    0    0 -0.13944067357E+00  0.40027709261E+00  0.11015212636E+01  0.11802603724E+01  0.00000000000E+00 0.  1.
         11    1    3    3    0    0 -0.74741951572E+01 -0.98016318701E+01 -0.10871501999E+02  0.16435484067E+02  0.51100000000E-03 0. -1.
        -11    1    3    3    0    0 -0.29905830461E+02  0.16039037729E+02  0.10307952961E+02  0.35466368877E+02  0.51100000000E-03 0.  1.
         12    1    3    3    0    0  0.37519466292E+02 -0.66376829511E+01 -0.53797222591E+00  0.38105886683E+02  0.00000000000E+00 0. -1.
</event>
<event>
 7    1  0.1654239E-015  0.9000749E+02  0.7816164E-02  0.1186340E+00
        -11   -1    0    0    0    0  0.00000000000E+00  0.00000000000E+00  0.45593999997E+02  0.45594000000E+02  0.51100000000E-03 0.  1.
         11   -1    0    0    0    0 -0.00000000000E+00 -0.00000000000E+00 -0.45593999997E+02  0.45594000000E+02  0.51100000000E-03 0. -1.
    9900012    2    1    2    0    0  0.62155009957E+00 -0.56651355259E+00 -0.82846308808E+00  0.90007486036E+02  0.89999744051E+02 0.  0.
        -12    1    1    2    0    0 -0.62155009957E+00  0.56651355259E+00  0.82846308808E+00  0.11805139643E+01  0.00000000000E+00 0.  1.
         11    1    3    3    0    0 -0.15910692064E+02 -0.27211610563E+01  0.36139730628E+02  0.39580739881E+02  0.51100000000E-03 0. -1.
        -11    1    3    3    0    0  0.67614401156E+01 -0.62974950604E+01  0.19299348680E+01  0.94392883910E+01  0.51100000000E-03 0.  1.
        -12    1    3    3    0    0  0.97708020476E+01  0.84521425641E+01 -0.38898128584E+02  0.40987457763E+02  0.00000000000E+00 0.  1.
</event>
<event>
 7    1  0.1654239E-015  0.9000738E+02  0.7816164E-02  0.1186340E+00
        -11   -1    0    0    0    0  0.00000000000E+00  0.00000000000E+00  0.45593999997E+02  0.45594000000E+02  0.51100000000E-03 0. -1.
         11   -1    0    0    0    0 -0.00000000000E+00 -0.00000000000E+00 -0.45593999997E+02  0.45594000000E+02  0.51100000000E-03 0.  1.
    9900012    2    1    2    0    0 -0.59445080138E+00 -0.48670681834E+00  0.89644089348E+00  0.90007380858E+02  0.89999637485E+02 0.  0.
        -12    1    1    2    0    0  0.59445080138E+00  0.48670681834E+00 -0.89644089348E+00  0.11806191417E+01  0.00000000000E+00 0.  1.
         11    1    3    3    0    0  0.37177513426E+01  0.30374536811E+01 -0.18064712128E+02  0.18691752846E+02  0.51100000000E-03 0. -1.
        -11    1    3    3    0    0  0.20371055918E+02 -0.16173028321E+02 -0.12933245517E+02  0.29048504336E+02  0.51100000000E-03 0.  1.
         12    1    3    3    0    0 -0.24683258062E+02  0.12648867822E+02  0.31894398539E+02  0.42267123676E+02  0.00000000000E+00 0. -1.
</event>
<event>
 7    1  0.1654239E-015  0.9000764E+02  0.7816164E-02  0.1186339E+00
        -11   -1    0    0    0    0  0.00000000000E+00  0.00000000000E+00  0.45593999997E+02  0.45594000000E+02  0.51100000000E-03 0.  1.
         11   -1    0    0    0    0 -0.00000000000E+00 -0.00000000000E+00 -0.45593999997E+02  0.45594000000E+02  0.51100000000E-03 0. -1.
    9900012    2    1    2    0    0 -0.11164104799E+01 -0.15261560432E+00 -0.35156453291E+00  0.90007635013E+02  0.89999894995E+02 0.  0.
        -12    1    1    2    0    0  0.11164104799E+01  0.15261560432E+00  0.35156453291E+00  0.11803649873E+01  0.00000000000E+00 0.  1.
         11    1    3    3    0    0 -0.21923008882E+02 -0.25172226682E+02 -0.17259186871E+02  0.37578435921E+02  0.51100000000E-03 0. -1.
        -11    1    3    3    0    0 -0.81482892284E+01 -0.26290248321E+01  0.73135287777E+01  0.11260288289E+02  0.51100000000E-03 0.  1.
        -12    1    3    3    0    0  0.28954887631E+02  0.27648635910E+02  0.95940935600E+01  0.41168910802E+02  0.00000000000E+00 0.  1.
</event>
<event>
 7    1  0.1654239E-015  0.9000771E+02  0.7816164E-02  0.1186339E+00
        -11   -1    0    0    0    0  0.00000000000E+00  0.00000000000E+00  0.45593999997E+02  0.45594000000E+02  0.51100000000E-03 0.  1.
         11   -1    0    0    0    0 -0.00000000000E+00 -0.00000000000E+00 -0.45593999997E+02  0.45594000000E+02  0.51100000000E-03 0. -1.
    9900012    2    1    2    0    0  0.59642381959E+00 -0.63984597157E+00 -0.79244342017E+00  0.90007707318E+02  0.89999968255E+02 0.  0.
        -12    1    1    2    0    0 -0.59642381959E+00  0.63984597157E+00  0.79244342017E+00  0.11802926815E+01  0.00000000000E+00 0.  1.
         11    1    3    3    0    0 -0.15997373727E+02 -0.57906827428E+00 -0.40648605739E+02  0.43687074004E+02  0.51100000000E-03 0. -1.
        -11    1    3    3    0    0 -0.28101382708E+01 -0.37574879654E+00  0.12262925912E+02  0.12586398072E+02  0.51100000000E-03 0.  1.
        -12    1    3    3    0    0  0.19403935818E+02  0.31497109924E+00  0.27593236407E+02  0.33734235243E+02  0.00000000000E+00 0.  1.
</event>
<event>
 7    1  0.1654239E-015  0.9000779E+02  0.7816164E-02  0.1186339E+00
        -11   -1    0    0    0    0  0.00000000000E+00  0.00000000000E+00  0.45593999997E+02  0.45594000000E+02  0.51100000000E-03 0.  1.
         11   -1    0    0    0    0 -0.00000000000E+00 -0.00000000000E+00 -0.45593999997E+02  0.45594000000E+02  0.51100000000E-03 0. -1.
    9900012    2    1    2    0    0 -0.67273640194E+00 -0.36610415219E+00 -0.89792966738E+00  0.90007794847E+02  0.90000056938E+02 0.  0.
        -12    1    1    2    0    0  0.67273640194E+00  0.36610415219E+00  0.89792966738E+00  0.11802051535E+01  0.00000000000E+00 0.  1.
         11    1    3    3    0    0 -0.12717031052E+02  0.10790573722E+02  0.14074665461E+01  0.16737392938E+02  0.51100000000E-03 0. -1.
        -11    1    3    3    0    0 -0.15869013886E+02 -0.28390300895E+02  0.15407311746E+02  0.35989165622E+02  0.51100000000E-03 0.  1.
         12    1    3    3    0    0  0.27913308535E+02  0.17233623021E+02 -0.17712707960E+02  0.37281236287E+02  0.00000000000E+00 0. -1.
</event>
<event>
 7    1  0.1654239E-015  0.9000767E+02  0.7816164E-02  0.1186339E+00
        -11   -1    0    0    0    0  0.00000000000E+00  0.00000000000E+00  0.45593999997E+02  0.45594000000E+02  0.51100000000E-03 0.  1.
         11   -1    0    0    0    0 -0.00000000000E+00 -0.00000000000E+00 -0.45593999997E+02  0.45594000000E+02  0.51100000000E-03 0. -1.
    9900012    2    1    2    0    0  0.27210174226E+00 -0.99118025025E+00 -0.58026059932E+00  0.90007669534E+02  0.89999929971E+02 0.  0.
        -12    1    1    2    0    0 -0.27210174226E+00  0.99118025025E+00  0.58026059932E+00  0.11803304663E+01  0.00000000000E+00 0.  1.
         11    1    3    3    0    0 -0.43449441918E+01  0.41830597431E+02  0.19345736499E+01  0.42100118728E+02  0.51100000000E-03 0. -1.
        -11    1    3    3    0    0 -0.51886183934E+01 -0.56954854829E+01  0.44268116825E+01  0.88857738915E+01  0.51100000000E-03 0.  1.
        -12    1    3    3    0    0  0.98056643274E+01 -0.37126292198E+02 -0.69416459317E+01  0.39021776914E+02  0.00000000000E+00 0.  1.
</event>
<event>
 7    1  0.1654239E-015  0.9000778E+02  0.7816164E-02  0.1186339E+00
        -11   -1    0    0    0    0  0.00000000000E+00  0.00000000000E+00  0.45593999997E+02  0.45594000000E+02  0.51100000000E-03 0.  1.
         11   -1    0    0    0    0 -0.00000000000E+00 -0.00000000000E+00 -0.45593999997E+02  0.45594000000E+02  0.51100000000E-03 0. -1.
    9900012    2    1    2    0    0  0.18385718373E+00  0.28524780366E+00 -0.11303761197E+01  0.90007779705E+02  0.90000041597E+02 0.  0.
        -12    1    1    2    0    0 -0.18385718373E+00 -0.28524780366E+00  0.11303761197E+01  0.11802202953E+01  0.00000000000E+00 0.  1.
         11    1    3    3    0    0  0.25915640154E+02 -0.12703203101E+00 -0.31273261659E+02  0.40615925901E+02  0.51100000000E-03 0. -1.
        -11    1    3    3    0    0  0.38360155490E+01  0.73765571341E+01  0.36308472552E+01  0.90725775001E+01  0.51100000000E-03 0.  1.
        -12    1    3    3    0    0 -0.29567798520E+02 -0.69642772994E+01  0.26512038285E+02  0.40319276303E+02  0.00000000000E+00 0.  1.
</event>
<event>
 7    1  0.1654239E-015  0.9000775E+02  0.7816164E-02  0.1186339E+00
        -11   -1    0    0    0    0  0.00000000000E+00  0.00000000000E+00  0.45593999997E+02  0.45594000000E+02  0.51100000000E-03 0.  1.
         11   -1    0    0    0    0 -0.00000000000E+00 -0.00000000000E+00 -0.45593999997E+02  0.45594000000E+02  0.51100000000E-03 0. -1.
    9900012    2    1    2    0    0 -0.96953251462E+00  0.54941208420E+00 -0.38876926207E+00  0.90007750673E+02  0.90000012182E+02 0.  0.
        -12    1    1    2    0    0  0.96953251462E+00 -0.54941208420E+00  0.38876926207E+00  0.11802493272E+01  0.00000000000E+00 0.  1.
         11    1    3    3    0    0  0.20184398849E+02 -0.28492492746E+02 -0.58727118484E+01  0.35407920646E+02  0.51100000000E-03 0. -1.
        -11    1    3    3    0    0 -0.41874486981E+01  0.40058348429E+01  0.20165168652E+02  0.20981312314E+02  0.51100000000E-03 0.  1.
        -12    1    3    3    0    0 -0.16966482665E+02  0.25036069987E+02 -0.14681226066E+02  0.33618517713E+02  0.00000000000E+00 0.  1.
</event>
<event>
 7    1  0.1654239E-015  0.9000778E+02  0.7816164E-02  0.1186339E+00
        -11   -1    0    0    0    0  0.00000000000E+00  0.00000000000E+00  0.45593999997E+02  0.45594000000E+02  0.51100000000E-03 0.  1.
         11   -1    0    0    0    0 -0.00000000000E+00 -0.00000000000E+00 -0.45593999997E+02  0.45594000000E+02  0.51100000000E-03 0. -1.
    9900012    2    1    2    0    0  0.87895733693E+00 -0.64481670264E+00  0.45228252418E+00  0.90007782197E+02  0.90000044122E+02 0.  0.
        -12    1    1    2    0    0 -0.87895733693E+00  0.64481670264E+00 -0.45228252418E+00  0.11802178027E+01  0.00000000000E+00 0.  1.
         11    1    3    3    0    0 -0.68314056241E+01  0.68499412006E+01 -0.69257729486E-01  0.96744299133E+01  0.51100000000E-03 0. -1.
        -11    1    3    3    0    0  0.99092308510E+01  0.15651185330E+02  0.34501764652E+02  0.39160237776E+02  0.51100000000E-03 0.  1.
         12    1    3    3    0    0 -0.21988678899E+01 -0.23145943233E+02 -0.33980224398E+02  0.41173114508E+02  0.00000000000E+00 0. -1.
</event>
<event>
 7    1  0.1654239E-015  0.9000768E+02  0.7816164E-02  0.1186339E+00
        -11   -1    0    0    0    0  0.00000000000E+00  0.00000000000E+00  0.45593999997E+02  0.45594000000E+02  0.51100000000E-03 0. -1.
         11   -1    0    0    0    0 -0.00000000000E+00 -0.00000000000E+00 -0.45593999997E+02  0.45594000000E+02  0.51100000000E-03 0.  1.
    9900012    2    1    2    0    0  0.38758439304E+00  0.27366094208E+00  0.10807592145E+01  0.90007681207E+02  0.89999941799E+02 0.  0.
        -12    1    1    2    0    0 -0.38758439304E+00 -0.27366094208E+00 -0.10807592145E+01  0.11803187928E+01  0.00000000000E+00 0.  1.
         11    1    3    3    0    0  0.11698636042E+02  0.29219879668E+02  0.17031502554E+02  0.35787309658E+02  0.51100000000E-03 0. -1.
        -11    1    3    3    0    0 -0.50459291764E+01  0.96845551648E+01  0.21037167100E+01  0.11121044656E+02  0.51100000000E-03 0.  1.
        -12    1    3    3    0    0 -0.62651224721E+01 -0.38630773890E+02 -0.18054460049E+02  0.43099326893E+02  0.00000000000E+00 0.  1.
</event>
<event>
 7    1  0.1654239E-015  0.9000780E+02  0.7816164E-02  0.1186339E+00
        -11   -1    0    0    0    0  0.00000000000E+00  0.00000000000E+00  0.45593999997E+02  0.45594000000E+02  0.51100000000E-03 0.  1.
         11   -1    0    0    0    0 -0.00000000000E+00 -0.00000000000E+00 -0.45593999997E+02  0.45594000000E+02  0.51100000000E-03 0. -1.
    9900012    2    1    2    0    0  0.44614939072E+00 -0.10241967061E+01  0.38059809977E+00  0.90007795321E+02  0.90000057419E+02 0.  0.
        -12    1    1    2    0    0 -0.44614939072E+00  0.10241967061E+01 -0.38059809977E+00  0.11802046794E+01  0.00000000000E+00 0.  1.
         11    1    3    3    0    0 -0.65322360366E+01  0.44287239448E+01  0.24143809716E+01  0.82530563523E+01  0.51100000000E-03 0. -1.
        -11    1    3    3    0    0 -0.26759172638E+02 -0.60899825655E+00  0.26230800065E+02  0.37476380180E+02  0.51100000000E-03 0.  1.
         12    1    3    3    0    0  0.33737558065E+02 -0.48439223944E+01 -0.28264582937E+02  0.44278358788E+02  0.00000000000E+00 0. -1.
</event>
<event>
 7    1  0.1654239E-015  0.9000789E+02  0.7816164E-02  0.1186339E+00
        -11   -1    0    0    0    0  0.00000000000E+00  0.00000000000E+00  0.45593999997E+02  0.45594000000E+02  0.51100000000E-03 0. -1.
         11   -1    0    0    0    0 -0.00000000000E+00 -0.00000000000E+00 -0.45593999997E+02  0.45594000000E+02  0.51100000000E-03 0.  1.
    9900012    2    1    2    0    0 -0.91600624432E+00  0.29371641629E+00  0.68361462242E+00  0.90007887410E+02  0.90000150724E+02 0.  0.
        -12    1    1    2    0    0  0.91600624432E+00 -0.29371641629E+00 -0.68361462242E+00  0.11801125899E+01  0.00000000000E+00 0.  1.
         11    1    3    3    0    0 -0.23816674508E+02 -0.31857228392E+01  0.29829722413E+02  0.38303983528E+02  0.51100000000E-03 0. -1.
        -11    1    3    3    0    0 -0.48255406530E+01 -0.50633004090E+01  0.36724934694E+01  0.79000039348E+01  0.51100000000E-03 0.  1.
        -12    1    3    3    0    0  0.27726208917E+02  0.85427396645E+01 -0.32818601260E+02  0.43803899947E+02  0.00000000000E+00 0.  1.
</event>
<event>
 7    1  0.1654239E-015  0.9000850E+02  0.7816164E-02  0.1186338E+00
        -11   -1    0    0    0    0  0.00000000000E+00  0.00000000000E+00  0.45593999997E+02  0.45594000000E+02  0.51100000000E-03 0.  1.
         11   -1    0    0    0    0 -0.00000000000E+00 -0.00000000000E+00 -0.45593999997E+02  0.45594000000E+02  0.51100000000E-03 0. -1.
    9900012    2    1    2    0    0  0.49330242664E+00  0.52292669718E+00  0.93510474318E+00  0.90008499896E+02  0.90000771291E+02 0.  0.
        -12    1    1    2    0    0 -0.49330242664E+00 -0.52292669718E+00 -0.93510474318E+00  0.11795001041E+01  0.00000000000E+00 0.  1.
         11    1    3    3    0    0  0.61484445206E+00 -0.28000780139E+02 -0.23901192395E+02  0.36819678438E+02  0.51100000000E-03 0. -1.
        -11    1    3    3    0    0  0.53572537618E+01 -0.79532419271E+00 -0.74651453518E+01  0.92228576821E+01  0.51100000000E-03 0.  1.
        -12    1    3    3    0    0 -0.54787957872E+01  0.29319031029E+02  0.32301442490E+02  0.43965963776E+02  0.00000000000E+00 0.  1.
</event>
<event>
 7    1  0.1654239E-015  0.9000759E+02  0.7816164E-02  0.1186339E+00
        -11   -1    0    0    0    0  0.00000000000E+00  0.00000000000E+00  0.45593999997E+02  0.45594000000E+02  0.51100000000E-03 0. -1.
         11   -1    0    0    0    0 -0.00000000000E+00 -0.00000000000E+00 -0.45593999997E+02  0.45594000000E+02  0.51100000000E-03 0.  1.
    9900012    2    1    2    0    0 -0.54193647875E+00 -0.95503793788E-01  0.10442909571E+01  0.90007593407E+02  0.89999852840E+02 0.  0.
        -12    1    1    2    0    0  0.54193647875E+00  0.95503793788E-01 -0.10442909571E+01  0.11804065930E+01  0.00000000000E+00 0.  1.
         11    1    3    3    0    0  0.32701897288E+02  0.15311169907E+02  0.16000947293E+02  0.39495269649E+02  0.51100000000E-03 0. -1.
        -11    1    3    3    0    0  0.21437013829E+01  0.34648359971E+01 -0.91149084334E+01  0.99840923531E+01  0.51100000000E-03 0.  1.
        -12    1    3    3    0    0 -0.35387535149E+02 -0.18871509698E+02 -0.58417479023E+01  0.40528231405E+02  0.00000000000E+00 0.  1.
</event>
<event>
 7    1  0.1654239E-015  0.9000774E+02  0.7816164E-02  0.1186339E+00
        -11   -1    0    0    0    0  0.00000000000E+00  0.00000000000E+00  0.45593999997E+02  0.45594000000E+02  0.51100000000E-03 0. -1.
         11   -1    0    0    0    0 -0.00000000000E+00 -0.00000000000E+00 -0.45593999997E+02  0.45594000000E+02  0.51100000000E-03 0.  1.
    9900012    2    1    2    0    0 -0.28238805980E+00 -0.13407712102E+00  0.11381065811E+01  0.90007743129E+02  0.90000004539E+02 0.  0.
        -12    1    1    2    0    0  0.28238805980E+00  0.13407712102E+00 -0.11381065811E+01  0.11802568706E+01  0.00000000000E+00 0.  1.
         11    1    3    3    0    0  0.19715018501E+02  0.23576908226E+01  0.35975375413E+02  0.41090975856E+02  0.51100000000E-03 0. -1.
        -11    1    3    3    0    0  0.65514227843E+01  0.30371606679E+01 -0.72824126652E+01  0.10255682323E+02  0.51100000000E-03 0.  1.
        -12    1    3    3    0    0 -0.26548829345E+02 -0.55289286116E+01 -0.27554856166E+02  0.38661084950E+02  0.00000000000E+00 0.  1.
</event>
<event>
 7    1  0.1654239E-015  0.9000796E+02  0.7816164E-02  0.1186339E+00
        -11   -1    0    0    0    0  0.00000000000E+00  0.00000000000E+00  0.45593999997E+02  0.45594000000E+02  0.51100000000E-03 0.  1.
         11   -1    0    0    0    0 -0.00000000000E+00 -0.00000000000E+00 -0.45593999997E+02  0.45594000000E+02  0.51100000000E-03 0. -1.
    9900012    2    1    2    0    0 -0.65567111275E+00  0.47936356209E+00 -0.85603493877E+00  0.90007961929E+02  0.90000226226E+02 0.  0.
        -12    1    1    2    0    0  0.65567111275E+00 -0.47936356209E+00  0.85603493877E+00  0.11800380711E+01  0.00000000000E+00 0.  1.
         11    1    3    3    0    0  0.10980336817E+02  0.54885201259E+01  0.58597807291E+01  0.13602524775E+02  0.51100000000E-03 0. -1.
        -11    1    3    3    0    0  0.84121497762E+01  0.32282645666E+02 -0.68956219167E+01  0.34065863807E+02  0.51100000000E-03 0.  1.
         12    1    3    3    0    0 -0.20048157706E+02 -0.37291802230E+02  0.17980624878E+00  0.42339573347E+02  0.00000000000E+00 0. -1.
</event>
<event>
 7    1  0.1654239E-015  0.9000772E+02  0.7816164E-02  0.1186339E+00
        -11   -1    0    0    0    0  0.00000000000E+00  0.00000000000E+00  0.45593999997E+02  0.45594000000E+02  0.51100000000E-03 0. -1.
         11   -1    0    0    0    0 -0.00000000000E+00 -0.00000000000E+00 -0.45593999997E+02  0.45594000000E+02  0.51100000000E-03 0.  1.
    9900012    2    1    2    0    0  0.31597184554E+00  0.81647873839E+00 -0.79157407999E+00  0.90007718143E+02  0.89999979223E+02 0.  0.
        -12    1    1    2    0    0 -0.31597184554E+00 -0.81647873839E+00  0.79157407999E+00  0.11802818568E+01  0.00000000000E+00 0.  1.
         11    1    3    3    0    0 -0.55381782742E+00 -0.53523357361E+00  0.76713572486E+01  0.77099229218E+01  0.51100000000E-03 0. -1.
        -11    1    3    3    0    0  0.36165748238E+02  0.20091902138E+02  0.35703242863E+00  0.41373582750E+02  0.51100000000E-03 0.  1.
         12    1    3    3    0    0 -0.35295958565E+02 -0.18740189826E+02 -0.88199637572E+01  0.40924212472E+02  0.00000000000E+00 0. -1.
</event>
<event>
 7    1  0.1654239E-015  0.9000776E+02  0.7816164E-02  0.1186339E+00
        -11   -1    0    0    0    0  0.00000000000E+00  0.00000000000E+00  0.45593999997E+02  0.45594000000E+02  0.51100000000E-03 0.  1.
         11   -1    0    0    0    0 -0.00000000000E+00 -0.00000000000E+00 -0.45593999997E+02  0.45594000000E+02  0.51100000000E-03 0. -1.
    9900012    2    1    2    0    0 -0.77459534019E+00 -0.36653686617E+00 -0.81155226873E+00  0.90007760914E+02  0.90000022558E+02 0.  0.
        -12    1    1    2    0    0  0.77459534019E+00  0.36653686617E+00  0.81155226873E+00  0.11802390860E+01  0.00000000000E+00 0.  1.
         11    1    3    3    0    0 -0.38675615785E+02  0.73714174572E+01 -0.13311133289E+02  0.41561127527E+02  0.51100000000E-03 0. -1.
        -11    1    3    3    0    0  0.53122134249E+01  0.76623045721E+01 -0.21008664256E+01  0.95574140240E+01  0.51100000000E-03 0.  1.
        -12    1    3    3    0    0  0.32588807020E+02 -0.15400258895E+02  0.14600447446E+02  0.38889219362E+02  0.00000000000E+00 0.  1.
</event>
<event>
 7    1  0.1736372E-015  0.9000778E+02  0.7816164E-02  0.1186339E+00
        -11   -1    0    0    0    0  0.00000000000E+00  0.00000000000E+00  0.45593999997E+02  0.45594000000E+02  0.51100000000E-03 0. -1.
         11   -1    0    0    0    0 -0.00000000000E+00 -0.00000000000E+00 -0.45593999997E+02  0.45594000000E+02  0.51100000000E-03 0.  1.
    9900012    2    1    2    0    0  0.77319536871E+00  0.77558671693E+00  0.43993842587E+00  0.90007783218E+02  0.90000045157E+02 0.  0.
        -12    1    1    2    0    0 -0.77319536871E+00 -0.77558671693E+00 -0.43993842587E+00  0.11802167819E+01  0.00000000000E+00 0.  1.
         11    1    3    3    0    0 -0.96433209707E+01  0.56472807216E+00 -0.14483528173E+01  0.97678187578E+01  0.51100000000E-03 0. -1.
        -11    1    3    3    0    0 -0.12404254126E+02  0.26403191670E+01 -0.34758687088E+02  0.37000042353E+02  0.51100000000E-03 0.  1.
         12    1    3    3    0    0  0.22820770465E+02 -0.24294605222E+01  0.36646978332E+02  0.43239922108E+02  0.00000000000E+00 0. -1.
</event>
<event>
 7    1  0.1654239E-015  0.9000766E+02  0.7816164E-02  0.1186339E+00
        -11   -1    0    0    0    0  0.00000000000E+00  0.00000000000E+00  0.45593999997E+02  0.45594000000E+02  0.51100000000E-03 0. -1.
         11   -1    0    0    0    0 -0.00000000000E+00 -0.00000000000E+00 -0.45593999997E+02  0.45594000000E+02  0.51100000000E-03 0.  1.
    9900012    2    1    2    0    0  0.35127416719E+00  0.22677224434E+00  0.11038013352E+01  0.90007662515E+02  0.89999922860E+02 0.  0.
        -12    1    1    2    0    0 -0.35127416719E+00 -0.22677224434E+00 -0.11038013352E+01  0.11803374852E+01  0.00000000000E+00 0.  1.
         11    1    3    3    0    0  0.15891805836E+01 -0.69103226396E+01 -0.58087003881E+01  0.91661908321E+01  0.51100000000E-03 0. -1.
        -11    1    3    3    0    0  0.10873221188E+02 -0.28946389577E+02 -0.17590532362E+02  0.35574530743E+02  0.51100000000E-03 0.  1.
         12    1    3    3    0    0 -0.12111127605E+02  0.36083484460E+02  0.24503034086E+02  0.45266940940E+02  0.00000000000E+00 0. -1.
</event>
<event>
 7    1  0.1654239E-015  0.9000777E+02  0.7816164E-02  0.1186339E+00
        -11   -1    0    0    0    0  0.00000000000E+00  0.00000000000E+00  0.45593999997E+02  0.45594000000E+02  0.51100000000E-03 0.  1.
         11   -1    0    0    0    0 -0.00000000000E+00 -0.00000000000E+00 -0.45593999997E+02  0.45594000000E+02  0.51100000000E-03 0. -1.
    9900012    2    1    2    0    0 -0.99987063774E+00  0.53544180924E+00  0.32635521097E+00  0.90007768266E+02  0.90000030007E+02 0.  0.
        -12    1    1    2    0    0  0.99987063774E+00 -0.53544180924E+00 -0.32635521097E+00  0.11802317345E+01  0.00000000000E+00 0.  1.
         11    1    3    3    0    0 -0.34057904159E+02  0.14188907446E+02  0.51614770199E+00  0.36898947667E+02  0.51100000000E-03 0. -1.
        -11    1    3    3    0    0 -0.28439965851E+01  0.91708074511E+01  0.39131964004E+01  0.10368468171E+02  0.51100000000E-03 0.  1.
        -12    1    3    3    0    0  0.35902030107E+02 -0.22824273088E+02 -0.41029888915E+01  0.42740352427E+02  0.00000000000E+00 0.  1.
</event>
<event>
 7    1  0.1654239E-015  0.9000773E+02  0.7816164E-02  0.1186339E+00
        -11   -1    0    0    0    0  0.00000000000E+00  0.00000000000E+00  0.45593999997E+02  0.45594000000E+02  0.51100000000E-03 0.  1.
         11   -1    0    0    0    0 -0.00000000000E+00 -0.00000000000E+00 -0.45593999997E+02  0.45594000000E+02  0.51100000000E-03 0. -1.
    9900012    2    1    2    0    0  0.24133613473E+00 -0.35136025830E-01 -0.11547974032E+01  0.90007731085E+02  0.89999992335E+02 0.  0.
        -12    1    1    2    0    0 -0.24133613473E+00  0.35136025830E-01  0.11547974032E+01  0.11802689154E+01  0.00000000000E+00 0.  1.
         11    1    3    3    0    0  0.59288820976E+01 -0.29832287674E+02 -0.18076212140E+02  0.35381725175E+02  0.51100000000E-03 0. -1.
        -11    1    3    3    0    0  0.17086231097E+01 -0.10383837347E+02  0.32714199096E+00  0.10528556079E+02  0.51100000000E-03 0.  1.
        -12    1    3    3    0    0 -0.73961690726E+01  0.40180988995E+02  0.16594272746E+02  0.44097449830E+02  0.00000000000E+00 0.  1.
</event>
<event>
 7    1  0.1654239E-015  0.9000774E+02  0.7816164E-02  0.1186339E+00
        -11   -1    0    0    0    0  0.00000000000E+00  0.00000000000E+00  0.45593999997E+02  0.45594000000E+02  0.51100000000E-03 0. -1.
         11   -1    0    0    0    0 -0.00000000000E+00 -0.00000000000E+00 -0.45593999997E+02  0.45594000000E+02  0.51100000000E-03 0.  1.
    9900012    2    1    2    0    0  0.32270685059E+00 -0.98597720230E+00  0.56278713052E+00  0.90007737271E+02  0.89999998603E+02 0.  0.
        -12    1    1    2    0    0 -0.32270685059E+00  0.98597720230E+00 -0.56278713052E+00  0.11802627289E+01  0.00000000000E+00 0.  1.
         11    1    3    3    0    0 -0.74003663409E+01 -0.97119399229E+01  0.57735977911E+01  0.13506355199E+02  0.51100000000E-03 0. -1.
        -11    1    3    3    0    0 -0.33705574341E+02  0.84195063286E+01  0.31463410713E-01  0.34741255284E+02  0.51100000000E-03 0.  1.
         12    1    3    3    0    0  0.41428647533E+02  0.30645639201E+00 -0.52422740713E+01  0.41760126788E+02  0.00000000000E+00 0. -1.
</event>
<event>
 7    1  0.1654239E-015  0.9000783E+02  0.7816164E-02  0.1186339E+00
        -11   -1    0    0    0    0  0.00000000000E+00  0.00000000000E+00  0.45593999997E+02  0.45594000000E+02  0.51100000000E-03 0.  1.
         11   -1    0    0    0    0 -0.00000000000E+00 -0.00000000000E+00 -0.45593999997E+02  0.45594000000E+02  0.51100000000E-03 0. -1.
    9900012    2    1    2    0    0  0.39843918808E+00 -0.10680633413E+01 -0.30542016899E+00  0.90007832822E+02  0.90000095416E+02 0.  0.
        -12    1    1    2    0    0 -0.39843918808E+00  0.10680633413E+01  0.30542016899E+00  0.11801671777E+01  0.00000000000E+00 0.  1.
         11    1    3    3    0    0 -0.24643178388E+02  0.23034235459E+02 -0.13535305589E+02  0.36346481837E+02  0.51100000000E-03 0. -1.
        -11    1    3    3    0    0 -0.96420323838E+01 -0.95704301680E+01 -0.58804109304E+00  0.13598077610E+02  0.51100000000E-03 0.  1.
        -12    1    3    3    0    0  0.34683649960E+02 -0.14531868632E+02  0.13817926513E+02  0.40063273376E+02  0.00000000000E+00 0.  1.
</event>
<event>
 7    1  0.1654239E-015  0.9000773E+02  0.7816164E-02  0.1186339E+00
        -11   -1    0    0    0    0  0.00000000000E+00  0.00000000000E+00  0.45593999997E+02  0.45594000000E+02  0.51100000000E-03 0. -1.
         11   -1    0    0    0    0 -0.00000000000E+00 -0.00000000000E+00 -0.45593999997E+02  0.45594000000E+02  0.51100000000E-03 0.  1.
    9900012    2    1    2    0    0  0.16452196272E+00  0.63960571844E+00  0.97819721678E+00  0.90007731918E+02  0.89999993179E+02 0.  0.
        -12    1    1    2    0    0 -0.16452196272E+00 -0.63960571844E+00 -0.97819721678E+00  0.11802680823E+01  0.00000000000E+00 0.  1.
         11    1    3    3    0    0  0.93959278449E+01 -0.13191532729E+01  0.22497925986E+00  0.94907450367E+01  0.51100000000E-03 0. -1.
        -11    1    3    3    0    0  0.26127084046E+02  0.26425275905E+02  0.41141202862E+01  0.37387774920E+02  0.51100000000E-03 0.  1.
         12    1    3    3    0    0 -0.35358489929E+02 -0.24466516914E+02 -0.33609023293E+01  0.43129211961E+02  0.00000000000E+00 0. -1.
</event>
<event>
 7    1  0.1654239E-015  0.9000774E+02  0.7816164E-02  0.1186339E+00
        -11   -1    0    0    0    0  0.00000000000E+00  0.00000000000E+00  0.45593999997E+02  0.45594000000E+02  0.51100000000E-03 0.  1.
         11   -1    0    0    0    0 -0.00000000000E+00 -0.00000000000E+00 -0.45593999997E+02  0.45594000000E+02  0.51100000000E-03 0. -1.
    9900012    2    1    2    0    0 -0.36074377274E+00  0.96161527594E+00 -0.58152651054E+00  0.90007740244E+02  0.90000001616E+02 0.  0.
        -12    1    1    2    0    0  0.36074377274E+00 -0.96161527594E+00  0.58152651054E+00  0.11802597557E+01  0.00000000000E+00 0.  1.
         11    1    3    3    0    0  0.20843494274E+02 -0.19914040956E+02  0.19702794212E+02  0.34917336393E+02  0.51100000000E-03 0. -1.
        -11    1    3    3    0    0  0.24402970128E+01  0.88809821979E+01  0.10826939014E+02  0.14214411806E+02  0.51100000000E-03 0.  1.
        -12    1    3    3    0    0 -0.23644535059E+02  0.11994674034E+02 -0.31111259736E+02  0.40875992046E+02  0.00000000000E+00 0.  1.
</event>
<event>
 7    1  0.1654239E-015  0.9000771E+02  0.7816164E-02  0.1186339E+00
        -11   -1    0    0    0    0  0.00000000000E+00  0.00000000000E+00  0.45593999997E+02  0.45594000000E+02  0.51100000000E-03 0.  1.
         11   -1    0    0    0    0 -0.00000000000E+00 -0.00000000000E+00 -0.45593999997E+02  0.45594000000E+02  0.51100000000E-03 0. -1.
    9900012    2    1    2    0    0 -0.84641986899E+00 -0.57404852900E+00 -0.58917400648E+00  0.90007710070E+02  0.89999971043E+02 0.  0.
        -12    1    1    2    0    0  0.84641986899E+00  0.57404852900E+00  0.58917400648E+00  0.11802899297E+01  0.00000000000E+00 0.  1.
         11    1    3    3    0    0 -0.56364078183E+01  0.10114691847E+02 -0.16116493921E+02  0.19844834613E+02  0.51100000000E-03 0. -1.
        -11    1    3    3    0    0 -0.25715108505E+02 -0.22392825938E+02  0.15580669215E+02  0.37489501363E+02  0.51100000000E-03 0.  1.
        -12    1    3    3    0    0  0.30505096455E+02  0.11704085563E+02 -0.53349300642E-01  0.32673374094E+02  0.00000000000E+00 0.  1.
</event>
<event>
 7    1  0.1654239E-015  0.9000784E+02  0.7816164E-02  0.1186339E+00
        -11   -1    0    0    0    0  0.00000000000E+00  0.00000000000E+00  0.45593999997E+02  0.45594000000E+02  0.51100000000E-03 0.  1.
         11   -1    0    0    0    0 -0.00000000000E+00 -0.00000000000E+00 -0.45593999997E+02  0.45594000000E+02  0.51100000000E-03 0. -1.
    9900012    2    1    2    0    0 -0.96972662375E+00 -0.63994663194E+00 -0.20707960231E+00  0.90007837563E+02  0.90000100219E+02 0.  0.
        -12    1    1    2    0    0  0.96972662375E+00  0.63994663194E+00  0.20707960231E+00  0.11801624372E+01  0.00000000000E+00 0.  1.
         11    1    3    3    0    0 -0.16019012619E+02 -0.15783939529E+02  0.37342291897E+01  0.22796622123E+02  0.51100000000E-03 0. -1.
        -11    1    3    3    0    0 -0.23845658095E+02  0.11712155182E+02 -0.85156204468E+01  0.27898132210E+02  0.51100000000E-03 0.  1.
         12    1    3    3    0    0  0.38894944090E+02  0.34318377147E+01  0.45743116548E+01  0.39313083229E+02  0.00000000000E+00 0. -1.
</event>
<event>
 7    1  0.1654239E-015  0.9000790E+02  0.7816164E-02  0.1186339E+00
        -11   -1    0    0    0    0  0.00000000000E+00  0.00000000000E+00  0.45593999997E+02  0.45594000000E+02  0.51100000000E-03 0. -1.
         11   -1    0    0    0    0 -0.00000000000E+00 -0.00000000000E+00 -0.45593999997E+02  0.45594000000E+02  0.51100000000E-03 0.  1.
    9900012    2    1    2    0    0 -0.72481456097E+00  0.71846947853E-01  0.92850482492E+00  0.90007898588E+02  0.90000162050E+02 0.  0.
        -12    1    1    2    0    0  0.72481456097E+00 -0.71846947853E-01 -0.92850482492E+00  0.11801014116E+01  0.00000000000E+00 0.  1.
         11    1    3    3    0    0 -0.19165667946E+01 -0.69598439722E+01  0.47875693902E+01  0.86621866364E+01  0.51100000000E-03 0. -1.
        -11    1    3    3    0    0  0.37861113825E+02 -0.11207667513E+02 -0.76365519055E+01  0.40216820815E+02  0.51100000000E-03 0.  1.
         12    1    3    3    0    0 -0.36669361592E+02  0.18239358433E+02  0.37774873402E+01  0.41128891137E+02  0.00000000000E+00 0. -1.
</event>
<event>
 7    1  0.1654239E-015  0.9000776E+02  0.7816164E-02  0.1186339E+00
        -11   -1    0    0    0    0  0.00000000000E+00  0.00000000000E+00  0.45593999997E+02  0.45594000000E+02  0.51100000000E-03 0.  1.
         11   -1    0    0    0    0 -0.00000000000E+00 -0.00000000000E+00 -0.45593999997E+02  0.45594000000E+02  0.51100000000E-03 0. -1.
    9900012    2    1    2    0    0 -0.22282780741E+00 -0.57069804709E+00  0.10087735569E+01  0.90007757406E+02  0.90000019003E+02 0.  0.
        -12    1    1    2    0    0  0.22282780741E+00  0.57069804709E+00 -0.10087735569E+01  0.11802425945E+01  0.00000000000E+00 0.  1.
         11    1    3    3    0    0  0.73972214981E+01 -0.37270780138E+01 -0.10285774104E+01  0.83467339818E+01  0.51100000000E-03 0. -1.
        -11    1    3    3    0    0  0.40025039849E+01 -0.17610170484E+02  0.35950269370E+02  0.40231331207E+02  0.51100000000E-03 0.  1.
         12    1    3    3    0    0 -0.11622553290E+02  0.20766550451E+02 -0.33912918403E+02  0.41429692217E+02  0.00000000000E+00 0. -1.
</event>
<event>
 7    1  0.1654239E-015  0.9000762E+02  0.7816164E-02  0.1186339E+00
        -11   -1    0    0    0    0  0.00000000000E+00  0.00000000000E+00  0.45593999997E+02  0.45594000000E+02  0.51100000000E-03 0.  1.
         11   -1    0    0    0    0 -0.00000000000E+00 -0.00000000000E+00 -0.45593999997E+02  0.45594000000E+02  0.51100000000E-03 0. -1.
    9900012    2    1    2    0    0 -0.42168101541E+00 -0.10073366660E+01 -0.44806490473E+00  0.90007616928E+02  0.89999876672E+02 0.  0.
        -12    1    1    2    0    0  0.42168101541E+00  0.10073366660E+01  0.44806490473E+00  0.11803830718E+01  0.00000000000E+00 0.  1.
         11    1    3    3    0    0  0.21871542623E+02  0.11034896025E+02 -0.27879105773E+02  0.37113041454E+02  0.51100000000E-03 0. -1.
        -11    1    3    3    0    0 -0.92807510566E+00 -0.10930885391E+01 -0.90828837302E+01  0.91953761790E+01  0.51100000000E-03 0.  1.
        -12    1    3    3    0    0 -0.21365148532E+02 -0.10949144152E+02  0.36513924599E+02  0.43699199295E+02  0.00000000000E+00 0.  1.
</event>
<event>
 7    1  0.1654239E-015  0.9000763E+02  0.7816164E-02  0.1186339E+00
        -11   -1    0    0    0    0  0.00000000000E+00  0.00000000000E+00  0.45593999997E+02  0.45594000000E+02  0.51100000000E-03 0.  1.
         11   -1    0    0    0    0 -0.00000000000E+00 -0.00000000000E+00 -0.45593999997E+02  0.45594000000E+02  0.51100000000E-03 0. -1.
    9900012    2    1    2    0    0 -0.81715209032E+00  0.57075372595E+00 -0.63228187921E+00  0.90007628139E+02  0.89999888031E+02 0.  0.
        -12    1    1    2    0    0  0.81715209032E+00 -0.57075372595E+00  0.63228187921E+00  0.11803718605E+01  0.00000000000E+00 0.  1.
         11    1    3    3    0    0  0.63501901208E+01  0.13882541865E+02 -0.47751832442E+01  0.15995382411E+02  0.51100000000E-03 0. -1.
        -11    1    3    3    0    0  0.17329387884E+02 -0.24195826909E+02 -0.21657283230E+02  0.36807385691E+02  0.51100000000E-03 0.  1.
         12    1    3    3    0    0 -0.24496730095E+02  0.10884038770E+02  0.25800184595E+02  0.37204860038E+02  0.00000000000E+00 0. -1.
</event>
<event>
 7    1  0.1654239E-015  0.9000761E+02  0.7816164E-02  0.1186339E+00
        -11   -1    0    0    0    0  0.00000000000E+00  0.00000000000E+00  0.45593999997E+02  0.45594000000E+02  0.51100000000E-03 0.  1.
         11   -1    0    0    0    0 -0.00000000000E+00 -0.00000000000E+00 -0.45593999997E+02  0.45594000000E+02  0.51100000000E-03 0. -1.
    9900012    2    1    2    0    0 -0.47983070367E+00  0.73144012260E+00 -0.79251438124E+00  0.90007609725E+02  0.89999869373E+02 0.  0.
        -12    1    1    2    0    0  0.47983070367E+00 -0.73144012260E+00  0.79251438124E+00  0.11803902751E+01  0.00000000000E+00 0.  1.
         11    1    3    3    0    0 -0.46602921433E+00 -0.39731109614E+02 -0.21879253037E+01  0.39794035631E+02  0.51100000000E-03 0. -1.
        -11    1    3    3    0    0  0.79034329761E+01  0.21582924314E+01  0.69036901891E+01  0.10713702325E+02  0.51100000000E-03 0.  1.
        -12    1    3    3    0    0 -0.79172344654E+01  0.38304257305E+02 -0.55082792666E+01  0.39499871769E+02  0.00000000000E+00 0.  1.
</event>
<event>
 7    1  0.1654239E-015  0.9000700E+02  0.7816164E-02  0.1186341E+00
        -11   -1    0    0    0    0  0.00000000000E+00  0.00000000000E+00  0.45593999997E+02  0.45594000000E+02  0.51100000000E-03 0.  1.
         11   -1    0    0    0    0 -0.00000000000E+00 -0.00000000000E+00 -0.45593999997E+02  0.45594000000E+02  0.51100000000E-03 0. -1.
    9900012    2    1    2    0    0 -0.11797363901E+01  0.31041665119E-01 -0.44978589651E-01  0.90006998472E+02  0.89999250049E+02 0.  0.
        -12    1    1    2    0    0  0.11797363901E+01 -0.31041665119E-01  0.44978589651E-01  0.11810015277E+01  0.00000000000E+00 0.  1.
         11    1    3    3    0    0  0.35830928377E+01 -0.80201296827E+01 -0.34913972444E+02  0.36002034755E+02  0.51100000000E-03 0. -1.
        -11    1    3    3    0    0 -0.70014402549E+01 -0.57720259213E+01 -0.59500236483E+01  0.10850770966E+02  0.51100000000E-03 0.  1.
        -12    1    3    3    0    0  0.22386110271E+01  0.13823197269E+02  0.40819017503E+02  0.43154192751E+02  0.00000000000E+00 0.  1.
</event>
<event>
 7    1  0.1654239E-015  0.9000792E+02  0.7816164E-02  0.1186339E+00
        -11   -1    0    0    0    0  0.00000000000E+00  0.00000000000E+00  0.45593999997E+02  0.45594000000E+02  0.51100000000E-03 0.  1.
         11   -1    0    0    0    0 -0.00000000000E+00 -0.00000000000E+00 -0.45593999997E+02  0.45594000000E+02  0.51100000000E-03 0. -1.
    9900012    2    1    2    0    0  0.33285300435E+00 -0.15284186260E+00 -0.11217965678E+01  0.90007924029E+02  0.90000187826E+02 0.  0.
        -12    1    1    2    0    0 -0.33285300435E+00  0.15284186260E+00  0.11217965678E+01  0.11800759709E+01  0.00000000000E+00 0.  1.
         11    1    3    3    0    0  0.56059062830E+01  0.41149563011E+01 -0.26553628940E+01  0.74437895573E+01  0.51100000000E-03 0. -1.
        -11    1    3    3    0    0 -0.11181884230E+02  0.33378601969E+02 -0.18224102737E+02  0.39639418830E+02  0.51100000000E-03 0.  1.
         12    1    3    3    0    0  0.59088309513E+01 -0.37646400133E+02  0.19757669063E+02  0.42924715642E+02  0.00000000000E+00 0. -1.
</event>
<event>
 7    1  0.1654239E-015  0.9000794E+02  0.7816164E-02  0.1186339E+00
        -11   -1    0    0    0    0  0.00000000000E+00  0.00000000000E+00  0.45593999997E+02  0.45594000000E+02  0.51100000000E-03 0. -1.
         11   -1    0    0    0    0 -0.00000000000E+00 -0.00000000000E+00 -0.45593999997E+02  0.45594000000E+02  0.51100000000E-03 0.  1.
    9900012    2    1    2    0    0  0.49255833884E+00 -0.59933431553E-03  0.10723461583E+01  0.90007940527E+02  0.90000204542E+02 0.  0.
        -12    1    1    2    0    0 -0.49255833884E+00  0.59933431554E-03 -0.10723461583E+01  0.11800594729E+01  0.00000000000E+00 0.  1.
         11    1    3    3    0    0 -0.23118386418E+02  0.27815580199E+02  0.20408201027E+02  0.41529037574E+02  0.51100000000E-03 0. -1.
        -11    1    3    3    0    0  0.10640816993E+02  0.47877640456E+00  0.18716459237E+01  0.10814771003E+02  0.51100000000E-03 0.  1.
        -12    1    3    3    0    0  0.12970127764E+02 -0.28294955938E+02 -0.21207500793E+02  0.37664131951E+02  0.00000000000E+00 0.  1.
</event>
<event>
 7    1  0.1654239E-015  0.9000764E+02  0.7816164E-02  0.1186339E+00
        -11   -1    0    0    0    0  0.00000000000E+00  0.00000000000E+00  0.45593999997E+02  0.45594000000E+02  0.51100000000E-03 0. -1.
         11   -1    0    0    0    0 -0.00000000000E+00 -0.00000000000E+00 -0.45593999997E+02  0.45594000000E+02  0.51100000000E-03 0.  1.
    9900012    2    1    2    0    0  0.71659496319E+00 -0.93024978800E+00 -0.11994226390E+00  0.90007636007E+02  0.89999896002E+02 0.  0.
        -12    1    1    2    0    0 -0.71659496319E+00  0.93024978800E+00  0.11994226390E+00  0.11803639930E+01  0.00000000000E+00 0.  1.
         11    1    3    3    0    0  0.49806046069E+00  0.17978339531E+00 -0.89853541577E+01  0.90009430557E+01  0.51100000000E-03 0. -1.
        -11    1    3    3    0    0  0.59148502034E+01  0.34029512967E+02 -0.15510508218E+02  0.37862502178E+02  0.51100000000E-03 0.  1.
         12    1    3    3    0    0 -0.56963157009E+01 -0.35139546150E+02  0.24375920112E+02  0.43144190774E+02  0.00000000000E+00 0. -1.
</event>
<event>
 7    1  0.1654239E-015  0.9000768E+02  0.7816164E-02  0.1186339E+00
        -11   -1    0    0    0    0  0.00000000000E+00  0.00000000000E+00  0.45593999997E+02  0.45594000000E+02  0.51100000000E-03 0.  1.
         11   -1    0    0    0    0 -0.00000000000E+00 -0.00000000000E+00 -0.45593999997E+02  0.45594000000E+02  0.51100000000E-03 0. -1.
    9900012    2    1    2    0    0 -0.60382793070E+00  0.10011815902E+01 -0.16181493460E+00  0.90007679357E+02  0.89999939925E+02 0.  0.
        -12    1    1    2    0    0  0.60382793070E+00 -0.10011815902E+01  0.16181493460E+00  0.11803206427E+01  0.00000000000E+00 0.  1.
         11    1    3    3    0    0  0.65722979211E+01  0.26432954515E+01 -0.74880771099E+01  0.10307929466E+02  0.51100000000E-03 0. -1.
        -11    1    3    3    0    0 -0.22562850204E+02  0.24748807616E+02 -0.19748980432E+02  0.38879402209E+02  0.51100000000E-03 0.  1.
         12    1    3    3    0    0  0.15386724352E+02 -0.26390921477E+02  0.27075242607E+02  0.40820347683E+02  0.00000000000E+00 0. -1.
</event>
<event>
 7    1  0.1654239E-015  0.9000770E+02  0.7816164E-02  0.1186339E+00
        -11   -1    0    0    0    0  0.00000000000E+00  0.00000000000E+00  0.45593999997E+02  0.45594000000E+02  0.51100000000E-03 0.  1.
         11   -1    0    0    0    0 -0.00000000000E+00 -0.00000000000E+00 -0.45593999997E+02  0.45594000000E+02  0.51100000000E-03 0. -1.
    9900012    2    1    2    0    0 -0.97871589547E+00  0.32111232733E+00 -0.57629669801E+00  0.90007696728E+02  0.89999957524E+02 0.  0.
        -12    1    1    2    0    0  0.97871589547E+00 -0.32111232733E+00  0.57629669801E+00  0.11803032724E+01  0.00000000000E+00 0.  1.
         11    1    3    3    0    0  0.35002185214E+02 -0.32501128171E+01  0.11855365205E+02  0.37098057732E+02  0.51100000000E-03 0. -1.
        -11    1    3    3    0    0  0.71856373589E+00  0.94133451569E+01  0.62444510257E+01  0.11319035726E+02  0.51100000000E-03 0.  1.
        -12    1    3    3    0    0 -0.36699464846E+02 -0.58421200125E+01 -0.18676112929E+02  0.41590603270E+02  0.00000000000E+00 0.  1.
</event>
<event>
 7    1  0.1654239E-015  0.9000777E+02  0.7816164E-02  0.1186339E+00
        -11   -1    0    0    0    0  0.00000000000E+00  0.00000000000E+00  0.45593999997E+02  0.45594000000E+02  0.51100000000E-03 0.  1.
         11   -1    0    0    0    0 -0.00000000000E+00 -0.00000000000E+00 -0.45593999997E+02  0.45594000000E+02  0.51100000000E-03 0. -1.
    9900012    2    1    2    0    0  0.82344398661E+00 -0.50881662890E+00 -0.67527337290E+00  0.90007767612E+02  0.90000029345E+02 0.  0.
        -12    1    1    2    0    0 -0.82344398661E+00  0.50881662890E+00  0.67527337290E+00  0.11802323877E+01  0.00000000000E+00 0.  1.
         11    1    3    3    0    0 -0.48448391018E+01  0.70699446191E+01 -0.12970296792E+01  0.86682679406E+01  0.51100000000E-03 0. -1.
        -11    1    3    3    0    0 -0.13326506670E+02  0.21425860625E+02  0.27609925780E+02  0.37402824564E+02  0.51100000000E-03 0.  1.
         12    1    3    3    0    0  0.18994789758E+02 -0.29004621873E+02 -0.26988169474E+02  0.43936675107E+02  0.00000000000E+00 0. -1.
</event>
<event>
 7    1  0.1654239E-015  0.9000780E+02  0.7816164E-02  0.1186339E+00
        -11   -1    0    0    0    0  0.00000000000E+00  0.00000000000E+00  0.45593999997E+02  0.45594000000E+02  0.51100000000E-03 0. -1.
         11   -1    0    0    0    0 -0.00000000000E+00 -0.00000000000E+00 -0.45593999997E+02  0.45594000000E+02  0.51100000000E-03 0.  1.
    9900012    2    1    2    0    0 -0.69537164735E+00 -0.28259922214E+00  0.91075323035E+00  0.90007798536E+02  0.90000060677E+02 0.  0.
        -12    1    1    2    0    0  0.69537164735E+00  0.28259922214E+00 -0.91075323035E+00  0.11802014637E+01  0.00000000000E+00 0.  1.
         11    1    3    3    0    0  0.14051781561E+02  0.29373409933E+02 -0.20581782776E+02  0.38520897687E+02  0.51100000000E-03 0. -1.
        -11    1    3    3    0    0  0.90955085384E+01 -0.60054686181E+01 -0.11860245502E+01  0.10963602665E+02  0.51100000000E-03 0.  1.
        -12    1    3    3    0    0 -0.23842661747E+02 -0.23650540537E+02  0.22678560556E+02  0.40523298185E+02  0.00000000000E+00 0.  1.
</event>
<event>
 7    1  0.1654239E-015  0.9000769E+02  0.7816164E-02  0.1186339E+00
        -11   -1    0    0    0    0  0.00000000000E+00  0.00000000000E+00  0.45593999997E+02  0.45594000000E+02  0.51100000000E-03 0. -1.
         11   -1    0    0    0    0 -0.00000000000E+00 -0.00000000000E+00 -0.45593999997E+02  0.45594000000E+02  0.51100000000E-03 0.  1.
    9900012    2    1    2    0    0 -0.19541451404E+00  0.90221228833E+00  0.73550225138E+00  0.90007687581E+02  0.89999948257E+02 0.  0.
        -12    1    1    2    0    0  0.19541451404E+00 -0.90221228833E+00 -0.73550225138E+00  0.11803124194E+01  0.00000000000E+00 0.  1.
         11    1    3    3    0    0  0.14536548390E+02 -0.33769162617E+02  0.16769710490E+02  0.40409043210E+02  0.51100000000E-03 0. -1.
        -11    1    3    3    0    0  0.16335797404E+01  0.13192895311E+02 -0.18167344848E+02  0.22511630073E+02  0.51100000000E-03 0.  1.
        -12    1    3    3    0    0 -0.16365542644E+02  0.21478479595E+02  0.21331366094E+01  0.27087014297E+02  0.00000000000E+00 0.  1.
</event>
<event>
 7    1  0.1654239E-015  0.9000791E+02  0.7816164E-02  0.1186339E+00
        -11   -1    0    0    0    0  0.00000000000E+00  0.00000000000E+00  0.45593999997E+02  0.45594000000E+02  0.51100000000E-03 0.  1.
         11   -1    0    0    0    0 -0.00000000000E+00 -0.00000000000E+00 -0.45593999997E+02  0.45594000000E+02  0.51100000000E-03 0. -1.
    9900012    2    1    2    0    0 -0.30513571758E+00  0.24308847674E+00 -0.11137395124E+01  0.90007908684E+02  0.90000172278E+02 0.  0.
        -12    1    1    2    0    0  0.30513571758E+00 -0.24308847674E+00  0.11137395124E+01  0.11800913165E+01  0.00000000000E+00 0.  1.
         11    1    3    3    0    0 -0.15416508692E+02  0.33314637385E+02 -0.14613747541E+02  0.39510700092E+02  0.51100000000E-03 0. -1.
        -11    1    3    3    0    0  0.51833541610E+01  0.29263902652E+01 -0.59305401534E+01  0.84025131428E+01  0.51100000000E-03 0.  1.
        -12    1    3    3    0    0  0.99280188130E+01 -0.35997939173E+02  0.19430548182E+02  0.42094695449E+02  0.00000000000E+00 0.  1.
</event>
<event>
 7    1  0.1654239E-015  0.9000778E+02  0.7816164E-02  0.1186339E+00
        -11   -1    0    0    0    0  0.00000000000E+00  0.00000000000E+00  0.45593999997E+02  0.45594000000E+02  0.51100000000E-03 0. -1.
         11   -1    0    0    0    0 -0.00000000000E+00 -0.00000000000E+00 -0.45593999997E+02  0.45594000000E+02  0.51100000000E-03 0.  1.
    9900012    2    1    2    0    0  0.49781708660E+00  0.50217255584E+00 -0.94494921386E+00  0.90007776231E+02  0.90000038077E+02 0.  0.
        -12    1    1    2    0    0 -0.49781708660E+00 -0.50217255584E+00  0.94494921386E+00  0.11802237687E+01  0.00000000000E+00 0.  1.
         11    1    3    3    0    0 -0.45768651575E+01 -0.52572211981E+01  0.13598678786E+01  0.71017821921E+01  0.51100000000E-03 0. -1.
        -11    1    3    3    0    0 -0.17404698251E+02  0.29684821204E+02 -0.25397471082E+02  0.42768489204E+02  0.51100000000E-03 0.  1.
         12    1    3    3    0    0  0.22479380495E+02 -0.23925427450E+02  0.23092653990E+02  0.40137504835E+02  0.00000000000E+00 0. -1.
</event>
<event>
 7    1  0.1654239E-015  0.9000772E+02  0.7816164E-02  0.1186339E+00
        -11   -1    0    0    0    0  0.00000000000E+00  0.00000000000E+00  0.45593999997E+02  0.45594000000E+02  0.51100000000E-03 0. -1.
         11   -1    0    0    0    0 -0.00000000000E+00 -0.00000000000E+00 -0.45593999997E+02  0.45594000000E+02  0.51100000000E-03 0.  1.
    9900012    2    1    2    0    0 -0.77019248824E+00  0.71739469929E-01 -0.89147368709E+00  0.90007716833E+02  0.89999977895E+02 0.  0.
        -12    1    1    2    0    0  0.77019248824E+00 -0.71739469929E-01  0.89147368709E+00  0.11802831674E+01  0.00000000000E+00 0.  1.
         11    1    3    3    0    0  0.48584657716E+01 -0.11466036883E+01 -0.46777793678E+01  0.68411263508E+01  0.51100000000E-03 0. -1.
        -11    1    3    3    0    0  0.27703994871E+02 -0.26963693959E+02 -0.38622329019E+01  0.38851884986E+02  0.51100000000E-03 0.  1.
         12    1    3    3    0    0 -0.33332653131E+02  0.28182037117E+02  0.76485385827E+01  0.44314705496E+02  0.00000000000E+00 0. -1.
</event>
<event>
 7    1  0.1654239E-015  0.9000780E+02  0.7816164E-02  0.1186339E+00
        -11   -1    0    0    0    0  0.00000000000E+00  0.00000000000E+00  0.45593999997E+02  0.45594000000E+02  0.51100000000E-03 0.  1.
         11   -1    0    0    0    0 -0.00000000000E+00 -0.00000000000E+00 -0.45593999997E+02  0.45594000000E+02  0.51100000000E-03 0. -1.
    9900012    2    1    2    0    0  0.19094006637E+00 -0.23449290479E+00 -0.11408012262E+01  0.90007799818E+02  0.90000061976E+02 0.  0.
        -12    1    1    2    0    0 -0.19094006637E+00  0.23449290479E+00  0.11408012262E+01  0.11802001818E+01  0.00000000000E+00 0.  1.
         11    1    3    3    0    0 -0.81535063269E+01 -0.29371823547E+01  0.19512599638E+00  0.86686088863E+01  0.51100000000E-03 0. -1.
        -11    1    3    3    0    0  0.11251083982E+02 -0.33358895972E+02  0.18825204202E+02  0.39922313870E+02  0.51100000000E-03 0.  1.
         12    1    3    3    0    0 -0.29066375883E+01  0.36061585422E+02 -0.20161131424E+02  0.41416877062E+02  0.00000000000E+00 0. -1.
</event>
<event>
 7    1  0.1654239E-015  0.9000780E+02  0.7816164E-02  0.1186339E+00
        -11   -1    0    0    0    0  0.00000000000E+00  0.00000000000E+00  0.45593999997E+02  0.45594000000E+02  0.51100000000E-03 0.  1.
         11   -1    0    0    0    0 -0.00000000000E+00 -0.00000000000E+00 -0.45593999997E+02  0.45594000000E+02  0.51100000000E-03 0. -1.
    9900012    2    1    2    0    0 -0.58357739055E+00 -0.92684209651E+00 -0.43961922245E+00  0.90007803447E+02  0.90000065653E+02 0.  0.
        -12    1    1    2    0    0  0.58357739055E+00  0.92684209651E+00  0.43961922245E+00  0.11801965529E+01  0.00000000000E+00 0.  1.
         11    1    3    3    0    0  0.56716654693E+01  0.48402068923E+01  0.68177940694E+01  0.10103351335E+02  0.51100000000E-03 0. -1.
        -11    1    3    3    0    0 -0.17597694462E+02 -0.17495145113E+02  0.30176817466E+02  0.39069160030E+02  0.51100000000E-03 0.  1.
         12    1    3    3    0    0  0.11342451602E+02  0.11728096124E+02 -0.37434230757E+02  0.40835292082E+02  0.00000000000E+00 0. -1.
</event>
<event>
 7    1  0.1654239E-015  0.9000771E+02  0.7816164E-02  0.1186339E+00
        -11   -1    0    0    0    0  0.00000000000E+00  0.00000000000E+00  0.45593999997E+02  0.45594000000E+02  0.51100000000E-03 0.  1.
         11   -1    0    0    0    0 -0.00000000000E+00 -0.00000000000E+00 -0.45593999997E+02  0.45594000000E+02  0.51100000000E-03 0. -1.
    9900012    2    1    2    0    0  0.20545061529E+00  0.60394666162E+00 -0.99303942447E+00  0.90007708162E+02  0.89999969109E+02 0.  0.
        -12    1    1    2    0    0 -0.20545061529E+00 -0.60394666162E+00  0.99303942447E+00  0.11802918385E+01  0.00000000000E+00 0.  1.
         11    1    3    3    0    0 -0.31110608344E+02  0.22434233599E+02 -0.53147498905E+01  0.38722233347E+02  0.51100000000E-03 0. -1.
        -11    1    3    3    0    0  0.47267229782E+01  0.54995053744E+01 -0.83924674766E+01  0.11091437242E+02  0.51100000000E-03 0.  1.
        -12    1    3    3    0    0  0.26589335981E+02 -0.27329792312E+02  0.12714177943E+02  0.40194037573E+02  0.00000000000E+00 0.  1.
</event>
<event>
 7    1  0.1654239E-015  0.9000775E+02  0.7816164E-02  0.1186339E+00
        -11   -1    0    0    0    0  0.00000000000E+00  0.00000000000E+00  0.45593999997E+02  0.45594000000E+02  0.51100000000E-03 0. -1.
         11   -1    0    0    0    0 -0.00000000000E+00 -0.00000000000E+00 -0.45593999997E+02  0.45594000000E+02  0.51100000000E-03 0.  1.
    9900012    2    1    2    0    0 -0.11525941231E+01 -0.25231687204E+00  0.29206030532E-01  0.90007750023E+02  0.90000011523E+02 0.  0.
        -12    1    1    2    0    0  0.11525941231E+01  0.25231687204E+00 -0.29206030532E-01  0.11802499772E+01  0.00000000000E+00 0.  1.
         11    1    3    3    0    0 -0.65306234120E+01 -0.18082097781E+01  0.55211718238E+01  0.87408239497E+01  0.51100000000E-03 0. -1.
        -11    1    3    3    0    0 -0.22401060055E+02  0.30307637770E+02 -0.14334109154E+02  0.40321546154E+02  0.51100000000E-03 0.  1.
         12    1    3    3    0    0  0.27779089344E+02 -0.28751744864E+02  0.88421433605E+01  0.40945379919E+02  0.00000000000E+00 0. -1.
</event>
<event>
 7    1  0.1654239E-015  0.9000775E+02  0.7816164E-02  0.1186339E+00
        -11   -1    0    0    0    0  0.00000000000E+00  0.00000000000E+00  0.45593999997E+02  0.45594000000E+02  0.51100000000E-03 0. -1.
         11   -1    0    0    0    0 -0.00000000000E+00 -0.00000000000E+00 -0.45593999997E+02  0.45594000000E+02  0.51100000000E-03 0.  1.
    9900012    2    1    2    0    0  0.67436254327E+00  0.27420805902E+00  0.92899954624E+00  0.90007747884E+02  0.90000009357E+02 0.  0.
        -12    1    1    2    0    0 -0.67436254327E+00 -0.27420805902E+00 -0.92899954624E+00  0.11802521156E+01  0.00000000000E+00 0.  1.
         11    1    3    3    0    0 -0.99689621682E+01  0.36120110409E+02 -0.86774757560E+01  0.38462204415E+02  0.51100000000E-03 0. -1.
        -11    1    3    3    0    0  0.50189196225E+01 -0.20635761170E+01 -0.10509184536E+02  0.11827546679E+02  0.51100000000E-03 0.  1.
        -12    1    3    3    0    0  0.56244050890E+01 -0.33782326233E+02  0.20115659838E+02  0.39717996791E+02  0.00000000000E+00 0.  1.
</event>
<event>
 7    1  0.1654239E-015  0.9000754E+02  0.7816164E-02  0.1186339E+00
        -11   -1    0    0    0    0  0.00000000000E+00  0.00000000000E+00  0.45593999997E+02  0.45594000000E+02  0.51100000000E-03 0. -1.
         11   -1    0    0    0    0 -0.00000000000E+00 -0.00000000000E+00 -0.45593999997E+02  0.45594000000E+02  0.51100000000E-03 0.  1.
    9900012    2    1    2    0    0  0.70587506376E+00 -0.91166817479E+00  0.25317809783E+00  0.90007535000E+02  0.89999793662E+02 0.  0.
        -12    1    1    2    0    0 -0.70587506376E+00  0.91166817479E+00 -0.25317809783E+00  0.11804649998E+01  0.00000000000E+00 0.  1.
         11    1    3    3    0    0 -0.22919485716E+02 -0.27901640141E+01  0.26192686279E+02  0.34916252025E+02  0.51100000000E-03 0. -1.
        -11    1    3    3    0    0 -0.10172886574E+02 -0.40053896766E+01  0.16633262953E+01  0.11058816498E+02  0.51100000000E-03 0.  1.
        -12    1    3    3    0    0  0.33798247354E+02  0.58838855159E+01 -0.27602834476E+02  0.44032466477E+02  0.00000000000E+00 0.  1.
</event>
<event>
 7    1  0.1654239E-015  0.9000796E+02  0.7816164E-02  0.1186339E+00
        -11   -1    0    0    0    0  0.00000000000E+00  0.00000000000E+00  0.45593999997E+02  0.45594000000E+02  0.51100000000E-03 0.  1.
         11   -1    0    0    0    0 -0.00000000000E+00 -0.00000000000E+00 -0.45593999997E+02  0.45594000000E+02  0.51100000000E-03 0. -1.
    9900012    2    1    2    0    0 -0.45553366388E+00  0.63332017156E+00  0.88537957625E+00  0.90007956631E+02  0.90000220858E+02 0.  0.
        -12    1    1    2    0    0  0.45553366388E+00 -0.63332017156E+00 -0.88537957625E+00  0.11800433690E+01  0.00000000000E+00 0.  1.
         11    1    3    3    0    0 -0.80277814174E+01 -0.32916870861E+01 -0.47176250689E+00  0.86892484417E+01  0.51100000000E-03 0. -1.
        -11    1    3    3    0    0 -0.36045653166E+02  0.62675820766E+01  0.70781561071E+01  0.37264889526E+02  0.51100000000E-03 0.  1.
         12    1    3    3    0    0  0.43617900919E+02 -0.23425748189E+01 -0.57210140239E+01  0.44053818664E+02  0.00000000000E+00 0. -1.
</event>
<event>
 7    1  0.1654239E-015  0.9000778E+02  0.7816164E-02  0.1186339E+00
        -11   -1    0    0    0    0  0.00000000000E+00  0.00000000000E+00  0.45593999997E+02  0.45594000000E+02  0.51100000000E-03 0.  1.
         11   -1    0    0    0    0 -0.00000000000E+00 -0.00000000000E+00 -0.45593999997E+02  0.45594000000E+02  0.51100000000E-03 0. -1.
    9900012    2    1    2    0    0  0.11534246269E+01  0.23400547070E+00  0.88182845492E-01  0.90007778349E+02  0.90000040224E+02 0.  0.
        -12    1    1    2    0    0 -0.11534246269E+01 -0.23400547070E+00 -0.88182845492E-01  0.11802216506E+01  0.00000000000E+00 0.  1.
         11    1    3    3    0    0  0.11746895533E+02  0.16792474484E+02 -0.29418065207E+02  0.35852465951E+02  0.51100000000E-03 0. -1.
        -11    1    3    3    0    0  0.63950724809E+01  0.70097655878E+01 -0.35639764035E+01  0.10135861764E+02  0.51100000000E-03 0.  1.
        -12    1    3    3    0    0 -0.16988543387E+02 -0.23568234601E+02  0.33070224456E+02  0.44019450635E+02  0.00000000000E+00 0.  1.
</event>
<event>
 7    1  0.1654239E-015  0.9000773E+02  0.7816164E-02  0.1186339E+00
        -11   -1    0    0    0    0  0.00000000000E+00  0.00000000000E+00  0.45593999997E+02  0.45594000000E+02  0.51100000000E-03 0. -1.
         11   -1    0    0    0    0 -0.00000000000E+00 -0.00000000000E+00 -0.45593999997E+02  0.45594000000E+02  0.51100000000E-03 0.  1.
    9900012    2    1    2    0    0  0.96054074939E+00  0.48011733568E+00  0.48979132775E+00  0.90007725993E+02  0.89999987176E+02 0.  0.
        -12    1    1    2    0    0 -0.96054074939E+00 -0.48011733568E+00 -0.48979132775E+00  0.11802740072E+01  0.00000000000E+00 0.  1.
         11    1    3    3    0    0  0.72402263103E+01 -0.34332714949E+01  0.32827312676E+01  0.86593622755E+01  0.51100000000E-03 0. -1.
        -11    1    3    3    0    0 -0.34791160442E+02 -0.93627390468E+00  0.23716389706E+02  0.42116132238E+02  0.51100000000E-03 0.  1.
         12    1    3    3    0    0  0.28511474881E+02  0.48496627352E+01 -0.26509329646E+02  0.39232231479E+02  0.00000000000E+00 0. -1.
</event>
<event>
 7    1  0.1654239E-015  0.9000777E+02  0.7816164E-02  0.1186339E+00
        -11   -1    0    0    0    0  0.00000000000E+00  0.00000000000E+00  0.45593999997E+02  0.45594000000E+02  0.51100000000E-03 0.  1.
         11   -1    0    0    0    0 -0.00000000000E+00 -0.00000000000E+00 -0.45593999997E+02  0.45594000000E+02  0.51100000000E-03 0. -1.
    9900012    2    1    2    0    0 -0.91153244538E+00  0.74593290254E+00 -0.75142728546E-01  0.90007765395E+02  0.90000027098E+02 0.  0.
        -12    1    1    2    0    0  0.91153244538E+00 -0.74593290254E+00  0.75142728546E-01  0.11802346054E+01  0.00000000000E+00 0.  1.
         11    1    3    3    0    0  0.25458922282E+01 -0.28027610330E+02 -0.25070953714E+02  0.37690598674E+02  0.51100000000E-03 0. -1.
        -11    1    3    3    0    0  0.31524089904E+01 -0.79119981320E+01  0.29700293343E+01  0.90198930920E+01  0.51100000000E-03 0.  1.
        -12    1    3    3    0    0 -0.66098336639E+01  0.36685541365E+02  0.22025781651E+02  0.43297273628E+02  0.00000000000E+00 0.  1.
</event>
<event>
 7    1  0.1654239E-015  0.9000774E+02  0.7816164E-02  0.1186339E+00
        -11   -1    0    0    0    0  0.00000000000E+00  0.00000000000E+00  0.45593999997E+02  0.45594000000E+02  0.51100000000E-03 0. -1.
         11   -1    0    0    0    0 -0.00000000000E+00 -0.00000000000E+00 -0.45593999997E+02  0.45594000000E+02  0.51100000000E-03 0.  1.
    9900012    2    1    2    0    0  0.74594236852E+00 -0.55902103339E+00  0.72393114138E+00  0.90007741202E+02  0.90000002586E+02 0.  0.
        -12    1    1    2    0    0 -0.74594236852E+00  0.55902103339E+00 -0.72393114138E+00  0.11802587981E+01  0.00000000000E+00 0.  1.
         11    1    3    3    0    0  0.36038371915E+02 -0.13165987366E+02  0.21799029065E+02  0.44128280524E+02  0.51100000000E-03 0. -1.
        -11    1    3    3    0    0 -0.91032463207E+01  0.40282187567E+01  0.17360621471E+01  0.10104927113E+02  0.51100000000E-03 0.  1.
        -12    1    3    3    0    0 -0.26189183225E+02  0.85787475754E+01 -0.22811160071E+02  0.35774533564E+02  0.00000000000E+00 0.  1.
</event>
<event>
 7    1  0.1654239E-015  0.9000776E+02  0.7816164E-02  0.1186339E+00
        -11   -1    0    0    0    0  0.00000000000E+00  0.00000000000E+00  0.45593999997E+02  0.45594000000E+02  0.51100000000E-03 0.  1.
         11   -1    0    0    0    0 -0.00000000000E+00 -0.00000000000E+00 -0.45593999997E+02  0.45594000000E+02  0.51100000000E-03 0. -1.
    9900012    2    1    2    0    0 -0.36038214462E+00 -0.25352557480E+00 -0.10949039019E+01  0.90007760591E+02  0.90000022231E+02 0.  0.
        -12    1    1    2    0    0  0.36038214462E+00  0.25352557480E+00  0.10949039019E+01  0.11802394086E+01  0.00000000000E+00 0.  1.
         11    1    3    3    0    0 -0.35794126894E+02 -0.62774517765E+01 -0.36690544281E+01  0.36525167782E+02  0.51100000000E-03 0. -1.
        -11    1    3    3    0    0 -0.83784789341E+01  0.35429005313E+01 -0.21477398976E+01  0.93468625941E+01  0.51100000000E-03 0.  1.
        -12    1    3    3    0    0  0.43812223683E+02  0.24810256704E+01  0.47218904238E+01  0.44135730215E+02  0.00000000000E+00 0.  1.
</event>
<event>
 7    1  0.1654239E-015  0.9000768E+02  0.7816164E-02  0.1186339E+00
        -11   -1    0    0    0    0  0.00000000000E+00  0.00000000000E+00  0.45593999997E+02  0.45594000000E+02  0.51100000000E-03 0.  1.
         11   -1    0    0    0    0 -0.00000000000E+00 -0.00000000000E+00 -0.45593999997E+02  0.45594000000E+02  0.51100000000E-03 0. -1.
    9900012    2    1    2    0    0  0.31904558519E+00  0.24060792925E+00 -0.11106147665E+01  0.90007683339E+02  0.89999943959E+02 0.  0.
        -12    1    1    2    0    0 -0.31904558519E+00 -0.24060792925E+00  0.11106147665E+01  0.11803166612E+01  0.00000000000E+00 0.  1.
         11    1    3    3    0    0 -0.86207437047E+01  0.35236264490E+02 -0.15868382254E+02  0.39594407596E+02  0.51100000000E-03 0. -1.
        -11    1    3    3    0    0 -0.74504493991E+01 -0.26563334420E+01 -0.47662965389E+01  0.92348733917E+01  0.51100000000E-03 0.  1.
        -12    1    3    3    0    0  0.16390238689E+02 -0.32339323119E+02  0.19524064026E+02  0.41178402351E+02  0.00000000000E+00 0.  1.
</event>
<event>
 7    1  0.1654239E-015  0.9000747E+02  0.7816164E-02  0.1186340E+00
        -11   -1    0    0    0    0  0.00000000000E+00  0.00000000000E+00  0.45593999997E+02  0.45594000000E+02  0.51100000000E-03 0. -1.
         11   -1    0    0    0    0 -0.00000000000E+00 -0.00000000000E+00 -0.45593999997E+02  0.45594000000E+02  0.51100000000E-03 0.  1.
    9900012    2    1    2    0    0  0.12049619258E+00 -0.86162617555E+00  0.79795771365E+00  0.90007468123E+02  0.89999725902E+02 0.  0.
        -12    1    1    2    0    0 -0.12049619258E+00  0.86162617555E+00 -0.79795771365E+00  0.11805318766E+01  0.00000000000E+00 0.  1.
         11    1    3    3    0    0 -0.25365663216E+02 -0.19832644347E+02  0.22501561531E+02  0.39281941446E+02  0.51100000000E-03 0. -1.
        -11    1    3    3    0    0  0.17253054951E+01 -0.33751651227E+01 -0.17419846902E+02  0.17827492392E+02  0.51100000000E-03 0.  1.
        -12    1    3    3    0    0  0.23760853914E+02  0.22346183294E+02 -0.42837569154E+01  0.32898034285E+02  0.00000000000E+00 0.  1.
</event>
<event>
 7    1  0.1654239E-015  0.9000771E+02  0.7816164E-02  0.1186339E+00
        -11   -1    0    0    0    0  0.00000000000E+00  0.00000000000E+00  0.45593999997E+02  0.45594000000E+02  0.51100000000E-03 0. -1.
         11   -1    0    0    0    0 -0.00000000000E+00 -0.00000000000E+00 -0.45593999997E+02  0.45594000000E+02  0.51100000000E-03 0.  1.
    9900012    2    1    2    0    0  0.17539370968E+00  0.11300314008E+01 -0.29213970999E+00  0.90007712099E+02  0.89999973098E+02 0.  0.
        -12    1    1    2    0    0 -0.17539370968E+00 -0.11300314008E+01  0.29213970999E+00  0.11802879015E+01  0.00000000000E+00 0.  1.
         11    1    3    3    0    0 -0.14800534487E+01  0.53259083268E+01 -0.86419005783E+01  0.10258572200E+02  0.51100000000E-03 0. -1.
        -11    1    3    3    0    0 -0.34444990311E+02 -0.15082118443E+02 -0.83374780870E+01  0.38515466963E+02  0.51100000000E-03 0.  1.
         12    1    3    3    0    0  0.36100437469E+02  0.10886241517E+02  0.16687238955E+02  0.41233672936E+02  0.00000000000E+00 0. -1.
</event>
<event>
 7    1  0.1654239E-015  0.9000777E+02  0.7816164E-02  0.1186339E+00
        -11   -1    0    0    0    0  0.00000000000E+00  0.00000000000E+00  0.45593999997E+02  0.45594000000E+02  0.51100000000E-03 0.  1.
         11   -1    0    0    0    0 -0.00000000000E+00 -0.00000000000E+00 -0.45593999997E+02  0.45594000000E+02  0.51100000000E-03 0. -1.
    9900012    2    1    2    0    0  0.47157157831E+00  0.15303099287E+00 -0.10710530843E+01  0.90007765723E+02  0.90000027431E+02 0.  0.
        -12    1    1    2    0    0 -0.47157157831E+00 -0.15303099287E+00  0.10710530843E+01  0.11802342765E+01  0.00000000000E+00 0.  1.
         11    1    3    3    0    0 -0.10930470468E+01 -0.76304786723E+01  0.54396030681E+01  0.94344177570E+01  0.51100000000E-03 0. -1.
        -11    1    3    3    0    0  0.21703830192E+02  0.21175265000E+02  0.26075849360E+02  0.39992474454E+02  0.51100000000E-03 0.  1.
         12    1    3    3    0    0 -0.20139211567E+02 -0.13391755335E+02 -0.32586505513E+02  0.40580873512E+02  0.00000000000E+00 0. -1.
</event>
<event>
 7    1  0.1654239E-015  0.9000773E+02  0.7816164E-02  0.1186339E+00
        -11   -1    0    0    0    0  0.00000000000E+00  0.00000000000E+00  0.45593999997E+02  0.45594000000E+02  0.51100000000E-03 0. -1.
         11   -1    0    0    0    0 -0.00000000000E+00 -0.00000000000E+00 -0.45593999997E+02  0.45594000000E+02  0.51100000000E-03 0.  1.
    9900012    2    1    2    0    0  0.78802710842E-01 -0.24545720371E-01  0.11773789937E+01  0.90007731533E+02  0.89999992789E+02 0.  0.
        -12    1    1    2    0    0 -0.78802710842E-01  0.24545720371E-01 -0.11773789937E+01  0.11802684671E+01  0.00000000000E+00 0.  1.
         11    1    3    3    0    0  0.10812348113E+01  0.11603341843E+02  0.39580332047E+02  0.41260262915E+02  0.51100000000E-03 0. -1.
        -11    1    3    3    0    0 -0.88460020359E+01  0.52631421187E+01 -0.77661229491E+01  0.12894381835E+02  0.51100000000E-03 0.  1.
        -12    1    3    3    0    0  0.78435699354E+01 -0.16891029682E+02 -0.30636830104E+02  0.35853086783E+02  0.00000000000E+00 0.  1.
</event>
<event>
 7    1  0.1654239E-015  0.9000757E+02  0.7816164E-02  0.1186339E+00
        -11   -1    0    0    0    0  0.00000000000E+00  0.00000000000E+00  0.45593999997E+02  0.45594000000E+02  0.51100000000E-03 0.  1.
         11   -1    0    0    0    0 -0.00000000000E+00 -0.00000000000E+00 -0.45593999997E+02  0.45594000000E+02  0.51100000000E-03 0. -1.
    9900012    2    1    2    0    0 -0.72168017671E+00 -0.19301596622E+00 -0.91396934764E+00  0.90007568973E+02  0.89999828083E+02 0.  0.
        -12    1    1    2    0    0  0.72168017671E+00  0.19301596622E+00  0.91396934764E+00  0.11804310268E+01  0.00000000000E+00 0.  1.
         11    1    3    3    0    0 -0.64532177557E+01  0.54529631825E+01  0.61858634889E+01  0.10471090403E+02  0.51100000000E-03 0. -1.
        -11    1    3    3    0    0  0.21574956777E+02  0.17003414074E+02  0.25023145925E+02  0.37158480625E+02  0.51100000000E-03 0.  1.
         12    1    3    3    0    0 -0.15843419198E+02 -0.22649393223E+02 -0.32122978762E+02  0.42377997945E+02  0.00000000000E+00 0. -1.
</event>
<event>
 7    1  0.1654239E-015  0.9000772E+02  0.7816164E-02  0.1186339E+00
        -11   -1    0    0    0    0  0.00000000000E+00  0.00000000000E+00  0.45593999997E+02  0.45594000000E+02  0.51100000000E-03 0.  1.
         11   -1    0    0    0    0 -0.00000000000E+00 -0.00000000000E+00 -0.45593999997E+02  0.45594000000E+02  0.51100000000E-03 0. -1.
    9900012    2    1    2    0    0 -0.60516911038E+00  0.96872733937E+00 -0.29730720158E+00  0.90007722964E+02  0.89999984107E+02 0.  0.
        -12    1    1    2    0    0  0.60516911038E+00 -0.96872733937E+00  0.29730720158E+00  0.11802770363E+01  0.00000000000E+00 0.  1.
         11    1    3    3    0    0  0.16964595978E+02 -0.23068916913E+02 -0.23220392978E+02  0.36866774941E+02  0.51100000000E-03 0. -1.
        -11    1    3    3    0    0  0.13554697507E+01  0.21894096132E+01 -0.94188848577E+01  0.97645381316E+01  0.51100000000E-03 0.  1.
        -12    1    3    3    0    0 -0.18925234839E+02  0.21848234639E+02  0.32341970634E+02  0.43376409891E+02  0.00000000000E+00 0.  1.
</event>
<event>
 7    1  0.1654239E-015  0.9000776E+02  0.7816164E-02  0.1186339E+00
        -11   -1    0    0    0    0  0.00000000000E+00  0.00000000000E+00  0.45593999997E+02  0.45594000000E+02  0.51100000000E-03 0.  1.
         11   -1    0    0    0    0 -0.00000000000E+00 -0.00000000000E+00 -0.45593999997E+02  0.45594000000E+02  0.51100000000E-03 0. -1.
    9900012    2    1    2    0    0 -0.84122523569E+00  0.61302614589E+00 -0.55634267989E+00  0.90007755055E+02  0.90000016622E+02 0.  0.
        -12    1    1    2    0    0  0.84122523569E+00 -0.61302614589E+00  0.55634267989E+00  0.11802449450E+01  0.00000000000E+00 0.  1.
         11    1    3    3    0    0 -0.75562398470E+01  0.34128429765E+01 -0.31952629333E+01  0.88856042721E+01  0.51100000000E-03 0. -1.
        -11    1    3    3    0    0 -0.22452062462E+02 -0.96668014922E+00  0.32387240384E+02  0.39420336366E+02  0.51100000000E-03 0.  1.
         12    1    3    3    0    0  0.29167077073E+02 -0.18331366814E+01 -0.29748320130E+02  0.41701814417E+02  0.00000000000E+00 0. -1.
</event>
<event>
 7    1  0.1654239E-015  0.9000761E+02  0.7816164E-02  0.1186339E+00
        -11   -1    0    0    0    0  0.00000000000E+00  0.00000000000E+00  0.45593999997E+02  0.45594000000E+02  0.51100000000E-03 0. -1.
         11   -1    0    0    0    0 -0.00000000000E+00 -0.00000000000E+00 -0.45593999997E+02  0.45594000000E+02  0.51100000000E-03 0.  1.
    9900012    2    1    2    0    0  0.78603291569E+00 -0.51422685347E+00  0.71487165011E+00  0.90007610879E+02  0.89999870542E+02 0.  0.
        -12    1    1    2    0    0 -0.78603291569E+00  0.51422685347E+00 -0.71487165011E+00  0.11803891212E+01  0.00000000000E+00 0.  1.
         11    1    3    3    0    0 -0.33775051572E+01  0.17199737551E+02  0.43999598359E+01  0.18072026995E+02  0.51100000000E-03 0. -1.
        -11    1    3    3    0    0  0.22848472125E+02  0.19590324982E+02 -0.24213543380E+01  0.30194311856E+02  0.51100000000E-03 0.  1.
         12    1    3    3    0    0 -0.18684934052E+02 -0.37304289387E+02 -0.12637338477E+01  0.41741272027E+02  0.00000000000E+00 0. -1.
</event>
<event>
 7    1  0.1654239E-015  0.9000788E+02  0.7816164E-02  0.1186339E+00
        -11   -1    0    0    0    0  0.00000000000E+00  0.00000000000E+00  0.45593999997E+02  0.45594000000E+02  0.51100000000E-03 0.  1.
         11   -1    0    0    0    0 -0.00000000000E+00 -0.00000000000E+00 -0.45593999997E+02  0.45594000000E+02  0.51100000000E-03 0. -1.
    9900012    2    1    2    0    0  0.70290204733E+00  0.76221289271E+00  0.56359970361E+00  0.90007879494E+02  0.90000142704E+02 0.  0.
        -12    1    1    2    0    0 -0.70290204733E+00 -0.76221289271E+00 -0.56359970361E+00  0.11801205057E+01  0.00000000000E+00 0.  1.
         11    1    3    3    0    0  0.12238483184E+02  0.19120382643E+02 -0.29712521894E+02  0.37392558894E+02  0.51100000000E-03 0. -1.
        -11    1    3    3    0    0  0.30918468871E+01 -0.44694724874E+01 -0.78116533040E+01  0.95161772310E+01  0.51100000000E-03 0.  1.
        -12    1    3    3    0    0 -0.14627428024E+02 -0.13888697263E+02  0.38087774901E+02  0.43099143370E+02  0.00000000000E+00 0.  1.
</event>
<event>
 7    1  0.1654239E-015  0.9000770E+02  0.7816164E-02  0.1186339E+00
        -11   -1    0    0    0    0  0.00000000000E+00  0.00000000000E+00  0.45593999997E+02  0.45594000000E+02  0.51100000000E-03 0.  1.
         11   -1    0    0    0    0 -0.00000000000E+00 -0.00000000000E+00 -0.45593999997E+02  0.45594000000E+02  0.51100000000E-03 0. -1.
    9900012    2    1    2    0    0  0.21209252240E-01 -0.70761776146E+00 -0.94442080572E+00  0.90007701992E+02  0.89999962859E+02 0.  0.
        -12    1    1    2    0    0 -0.21209252240E-01  0.70761776146E+00  0.94442080572E+00  0.11802980077E+01  0.00000000000E+00 0.  1.
         11    1    3    3    0    0  0.14452686857E+00  0.48544302115E+01 -0.71351076028E+01  0.86311147286E+01  0.51100000000E-03 0. -1.
        -11    1    3    3    0    0  0.21365291865E+02  0.22848544569E+02  0.25947723701E+02  0.40642539917E+02  0.51100000000E-03 0.  1.
         12    1    3    3    0    0 -0.21488609481E+02 -0.28410592542E+02 -0.19757036904E+02  0.40734047347E+02  0.00000000000E+00 0. -1.
</event>
<event>
 7    1  0.1654239E-015  0.9000776E+02  0.7816164E-02  0.1186339E+00
        -11   -1    0    0    0    0  0.00000000000E+00  0.00000000000E+00  0.45593999997E+02  0.45594000000E+02  0.51100000000E-03 0. -1.
         11   -1    0    0    0    0 -0.00000000000E+00 -0.00000000000E+00 -0.45593999997E+02  0.45594000000E+02  0.51100000000E-03 0.  1.
    9900012    2    1    2    0    0  0.10386862875E+01 -0.49501282305E+00  0.26280539800E+00  0.90007756984E+02  0.90000018576E+02 0.  0.
        -12    1    1    2    0    0 -0.10386862875E+01  0.49501282305E+00 -0.26280539800E+00  0.11802430157E+01  0.00000000000E+00 0.  1.
         11    1    3    3    0    0 -0.75619549593E+01 -0.47000684233E+01 -0.55339283140E+01  0.10483232747E+02  0.51100000000E-03 0. -1.
        -11    1    3    3    0    0  0.25347192880E+02  0.26556864663E+02 -0.19738368013E+02  0.41681535717E+02  0.51100000000E-03 0.  1.
         12    1    3    3    0    0 -0.16746551633E+02 -0.22351809063E+02  0.25535101725E+02  0.37842988520E+02  0.00000000000E+00 0. -1.
</event>
<event>
 7    1  0.1654239E-015  0.9000767E+02  0.7816164E-02  0.1186339E+00
        -11   -1    0    0    0    0  0.00000000000E+00  0.00000000000E+00  0.45593999997E+02  0.45594000000E+02  0.51100000000E-03 0. -1.
         11   -1    0    0    0    0 -0.00000000000E+00 -0.00000000000E+00 -0.45593999997E+02  0.45594000000E+02  0.51100000000E-03 0.  1.
    9900012    2    1    2    0    0  0.65369352221E+00  0.93198772883E+00  0.31186930627E+00  0.90007670041E+02  0.89999930486E+02 0.  0.
        -12    1    1    2    0    0 -0.65369352221E+00 -0.93198772883E+00 -0.31186930627E+00  0.11803299589E+01  0.00000000000E+00 0.  1.
         11    1    3    3    0    0 -0.14393504292E+02  0.33897156217E+02  0.59678806170E+01  0.37306913096E+02  0.51100000000E-03 0. -1.
        -11    1    3    3    0    0 -0.10452803453E+02  0.83071711441E-03  0.97879983300E+00  0.10498530853E+02  0.51100000000E-03 0.  1.
        -12    1    3    3    0    0  0.25500001267E+02 -0.32965999205E+02 -0.66348111437E+01  0.42202226092E+02  0.00000000000E+00 0.  1.
</event>
<event>
 7    1  0.1654239E-015  0.9000806E+02  0.7816164E-02  0.1186338E+00
        -11   -1    0    0    0    0  0.00000000000E+00  0.00000000000E+00  0.45593999997E+02  0.45594000000E+02  0.51100000000E-03 0. -1.
         11   -1    0    0    0    0 -0.00000000000E+00 -0.00000000000E+00 -0.45593999997E+02  0.45594000000E+02  0.51100000000E-03 0.  1.
    9900012    2    1    2    0    0  0.17247159229E+00  0.50961246594E+00  0.10501465507E+01  0.90008059708E+02  0.90000325295E+02 0.  0.
        -12    1    1    2    0    0 -0.17247159229E+00 -0.50961246594E+00 -0.10501465507E+01  0.11799402923E+01  0.00000000000E+00 0.  1.
         11    1    3    3    0    0 -0.84816337924E+01 -0.78583900173E+00  0.17509888112E+01  0.86960690431E+01  0.51100000000E-03 0. -1.
        -11    1    3    3    0    0  0.98991846508E+01  0.83487188228E+01 -0.39649303666E+02  0.41710457252E+02  0.51100000000E-03 0.  1.
         12    1    3    3    0    0 -0.12450792661E+01 -0.70532673551E+01  0.38948461405E+02  0.39601533412E+02  0.00000000000E+00 0. -1.
</event>
<event>
 7    1  0.1654239E-015  0.9000776E+02  0.7816164E-02  0.1186339E+00
        -11   -1    0    0    0    0  0.00000000000E+00  0.00000000000E+00  0.45593999997E+02  0.45594000000E+02  0.51100000000E-03 0.  1.
         11   -1    0    0    0    0 -0.00000000000E+00 -0.00000000000E+00 -0.45593999997E+02  0.45594000000E+02  0.51100000000E-03 0. -1.
    9900012    2    1    2    0    0 -0.32770435344E+00 -0.55115343819E+00 -0.99086596391E+00  0.90007756121E+02  0.90000017702E+02 0.  0.
        -12    1    1    2    0    0  0.32770435344E+00  0.55115343819E+00  0.99086596391E+00  0.11802438791E+01  0.00000000000E+00 0.  1.
         11    1    3    3    0    0  0.23801811568E+02 -0.24480069590E+02 -0.12327081510E+02  0.36300922576E+02  0.51100000000E-03 0. -1.
        -11    1    3    3    0    0  0.11204170820E+01 -0.10059209910E+02  0.14232900018E+01  0.10220997659E+02  0.51100000000E-03 0.  1.
        -12    1    3    3    0    0 -0.25249933003E+02  0.33988126062E+02  0.99129255441E+01  0.43485835886E+02  0.00000000000E+00 0.  1.
</event>
<event>
 7    1  0.1654239E-015  0.9000766E+02  0.7816164E-02  0.1186339E+00
        -11   -1    0    0    0    0  0.00000000000E+00  0.00000000000E+00  0.45593999997E+02  0.45594000000E+02  0.51100000000E-03 0.  1.
         11   -1    0    0    0    0 -0.00000000000E+00 -0.00000000000E+00 -0.45593999997E+02  0.45594000000E+02  0.51100000000E-03 0. -1.
    9900012    2    1    2    0    0  0.65508634760E+00 -0.97454127890E+00 -0.11972681315E+00  0.90007659652E+02  0.89999919959E+02 0.  0.
        -12    1    1    2    0    0 -0.65508634760E+00  0.97454127890E+00  0.11972681315E+00  0.11803403479E+01  0.00000000000E+00 0.  1.
         11    1    3    3    0    0  0.34934367135E+01  0.10361472022E+02  0.45470831497E+01  0.11842304166E+02  0.51100000000E-03 0. -1.
        -11    1    3    3    0    0  0.23718945066E+02 -0.12159606901E+01  0.26769666604E+02  0.35786617132E+02  0.51100000000E-03 0.  1.
         12    1    3    3    0    0 -0.26557295432E+02 -0.10120052611E+02 -0.31436476567E+02  0.42378738353E+02  0.00000000000E+00 0. -1.
</event>
<event>
 7    1  0.1654239E-015  0.9000776E+02  0.7816164E-02  0.1186339E+00
        -11   -1    0    0    0    0  0.00000000000E+00  0.00000000000E+00  0.45593999997E+02  0.45594000000E+02  0.51100000000E-03 0. -1.
         11   -1    0    0    0    0 -0.00000000000E+00 -0.00000000000E+00 -0.45593999997E+02  0.45594000000E+02  0.51100000000E-03 0.  1.
    9900012    2    1    2    0    0  0.10444426075E+01 -0.49351645228E+00 -0.24195278833E+00  0.90007762735E+02  0.90000024403E+02 0.  0.
        -12    1    1    2    0    0 -0.10444426075E+01  0.49351645228E+00  0.24195278833E+00  0.11802372646E+01  0.00000000000E+00 0.  1.
         11    1    3    3    0    0 -0.18939630115E+02  0.94997164565E+01  0.30702644087E+02  0.37304243135E+02  0.51100000000E-03 0. -1.
        -11    1    3    3    0    0 -0.48529273132E+01  0.84909425620E+01 -0.13478804857E+01  0.98723751531E+01  0.51100000000E-03 0.  1.
        -12    1    3    3    0    0  0.24837000036E+02 -0.18484175471E+02 -0.29596716390E+02  0.42831144447E+02  0.00000000000E+00 0.  1.
</event>
<event>
 7    1  0.1654239E-015  0.9000768E+02  0.7816164E-02  0.1186339E+00
        -11   -1    0    0    0    0  0.00000000000E+00  0.00000000000E+00  0.45593999997E+02  0.45594000000E+02  0.51100000000E-03 0.  1.
         11   -1    0    0    0    0 -0.00000000000E+00 -0.00000000000E+00 -0.45593999997E+02  0.45594000000E+02  0.51100000000E-03 0. -1.
    9900012    2    1    2    0    0 -0.19940840508E+00 -0.78112708943E+00 -0.86210471613E+00  0.90007683185E+02  0.89999943803E+02 0.  0.
        -12    1    1    2    0    0  0.19940840508E+00  0.78112708943E+00  0.86210471613E+00  0.11803168149E+01  0.00000000000E+00 0.  1.
         11    1    3    3    0    0 -0.36587366101E+02 -0.20535370017E+02  0.60495186452E+01  0.42390251899E+02  0.51100000000E-03 0. -1.
        -11    1    3    3    0    0  0.42751273647E+01  0.42850676696E+01  0.70892679068E+01  0.93218152005E+01  0.51100000000E-03 0.  1.
        -12    1    3    3    0    0  0.32112830331E+02  0.15469175258E+02 -0.14000891268E+02  0.38295616086E+02  0.00000000000E+00 0.  1.
</event>
<event>
 7    1  0.1654239E-015  0.9000774E+02  0.7816164E-02  0.1186339E+00
        -11   -1    0    0    0    0  0.00000000000E+00  0.00000000000E+00  0.45593999997E+02  0.45594000000E+02  0.51100000000E-03 0.  1.
         11   -1    0    0    0    0 -0.00000000000E+00 -0.00000000000E+00 -0.45593999997E+02  0.45594000000E+02  0.51100000000E-03 0. -1.
    9900012    2    1    2    0    0 -0.10422683958E+01  0.73253616982E-01 -0.54893118742E+00  0.90007739457E+02  0.90000000818E+02 0.  0.
        -12    1    1    2    0    0  0.10422683958E+01 -0.73253616982E-01  0.54893118742E+00  0.11802605432E+01  0.00000000000E+00 0.  1.
         11    1    3    3    0    0  0.29716452389E+02  0.26890910148E+01 -0.27350959261E+02  0.40476829494E+02  0.51100000000E-03 0. -1.
        -11    1    3    3    0    0 -0.21000524630E+01 -0.86381287414E+01 -0.12514901095E+01  0.89774003060E+01  0.51100000000E-03 0.  1.
        -12    1    3    3    0    0 -0.28658668322E+02  0.60222913436E+01  0.28053518183E+02  0.40553509657E+02  0.00000000000E+00 0.  1.
</event>
<event>
 7    1  0.1654239E-015  0.9000778E+02  0.7816164E-02  0.1186339E+00
        -11   -1    0    0    0    0  0.00000000000E+00  0.00000000000E+00  0.45593999997E+02  0.45594000000E+02  0.51100000000E-03 0.  1.
         11   -1    0    0    0    0 -0.00000000000E+00 -0.00000000000E+00 -0.45593999997E+02  0.45594000000E+02  0.51100000000E-03 0. -1.
    9900012    2    1    2    0    0 -0.62731118721E-01 -0.11210508687E+01  0.36364615010E+00  0.90007775968E+02  0.90000037811E+02 0.  0.
        -12    1    1    2    0    0  0.62731118721E-01  0.11210508687E+01 -0.36364615010E+00  0.11802240321E+01  0.00000000000E+00 0.  1.
         11    1    3    3    0    0 -0.57677384950E+01  0.13626461526E+02 -0.33175024744E+02  0.36325329016E+02  0.51100000000E-03 0. -1.
        -11    1    3    3    0    0 -0.55553520967E+01  0.47196866719E+01 -0.51548581300E+01  0.89280424395E+01  0.51100000000E-03 0.  1.
        -12    1    3    3    0    0  0.11260359473E+02 -0.19467199067E+02  0.38693529024E+02  0.44754404513E+02  0.00000000000E+00 0.  1.
</event>
<event>
 7    1  0.1654239E-015  0.9000775E+02  0.7816164E-02  0.1186339E+00
        -11   -1    0    0    0    0  0.00000000000E+00  0.00000000000E+00  0.45593999997E+02  0.45594000000E+02  0.51100000000E-03 0.  1.
         11   -1    0    0    0    0 -0.00000000000E+00 -0.00000000000E+00 -0.45593999997E+02  0.45594000000E+02  0.51100000000E-03 0. -1.
    9900012    2    1    2    0    0 -0.97850507992E+00 -0.65258568718E+00  0.98248626871E-01  0.90007748729E+02  0.90000010212E+02 0.  0.
        -12    1    1    2    0    0  0.97850507992E+00  0.65258568718E+00 -0.98248626871E-01  0.11802512712E+01  0.00000000000E+00 0.  1.
         11    1    3    3    0    0 -0.25993713124E+02  0.44976017207E+01 -0.32508885829E+02  0.41865608814E+02  0.51100000000E-03 0. -1.
        -11    1    3    3    0    0  0.68308478605E+01 -0.40453183186E+01 -0.27219270950E+01  0.83924948712E+01  0.51100000000E-03 0.  1.
        -12    1    3    3    0    0  0.18184360184E+02 -0.11048690893E+01  0.35329061551E+02  0.39749645044E+02  0.00000000000E+00 0.  1.
</event>
<event>
 7    1  0.1654239E-015  0.9000799E+02  0.7816164E-02  0.1186339E+00
        -11   -1    0    0    0    0  0.00000000000E+00  0.00000000000E+00  0.45593999997E+02  0.45594000000E+02  0.51100000000E-03 0.  1.
         11   -1    0    0    0    0 -0.00000000000E+00 -0.00000000000E+00 -0.45593999997E+02  0.45594000000E+02  0.51100000000E-03 0. -1.
    9900012    2    1    2    0    0 -0.20608480375E+00 -0.41292898970E+00 -0.10860230217E+01  0.90007988432E+02  0.90000253079E+02 0.  0.
        -12    1    1    2    0    0  0.20608480375E+00  0.41292898970E+00  0.10860230217E+01  0.11800115679E+01  0.00000000000E+00 0.  1.
         11    1    3    3    0    0  0.32789213718E+02 -0.18410874376E+02 -0.36593277387E+01  0.37782052767E+02  0.51100000000E-03 0. -1.
        -11    1    3    3    0    0  0.19872957760E+01  0.26343404515E+00 -0.10648987345E+02  0.10836035887E+02  0.51100000000E-03 0.  1.
        -12    1    3    3    0    0 -0.34982594298E+02  0.17734511341E+02  0.13222292062E+02  0.41389899779E+02  0.00000000000E+00 0.  1.
</event>
<event>
 7    1  0.1654239E-015  0.9000774E+02  0.7816164E-02  0.1186339E+00
        -11   -1    0    0    0    0  0.00000000000E+00  0.00000000000E+00  0.45593999997E+02  0.45594000000E+02  0.51100000000E-03 0.  1.
         11   -1    0    0    0    0 -0.00000000000E+00 -0.00000000000E+00 -0.45593999997E+02  0.45594000000E+02  0.51100000000E-03 0. -1.
    9900012    2    1    2    0    0  0.44882543760E+00 -0.95651286210E+00 -0.52597816750E+00  0.90007739791E+02  0.90000001156E+02 0.  0.
        -12    1    1    2    0    0 -0.44882543760E+00  0.95651286210E+00  0.52597816750E+00  0.11802602092E+01  0.00000000000E+00 0.  1.
         11    1    3    3    0    0  0.28105018378E+02 -0.26274246578E+02 -0.21994209356E+01  0.38536548159E+02  0.51100000000E-03 0. -1.
        -11    1    3    3    0    0  0.84611190628E+01  0.29966872879E+01 -0.88622349281E-01  0.89765541651E+01  0.51100000000E-03 0.  1.
        -12    1    3    3    0    0 -0.36117312003E+02  0.22321046428E+02  0.17620651174E+01  0.42494637467E+02  0.00000000000E+00 0.  1.
</event>
<event>
 7    1  0.1654239E-015  0.9000774E+02  0.7816164E-02  0.1186339E+00
        -11   -1    0    0    0    0  0.00000000000E+00  0.00000000000E+00  0.45593999997E+02  0.45594000000E+02  0.51100000000E-03 0. -1.
         11   -1    0    0    0    0 -0.00000000000E+00 -0.00000000000E+00 -0.45593999997E+02  0.45594000000E+02  0.51100000000E-03 0.  1.
    9900012    2    1    2    0    0 -0.76312251875E+00 -0.52127435597E+00  0.73411740754E+00  0.90007741003E+02  0.90000002384E+02 0.  0.
        -12    1    1    2    0    0  0.76312251875E+00  0.52127435597E+00 -0.73411740754E+00  0.11802589974E+01  0.00000000000E+00 0.  1.
         11    1    3    3    0    0 -0.94701073223E+00  0.12999610703E+02 -0.88865471416E+01  0.15775215628E+02  0.51100000000E-03 0. -1.
        -11    1    3    3    0    0  0.19925929025E+02 -0.60755885955E+00 -0.25225727694E+02  0.32151969041E+02  0.51100000000E-03 0.  1.
         12    1    3    3    0    0 -0.19742040812E+02 -0.12913326199E+02  0.34846392243E+02  0.42080556333E+02  0.00000000000E+00 0. -1.
</event>
<event>
 7    1  0.1654239E-015  0.9000784E+02  0.7816164E-02  0.1186339E+00
        -11   -1    0    0    0    0  0.00000000000E+00  0.00000000000E+00  0.45593999997E+02  0.45594000000E+02  0.51100000000E-03 0. -1.
         11   -1    0    0    0    0 -0.00000000000E+00 -0.00000000000E+00 -0.45593999997E+02  0.45594000000E+02  0.51100000000E-03 0.  1.
    9900012    2    1    2    0    0  0.43058809165E+00  0.81859207169E+00 -0.73299256403E+00  0.90007840187E+02  0.90000102878E+02 0.  0.
        -12    1    1    2    0    0 -0.43058809165E+00 -0.81859207169E+00  0.73299256403E+00  0.11801598127E+01  0.00000000000E+00 0.  1.
         11    1    3    3    0    0  0.22376668839E+02  0.25659940065E+02 -0.28763997675E+02  0.44570342100E+02  0.51100000000E-03 0. -1.
        -11    1    3    3    0    0  0.12713134227E+00 -0.14868390415E+01  0.67070446695E+01  0.68710480404E+01  0.51100000000E-03 0.  1.
        -12    1    3    3    0    0 -0.22073212090E+02 -0.23354508951E+02  0.21323960441E+02  0.38566450047E+02  0.00000000000E+00 0.  1.
</event>
<event>
 7    1  0.1654239E-015  0.9000771E+02  0.7816164E-02  0.1186339E+00
        -11   -1    0    0    0    0  0.00000000000E+00  0.00000000000E+00  0.45593999997E+02  0.45594000000E+02  0.51100000000E-03 0.  1.
         11   -1    0    0    0    0 -0.00000000000E+00 -0.00000000000E+00 -0.45593999997E+02  0.45594000000E+02  0.51100000000E-03 0. -1.
    9900012    2    1    2    0    0  0.72007522853E+00  0.90566967711E+00 -0.23308704981E+00  0.90007713818E+02  0.89999974840E+02 0.  0.
        -12    1    1    2    0    0 -0.72007522853E+00 -0.90566967711E+00  0.23308704981E+00  0.11802861821E+01  0.00000000000E+00 0.  1.
         11    1    3    3    0    0  0.23683447677E+02  0.29955069863E+02 -0.55898223418E+01  0.38593497101E+02  0.51100000000E-03 0. -1.
        -11    1    3    3    0    0  0.62304606181E+01 -0.22842025743E+01 -0.72706581347E+01  0.98437132672E+01  0.51100000000E-03 0.  1.
        -12    1    3    3    0    0 -0.29193833067E+02 -0.26765197612E+02  0.12627393427E+02  0.41570503450E+02  0.00000000000E+00 0.  1.
</event>
<event>
 7    1  0.1654239E-015  0.9000769E+02  0.7816164E-02  0.1186339E+00
        -11   -1    0    0    0    0  0.00000000000E+00  0.00000000000E+00  0.45593999997E+02  0.45594000000E+02  0.51100000000E-03 0. -1.
         11   -1    0    0    0    0 -0.00000000000E+00 -0.00000000000E+00 -0.45593999997E+02  0.45594000000E+02  0.51100000000E-03 0.  1.
    9900012    2    1    2    0    0 -0.24076044878E+00  0.59960604134E+00  0.98773898625E+00  0.90007694403E+02  0.89999955169E+02 0.  0.
        -12    1    1    2    0    0  0.24076044878E+00 -0.59960604134E+00 -0.98773898625E+00  0.11803055975E+01  0.00000000000E+00 0.  1.
         11    1    3    3    0    0 -0.32006139323E+02 -0.54935101929E+01  0.21339288653E+02  0.38857905876E+02  0.51100000000E-03 0. -1.
        -11    1    3    3    0    0 -0.70714768664E+01  0.12156750924E+01 -0.63420223881E+01  0.95762675001E+01  0.51100000000E-03 0.  1.
        -12    1    3    3    0    0  0.38836855741E+02  0.48774411419E+01 -0.14009527278E+02  0.41573521026E+02  0.00000000000E+00 0.  1.
</event>
<event>
 7    1  0.1927785E-015  0.9000779E+02  0.7816164E-02  0.1186339E+00
        -11   -1    0    0    0    0  0.00000000000E+00  0.00000000000E+00  0.45593999997E+02  0.45594000000E+02  0.51100000000E-03 0.  1.
         11   -1    0    0    0    0 -0.00000000000E+00 -0.00000000000E+00 -0.45593999997E+02  0.45594000000E+02  0.51100000000E-03 0. -1.
    9900012    2    1    2    0    0  0.10758125584E+01 -0.48469254426E+00  0.24602223502E-01  0.90007786124E+02  0.90000048101E+02 0.  0.
        -12    1    1    2    0    0 -0.10758125584E+01  0.48469254426E+00 -0.24602223502E-01  0.11802138759E+01  0.00000000000E+00 0.  1.
         11    1    3    3    0    0 -0.42158270403E+01 -0.69960492147E+01  0.47583677746E+01  0.94530400607E+01  0.51100000000E-03 0. -1.
        -11    1    3    3    0    0 -0.11320319537E+02 -0.11008306745E+02  0.32526272734E+02  0.36156477567E+02  0.51100000000E-03 0.  1.
         12    1    3    3    0    0  0.16611959136E+02  0.17519663415E+02 -0.37260038285E+02  0.44398268497E+02  0.00000000000E+00 0. -1.
</event>
<event>
 7    1  0.1654239E-015  0.9000777E+02  0.7816164E-02  0.1186339E+00
        -11   -1    0    0    0    0  0.00000000000E+00  0.00000000000E+00  0.45593999997E+02  0.45594000000E+02  0.51100000000E-03 0.  1.
         11   -1    0    0    0    0 -0.00000000000E+00 -0.00000000000E+00 -0.45593999997E+02  0.45594000000E+02  0.51100000000E-03 0. -1.
    9900012    2    1    2    0    0  0.93442517702E-02  0.25405834718E+00 -0.11525250984E+01  0.90007768217E+02  0.90000029958E+02 0.  0.
        -12    1    1    2    0    0 -0.93442517702E-02 -0.25405834718E+00  0.11525250984E+01  0.11802317828E+01  0.00000000000E+00 0.  1.
         11    1    3    3    0    0 -0.12037623575E+02 -0.23114864566E+02  0.20862622685E+01  0.26144862512E+02  0.51100000000E-03 0. -1.
        -11    1    3    3    0    0 -0.14721660445E+01 -0.17443473630E+02 -0.10274226465E+02  0.20297826851E+02  0.51100000000E-03 0.  1.
        -12    1    3    3    0    0  0.13519133871E+02  0.40812396544E+02  0.70354390985E+01  0.43565078854E+02  0.00000000000E+00 0.  1.
</event>
<event>
 7    1  0.1654239E-015  0.9000767E+02  0.7816164E-02  0.1186339E+00
        -11   -1    0    0    0    0  0.00000000000E+00  0.00000000000E+00  0.45593999997E+02  0.45594000000E+02  0.51100000000E-03 0. -1.
         11   -1    0    0    0    0 -0.00000000000E+00 -0.00000000000E+00 -0.45593999997E+02  0.45594000000E+02  0.51100000000E-03 0.  1.
    9900012    2    1    2    0    0 -0.78821416172E+00  0.38995188736E+00  0.78729158475E+00  0.90007672893E+02  0.89999933376E+02 0.  0.
        -12    1    1    2    0    0  0.78821416172E+00 -0.38995188736E+00 -0.78729158475E+00  0.11803271066E+01  0.00000000000E+00 0.  1.
         11    1    3    3    0    0  0.25159621347E+02 -0.24375085291E+02 -0.43778005698E+01  0.35303207607E+02  0.51100000000E-03 0. -1.
        -11    1    3    3    0    0  0.84409801741E+01 -0.18338573766E+01 -0.51037087431E+01  0.10032996680E+02  0.51100000000E-03 0.  1.
        -12    1    3    3    0    0 -0.34388815683E+02  0.26598894555E+02  0.10268800898E+02  0.44671468607E+02  0.00000000000E+00 0.  1.
</event>
<event>
 7    1  0.1654239E-015  0.9000774E+02  0.7816164E-02  0.1186339E+00
        -11   -1    0    0    0    0  0.00000000000E+00  0.00000000000E+00  0.45593999997E+02  0.45594000000E+02  0.51100000000E-03 0.  1.
         11   -1    0    0    0    0 -0.00000000000E+00 -0.00000000000E+00 -0.45593999997E+02  0.45594000000E+02  0.51100000000E-03 0. -1.
    9900012    2    1    2    0    0 -0.18009887307E+00  0.85657033649E+00 -0.79174368958E+00  0.90007743072E+02  0.90000004481E+02 0.  0.
        -12    1    1    2    0    0  0.18009887307E+00 -0.85657033649E+00  0.79174368958E+00  0.11802569277E+01  0.00000000000E+00 0.  1.
         11    1    3    3    0    0 -0.79629530861E+01  0.49369101530E+00  0.47732367464E+01  0.92971039559E+01  0.51100000000E-03 0. -1.
        -11    1    3    3    0    0 -0.78498641097E+01  0.37714170321E+02 -0.10480338500E+02  0.39922631487E+02  0.51100000000E-03 0.  1.
         12    1    3    3    0    0  0.15632718323E+02 -0.37351290999E+02  0.49153580637E+01  0.40788007629E+02  0.00000000000E+00 0. -1.
</event>
<event>
 7    1  0.1654239E-015  0.9000774E+02  0.7816164E-02  0.1186339E+00
        -11   -1    0    0    0    0  0.00000000000E+00  0.00000000000E+00  0.45593999997E+02  0.45594000000E+02  0.51100000000E-03 0.  1.
         11   -1    0    0    0    0 -0.00000000000E+00 -0.00000000000E+00 -0.45593999997E+02  0.45594000000E+02  0.51100000000E-03 0. -1.
    9900012    2    1    2    0    0  0.15557914212E+00 -0.11175900796E+01 -0.34612747814E+00  0.90007738721E+02  0.90000000072E+02 0.  0.
        -12    1    1    2    0    0 -0.15557914212E+00  0.11175900796E+01  0.34612747814E+00  0.11802612790E+01  0.00000000000E+00 0.  1.
         11    1    3    3    0    0 -0.15228422083E+02  0.67988532210E+01 -0.32805493790E+02  0.36801218285E+02  0.51100000000E-03 0. -1.
        -11    1    3    3    0    0 -0.59487247960E+01 -0.14788044413E+02  0.30470616909E+01  0.16228313821E+02  0.51100000000E-03 0.  1.
        -12    1    3    3    0    0  0.21332726021E+02  0.68716011128E+01  0.29412304621E+02  0.36978206614E+02  0.00000000000E+00 0.  1.
</event>
<event>
 7    1  0.1654239E-015  0.9000778E+02  0.7816164E-02  0.1186339E+00
        -11   -1    0    0    0    0  0.00000000000E+00  0.00000000000E+00  0.45593999997E+02  0.45594000000E+02  0.51100000000E-03 0. -1.
         11   -1    0    0    0    0 -0.00000000000E+00 -0.00000000000E+00 -0.45593999997E+02  0.45594000000E+02  0.51100000000E-03 0.  1.
    9900012    2    1    2    0    0 -0.27477578066E+00 -0.74900947514E+00  0.86971189943E+00  0.90007781498E+02  0.90000043414E+02 0.  0.
        -12    1    1    2    0    0  0.27477578066E+00  0.74900947514E+00 -0.86971189943E+00  0.11802185016E+01  0.00000000000E+00 0.  1.
         11    1    3    3    0    0 -0.70045508278E+01  0.16569400102E+02  0.37832992538E+02  0.41892052667E+02  0.51100000000E-03 0. -1.
        -11    1    3    3    0    0  0.81634212471E+01 -0.42557038637E+01 -0.34688450853E+00  0.92126429952E+01  0.51100000000E-03 0.  1.
        -12    1    3    3    0    0 -0.14336462000E+01 -0.13062705714E+02 -0.36616396130E+02  0.38903085836E+02  0.00000000000E+00 0.  1.
</event>
<event>
 7    1  0.1654239E-015  0.9000779E+02  0.7816164E-02  0.1186339E+00
        -11   -1    0    0    0    0  0.00000000000E+00  0.00000000000E+00  0.45593999997E+02  0.45594000000E+02  0.51100000000E-03 0.  1.
         11   -1    0    0    0    0 -0.00000000000E+00 -0.00000000000E+00 -0.45593999997E+02  0.45594000000E+02  0.51100000000E-03 0. -1.
    9900012    2    1    2    0    0 -0.94038238577E+00  0.34093521934E+00 -0.62636488282E+00  0.90007792890E+02  0.90000054956E+02 0.  0.
        -12    1    1    2    0    0  0.94038238577E+00 -0.34093521934E+00  0.62636488282E+00  0.11802071097E+01  0.00000000000E+00 0.  1.
         11    1    3    3    0    0 -0.29475776770E+02  0.17854126904E+02 -0.20847638759E+02  0.40276734051E+02  0.51100000000E-03 0. -1.
        -11    1    3    3    0    0 -0.35278449552E+01  0.41372565602E+01  0.69620714784E+01  0.88336301374E+01  0.51100000000E-03 0.  1.
        -12    1    3    3    0    0  0.32063239340E+02 -0.21650448245E+02  0.13259202398E+02  0.40897428702E+02  0.00000000000E+00 0.  1.
</event>
<event>
 7    1  0.1654239E-015  0.9000785E+02  0.7816164E-02  0.1186339E+00
        -11   -1    0    0    0    0  0.00000000000E+00  0.00000000000E+00  0.45593999997E+02  0.45594000000E+02  0.51100000000E-03 0. -1.
         11   -1    0    0    0    0 -0.00000000000E+00 -0.00000000000E+00 -0.45593999997E+02  0.45594000000E+02  0.51100000000E-03 0.  1.
    9900012    2    1    2    0    0  0.69407576951E+00  0.17577701192E+00 -0.93814010469E+00  0.90007853574E+02  0.90000116441E+02 0.  0.
        -12    1    1    2    0    0 -0.69407576951E+00 -0.17577701192E+00  0.93814010469E+00  0.11801464264E+01  0.00000000000E+00 0.  1.
         11    1    3    3    0    0 -0.36773968557E+01 -0.41692803738E+01 -0.10415523665E+02  0.11806323727E+02  0.51100000000E-03 0. -1.
        -11    1    3    3    0    0  0.55376457579E+01 -0.20241762132E+02 -0.26999855451E+02  0.34196295843E+02  0.51100000000E-03 0.  1.
         12    1    3    3    0    0 -0.11661731327E+01  0.24586819518E+02  0.36477239012E+02  0.44005234003E+02  0.00000000000E+00 0. -1.
</event>
<event>
 7    1  0.1654239E-015  0.9000775E+02  0.7816164E-02  0.1186339E+00
        -11   -1    0    0    0    0  0.00000000000E+00  0.00000000000E+00  0.45593999997E+02  0.45594000000E+02  0.51100000000E-03 0.  1.
         11   -1    0    0    0    0 -0.00000000000E+00 -0.00000000000E+00 -0.45593999997E+02  0.45594000000E+02  0.51100000000E-03 0. -1.
    9900012    2    1    2    0    0 -0.10225775000E+01 -0.45245108407E+00  0.37764292673E+00  0.90007749642E+02  0.90000011137E+02 0.  0.
        -12    1    1    2    0    0  0.10225775000E+01  0.45245108407E+00 -0.37764292673E+00  0.11802503578E+01  0.00000000000E+00 0.  1.
         11    1    3    3    0    0 -0.11226992017E+02  0.16510922240E+01 -0.27603727013E+01  0.11678660583E+02  0.51100000000E-03 0. -1.
        -11    1    3    3    0    0  0.30957870544E+02 -0.67000006075E+00 -0.27421086134E+02  0.41361269489E+02  0.51100000000E-03 0.  1.
         12    1    3    3    0    0 -0.20753456027E+02 -0.14335432474E+01  0.30559101762E+02  0.36967819571E+02  0.00000000000E+00 0. -1.
</event>
<event>
 7    1  0.1654239E-015  0.9000798E+02  0.7816164E-02  0.1186339E+00
        -11   -1    0    0    0    0  0.00000000000E+00  0.00000000000E+00  0.45593999997E+02  0.45594000000E+02  0.51100000000E-03 0. -1.
         11   -1    0    0    0    0 -0.00000000000E+00 -0.00000000000E+00 -0.45593999997E+02  0.45594000000E+02  0.51100000000E-03 0.  1.
    9900012    2    1    2    0    0  0.11726381904E+01  0.11387782409E+00 -0.66310685499E-01  0.90007980682E+02  0.90000245226E+02 0.  0.
        -12    1    1    2    0    0 -0.11726381904E+01 -0.11387782409E+00  0.66310685499E-01  0.11800193182E+01  0.00000000000E+00 0.  1.
         11    1    3    3    0    0  0.22280759499E+02 -0.14852864640E+02  0.29594188856E+02  0.39910598168E+02  0.51100000000E-03 0. -1.
        -11    1    3    3    0    0  0.23079536864E+01 -0.73323212947E+01 -0.32440589718E+01  0.83434707802E+01  0.51100000000E-03 0.  1.
        -12    1    3    3    0    0 -0.23416074995E+02  0.22299063759E+02 -0.26416440569E+02  0.41753911733E+02  0.00000000000E+00 0.  1.
</event>
<event>
 7    1  0.1654239E-015  0.9000773E+02  0.7816164E-02  0.1186339E+00
        -11   -1    0    0    0    0  0.00000000000E+00  0.00000000000E+00  0.45593999997E+02  0.45594000000E+02  0.51100000000E-03 0.  1.
         11   -1    0    0    0    0 -0.00000000000E+00 -0.00000000000E+00 -0.45593999997E+02  0.45594000000E+02  0.51100000000E-03 0. -1.
    9900012    2    1    2    0    0 -0.11137149131E+01 -0.38843328927E+00  0.42489822792E-01  0.90007726001E+02  0.89999987184E+02 0.  0.
        -12    1    1    2    0    0  0.11137149131E+01  0.38843328927E+00 -0.42489822792E-01  0.11802739991E+01  0.00000000000E+00 0.  1.
         11    1    3    3    0    0 -0.72890276528E+00  0.97028064250E+01 -0.67576131281E-02  0.97301489037E+01  0.51100000000E-03 0. -1.
        -11    1    3    3    0    0  0.88763082786E+01  0.29754672963E+02 -0.17637177572E+02  0.35709934819E+02  0.51100000000E-03 0.  1.
         12    1    3    3    0    0 -0.92611204264E+01 -0.39845912678E+02  0.17686425008E+02  0.44567642278E+02  0.00000000000E+00 0. -1.
</event>
<event>
 7    1  0.1654239E-015  0.9000777E+02  0.7816164E-02  0.1186339E+00
        -11   -1    0    0    0    0  0.00000000000E+00  0.00000000000E+00  0.45593999997E+02  0.45594000000E+02  0.51100000000E-03 0.  1.
         11   -1    0    0    0    0 -0.00000000000E+00 -0.00000000000E+00 -0.45593999997E+02  0.45594000000E+02  0.51100000000E-03 0. -1.
    9900012    2    1    2    0    0  0.17513180897E+00 -0.50773034315E+00 -0.10509401953E+01  0.90007772672E+02  0.90000034471E+02 0.  0.
        -12    1    1    2    0    0 -0.17513180897E+00  0.50773034315E+00  0.10509401953E+01  0.11802273280E+01  0.00000000000E+00 0.  1.
         11    1    3    3    0    0  0.18776494598E+02  0.18658374531E+02 -0.24483367196E+02  0.36057273317E+02  0.51100000000E-03 0. -1.
        -11    1    3    3    0    0  0.95586416481E+01  0.63348896674E+00 -0.35455515638E+01  0.10214689157E+02  0.51100000000E-03 0.  1.
        -12    1    3    3    0    0 -0.28160004437E+02 -0.19799593841E+02  0.26977978565E+02  0.43735810197E+02  0.00000000000E+00 0.  1.
</event>
<event>
 7    1  0.1654239E-015  0.9000757E+02  0.7816164E-02  0.1186339E+00
        -11   -1    0    0    0    0  0.00000000000E+00  0.00000000000E+00  0.45593999997E+02  0.45594000000E+02  0.51100000000E-03 0.  1.
         11   -1    0    0    0    0 -0.00000000000E+00 -0.00000000000E+00 -0.45593999997E+02  0.45594000000E+02  0.51100000000E-03 0. -1.
    9900012    2    1    2    0    0 -0.19363450445E+00  0.21835702669E+00 -0.11437884114E+01  0.90007565316E+02  0.89999824378E+02 0.  0.
        -12    1    1    2    0    0  0.19363450445E+00 -0.21835702669E+00  0.11437884114E+01  0.11804346837E+01  0.00000000000E+00 0.  1.
         11    1    3    3    0    0  0.25139230222E+01  0.11019793075E+02 -0.62935079960E+01  0.12936919708E+02  0.51100000000E-03 0. -1.
        -11    1    3    3    0    0  0.19003418091E+02 -0.18181308853E+02  0.32221559909E+02  0.41592292723E+02  0.51100000000E-03 0.  1.
         12    1    3    3    0    0 -0.21710975617E+02  0.73798728043E+01 -0.27071840325E+02  0.35478352885E+02  0.00000000000E+00 0. -1.
</event>
<event>
 7    1  0.1654239E-015  0.9000792E+02  0.7816164E-02  0.1186339E+00
        -11   -1    0    0    0    0  0.00000000000E+00  0.00000000000E+00  0.45593999997E+02  0.45594000000E+02  0.51100000000E-03 0.  1.
         11   -1    0    0    0    0 -0.00000000000E+00 -0.00000000000E+00 -0.45593999997E+02  0.45594000000E+02  0.51100000000E-03 0. -1.
    9900012    2    1    2    0    0 -0.45096554858E+00 -0.40689410833E+00 -0.10117554713E+01  0.90007922937E+02  0.90000186719E+02 0.  0.
        -12    1    1    2    0    0  0.45096554858E+00  0.40689410833E+00  0.10117554713E+01  0.11800770632E+01  0.00000000000E+00 0.  1.
         11    1    3    3    0    0 -0.21643408438E+02 -0.19556655724E+02 -0.20070905887E+02  0.35408207739E+02  0.51100000000E-03 0.  1.
        -11    1    3    3    0    0  0.14635277174E+02 -0.10223096129E+02  0.16643341569E+02  0.24407045115E+02  0.51100000000E-03 0. -1.
        -12    1    3    3    0    0  0.65571657157E+01  0.29372857745E+02  0.24158088466E+01  0.30192670082E+02  0.00000000000E+00 0.  1.
</event>
<event>
 7    1  0.1654239E-015  0.9000777E+02  0.7816164E-02  0.1186339E+00
        -11   -1    0    0    0    0  0.00000000000E+00  0.00000000000E+00  0.45593999997E+02  0.45594000000E+02  0.51100000000E-03 0.  1.
         11   -1    0    0    0    0 -0.00000000000E+00 -0.00000000000E+00 -0.45593999997E+02  0.45594000000E+02  0.51100000000E-03 0. -1.
    9900012    2    1    2    0    0 -0.17850073313E-01 -0.49374850914E+00 -0.10718423076E+01  0.90007766062E+02  0.90000027774E+02 0.  0.
        -12    1    1    2    0    0  0.17850073313E-01  0.49374850914E+00  0.10718423076E+01  0.11802339377E+01  0.00000000000E+00 0.  1.
         11    1    3    3    0    0  0.53483570633E+01 -0.68278305329E+00 -0.72094723119E+01  0.90026444588E+01  0.51100000000E-03 0. -1.
        -11    1    3    3    0    0 -0.57352075166E+01 -0.31457250239E+02 -0.21873207606E+02  0.38741301077E+02  0.51100000000E-03 0.  1.
         12    1    3    3    0    0  0.36900038002E+00  0.31646284784E+02  0.28010837610E+02  0.42263820527E+02  0.00000000000E+00 0. -1.
</event>
<event>
 7    1  0.1654239E-015  0.9000775E+02  0.7816164E-02  0.1186339E+00
        -11   -1    0    0    0    0  0.00000000000E+00  0.00000000000E+00  0.45593999997E+02  0.45594000000E+02  0.51100000000E-03 0.  1.
         11   -1    0    0    0    0 -0.00000000000E+00 -0.00000000000E+00 -0.45593999997E+02  0.45594000000E+02  0.51100000000E-03 0. -1.
    9900012    2    1    2    0    0  0.99966331775E-01  0.11182485477E+01  0.36401466104E+00  0.90007754367E+02  0.90000015924E+02 0.  0.
        -12    1    1    2    0    0 -0.99966331775E-01 -0.11182485477E+01 -0.36401466104E+00  0.11802456335E+01  0.00000000000E+00 0.  1.
         11    1    3    3    0    0 -0.25387607337E+02 -0.10497855975E+02 -0.24231882718E+02  0.36632222519E+02  0.51100000000E-03 0. -1.
        -11    1    3    3    0    0 -0.99027950222E+01  0.12548467495E+01  0.21675301452E+01  0.10214606052E+02  0.51100000000E-03 0.  1.
        -12    1    3    3    0    0  0.35390368691E+02  0.10361257773E+02  0.22428367234E+02  0.43160925795E+02  0.00000000000E+00 0.  1.
</event>
<event>
 7    1  0.1688277E-015  0.9000767E+02  0.7816164E-02  0.1186339E+00
        -11   -1    0    0    0    0  0.00000000000E+00  0.00000000000E+00  0.45593999997E+02  0.45594000000E+02  0.51100000000E-03 0.  1.
         11   -1    0    0    0    0 -0.00000000000E+00 -0.00000000000E+00 -0.45593999997E+02  0.45594000000E+02  0.51100000000E-03 0. -1.
    9900012    2    1    2    0    0  0.10583372164E+00  0.10444812570E+01  0.53947100034E+00  0.90007673421E+02  0.89999933910E+02 0.  0.
        -12    1    1    2    0    0 -0.10583372164E+00 -0.10444812570E+01 -0.53947100034E+00  0.11803265790E+01  0.00000000000E+00 0.  1.
         11    1    3    3    0    0  0.22962638192E+01 -0.63612980942E+01 -0.67173216858E+01  0.95321221070E+01  0.51100000000E-03 0. -1.
        -11    1    3    3    0    0 -0.65703327813E+01 -0.33271084052E+02 -0.11030552368E+02  0.35662408677E+02  0.51100000000E-03 0.  1.
         12    1    3    3    0    0  0.43799026838E+01  0.40676863403E+02  0.18287345054E+02  0.44813142637E+02  0.00000000000E+00 0. -1.
</event>
<event>
 7    1  0.1654239E-015  0.9000761E+02  0.7816164E-02  0.1186339E+00
        -11   -1    0    0    0    0  0.00000000000E+00  0.00000000000E+00  0.45593999997E+02  0.45594000000E+02  0.51100000000E-03 0.  1.
         11   -1    0    0    0    0 -0.00000000000E+00 -0.00000000000E+00 -0.45593999997E+02  0.45594000000E+02  0.51100000000E-03 0. -1.
    9900012    2    1    2    0    0 -0.35368938169E+00 -0.78022495294E+00 -0.81207297574E+00  0.90007614608E+02  0.89999874321E+02 0.  0.
        -12    1    1    2    0    0  0.35368938169E+00  0.78022495294E+00  0.81207297574E+00  0.11803853921E+01  0.00000000000E+00 0.  1.
         11    1    3    3    0    0  0.14091849017E+02 -0.35078751687E+02  0.10600317888E+02  0.39261504915E+02  0.51100000000E-03 0. -1.
        -11    1    3    3    0    0  0.18467794517E+01  0.92533011516E+00  0.84026418467E+01  0.86528157516E+01  0.51100000000E-03 0.  1.
        -12    1    3    3    0    0 -0.16292317850E+02  0.33373196619E+02 -0.19815032711E+02  0.42093293941E+02  0.00000000000E+00 0.  1.
</event>
<event>
 7    1  0.1654239E-015  0.9000774E+02  0.7816164E-02  0.1186339E+00
        -11   -1    0    0    0    0  0.00000000000E+00  0.00000000000E+00  0.45593999997E+02  0.45594000000E+02  0.51100000000E-03 0.  1.
         11   -1    0    0    0    0 -0.00000000000E+00 -0.00000000000E+00 -0.45593999997E+02  0.45594000000E+02  0.51100000000E-03 0. -1.
    9900012    2    1    2    0    0  0.78182006525E+00 -0.84018519964E+00 -0.27540695288E+00  0.90007744615E+02  0.90000006044E+02 0.  0.
        -12    1    1    2    0    0 -0.78182006525E+00  0.84018519964E+00  0.27540695288E+00  0.11802553850E+01  0.00000000000E+00 0.  1.
         11    1    3    3    0    0 -0.86632171469E+01  0.21821706634E+02 -0.30262452731E+02  0.38302144291E+02  0.51100000000E-03 0. -1.
        -11    1    3    3    0    0  0.36136797816E+01 -0.64957214629E+01 -0.74427763567E+01  0.10518935262E+02  0.51100000000E-03 0.  1.
        -12    1    3    3    0    0  0.58313574306E+01 -0.16166170370E+02  0.37429822134E+02  0.41186665062E+02  0.00000000000E+00 0.  1.
</event>
<event>
 7    1  0.1654239E-015  0.9000766E+02  0.7816164E-02  0.1186339E+00
        -11   -1    0    0    0    0  0.00000000000E+00  0.00000000000E+00  0.45593999997E+02  0.45594000000E+02  0.51100000000E-03 0.  1.
         11   -1    0    0    0    0 -0.00000000000E+00 -0.00000000000E+00 -0.45593999997E+02  0.45594000000E+02  0.51100000000E-03 0. -1.
    9900012    2    1    2    0    0 -0.10576216102E+01  0.29427565802E+00 -0.43363405674E+00  0.90007661011E+02  0.89999921337E+02 0.  0.
        -12    1    1    2    0    0  0.10576216102E+01 -0.29427565802E+00  0.43363405674E+00  0.11803389887E+01  0.00000000000E+00 0.  1.
         11    1    3    3    0    0  0.26330033990E+01  0.22249486920E+01 -0.29488542366E+02  0.29689345475E+02  0.51100000000E-03 0. -1.
        -11    1    3    3    0    0 -0.91394468481E+01  0.15157869568E+02 -0.77909032871E+01  0.19338786746E+02  0.51100000000E-03 0.  1.
        -12    1    3    3    0    0  0.54488218390E+01 -0.17088542602E+02  0.36845811596E+02  0.40979528790E+02  0.00000000000E+00 0.  1.
</event>
<event>
 7    1  0.1654239E-015  0.9000774E+02  0.7816164E-02  0.1186339E+00
        -11   -1    0    0    0    0  0.00000000000E+00  0.00000000000E+00  0.45593999997E+02  0.45594000000E+02  0.51100000000E-03 0.  1.
         11   -1    0    0    0    0 -0.00000000000E+00 -0.00000000000E+00 -0.45593999997E+02  0.45594000000E+02  0.51100000000E-03 0. -1.
    9900012    2    1    2    0    0 -0.15272215926E+00  0.10376870400E+01  0.54120149596E+00  0.90007738372E+02  0.89999999719E+02 0.  0.
        -12    1    1    2    0    0  0.15272215926E+00 -0.10376870400E+01 -0.54120149596E+00  0.11802616279E+01  0.00000000000E+00 0.  1.
         11    1    3    3    0    0  0.14407447834E+02 -0.17946815998E+02  0.24523772826E+02  0.33631505934E+02  0.51100000000E-03 0. -1.
        -11    1    3    3    0    0  0.16190234075E+02  0.43077933030E+01 -0.56269655894E+01  0.17673242616E+02  0.51100000000E-03 0.  1.
        -12    1    3    3    0    0 -0.30750404069E+02  0.14676709735E+02 -0.18355605740E+02  0.38702989822E+02  0.00000000000E+00 0.  1.
</event>
<event>
 7    1  0.1654239E-015  0.9000760E+02  0.7816164E-02  0.1186339E+00
        -11   -1    0    0    0    0  0.00000000000E+00  0.00000000000E+00  0.45593999997E+02  0.45594000000E+02  0.51100000000E-03 0. -1.
         11   -1    0    0    0    0 -0.00000000000E+00 -0.00000000000E+00 -0.45593999997E+02  0.45594000000E+02  0.51100000000E-03 0.  1.
    9900012    2    1    2    0    0  0.16307932195E+00  0.50340220048E-01  0.11679952473E+01  0.90007600957E+02  0.89999860490E+02 0.  0.
        -12    1    1    2    0    0 -0.16307932195E+00 -0.50340220048E-01 -0.11679952473E+01  0.11803990430E+01  0.00000000000E+00 0.  1.
         11    1    3    3    0    0  0.37022233195E+01 -0.61576474326E+01  0.71176514697E+01  0.10113557342E+02  0.51100000000E-03 0. -1.
        -11    1    3    3    0    0  0.96910071446E+01 -0.25193437060E+02 -0.28326934195E+02  0.39128507402E+02  0.51100000000E-03 0.  1.
         12    1    3    3    0    0 -0.13230151142E+02  0.31401424713E+02  0.22377277972E+02  0.40765536213E+02  0.00000000000E+00 0. -1.
</event>
<event>
 7    1  0.1654239E-015  0.9000778E+02  0.7816164E-02  0.1186339E+00
        -11   -1    0    0    0    0  0.00000000000E+00  0.00000000000E+00  0.45593999997E+02  0.45594000000E+02  0.51100000000E-03 0. -1.
         11   -1    0    0    0    0 -0.00000000000E+00 -0.00000000000E+00 -0.45593999997E+02  0.45594000000E+02  0.51100000000E-03 0.  1.
    9900012    2    1    2    0    0  0.92275749080E+00 -0.66964978308E+00 -0.30496598042E+00  0.90007781178E+02  0.90000043089E+02 0.  0.
        -12    1    1    2    0    0 -0.92275749080E+00  0.66964978308E+00  0.30496598042E+00  0.11802188221E+01  0.00000000000E+00 0.  1.
         11    1    3    3    0    0 -0.90847289736E+00 -0.40183395595E+01 -0.96748264769E+01  0.10515447848E+02  0.51100000000E-03 0. -1.
        -11    1    3    3    0    0 -0.11882121291E+02 -0.35171743862E+02 -0.15956071434E+01  0.37158879626E+02  0.51100000000E-03 0.  1.
         12    1    3    3    0    0  0.13713351680E+02  0.38520433638E+02  0.10965467640E+02  0.42333453704E+02  0.00000000000E+00 0. -1.
</event>
<event>
 7    1  0.1654239E-015  0.9000778E+02  0.7816164E-02  0.1186339E+00
        -11   -1    0    0    0    0  0.00000000000E+00  0.00000000000E+00  0.45593999997E+02  0.45594000000E+02  0.51100000000E-03 0.  1.
         11   -1    0    0    0    0 -0.00000000000E+00 -0.00000000000E+00 -0.45593999997E+02  0.45594000000E+02  0.51100000000E-03 0. -1.
    9900012    2    1    2    0    0 -0.67112112307E+00  0.85537218842E+00 -0.45919800108E+00  0.90007776315E+02  0.90000038162E+02 0.  0.
        -12    1    1    2    0    0  0.67112112307E+00 -0.85537218842E+00  0.45919800108E+00  0.11802236850E+01  0.00000000000E+00 0.  1.
         11    1    3    3    0    0  0.26892637138E+02 -0.47404817141E+01 -0.33897024204E+02  0.43528086901E+02  0.51100000000E-03 0. -1.
        -11    1    3    3    0    0  0.70909236649E+00  0.14606238176E+01  0.81905224346E+01  0.83499037080E+01  0.51100000000E-03 0.  1.
        -12    1    3    3    0    0 -0.28272850627E+02  0.41352300849E+01  0.25247303768E+02  0.38129785706E+02  0.00000000000E+00 0.  1.
</event>
<event>
 7    1  0.1654239E-015  0.9000774E+02  0.7816164E-02  0.1186339E+00
        -11   -1    0    0    0    0  0.00000000000E+00  0.00000000000E+00  0.45593999997E+02  0.45594000000E+02  0.51100000000E-03 0.  1.
         11   -1    0    0    0    0 -0.00000000000E+00 -0.00000000000E+00 -0.45593999997E+02  0.45594000000E+02  0.51100000000E-03 0. -1.
    9900012    2    1    2    0    0 -0.10329655268E+00  0.17559336015E+00 -0.11625411148E+01  0.90007743651E+02  0.90000005067E+02 0.  0.
        -12    1    1    2    0    0  0.10329655268E+00 -0.17559336015E+00  0.11625411148E+01  0.11802563491E+01  0.00000000000E+00 0.  1.
         11    1    3    3    0    0  0.15230924682E+01  0.42931900278E+01 -0.33927669109E+02  0.34232119752E+02  0.51100000000E-03 0. -1.
        -11    1    3    3    0    0  0.24682321207E+01  0.69669495799E+01 -0.94160837416E+01  0.11970513337E+02  0.51100000000E-03 0.  1.
        -12    1    3    3    0    0 -0.40946211415E+01 -0.11084546248E+02  0.42181211736E+02  0.43805110562E+02  0.00000000000E+00 0.  1.
</event>
<event>
 7    1  0.1654239E-015  0.9000773E+02  0.7816164E-02  0.1186339E+00
        -11   -1    0    0    0    0  0.00000000000E+00  0.00000000000E+00  0.45593999997E+02  0.45594000000E+02  0.51100000000E-03 0. -1.
         11   -1    0    0    0    0 -0.00000000000E+00 -0.00000000000E+00 -0.45593999997E+02  0.45594000000E+02  0.51100000000E-03 0.  1.
    9900012    2    1    2    0    0  0.96584257933E+00 -0.23836148551E+00  0.63511435584E+00  0.90007729552E+02  0.89999990782E+02 0.  0.
        -12    1    1    2    0    0 -0.96584257933E+00  0.23836148551E+00 -0.63511435584E+00  0.11802704482E+01  0.00000000000E+00 0.  1.
         11    1    3    3    0    0 -0.25051392115E+01  0.81757190264E+01 -0.13656063472E+01  0.86592716220E+01  0.51100000000E-03 0. -1.
        -11    1    3    3    0    0  0.22402681555E+02  0.30576675597E+02 -0.80545122624E+00  0.37913875869E+02  0.51100000000E-03 0.  1.
         12    1    3    3    0    0 -0.18931699764E+02 -0.38990756109E+02  0.28061719293E+01  0.43434582061E+02  0.00000000000E+00 0. -1.
</event>
<event>
 7    1  0.1654239E-015  0.9000776E+02  0.7816164E-02  0.1186339E+00
        -11   -1    0    0    0    0  0.00000000000E+00  0.00000000000E+00  0.45593999997E+02  0.45594000000E+02  0.51100000000E-03 0. -1.
         11   -1    0    0    0    0 -0.00000000000E+00 -0.00000000000E+00 -0.45593999997E+02  0.45594000000E+02  0.51100000000E-03 0.  1.
    9900012    2    1    2    0    0 -0.38422499746E+00 -0.11101899948E+01  0.11318913861E+00  0.90007761696E+02  0.90000023350E+02 0.  0.
        -12    1    1    2    0    0  0.38422499746E+00  0.11101899948E+01 -0.11318913861E+00  0.11802383040E+01  0.00000000000E+00 0.  1.
         11    1    3    3    0    0 -0.50379946014E+01 -0.56655164729E+01  0.75279202643E+01  0.10684055891E+02  0.51100000000E-03 0. -1.
        -11    1    3    3    0    0 -0.36556155601E+01 -0.36690493939E+02 -0.45493380750E+01  0.37151747574E+02  0.51100000000E-03 0.  1.
         12    1    3    3    0    0  0.83093851640E+01  0.41245820417E+02 -0.28653930506E+01  0.42171958231E+02  0.00000000000E+00 0. -1.
</event>
<event>
 7    1  0.1654239E-015  0.9000757E+02  0.7816164E-02  0.1186339E+00
        -11   -1    0    0    0    0  0.00000000000E+00  0.00000000000E+00  0.45593999997E+02  0.45594000000E+02  0.51100000000E-03 0.  1.
         11   -1    0    0    0    0 -0.00000000000E+00 -0.00000000000E+00 -0.45593999997E+02  0.45594000000E+02  0.51100000000E-03 0. -1.
    9900012    2    1    2    0    0  0.10562200015E+01 -0.11058760132E+00 -0.51534713332E+00  0.90007570851E+02  0.89999829986E+02 0.  0.
        -12    1    1    2    0    0 -0.10562200015E+01  0.11058760132E+00  0.51534713332E+00  0.11804291495E+01  0.00000000000E+00 0.  1.
         11    1    3    3    0    0 -0.11112186413E+01  0.72178567286E+01 -0.51933313550E+01  0.89611915194E+01  0.51100000000E-03 0. -1.
        -11    1    3    3    0    0 -0.24066379158E+02 -0.22378109038E+02  0.27745692474E+02  0.43009229487E+02  0.51100000000E-03 0.  1.
         12    1    3    3    0    0  0.26233817801E+02  0.15049664709E+02 -0.23067708252E+02  0.38037149844E+02  0.00000000000E+00 0. -1.
</event>
<event>
 7    1  0.1654239E-015  0.9000775E+02  0.7816164E-02  0.1186339E+00
        -11   -1    0    0    0    0  0.00000000000E+00  0.00000000000E+00  0.45593999997E+02  0.45594000000E+02  0.51100000000E-03 0. -1.
         11   -1    0    0    0    0 -0.00000000000E+00 -0.00000000000E+00 -0.45593999997E+02  0.45594000000E+02  0.51100000000E-03 0.  1.
    9900012    2    1    2    0    0  0.42032327118E+00 -0.16022192826E+00  0.10911727223E+01  0.90007745524E+02  0.90000006965E+02 0.  0.
        -12    1    1    2    0    0 -0.42032327118E+00  0.16022192826E+00 -0.10911727223E+01  0.11802544761E+01  0.00000000000E+00 0.  1.
         11    1    3    3    0    0 -0.36188806679E+02 -0.10572272479E+01 -0.15690855623E+01  0.36238232408E+02  0.51100000000E-03 0. -1.
        -11    1    3    3    0    0 -0.65595569808E+01 -0.57712473337E+01  0.49262480378E+01  0.10030104863E+02  0.51100000000E-03 0.  1.
        -12    1    3    3    0    0  0.43168686931E+02  0.66682526533E+01 -0.22659897533E+01  0.43739408253E+02  0.00000000000E+00 0.  1.
</event>
<event>
 7    1  0.1654239E-015  0.9000787E+02  0.7816164E-02  0.1186339E+00
        -11   -1    0    0    0    0  0.00000000000E+00  0.00000000000E+00  0.45593999997E+02  0.45594000000E+02  0.51100000000E-03 0.  1.
         11   -1    0    0    0    0 -0.00000000000E+00 -0.00000000000E+00 -0.45593999997E+02  0.45594000000E+02  0.51100000000E-03 0. -1.
    9900012    2    1    2    0    0 -0.43929950737E+00 -0.13570349044E+00 -0.10868839933E+01  0.90007865978E+02  0.90000129009E+02 0.  0.
        -12    1    1    2    0    0  0.43929950737E+00  0.13570349044E+00  0.10868839933E+01  0.11801340218E+01  0.00000000000E+00 0.  1.
         11    1    3    3    0    0  0.28650539052E+02 -0.83239846624E+01 -0.25715050910E+02  0.39387890934E+02  0.51100000000E-03 0. -1.
        -11    1    3    3    0    0  0.60994220386E+01  0.64029729251E+01  0.33345444522E+01  0.94509363795E+01  0.51100000000E-03 0.  1.
        -12    1    3    3    0    0 -0.35189260598E+02  0.17853082469E+01  0.21293622465E+02  0.41169038665E+02  0.00000000000E+00 0.  1.
</event>
<event>
 7    1  0.1743071E-015  0.9000777E+02  0.7816164E-02  0.1186339E+00
        -11   -1    0    0    0    0  0.00000000000E+00  0.00000000000E+00  0.45593999997E+02  0.45594000000E+02  0.51100000000E-03 0. -1.
         11   -1    0    0    0    0 -0.00000000000E+00 -0.00000000000E+00 -0.45593999997E+02  0.45594000000E+02  0.51100000000E-03 0.  1.
    9900012    2    1    2    0    0 -0.74264184637E+00 -0.25384898353E+00  0.88146346606E+00  0.90007773725E+02  0.90000035538E+02 0.  0.
        -12    1    1    2    0    0  0.74264184637E+00  0.25384898353E+00 -0.88146346606E+00  0.11802262751E+01  0.00000000000E+00 0.  1.
         11    1    3    3    0    0 -0.13380211866E+01 -0.55596736334E+00 -0.90637323768E+01  0.91788150250E+01  0.51100000000E-03 0. -1.
        -11    1    3    3    0    0  0.22442317913E+02 -0.33118121487E+02  0.15945718629E+01  0.40037610615E+02  0.51100000000E-03 0.  1.
         12    1    3    3    0    0 -0.21846938572E+02  0.33420239866E+02  0.83506239799E+01  0.40791348085E+02  0.00000000000E+00 0. -1.
</event>
<event>
 7    1  0.1654239E-015  0.9000774E+02  0.7816164E-02  0.1186339E+00
        -11   -1    0    0    0    0  0.00000000000E+00  0.00000000000E+00  0.45593999997E+02  0.45594000000E+02  0.51100000000E-03 0. -1.
         11   -1    0    0    0    0 -0.00000000000E+00 -0.00000000000E+00 -0.45593999997E+02  0.45594000000E+02  0.51100000000E-03 0.  1.
    9900012    2    1    2    0    0  0.71816983957E+00  0.77093643120E+00  0.53189383194E+00  0.90007736492E+02  0.89999997814E+02 0.  0.
        -12    1    1    2    0    0 -0.71816983957E+00 -0.77093643120E+00 -0.53189383194E+00  0.11802635078E+01  0.00000000000E+00 0.  1.
         11    1    3    3    0    0  0.11532819924E+02  0.18372112897E+02  0.11677957454E+02  0.24635648119E+02  0.51100000000E-03 0. -1.
        -11    1    3    3    0    0 -0.28833039045E+02  0.10751181923E+02 -0.66048782697E+01  0.31473107100E+02  0.51100000000E-03 0.  1.
        -12    1    3    3    0    0  0.18018388961E+02 -0.28352358389E+02 -0.45411853525E+01  0.33898981273E+02  0.00000000000E+00 0.  1.
</event>
<event>
 7    1  0.1654239E-015  0.9000781E+02  0.7816164E-02  0.1186339E+00
        -11   -1    0    0    0    0  0.00000000000E+00  0.00000000000E+00  0.45593999997E+02  0.45594000000E+02  0.51100000000E-03 0.  1.
         11   -1    0    0    0    0 -0.00000000000E+00 -0.00000000000E+00 -0.45593999997E+02  0.45594000000E+02  0.51100000000E-03 0. -1.
    9900012    2    1    2    0    0 -0.17400038415E+00 -0.61680788011E+00 -0.99101996283E+00  0.90007809905E+02  0.90000072195E+02 0.  0.
        -12    1    1    2    0    0  0.17400038415E+00  0.61680788011E+00  0.99101996283E+00  0.11801900954E+01  0.00000000000E+00 0.  1.
         11    1    3    3    0    0  0.16791953541E+02  0.32678384614E+02  0.85621326836E+01  0.37724748390E+02  0.51100000000E-03 0. -1.
        -11    1    3    3    0    0  0.70506112081E+01  0.14500957856E+01 -0.68854906092E+01  0.99611182798E+01  0.51100000000E-03 0.  1.
        -12    1    3    3    0    0 -0.24016565134E+02 -0.34745288280E+02 -0.26676620373E+01  0.42321943235E+02  0.00000000000E+00 0.  1.
</event>
<event>
 7    1  0.1654239E-015  0.9000752E+02  0.7816164E-02  0.1186339E+00
        -11   -1    0    0    0    0  0.00000000000E+00  0.00000000000E+00  0.45593999997E+02  0.45594000000E+02  0.51100000000E-03 0. -1.
         11   -1    0    0    0    0 -0.00000000000E+00 -0.00000000000E+00 -0.45593999997E+02  0.45594000000E+02  0.51100000000E-03 0.  1.
    9900012    2    1    2    0    0 -0.87854856504E+00 -0.43372277773E+00  0.65845254997E+00  0.90007524338E+02  0.89999782859E+02 0.  0.
        -12    1    1    2    0    0  0.87854856504E+00  0.43372277773E+00 -0.65845254997E+00  0.11804756624E+01  0.00000000000E+00 0.  1.
         11    1    3    3    0    0  0.26580560510E+02  0.23670676955E+02 -0.66041983207E+01  0.36200035639E+02  0.51100000000E-03 0. -1.
        -11    1    3    3    0    0  0.25955674654E+01  0.71865716785E+01 -0.44830282926E+01  0.88589686697E+01  0.51100000000E-03 0.  1.
        -12    1    3    3    0    0 -0.30054676540E+02 -0.31290971411E+02  0.11745679163E+02  0.44948520029E+02  0.00000000000E+00 0.  1.
</event>
<event>
 7    1  0.1654239E-015  0.9000778E+02  0.7816164E-02  0.1186339E+00
        -11   -1    0    0    0    0  0.00000000000E+00  0.00000000000E+00  0.45593999997E+02  0.45594000000E+02  0.51100000000E-03 0. -1.
         11   -1    0    0    0    0 -0.00000000000E+00 -0.00000000000E+00 -0.45593999997E+02  0.45594000000E+02  0.51100000000E-03 0.  1.
    9900012    2    1    2    0    0 -0.55155876009E+00  0.19626585853E-01  0.10432233911E+01  0.90007780820E+02  0.90000042727E+02 0.  0.
        -12    1    1    2    0    0  0.55155876009E+00 -0.19626585853E-01 -0.10432233911E+01  0.11802191798E+01  0.00000000000E+00 0.  1.
         11    1    3    3    0    0  0.35280465390E+02 -0.12873596257E+02 -0.38549811035E+01  0.37753166732E+02  0.51100000000E-03 0. -1.
        -11    1    3    3    0    0  0.21026761318E+00  0.34788008276E+01 -0.11158354614E+02  0.11689959179E+02  0.51100000000E-03 0.  1.
        -12    1    3    3    0    0 -0.36042291764E+02  0.94144220151E+01  0.16056559108E+02  0.40564654909E+02  0.00000000000E+00 0.  1.
</event>
<event>
 7    1  0.1654239E-015  0.9000772E+02  0.7816164E-02  0.1186339E+00
        -11   -1    0    0    0    0  0.00000000000E+00  0.00000000000E+00  0.45593999997E+02  0.45594000000E+02  0.51100000000E-03 0.  1.
         11   -1    0    0    0    0 -0.00000000000E+00 -0.00000000000E+00 -0.45593999997E+02  0.45594000000E+02  0.51100000000E-03 0. -1.
    9900012    2    1    2    0    0  0.10815902118E+01  0.22926003905E+00 -0.41310613450E+00  0.90007722816E+02  0.89999983958E+02 0.  0.
        -12    1    1    2    0    0 -0.10815902118E+01 -0.22926003905E+00  0.41310613450E+00  0.11802771836E+01  0.00000000000E+00 0.  1.
         11    1    3    3    0    0  0.89078351665E+01  0.44275866765E+00 -0.35454100503E+01  0.95976817657E+01  0.51100000000E-03 0. -1.
        -11    1    3    3    0    0  0.26938711956E+02  0.25506077321E+02  0.19550902066E+01  0.37149381692E+02  0.51100000000E-03 0.  1.
         12    1    3    3    0    0 -0.34764956911E+02 -0.25719575949E+02  0.11772137091E+01  0.43260659358E+02  0.00000000000E+00 0. -1.
</event>
<event>
 7    1  0.1654239E-015  0.9000748E+02  0.7816164E-02  0.1186340E+00
        -11   -1    0    0    0    0  0.00000000000E+00  0.00000000000E+00  0.45593999997E+02  0.45594000000E+02  0.51100000000E-03 0. -1.
         11   -1    0    0    0    0 -0.00000000000E+00 -0.00000000000E+00 -0.45593999997E+02  0.45594000000E+02  0.51100000000E-03 0.  1.
    9900012    2    1    2    0    0 -0.35758084296E-01 -0.10422684891E+00  0.11753686735E+01  0.90007477491E+02  0.89999735393E+02 0.  0.
        -12    1    1    2    0    0  0.35758084296E-01  0.10422684891E+00 -0.11753686735E+01  0.11805225094E+01  0.00000000000E+00 0.  1.
         11    1    3    3    0    0  0.75338211024E+01  0.59196855296E+01  0.31493919033E+01  0.10085623768E+02  0.51100000000E-03 0. -1.
        -11    1    3    3    0    0  0.32326063393E+02 -0.66826839885E+01 -0.17190789432E+02  0.37217682374E+02  0.51100000000E-03 0.  1.
         12    1    3    3    0    0 -0.39895642580E+02  0.65877161001E+00  0.15216766202E+02  0.42704171348E+02  0.00000000000E+00 0. -1.
</event>
<event>
 7    1  0.1654239E-015  0.9000778E+02  0.7816164E-02  0.1186339E+00
        -11   -1    0    0    0    0  0.00000000000E+00  0.00000000000E+00  0.45593999997E+02  0.45594000000E+02  0.51100000000E-03 0. -1.
         11   -1    0    0    0    0 -0.00000000000E+00 -0.00000000000E+00 -0.45593999997E+02  0.45594000000E+02  0.51100000000E-03 0.  1.
    9900012    2    1    2    0    0  0.92563742196E+00 -0.31953243800E+00  0.65879225981E+00  0.90007782708E+02  0.90000044639E+02 0.  0.
        -12    1    1    2    0    0 -0.92563742196E+00  0.31953243800E+00 -0.65879225981E+00  0.11802172925E+01  0.00000000000E+00 0.  1.
         11    1    3    3    0    0 -0.51004281260E+01  0.13741777839E+02  0.41171262163E+02  0.43702673301E+02  0.51100000000E-03 0. -1.
        -11    1    3    3    0    0  0.38861632395E+01 -0.97331916102E+01 -0.73687248542E+01  0.12811533471E+02  0.51100000000E-03 0.  1.
        -12    1    3    3    0    0  0.21399023085E+01 -0.43281186671E+01 -0.33143745049E+02  0.33493575936E+02  0.00000000000E+00 0.  1.
</event>
<event>
 7    1  0.1654239E-015  0.9000768E+02  0.7816164E-02  0.1186339E+00
        -11   -1    0    0    0    0  0.00000000000E+00  0.00000000000E+00  0.45593999997E+02  0.45594000000E+02  0.51100000000E-03 0.  1.
         11   -1    0    0    0    0 -0.00000000000E+00 -0.00000000000E+00 -0.45593999997E+02  0.45594000000E+02  0.51100000000E-03 0. -1.
    9900012    2    1    2    0    0 -0.93962664512E-01 -0.52471236555E+00 -0.10530961778E+01  0.90007676481E+02  0.89999937011E+02 0.  0.
        -12    1    1    2    0    0  0.93962664512E-01  0.52471236555E+00  0.10530961778E+01  0.11803235186E+01  0.00000000000E+00 0.  1.
         11    1    3    3    0    0  0.14007791177E+02  0.18421123238E+01 -0.20979735334E+01  0.14283314906E+02  0.51100000000E-03 0. -1.
        -11    1    3    3    0    0 -0.54004114568E+01 -0.38263391290E+02 -0.17535920775E+01  0.38682381550E+02  0.51100000000E-03 0.  1.
         12    1    3    3    0    0 -0.87013423852E+01  0.35896566601E+02  0.27984694332E+01  0.37041980026E+02  0.00000000000E+00 0. -1.
</event>
<event>
 7    1  0.1654239E-015  0.9000776E+02  0.7816164E-02  0.1186339E+00
        -11   -1    0    0    0    0  0.00000000000E+00  0.00000000000E+00  0.45593999997E+02  0.45594000000E+02  0.51100000000E-03 0. -1.
         11   -1    0    0    0    0 -0.00000000000E+00 -0.00000000000E+00 -0.45593999997E+02  0.45594000000E+02  0.51100000000E-03 0.  1.
    9900012    2    1    2    0    0 -0.71100525175E+00  0.93549020797E+00  0.11085684651E+00  0.90007762889E+02  0.90000024559E+02 0.  0.
        -12    1    1    2    0    0  0.71100525175E+00 -0.93549020797E+00 -0.11085684651E+00  0.11802371108E+01  0.00000000000E+00 0.  1.
         11    1    3    3    0    0 -0.32165424087E+02 -0.20227067531E+02  0.14347471011E+02  0.40615251966E+02  0.51100000000E-03 0. -1.
        -11    1    3    3    0    0  0.71681543065E+01 -0.63847155098E+01  0.96201202665E+00  0.96474087559E+01  0.51100000000E-03 0.  1.
        -12    1    3    3    0    0  0.24286264529E+02  0.27547273249E+02 -0.15198626191E+02  0.39745102167E+02  0.00000000000E+00 0.  1.
</event>
<event>
 7    1  0.1654239E-015  0.9000777E+02  0.7816164E-02  0.1186339E+00
        -11   -1    0    0    0    0  0.00000000000E+00  0.00000000000E+00  0.45593999997E+02  0.45594000000E+02  0.51100000000E-03 0.  1.
         11   -1    0    0    0    0 -0.00000000000E+00 -0.00000000000E+00 -0.45593999997E+02  0.45594000000E+02  0.51100000000E-03 0. -1.
    9900012    2    1    2    0    0  0.77917174763E-02 -0.11003312620E+01 -0.42678123006E+00  0.90007774676E+02  0.90000036502E+02 0.  0.
        -12    1    1    2    0    0 -0.77917174763E-02  0.11003312620E+01  0.42678123006E+00  0.11802253240E+01  0.00000000000E+00 0.  1.
         11    1    3    3    0    0 -0.38142151033E+02 -0.31542277046E+01 -0.90070404997E+01  0.39317929964E+02  0.51100000000E-03 0. -1.
        -11    1    3    3    0    0 -0.26244954072E+01 -0.53198740507E+01  0.70666233762E+01  0.92263861972E+01  0.51100000000E-03 0.  1.
        -12    1    3    3    0    0  0.40774438158E+02  0.73737704933E+01  0.15136358934E+01  0.41463458515E+02  0.00000000000E+00 0.  1.
</event>
<event>
 7    1  0.1654239E-015  0.9000776E+02  0.7816164E-02  0.1186339E+00
        -11   -1    0    0    0    0  0.00000000000E+00  0.00000000000E+00  0.45593999997E+02  0.45594000000E+02  0.51100000000E-03 0. -1.
         11   -1    0    0    0    0 -0.00000000000E+00 -0.00000000000E+00 -0.45593999997E+02  0.45594000000E+02  0.51100000000E-03 0.  1.
    9900012    2    1    2    0    0  0.55423212224E+00 -0.93464464611E+00 -0.46068869142E+00  0.90007759376E+02  0.90000021000E+02 0.  0.
        -12    1    1    2    0    0 -0.55423212224E+00  0.93464464611E+00  0.46068869142E+00  0.11802406239E+01  0.00000000000E+00 0.  1.
         11    1    3    3    0    0  0.21282620881E+02 -0.93135163285E+01  0.68463422378E+01  0.24219082151E+02  0.51100000000E-03 0. -1.
        -11    1    3    3    0    0 -0.92549289602E+01 -0.26556943574E+02  0.79682475006E+00  0.28134674194E+02  0.51100000000E-03 0.  1.
         12    1    3    3    0    0 -0.11473459798E+02  0.34935815256E+02 -0.81038556793E+01  0.37654003031E+02  0.00000000000E+00 0. -1.
</event>
<event>
 7    1  0.1654239E-015  0.9000750E+02  0.7816164E-02  0.1186340E+00
        -11   -1    0    0    0    0  0.00000000000E+00  0.00000000000E+00  0.45593999997E+02  0.45594000000E+02  0.51100000000E-03 0. -1.
         11   -1    0    0    0    0 -0.00000000000E+00 -0.00000000000E+00 -0.45593999997E+02  0.45594000000E+02  0.51100000000E-03 0.  1.
    9900012    2    1    2    0    0 -0.97053941315E+00 -0.45018986774E+00  0.49896078169E+00  0.90007500304E+02  0.89999758508E+02 0.  0.
        -12    1    1    2    0    0  0.97053941315E+00  0.45018986774E+00 -0.49896078169E+00  0.11804996955E+01  0.00000000000E+00 0.  1.
         11    1    3    3    0    0  0.19904135791E+02 -0.29440152472E+02  0.24718990168E+02  0.43288863168E+02  0.51100000000E-03 0. -1.
        -11    1    3    3    0    0 -0.36421946815E+01  0.84259779209E+01  0.17881993954E+01  0.93520234902E+01  0.51100000000E-03 0.  1.
        -12    1    3    3    0    0 -0.17232480523E+02  0.20563984683E+02 -0.26008228782E+02  0.37366613646E+02  0.00000000000E+00 0.  1.
</event>
<event>
 7    1  0.1654239E-015  0.9000769E+02  0.7816164E-02  0.1186339E+00
        -11   -1    0    0    0    0  0.00000000000E+00  0.00000000000E+00  0.45593999997E+02  0.45594000000E+02  0.51100000000E-03 0.  1.
         11   -1    0    0    0    0 -0.00000000000E+00 -0.00000000000E+00 -0.45593999997E+02  0.45594000000E+02  0.51100000000E-03 0. -1.
    9900012    2    1    2    0    0  0.97583003787E+00 -0.86464287113E-01 -0.65834299186E+00  0.90007688249E+02  0.89999948933E+02 0.  0.
        -12    1    1    2    0    0 -0.97583003787E+00  0.86464287113E-01  0.65834299186E+00  0.11803117515E+01  0.00000000000E+00 0.  1.
         11    1    3    3    0    0  0.86642316495E+00  0.95049978554E+01 -0.52885475563E+01  0.10911663890E+02  0.51100000000E-03 0. -1.
        -11    1    3    3    0    0  0.61572780581E+01  0.38958307970E+01  0.40054379636E+02  0.40711704693E+02  0.51100000000E-03 0.  1.
         12    1    3    3    0    0 -0.60478711852E+01 -0.13487292939E+02 -0.35424175072E+02  0.38384319666E+02  0.00000000000E+00 0. -1.
</event>
<event>
 7    1  0.1654239E-015  0.9000774E+02  0.7816164E-02  0.1186339E+00
        -11   -1    0    0    0    0  0.00000000000E+00  0.00000000000E+00  0.45593999997E+02  0.45594000000E+02  0.51100000000E-03 0.  1.
         11   -1    0    0    0    0 -0.00000000000E+00 -0.00000000000E+00 -0.45593999997E+02  0.45594000000E+02  0.51100000000E-03 0. -1.
    9900012    2    1    2    0    0  0.91658896446E+00 -0.58538858101E+00 -0.45846442395E+00  0.90007743778E+02  0.90000005196E+02 0.  0.
        -12    1    1    2    0    0 -0.91658896446E+00  0.58538858101E+00  0.45846442395E+00  0.11802562216E+01  0.00000000000E+00 0.  1.
         11    1    3    3    0    0  0.13846626980E+01 -0.19103766032E+02 -0.32962846980E+02  0.38123751766E+02  0.51100000000E-03 0. -1.
        -11    1    3    3    0    0 -0.94165021356E+00 -0.91634767347E+01  0.32741691819E-01  0.92117904487E+01  0.51100000000E-03 0.  1.
        -12    1    3    3    0    0  0.47357648003E+00  0.27681854186E+02  0.32471640865E+02  0.42672201564E+02  0.00000000000E+00 0.  1.
</event>
<event>
 7    1  0.1654239E-015  0.9000773E+02  0.7816164E-02  0.1186339E+00
        -11   -1    0    0    0    0  0.00000000000E+00  0.00000000000E+00  0.45593999997E+02  0.45594000000E+02  0.51100000000E-03 0. -1.
         11   -1    0    0    0    0 -0.00000000000E+00 -0.00000000000E+00 -0.45593999997E+02  0.45594000000E+02  0.51100000000E-03 0.  1.
    9900012    2    1    2    0    0 -0.47840639188E+00 -0.79218076871E+00 -0.73253844313E+00  0.90007730702E+02  0.89999991947E+02 0.  0.
        -12    1    1    2    0    0  0.47840639188E+00  0.79218076871E+00  0.73253844313E+00  0.11802692984E+01  0.00000000000E+00 0.  1.
         11    1    3    3    0    0  0.99837088401E+00  0.46651479699E+01  0.11650814750E+02  0.12589751173E+02  0.51100000000E-03 0. -1.
        -11    1    3    3    0    0 -0.33612113120E+02  0.11284784729E+02 -0.19538864745E+02  0.40483178612E+02  0.51100000000E-03 0.  1.
         12    1    3    3    0    0  0.32135335844E+02 -0.16742113468E+02  0.71555115514E+01  0.36934800916E+02  0.00000000000E+00 0. -1.
</event>
<event>
 7    1  0.1654239E-015  0.9000771E+02  0.7816164E-02  0.1186339E+00
        -11   -1    0    0    0    0  0.00000000000E+00  0.00000000000E+00  0.45593999997E+02  0.45594000000E+02  0.51100000000E-03 0. -1.
         11   -1    0    0    0    0 -0.00000000000E+00 -0.00000000000E+00 -0.45593999997E+02  0.45594000000E+02  0.51100000000E-03 0.  1.
    9900012    2    1    2    0    0 -0.26615393260E+00  0.67990226414E+00  0.92734685738E+00  0.90007713086E+02  0.89999974099E+02 0.  0.
        -12    1    1    2    0    0  0.26615393260E+00 -0.67990226414E+00 -0.92734685738E+00  0.11802869136E+01  0.00000000000E+00 0.  1.
         11    1    3    3    0    0 -0.34483154545E+02  0.21225743286E+02  0.52269866349E+01  0.40828195098E+02  0.51100000000E-03 0. -1.
        -11    1    3    3    0    0 -0.40865798219E+01 -0.74731022070E+01 -0.85174120753E+00  0.85599564591E+01  0.51100000000E-03 0.  1.
        -12    1    3    3    0    0  0.38303580435E+02 -0.13072738815E+02 -0.34478985700E+01  0.40619561529E+02  0.00000000000E+00 0.  1.
</event>
<event>
 7    1  0.1654239E-015  0.9000770E+02  0.7816164E-02  0.1186339E+00
        -11   -1    0    0    0    0  0.00000000000E+00  0.00000000000E+00  0.45593999997E+02  0.45594000000E+02  0.51100000000E-03 0.  1.
         11   -1    0    0    0    0 -0.00000000000E+00 -0.00000000000E+00 -0.45593999997E+02  0.45594000000E+02  0.51100000000E-03 0. -1.
    9900012    2    1    2    0    0 -0.92054038048E+00  0.50065236485E-01 -0.73702874391E+00  0.90007698136E+02  0.89999958952E+02 0.  0.
        -12    1    1    2    0    0  0.92054038048E+00 -0.50065236485E-01  0.73702874391E+00  0.11803018637E+01  0.00000000000E+00 0.  1.
         11    1    3    3    0    0 -0.22687394666E+01  0.69036997407E+01  0.58375326554E+01  0.93212143330E+01  0.51100000000E-03 0. -1.
        -11    1    3    3    0    0 -0.19899347974E+02  0.30554344654E+02  0.30882508581E+01  0.36593569389E+02  0.51100000000E-03 0.  1.
         12    1    3    3    0    0  0.21247547060E+02 -0.37407979158E+02 -0.96628122575E+01  0.44092914414E+02  0.00000000000E+00 0. -1.
</event>
<event>
 7    1  0.1654239E-015  0.9000767E+02  0.7816164E-02  0.1186339E+00
        -11   -1    0    0    0    0  0.00000000000E+00  0.00000000000E+00  0.45593999997E+02  0.45594000000E+02  0.51100000000E-03 0.  1.
         11   -1    0    0    0    0 -0.00000000000E+00 -0.00000000000E+00 -0.45593999997E+02  0.45594000000E+02  0.51100000000E-03 0. -1.
    9900012    2    1    2    0    0  0.56967754193E+00 -0.42360400881E+00 -0.94297857633E+00  0.90007668922E+02  0.89999929352E+02 0.  0.
        -12    1    1    2    0    0 -0.56967754193E+00  0.42360400881E+00  0.94297857633E+00  0.11803310779E+01  0.00000000000E+00 0.  1.
         11    1    3    3    0    0 -0.51044098226E+01 -0.18498362283E+01 -0.20135381389E+01  0.57906156673E+01  0.51100000000E-03 0. -1.
        -11    1    3    3    0    0 -0.25349044851E+01 -0.35741420975E+02 -0.19664247722E+02  0.40872454695E+02  0.51100000000E-03 0.  1.
         12    1    3    3    0    0  0.82089918496E+01  0.37167653195E+02  0.20734807285E+02  0.43344598560E+02  0.00000000000E+00 0. -1.
</event>
<event>
 7    1  0.1654239E-015  0.9000830E+02  0.7816164E-02  0.1186338E+00
        -11   -1    0    0    0    0  0.00000000000E+00  0.00000000000E+00  0.45593999997E+02  0.45594000000E+02  0.51100000000E-03 0.  1.
         11   -1    0    0    0    0 -0.00000000000E+00 -0.00000000000E+00 -0.45593999997E+02  0.45594000000E+02  0.51100000000E-03 0. -1.
    9900012    2    1    2    0    0 -0.10863405549E+01 -0.45932046788E+00  0.23999330456E-01  0.90008302131E+02  0.90000570918E+02 0.  0.
        -12    1    1    2    0    0  0.10863405549E+01  0.45932046788E+00 -0.23999330456E-01  0.11796978687E+01  0.00000000000E+00 0.  1.
         11    1    3    3    0    0 -0.42839251790E+01  0.36469272022E+01  0.70339586554E+01  0.90071453627E+01  0.51100000000E-03 0. -1.
        -11    1    3    3    0    0 -0.17760212871E+02 -0.32190135056E+02  0.14904754807E+02  0.39670917210E+02  0.51100000000E-03 0.  1.
         12    1    3    3    0    0  0.20957797495E+02  0.28083887386E+02 -0.21914714131E+02  0.41330239559E+02  0.00000000000E+00 0. -1.
</event>
<event>
 7    1  0.1654239E-015  0.9000732E+02  0.7816164E-02  0.1186340E+00
        -11   -1    0    0    0    0  0.00000000000E+00  0.00000000000E+00  0.45593999997E+02  0.45594000000E+02  0.51100000000E-03 0.  1.
         11   -1    0    0    0    0 -0.00000000000E+00 -0.00000000000E+00 -0.45593999997E+02  0.45594000000E+02  0.51100000000E-03 0. -1.
    9900012    2    1    2    0    0  0.32612823682E+00  0.50815029395E+00 -0.10146046464E+01  0.90007322679E+02  0.89999578537E+02 0.  0.
        -12    1    1    2    0    0 -0.32612823682E+00 -0.50815029395E+00  0.10146046464E+01  0.11806773211E+01  0.00000000000E+00 0.  1.
         11    1    3    3    0    0  0.20129433514E+02  0.33365753989E+02 -0.81954317311E+01  0.39820004198E+02  0.51100000000E-03 0. -1.
        -11    1    3    3    0    0 -0.80236440407E+01  0.45830668812E+01  0.58065058944E+01  0.10913243179E+02  0.51100000000E-03 0.  1.
        -12    1    3    3    0    0 -0.11779661236E+02 -0.37440670576E+02  0.13743211903E+01  0.39274075301E+02  0.00000000000E+00 0.  1.
</event>
<event>
 7    1  0.1654239E-015  0.9000773E+02  0.7816164E-02  0.1186339E+00
        -11   -1    0    0    0    0  0.00000000000E+00  0.00000000000E+00  0.45593999997E+02  0.45594000000E+02  0.51100000000E-03 0. -1.
         11   -1    0    0    0    0 -0.00000000000E+00 -0.00000000000E+00 -0.45593999997E+02  0.45594000000E+02  0.51100000000E-03 0.  1.
    9900012    2    1    2    0    0 -0.31062062198E+00  0.73917268844E+00  0.86612070802E+00  0.90007734557E+02  0.89999995854E+02 0.  0.
        -12    1    1    2    0    0  0.31062062198E+00 -0.73917268844E+00 -0.86612070802E+00  0.11802654426E+01  0.00000000000E+00 0.  1.
         11    1    3    3    0    0  0.17829173115E+01 -0.51241791722E+01 -0.56490956041E+01  0.78325147771E+01  0.51100000000E-03 0. -1.
        -11    1    3    3    0    0  0.21044862055E+02  0.36668649419E+02  0.10140797476E+02  0.43477716625E+02  0.51100000000E-03 0.  1.
         12    1    3    3    0    0 -0.23138399988E+02 -0.30805297559E+02 -0.36255811644E+01  0.38697503156E+02  0.00000000000E+00 0. -1.
</event>
<event>
 7    1  0.1654239E-015  0.9000775E+02  0.7816164E-02  0.1186339E+00
        -11   -1    0    0    0    0  0.00000000000E+00  0.00000000000E+00  0.45593999997E+02  0.45594000000E+02  0.51100000000E-03 0. -1.
         11   -1    0    0    0    0 -0.00000000000E+00 -0.00000000000E+00 -0.45593999997E+02  0.45594000000E+02  0.51100000000E-03 0.  1.
    9900012    2    1    2    0    0  0.10265446119E+01 -0.76083444374E-01  0.57740996096E+00  0.90007752232E+02  0.90000013762E+02 0.  0.
        -12    1    1    2    0    0 -0.10265446119E+01  0.76083444374E-01 -0.57740996096E+00  0.11802477679E+01  0.00000000000E+00 0.  1.
         11    1    3    3    0    0 -0.73512303802E+01  0.36148339152E+01  0.38375062049E+02  0.39239686542E+02  0.51100000000E-03 0. -1.
        -11    1    3    3    0    0 -0.48099684923E+01 -0.11398539034E+02 -0.29486093838E+01  0.12718364147E+02  0.51100000000E-03 0.  1.
        -12    1    3    3    0    0  0.13187743484E+02  0.77076216749E+01 -0.34849042705E+02  0.38049701543E+02  0.00000000000E+00 0.  1.
</event>
<event>
 7    1  0.1654239E-015  0.9000774E+02  0.7816164E-02  0.1186339E+00
        -11   -1    0    0    0    0  0.00000000000E+00  0.00000000000E+00  0.45593999997E+02  0.45594000000E+02  0.51100000000E-03 0. -1.
         11   -1    0    0    0    0 -0.00000000000E+00 -0.00000000000E+00 -0.45593999997E+02  0.45594000000E+02  0.51100000000E-03 0.  1.
    9900012    2    1    2    0    0 -0.27131924653E+00  0.11431671693E+01  0.11213518953E+00  0.90007737482E+02  0.89999998817E+02 0.  0.
        -12    1    1    2    0    0  0.27131924653E+00 -0.11431671693E+01 -0.11213518953E+00  0.11802625179E+01  0.00000000000E+00 0.  1.
         11    1    3    3    0    0  0.24139794397E+02 -0.13095748989E+02  0.20685494125E+02  0.34381942682E+02  0.51100000000E-03 0. -1.
        -11    1    3    3    0    0 -0.15268041180E+01 -0.63962929714E+01  0.10161774257E+02  0.12103939478E+02  0.51100000000E-03 0.  1.
        -12    1    3    3    0    0 -0.22884309526E+02  0.20635209129E+02 -0.30735133192E+02  0.43521855322E+02  0.00000000000E+00 0.  1.
</event>
<event>
 7    1  0.1654239E-015  0.9000748E+02  0.7816164E-02  0.1186340E+00
        -11   -1    0    0    0    0  0.00000000000E+00  0.00000000000E+00  0.45593999997E+02  0.45594000000E+02  0.51100000000E-03 0.  1.
         11   -1    0    0    0    0 -0.00000000000E+00 -0.00000000000E+00 -0.45593999997E+02  0.45594000000E+02  0.51100000000E-03 0. -1.
    9900012    2    1    2    0    0  0.69818055672E+00 -0.94468467131E+00 -0.11718419902E+00  0.90007484285E+02  0.89999742277E+02 0.  0.
        -12    1    1    2    0    0 -0.69818055672E+00  0.94468467131E+00  0.11718419902E+00  0.11805157155E+01  0.00000000000E+00 0.  1.
         11    1    3    3    0    0  0.26728657093E+02  0.22077181900E+02 -0.12294212416E+02  0.36782750439E+02  0.51100000000E-03 0. -1.
        -11    1    3    3    0    0  0.46777125143E+01  0.70122353858E+01  0.46160121674E+01  0.96104114409E+01  0.51100000000E-03 0.  1.
        -12    1    3    3    0    0 -0.30708189050E+02 -0.30034101957E+02  0.75610160494E+01  0.43614322405E+02  0.00000000000E+00 0.  1.
</event>
<event>
 7    1  0.1654239E-015  0.9000770E+02  0.7816164E-02  0.1186339E+00
        -11   -1    0    0    0    0  0.00000000000E+00  0.00000000000E+00  0.45593999997E+02  0.45594000000E+02  0.51100000000E-03 0. -1.
         11   -1    0    0    0    0 -0.00000000000E+00 -0.00000000000E+00 -0.45593999997E+02  0.45594000000E+02  0.51100000000E-03 0.  1.
    9900012    2    1    2    0    0 -0.36101955788E+00 -0.36055684420E-01  0.11231515408E+01  0.90007701514E+02  0.89999962373E+02 0.  0.
        -12    1    1    2    0    0  0.36101955788E+00  0.36055684420E-01 -0.11231515408E+01  0.11802984865E+01  0.00000000000E+00 0.  1.
         11    1    3    3    0    0  0.23199706398E+02 -0.31465457592E+02  0.16375910057E+02  0.42384806581E+02  0.51100000000E-03 0. -1.
        -11    1    3    3    0    0 -0.62229174418E+01 -0.14504134295E+01 -0.71310423284E+01  0.95749760080E+01  0.51100000000E-03 0.  1.
        -12    1    3    3    0    0 -0.17337808514E+02  0.32879815338E+02 -0.81217161873E+01  0.38047918925E+02  0.00000000000E+00 0.  1.
</event>
<event>
 7    1  0.1654239E-015  0.9000793E+02  0.7816164E-02  0.1186339E+00
        -11   -1    0    0    0    0  0.00000000000E+00  0.00000000000E+00  0.45593999997E+02  0.45594000000E+02  0.51100000000E-03 0.  1.
         11   -1    0    0    0    0 -0.00000000000E+00 -0.00000000000E+00 -0.45593999997E+02  0.45594000000E+02  0.51100000000E-03 0. -1.
    9900012    2    1    2    0    0  0.87598467917E+00  0.78338977018E+00 -0.10736538308E+00  0.90007925419E+02  0.90000189235E+02 0.  0.
        -12    1    1    2    0    0 -0.87598467917E+00 -0.78338977018E+00  0.10736538308E+00  0.11800745805E+01  0.00000000000E+00 0.  1.
         11    1    3    3    0    0 -0.28674386417E+02  0.21488092387E+02  0.52658995634E+01  0.36217236909E+02  0.51100000000E-03 0. -1.
        -11    1    3    3    0    0 -0.51783815066E+01  0.66931608933E+01 -0.44159490180E+01  0.95453990887E+01  0.51100000000E-03 0.  1.
        -12    1    3    3    0    0  0.34728752603E+02 -0.27397863510E+02 -0.95731592847E+00  0.44245289422E+02  0.00000000000E+00 0.  1.
</event>
<event>
 7    1  0.1654239E-015  0.9000839E+02  0.7816164E-02  0.1186338E+00
        -11   -1    0    0    0    0  0.00000000000E+00  0.00000000000E+00  0.45593999997E+02  0.45594000000E+02  0.51100000000E-03 0. -1.
         11   -1    0    0    0    0 -0.00000000000E+00 -0.00000000000E+00 -0.45593999997E+02  0.45594000000E+02  0.51100000000E-03 0.  1.
    9900012    2    1    2    0    0  0.59337645982E+00 -0.73464405346E+00  0.70688594210E+00  0.90008387672E+02  0.90000657587E+02 0.  0.
        -12    1    1    2    0    0 -0.59337645982E+00  0.73464405346E+00 -0.70688594210E+00  0.11796123276E+01  0.00000000000E+00 0.  1.
         11    1    3    3    0    0  0.34170322884E+02 -0.17226033123E+02 -0.22099836088E+01  0.38330551926E+02  0.51100000000E-03 0. -1.
        -11    1    3    3    0    0  0.35234665945E+01 -0.34431078463E+01  0.78555025678E+01  0.92724715873E+01  0.51100000000E-03 0.  1.
        -12    1    3    3    0    0 -0.37100413018E+02  0.19934496916E+02 -0.49386330170E+01  0.42405364159E+02  0.00000000000E+00 0.  1.
</event>
<event>
 7    1  0.1654239E-015  0.9000790E+02  0.7816164E-02  0.1186339E+00
        -11   -1    0    0    0    0  0.00000000000E+00  0.00000000000E+00  0.45593999997E+02  0.45594000000E+02  0.51100000000E-03 0. -1.
         11   -1    0    0    0    0 -0.00000000000E+00 -0.00000000000E+00 -0.45593999997E+02  0.45594000000E+02  0.51100000000E-03 0.  1.
    9900012    2    1    2    0    0 -0.37411779918E+00  0.85872459585E+00  0.71781611086E+00  0.90007901687E+02  0.90000165189E+02 0.  0.
        -12    1    1    2    0    0  0.37411779918E+00 -0.85872459585E+00 -0.71781611086E+00  0.11800983129E+01  0.00000000000E+00 0.  1.
         11    1    3    3    0    0  0.23129069553E+01 -0.47457000851E+01 -0.71833922127E+01  0.89147255608E+01  0.51100000000E-03 0. -1.
        -11    1    3    3    0    0  0.29459720001E+02 -0.30247343528E+01 -0.21569106202E+02  0.36636736523E+02  0.51100000000E-03 0.  1.
         12    1    3    3    0    0 -0.32146744756E+02  0.86291590337E+01  0.29470314525E+02  0.44456439603E+02  0.00000000000E+00 0. -1.
</event>
<event>
 7    1  0.1654239E-015  0.9000763E+02  0.7816164E-02  0.1186339E+00
        -11   -1    0    0    0    0  0.00000000000E+00  0.00000000000E+00  0.45593999997E+02  0.45594000000E+02  0.51100000000E-03 0.  1.
         11   -1    0    0    0    0 -0.00000000000E+00 -0.00000000000E+00 -0.45593999997E+02  0.45594000000E+02  0.51100000000E-03 0. -1.
    9900012    2    1    2    0    0  0.29974385293E+00 -0.59932979508E+00 -0.97171744268E+00  0.90007628292E+02  0.89999888185E+02 0.  0.
        -12    1    1    2    0    0 -0.29974385293E+00  0.59932979508E+00  0.97171744268E+00  0.11803717080E+01  0.00000000000E+00 0.  1.
         11    1    3    3    0    0 -0.53738932150E+01  0.27684851041E+02 -0.31694204365E+02  0.42424666128E+02  0.51100000000E-03 0. -1.
        -11    1    3    3    0    0 -0.52841179440E+00 -0.90962482806E+01 -0.18271737365E+01  0.92929820796E+01  0.51100000000E-03 0.  1.
        -12    1    3    3    0    0  0.62020488623E+01 -0.19187932555E+02  0.32549660659E+02  0.38289980085E+02  0.00000000000E+00 0.  1.
</event>
<event>
 7    1  0.1654239E-015  0.9000686E+02  0.7816164E-02  0.1186341E+00
        -11   -1    0    0    0    0  0.00000000000E+00  0.00000000000E+00  0.45593999997E+02  0.45594000000E+02  0.51100000000E-03 0. -1.
         11   -1    0    0    0    0 -0.00000000000E+00 -0.00000000000E+00 -0.45593999997E+02  0.45594000000E+02  0.51100000000E-03 0.  1.
    9900012    2    1    2    0    0  0.34119574569E+00 -0.71469521166E+00  0.87629791682E+00  0.90006855715E+02  0.89999105406E+02 0.  0.
        -12    1    1    2    0    0 -0.34119574569E+00  0.71469521166E+00 -0.87629791682E+00  0.11811442848E+01  0.00000000000E+00 0.  1.
         11    1    3    3    0    0  0.22977254882E+02 -0.22473262250E+02  0.24170888051E+02  0.40214842876E+02  0.51100000000E-03 0. -1.
        -11    1    3    3    0    0 -0.21915559916E+01  0.71687834898E+01  0.71258765517E+01  0.10342750663E+02  0.51100000000E-03 0.  1.
        -12    1    3    3    0    0 -0.20444503145E+02  0.14589783549E+02 -0.30420466686E+02  0.39449262176E+02  0.00000000000E+00 0.  1.
</event>
<event>
 7    1  0.1654239E-015  0.9000769E+02  0.7816164E-02  0.1186339E+00
        -11   -1    0    0    0    0  0.00000000000E+00  0.00000000000E+00  0.45593999997E+02  0.45594000000E+02  0.51100000000E-03 0. -1.
         11   -1    0    0    0    0 -0.00000000000E+00 -0.00000000000E+00 -0.45593999997E+02  0.45594000000E+02  0.51100000000E-03 0.  1.
    9900012    2    1    2    0    0  0.60985066279E-01 -0.11785854295E+01 -0.18709125836E-01  0.90007689522E+02  0.89999950224E+02 0.  0.
        -12    1    1    2    0    0 -0.60985066279E-01  0.11785854295E+01  0.18709125836E-01  0.11803104779E+01  0.00000000000E+00 0.  1.
         11    1    3    3    0    0 -0.50546634304E+01 -0.12312017587E+02  0.11170664600E+02  0.17375820767E+02  0.51100000000E-03 0. -1.
        -11    1    3    3    0    0  0.25334303688E+02 -0.21507161860E+02 -0.29545039034E+01  0.33363363862E+02  0.51100000000E-03 0.  1.
         12    1    3    3    0    0 -0.20218655191E+02  0.32640594017E+02 -0.82348698226E+01  0.39268504893E+02  0.00000000000E+00 0. -1.
</event>
<event>
 7    1  0.1654239E-015  0.9000770E+02  0.7816164E-02  0.1186339E+00
        -11   -1    0    0    0    0  0.00000000000E+00  0.00000000000E+00  0.45593999997E+02  0.45594000000E+02  0.51100000000E-03 0.  1.
         11   -1    0    0    0    0 -0.00000000000E+00 -0.00000000000E+00 -0.45593999997E+02  0.45594000000E+02  0.51100000000E-03 0. -1.
    9900012    2    1    2    0    0 -0.34935589263E-01  0.49129204134E+00 -0.10726237429E+01  0.90007699166E+02  0.89999959995E+02 0.  0.
        -12    1    1    2    0    0  0.34935589263E-01 -0.49129204134E+00  0.10726237429E+01  0.11803008341E+01  0.00000000000E+00 0.  1.
         11    1    3    3    0    0  0.31836074365E+01  0.63148024257E-02  0.57716855188E+01  0.65914907400E+01  0.51100000000E-03 0. -1.
        -11    1    3    3    0    0  0.17239094830E+02 -0.36627892591E+02  0.45367153531E-01  0.40481983211E+02  0.51100000000E-03 0.  1.
         12    1    3    3    0    0 -0.20457637856E+02  0.37112869830E+02 -0.68896764152E+01  0.42934225215E+02  0.00000000000E+00 0. -1.
</event>
<event>
 7    1  0.1654239E-015  0.9000786E+02  0.7816164E-02  0.1186339E+00
        -11   -1    0    0    0    0  0.00000000000E+00  0.00000000000E+00  0.45593999997E+02  0.45594000000E+02  0.51100000000E-03 0.  1.
         11   -1    0    0    0    0 -0.00000000000E+00 -0.00000000000E+00 -0.45593999997E+02  0.45594000000E+02  0.51100000000E-03 0. -1.
    9900012    2    1    2    0    0 -0.95607758785E+00  0.30887583689E+00 -0.61907463402E+00  0.90007855077E+02  0.90000117964E+02 0.  0.
        -12    1    1    2    0    0  0.95607758785E+00 -0.30887583689E+00  0.61907463402E+00  0.11801449229E+01  0.00000000000E+00 0.  1.
         11    1    3    3    0    0  0.34369500520E+01 -0.43258312452E+02  0.10091389748E+02  0.44552557381E+02  0.51100000000E-03 0. -1.
        -11    1    3    3    0    0  0.36166921229E+00  0.36553667777E+01  0.54895556991E+00  0.37140090707E+01  0.51100000000E-03 0.  1.
        -12    1    3    3    0    0 -0.47546968521E+01  0.39911821511E+02 -0.11259419952E+02  0.41741288626E+02  0.00000000000E+00 0.  1.
</event>
<event>
 7    1  0.2850465E-015  0.9000777E+02  0.7816164E-02  0.1186339E+00
        -11   -1    0    0    0    0  0.00000000000E+00  0.00000000000E+00  0.45593999997E+02  0.45594000000E+02  0.51100000000E-03 0.  1.
         11   -1    0    0    0    0 -0.00000000000E+00 -0.00000000000E+00 -0.45593999997E+02  0.45594000000E+02  0.51100000000E-03 0. -1.
    9900012    2    1    2    0    0  0.73155967291E+00 -0.44548447816E-01 -0.92507751705E+00  0.90007774373E+02  0.90000036194E+02 0.  0.
        -12    1    1    2    0    0 -0.73155967291E+00  0.44548447816E-01  0.92507751705E+00  0.11802256275E+01  0.00000000000E+00 0.  1.
         11    1    3    3    0    0 -0.73299798526E+01 -0.52204226317E+01  0.26594381323E+01  0.93837108083E+01  0.51100000000E-03 0. -1.
        -11    1    3    3    0    0 -0.18767620429E+01 -0.12843248582E+02  0.34761324412E+02  0.37105537930E+02  0.51100000000E-03 0.  1.
         12    1    3    3    0    0  0.99383015684E+01  0.18019122766E+02 -0.38345840062E+02  0.43518525634E+02  0.00000000000E+00 0. -1.
</event>
<event>
 7    1  0.1654239E-015  0.9000732E+02  0.7816164E-02  0.1186340E+00
        -11   -1    0    0    0    0  0.00000000000E+00  0.00000000000E+00  0.45593999997E+02  0.45594000000E+02  0.51100000000E-03 0.  1.
         11   -1    0    0    0    0 -0.00000000000E+00 -0.00000000000E+00 -0.45593999997E+02  0.45594000000E+02  0.51100000000E-03 0. -1.
    9900012    2    1    2    0    0 -0.42850751751E+00 -0.12335320016E+00 -0.10932434360E+01  0.90007315489E+02  0.89999571252E+02 0.  0.
        -12    1    1    2    0    0  0.42850751751E+00  0.12335320016E+00  0.10932434360E+01  0.11806845112E+01  0.00000000000E+00 0.  1.
         11    1    3    3    0    0  0.17239065400E+01 -0.13443896096E+02  0.46750744796E+00  0.13562033752E+02  0.51100000000E-03 0. -1.
        -11    1    3    3    0    0  0.28436112000E+02 -0.64328215857E+01  0.18835391364E+02  0.34709733899E+02  0.51100000000E-03 0.  1.
         12    1    3    3    0    0 -0.30588526058E+02  0.19753364482E+02 -0.20396142248E+02  0.41735547838E+02  0.00000000000E+00 0. -1.
</event>
<event>
 7    1  0.1654239E-015  0.9000771E+02  0.7816164E-02  0.1186339E+00
        -11   -1    0    0    0    0  0.00000000000E+00  0.00000000000E+00  0.45593999997E+02  0.45594000000E+02  0.51100000000E-03 0.  1.
         11   -1    0    0    0    0 -0.00000000000E+00 -0.00000000000E+00 -0.45593999997E+02  0.45594000000E+02  0.51100000000E-03 0. -1.
    9900012    2    1    2    0    0 -0.29376879477E+00 -0.75665503878E+00 -0.85689058284E+00  0.90007708331E+02  0.89999969281E+02 0.  0.
        -12    1    1    2    0    0  0.29376879477E+00  0.75665503878E+00  0.85689058284E+00  0.11802916688E+01  0.00000000000E+00 0.  1.
         11    1    3    3    0    0  0.63316181237E+01 -0.43648549482E+01 -0.64836912173E+01  0.10058807029E+02  0.51100000000E-03 0. -1.
        -11    1    3    3    0    0 -0.21482422156E+02  0.29902907554E+02 -0.18581431190E+02  0.41242549960E+02  0.51100000000E-03 0.  1.
         12    1    3    3    0    0  0.14857035238E+02 -0.26294707645E+02  0.24208231824E+02  0.38706351342E+02  0.00000000000E+00 0. -1.
</event>
<event>
 7    1  0.1654239E-015  0.9000789E+02  0.7816164E-02  0.1186339E+00
        -11   -1    0    0    0    0  0.00000000000E+00  0.00000000000E+00  0.45593999997E+02  0.45594000000E+02  0.51100000000E-03 0.  1.
         11   -1    0    0    0    0 -0.00000000000E+00 -0.00000000000E+00 -0.45593999997E+02  0.45594000000E+02  0.51100000000E-03 0. -1.
    9900012    2    1    2    0    0 -0.47707410181E+00 -0.93435781303E+00 -0.54041369041E+00  0.90007885100E+02  0.90000148383E+02 0.  0.
        -12    1    1    2    0    0  0.47707410181E+00  0.93435781303E+00  0.54041369041E+00  0.11801149004E+01  0.00000000000E+00 0.  1.
         11    1    3    3    0    0 -0.89124666074E+01 -0.46258582750E+01  0.14049787814E+01  0.10139259906E+02  0.51100000000E-03 0. -1.
        -11    1    3    3    0    0 -0.14984145195E+02 -0.32916200015E+02 -0.38383669289E+01  0.36369408733E+02  0.51100000000E-03 0.  1.
         12    1    3    3    0    0  0.23419537700E+02  0.36607700477E+02  0.18929744570E+01  0.43499216460E+02  0.00000000000E+00 0. -1.
</event>
<event>
 7    1  0.1654239E-015  0.9000777E+02  0.7816164E-02  0.1186339E+00
        -11   -1    0    0    0    0  0.00000000000E+00  0.00000000000E+00  0.45593999997E+02  0.45594000000E+02  0.51100000000E-03 0. -1.
         11   -1    0    0    0    0 -0.00000000000E+00 -0.00000000000E+00 -0.45593999997E+02  0.45594000000E+02  0.51100000000E-03 0.  1.
    9900012    2    1    2    0    0 -0.29561625415E+00  0.46901144017E+00  0.10419138849E+01  0.90007768987E+02  0.90000030738E+02 0.  0.
        -12    1    1    2    0    0  0.29561625415E+00 -0.46901144017E+00 -0.10419138849E+01  0.11802310131E+01  0.00000000000E+00 0.  1.
         11    1    3    3    0    0  0.35106226217E+02 -0.21300246770E+02  0.41290788845E+01  0.41269806449E+02  0.51100000000E-03 0. -1.
        -11    1    3    3    0    0  0.35804546590E+00  0.98582069942E+01  0.35158930857E+01  0.10472532939E+02  0.51100000000E-03 0.  1.
        -12    1    3    3    0    0 -0.35759887937E+02  0.11911051216E+02 -0.66030580852E+01  0.38265429599E+02  0.00000000000E+00 0.  1.
</event>
<event>
 7    1  0.1654239E-015  0.9000775E+02  0.7816164E-02  0.1186339E+00
        -11   -1    0    0    0    0  0.00000000000E+00  0.00000000000E+00  0.45593999997E+02  0.45594000000E+02  0.51100000000E-03 0. -1.
         11   -1    0    0    0    0 -0.00000000000E+00 -0.00000000000E+00 -0.45593999997E+02  0.45594000000E+02  0.51100000000E-03 0.  1.
    9900012    2    1    2    0    0  0.76226085028E+00 -0.73625957587E+00 -0.51948062211E+00  0.90007754312E+02  0.90000015869E+02 0.  0.
        -12    1    1    2    0    0 -0.76226085028E+00  0.73625957587E+00  0.51948062211E+00  0.11802456878E+01  0.00000000000E+00 0.  1.
         11    1    3    3    0    0 -0.19726139129E+02  0.30480434636E+02  0.11948040393E+00  0.36306910312E+02  0.51100000000E-03 0. -1.
        -11    1    3    3    0    0 -0.14836087523E+01  0.72804507122E+01  0.50896509970E+01  0.90061426280E+01  0.51100000000E-03 0.  1.
        -12    1    3    3    0    0  0.21972008732E+02 -0.38497144924E+02 -0.57286120231E+01  0.44694701372E+02  0.00000000000E+00 0.  1.
</event>
<event>
 7    1  0.1654239E-015  0.9000777E+02  0.7816164E-02  0.1186339E+00
        -11   -1    0    0    0    0  0.00000000000E+00  0.00000000000E+00  0.45593999997E+02  0.45594000000E+02  0.51100000000E-03 0.  1.
         11   -1    0    0    0    0 -0.00000000000E+00 -0.00000000000E+00 -0.45593999997E+02  0.45594000000E+02  0.51100000000E-03 0. -1.
    9900012    2    1    2    0    0 -0.55346710048E+00  0.10047070918E+01 -0.27779380438E+00  0.90007774780E+02  0.90000036607E+02 0.  0.
        -12    1    1    2    0    0  0.55346710048E+00 -0.10047070918E+01  0.27779380438E+00  0.11802252198E+01  0.00000000000E+00 0.  1.
         11    1    3    3    0    0 -0.16852256690E+02  0.17332031962E+01 -0.21646884475E+02  0.27488000229E+02  0.51100000000E-03 0. -1.
        -11    1    3    3    0    0 -0.32191084024E+01 -0.26030837578E+02  0.53311119529E+01  0.26765423943E+02  0.51100000000E-03 0.  1.
        -12    1    3    3    0    0  0.19517897992E+02  0.25302341474E+02  0.16037978718E+02  0.35754350608E+02  0.00000000000E+00 0.  1.
</event>
<event>
 7    1  0.1654239E-015  0.9000768E+02  0.7816164E-02  0.1186339E+00
        -11   -1    0    0    0    0  0.00000000000E+00  0.00000000000E+00  0.45593999997E+02  0.45594000000E+02  0.51100000000E-03 0. -1.
         11   -1    0    0    0    0 -0.00000000000E+00 -0.00000000000E+00 -0.45593999997E+02  0.45594000000E+02  0.51100000000E-03 0.  1.
    9900012    2    1    2    0    0 -0.57437829204E+00 -0.20161985397E+00  0.10112368864E+01  0.90007677574E+02  0.89999938118E+02 0.  0.
        -12    1    1    2    0    0  0.57437829204E+00  0.20161985397E+00 -0.10112368864E+01  0.11803224255E+01  0.00000000000E+00 0.  1.
         11    1    3    3    0    0  0.20407766642E+02 -0.37183752130E+02  0.10276838155E+02  0.43643118180E+02  0.51100000000E-03 0. -1.
        -11    1    3    3    0    0 -0.86574344294E+01  0.41456109737E+01  0.14116300707E+01  0.97020596248E+01  0.51100000000E-03 0.  1.
        -12    1    3    3    0    0 -0.12324710504E+02  0.32836521302E+02 -0.10677231340E+02  0.36662499769E+02  0.00000000000E+00 0.  1.
</event>
<event>
 7    1  0.1654239E-015  0.9000764E+02  0.7816164E-02  0.1186339E+00
        -11   -1    0    0    0    0  0.00000000000E+00  0.00000000000E+00  0.45593999997E+02  0.45594000000E+02  0.51100000000E-03 0. -1.
         11   -1    0    0    0    0 -0.00000000000E+00 -0.00000000000E+00 -0.45593999997E+02  0.45594000000E+02  0.51100000000E-03 0.  1.
    9900012    2    1    2    0    0 -0.92039184116E+00 -0.11892541634E+00  0.72938094986E+00  0.90007635240E+02  0.89999895225E+02 0.  0.
        -12    1    1    2    0    0  0.92039184116E+00  0.11892541634E+00 -0.72938094986E+00  0.11803647597E+01  0.00000000000E+00 0.  1.
         11    1    3    3    0    0 -0.16768166670E+02  0.12017541760E+02  0.36193175133E+02  0.41659796566E+02  0.51100000000E-03 0. -1.
        -11    1    3    3    0    0  0.26302138992E+01 -0.80178456107E+01  0.17714274449E+01  0.86221707734E+01  0.51100000000E-03 0.  1.
        -12    1    3    3    0    0  0.13217560929E+02 -0.41186215657E+01 -0.37235221628E+02  0.39725667901E+02  0.00000000000E+00 0.  1.
</event>
<event>
 7    1  0.1654239E-015  0.9000779E+02  0.7816164E-02  0.1186339E+00
        -11   -1    0    0    0    0  0.00000000000E+00  0.00000000000E+00  0.45593999997E+02  0.45594000000E+02  0.51100000000E-03 0. -1.
         11   -1    0    0    0    0 -0.00000000000E+00 -0.00000000000E+00 -0.45593999997E+02  0.45594000000E+02  0.51100000000E-03 0.  1.
    9900012    2    1    2    0    0  0.76861930478E-02  0.55022906808E+00  0.10440746186E+01  0.90007786920E+02  0.90000048907E+02 0.  0.
        -12    1    1    2    0    0 -0.76861930478E-02 -0.55022906808E+00 -0.10440746186E+01  0.11802130800E+01  0.00000000000E+00 0.  1.
         11    1    3    3    0    0  0.15543397081E+02  0.24675343652E+02  0.24757011728E+02  0.38254142352E+02  0.51100000000E-03 0. -1.
        -11    1    3    3    0    0  0.79802997411E+01 -0.43333665200E+01  0.44080291907E+01  0.10094254354E+02  0.51100000000E-03 0.  1.
        -12    1    3    3    0    0 -0.23516010629E+02 -0.19791748064E+02 -0.28120966300E+02  0.41659390214E+02  0.00000000000E+00 0.  1.
</event>
<event>
 7    1  0.1654239E-015  0.9000789E+02  0.7816164E-02  0.1186339E+00
        -11   -1    0    0    0    0  0.00000000000E+00  0.00000000000E+00  0.45593999997E+02  0.45594000000E+02  0.51100000000E-03 0.  1.
         11   -1    0    0    0    0 -0.00000000000E+00 -0.00000000000E+00 -0.45593999997E+02  0.45594000000E+02  0.51100000000E-03 0. -1.
    9900012    2    1    2    0    0  0.44622326374E+00 -0.10921688499E+01 -0.26863787047E-01  0.90007885742E+02  0.90000149034E+02 0.  0.
        -12    1    1    2    0    0 -0.44622326374E+00  0.10921688499E+01  0.26863787047E-01  0.11801142575E+01  0.00000000000E+00 0.  1.
         11    1    3    3    0    0 -0.24605711832E+02 -0.30148433656E+02  0.12157362546E+02  0.40769726158E+02  0.51100000000E-03 0. -1.
        -11    1    3    3    0    0 -0.51824521062E+01  0.18177452902E+01 -0.59010742129E+01  0.80613078902E+01  0.51100000000E-03 0.  1.
        -12    1    3    3    0    0  0.30234387202E+02  0.27238519516E+02 -0.62831521199E+01  0.41176851694E+02  0.00000000000E+00 0.  1.
</event>
<event>
 7    1  0.1654239E-015  0.9000774E+02  0.7816164E-02  0.1186339E+00
        -11   -1    0    0    0    0  0.00000000000E+00  0.00000000000E+00  0.45593999997E+02  0.45594000000E+02  0.51100000000E-03 0. -1.
         11   -1    0    0    0    0 -0.00000000000E+00 -0.00000000000E+00 -0.45593999997E+02  0.45594000000E+02  0.51100000000E-03 0.  1.
    9900012    2    1    2    0    0 -0.77880381540E+00  0.54605643735E+00  0.69878679598E+00  0.90007739011E+02  0.90000000366E+02 0.  0.
        -12    1    1    2    0    0  0.77880381540E+00 -0.54605643735E+00 -0.69878679598E+00  0.11802609889E+01  0.00000000000E+00 0.  1.
         11    1    3    3    0    0 -0.44602179390E+01 -0.36646443885E+02 -0.13069027985E+02  0.39161906060E+02  0.51100000000E-03 0. -1.
        -11    1    3    3    0    0 -0.10019663506E+02  0.83471101059E+00  0.20235602660E+01  0.10255983408E+02  0.51100000000E-03 0.  1.
        -12    1    3    3    0    0  0.13701077630E+02  0.36357789312E+02  0.11744254515E+02  0.40589849544E+02  0.00000000000E+00 0.  1.
</event>
<event>
 7    1  0.1654239E-015  0.9000768E+02  0.7816164E-02  0.1186339E+00
        -11   -1    0    0    0    0  0.00000000000E+00  0.00000000000E+00  0.45593999997E+02  0.45594000000E+02  0.51100000000E-03 0. -1.
         11   -1    0    0    0    0 -0.00000000000E+00 -0.00000000000E+00 -0.45593999997E+02  0.45594000000E+02  0.51100000000E-03 0.  1.
    9900012    2    1    2    0    0  0.80649261269E+00 -0.65854746921E+00  0.55590589498E+00  0.90007683743E+02  0.89999944368E+02 0.  0.
        -12    1    1    2    0    0 -0.80649261269E+00  0.65854746921E+00 -0.55590589498E+00  0.11803162575E+01  0.00000000000E+00 0.  1.
         11    1    3    3    0    0 -0.19568213438E+02  0.44000227500E+01 -0.22766877067E+02  0.30341487587E+02  0.51100000000E-03 0. -1.
        -11    1    3    3    0    0 -0.14105875686E+02  0.56978456409E+01  0.17317886593E+02  0.23051038374E+02  0.51100000000E-03 0.  1.
        -12    1    3    3    0    0  0.34480581736E+02 -0.10756415860E+02  0.60048963693E+01  0.36615157782E+02  0.00000000000E+00 0.  1.
</event>
<event>
 7    1  0.1654239E-015  0.9000784E+02  0.7816164E-02  0.1186339E+00
        -11   -1    0    0    0    0  0.00000000000E+00  0.00000000000E+00  0.45593999997E+02  0.45594000000E+02  0.51100000000E-03 0.  1.
         11   -1    0    0    0    0 -0.00000000000E+00 -0.00000000000E+00 -0.45593999997E+02  0.45594000000E+02  0.51100000000E-03 0. -1.
    9900012    2    1    2    0    0 -0.78377668725E-01 -0.61909308762E+00 -0.10016742219E+01  0.90007842995E+02  0.90000105722E+02 0.  0.
        -12    1    1    2    0    0  0.78377668725E-01  0.61909308762E+00  0.10016742219E+01  0.11801570052E+01  0.00000000000E+00 0.  1.
         11    1    3    3    0    0 -0.27671448597E+01 -0.30422899915E+02 -0.21747824022E+02  0.37499037052E+02  0.51100000000E-03 0. -1.
        -11    1    3    3    0    0 -0.25660992746E+01 -0.85610353837E+01  0.86182847884E+00  0.89788050940E+01  0.51100000000E-03 0.  1.
        -12    1    3    3    0    0  0.52548664655E+01  0.38364842211E+02  0.19884321321E+02  0.43530000848E+02  0.00000000000E+00 0.  1.
</event>
<event>
 7    1  0.1654239E-015  0.9000774E+02  0.7816164E-02  0.1186339E+00
        -11   -1    0    0    0    0  0.00000000000E+00  0.00000000000E+00  0.45593999997E+02  0.45594000000E+02  0.51100000000E-03 0. -1.
         11   -1    0    0    0    0 -0.00000000000E+00 -0.00000000000E+00 -0.45593999997E+02  0.45594000000E+02  0.51100000000E-03 0.  1.
    9900012    2    1    2    0    0  0.10765112548E+01 -0.14328291966E+00  0.46218860694E+00  0.90007735290E+02  0.89999996596E+02 0.  0.
        -12    1    1    2    0    0 -0.10765112548E+01  0.14328291966E+00 -0.46218860694E+00  0.11802647097E+01  0.00000000000E+00 0.  1.
         11    1    3    3    0    0  0.38518831895E+01 -0.57973258222E+01  0.59850833769E+01  0.91797175383E+01  0.51100000000E-03 0. -1.
        -11    1    3    3    0    0 -0.16443920392E+01  0.38255741093E+02  0.16262176639E+02  0.41601251677E+02  0.51100000000E-03 0.  1.
         12    1    3    3    0    0 -0.11309798955E+01 -0.32601698191E+02 -0.21785071409E+02  0.39226766075E+02  0.00000000000E+00 0. -1.
</event>
<event>
 7    1  0.1654239E-015  0.9000743E+02  0.7816164E-02  0.1186340E+00
        -11   -1    0    0    0    0  0.00000000000E+00  0.00000000000E+00  0.45593999997E+02  0.45594000000E+02  0.51100000000E-03 0. -1.
         11   -1    0    0    0    0 -0.00000000000E+00 -0.00000000000E+00 -0.45593999997E+02  0.45594000000E+02  0.51100000000E-03 0.  1.
    9900012    2    1    2    0    0 -0.60726697922E+00  0.37999754819E-01  0.10116932697E+01  0.90007432155E+02  0.89999689459E+02 0.  0.
        -12    1    1    2    0    0  0.60726697922E+00 -0.37999754819E-01 -0.10116932697E+01  0.11805678453E+01  0.00000000000E+00 0.  1.
         11    1    3    3    0    0 -0.51836613961E+01 -0.37403445908E+02  0.40737048630E+01  0.37980036636E+02  0.51100000000E-03 0. -1.
        -11    1    3    3    0    0 -0.95804767514E+01  0.42675244959E-01 -0.69709010725E+01  0.11848241135E+02  0.51100000000E-03 0.  1.
        -12    1    3    3    0    0  0.14156871168E+02  0.37398770418E+02  0.39088894792E+01  0.40179154384E+02  0.00000000000E+00 0.  1.
</event>
<event>
 7    1  0.1654239E-015  0.9000769E+02  0.7816164E-02  0.1186339E+00
        -11   -1    0    0    0    0  0.00000000000E+00  0.00000000000E+00  0.45593999997E+02  0.45594000000E+02  0.51100000000E-03 0.  1.
         11   -1    0    0    0    0 -0.00000000000E+00 -0.00000000000E+00 -0.45593999997E+02  0.45594000000E+02  0.51100000000E-03 0. -1.
    9900012    2    1    2    0    0  0.93117754904E+00 -0.69707261073E+00 -0.20034999538E+00  0.90007685646E+02  0.89999946297E+02 0.  0.
        -12    1    1    2    0    0 -0.93117754904E+00  0.69707261073E+00  0.20034999538E+00  0.11803143535E+01  0.00000000000E+00 0.  1.
         11    1    3    3    0    0 -0.34033672084E+00  0.14843577297E+01 -0.35306563603E+02  0.35339391345E+02  0.51100000000E-03 0. -1.
        -11    1    3    3    0    0 -0.18324550465E+02  0.86263147684E+00  0.57186981423E+01  0.19215535161E+02  0.51100000000E-03 0.  1.
        -12    1    3    3    0    0  0.19596064735E+02 -0.30440618173E+01  0.29387515465E+02  0.35452759140E+02  0.00000000000E+00 0.  1.
</event>
<event>
 7    1  0.1654239E-015  0.9000770E+02  0.7816164E-02  0.1186339E+00
        -11   -1    0    0    0    0  0.00000000000E+00  0.00000000000E+00  0.45593999997E+02  0.45594000000E+02  0.51100000000E-03 0. -1.
         11   -1    0    0    0    0 -0.00000000000E+00 -0.00000000000E+00 -0.45593999997E+02  0.45594000000E+02  0.51100000000E-03 0.  1.
    9900012    2    1    2    0    0 -0.72347831727E+00  0.80117024504E+00  0.47729905027E+00  0.90007699606E+02  0.89999960441E+02 0.  0.
        -12    1    1    2    0    0  0.72347831727E+00 -0.80117024504E+00 -0.47729905027E+00  0.11803003942E+01  0.00000000000E+00 0.  1.
         11    1    3    3    0    0 -0.15463458448E+02 -0.46622715532E+01  0.17547895523E+01  0.16246064442E+02  0.51100000000E-03 0. -1.
        -11    1    3    3    0    0 -0.26384732981E+02 -0.16542633954E+01 -0.14280286548E+02  0.30046918411E+02  0.51100000000E-03 0.  1.
        -12    1    3    3    0    0  0.41124713112E+02  0.71177051937E+01  0.13002796046E+02  0.43714716753E+02  0.00000000000E+00 0.  1.
</event>
<event>
 7    1  0.1654239E-015  0.9000788E+02  0.7816164E-02  0.1186339E+00
        -11   -1    0    0    0    0  0.00000000000E+00  0.00000000000E+00  0.45593999997E+02  0.45594000000E+02  0.51100000000E-03 0.  1.
         11   -1    0    0    0    0 -0.00000000000E+00 -0.00000000000E+00 -0.45593999997E+02  0.45594000000E+02  0.51100000000E-03 0. -1.
    9900012    2    1    2    0    0  0.29362854070E+00 -0.72707352058E+00 -0.88194614233E+00  0.90007880251E+02  0.90000143470E+02 0.  0.
        -12    1    1    2    0    0 -0.29362854070E+00  0.72707352058E+00  0.88194614233E+00  0.11801197491E+01  0.00000000000E+00 0.  1.
         11    1    3    3    0    0  0.35509359474E+02 -0.20352880052E+01 -0.24060136803E+02  0.42941206210E+02  0.51100000000E-03 0. -1.
        -11    1    3    3    0    0 -0.10518750401E+02 -0.52756484555E+00 -0.30792149643E+01  0.10972875636E+02  0.51100000000E-03 0.  1.
        -12    1    3    3    0    0 -0.24696980532E+02  0.18357793301E+01  0.26257405625E+02  0.36093798405E+02  0.00000000000E+00 0.  1.
</event>
<event>
 7    1  0.1654239E-015  0.9000770E+02  0.7816164E-02  0.1186339E+00
        -11   -1    0    0    0    0  0.00000000000E+00  0.00000000000E+00  0.45593999997E+02  0.45594000000E+02  0.51100000000E-03 0.  1.
         11   -1    0    0    0    0 -0.00000000000E+00 -0.00000000000E+00 -0.45593999997E+02  0.45594000000E+02  0.51100000000E-03 0. -1.
    9900012    2    1    2    0    0  0.77434582478E+00  0.50777466887E+00 -0.73189588187E+00  0.90007695737E+02  0.89999956521E+02 0.  0.
        -12    1    1    2    0    0 -0.77434582478E+00 -0.50777466887E+00  0.73189588187E+00  0.11803042627E+01  0.00000000000E+00 0.  1.
         11    1    3    3    0    0  0.54993573547E+01 -0.30313425642E+01 -0.96172437881E+01  0.11485788932E+02  0.51100000000E-03 0. -1.
        -11    1    3    3    0    0  0.33263725313E+02  0.13034573962E+02  0.15259936595E+02  0.38848953721E+02  0.51100000000E-03 0.  1.
         12    1    3    3    0    0 -0.37988736843E+02 -0.94954567294E+01 -0.63745886888E+01  0.39672953084E+02  0.00000000000E+00 0. -1.
</event>
<event>
 7    1  0.1654239E-015  0.9000779E+02  0.7816164E-02  0.1186339E+00
        -11   -1    0    0    0    0  0.00000000000E+00  0.00000000000E+00  0.45593999997E+02  0.45594000000E+02  0.51100000000E-03 0. -1.
         11   -1    0    0    0    0 -0.00000000000E+00 -0.00000000000E+00 -0.45593999997E+02  0.45594000000E+02  0.51100000000E-03 0.  1.
    9900012    2    1    2    0    0  0.15176768140E+00  0.11475605014E+01  0.23017112488E+00  0.90007785070E+02  0.90000047033E+02 0.  0.
        -12    1    1    2    0    0 -0.15176768140E+00 -0.11475605014E+01 -0.23017112488E+00  0.11802149296E+01  0.00000000000E+00 0.  1.
         11    1    3    3    0    0 -0.25442752215E+02  0.83337805314E+01 -0.23846778821E+02  0.35853234145E+02  0.51100000000E-03 0. -1.
        -11    1    3    3    0    0 -0.73664739850E+01  0.53298133492E+01 -0.31345569639E+01  0.96175515039E+01  0.51100000000E-03 0.  1.
        -12    1    3    3    0    0  0.32960993881E+02 -0.12516033379E+02  0.27211506910E+02  0.44536999422E+02  0.00000000000E+00 0.  1.
</event>
<event>
 7    1  0.1654239E-015  0.9000775E+02  0.7816164E-02  0.1186339E+00
        -11   -1    0    0    0    0  0.00000000000E+00  0.00000000000E+00  0.45593999997E+02  0.45594000000E+02  0.51100000000E-03 0.  1.
         11   -1    0    0    0    0 -0.00000000000E+00 -0.00000000000E+00 -0.45593999997E+02  0.45594000000E+02  0.51100000000E-03 0. -1.
    9900012    2    1    2    0    0 -0.59603143737E+00  0.90147993401E+00 -0.47442101951E+00  0.90007747972E+02  0.90000009445E+02 0.  0.
        -12    1    1    2    0    0  0.59603143737E+00 -0.90147993401E+00  0.47442101951E+00  0.11802520280E+01  0.00000000000E+00 0.  1.
         11    1    3    3    0    0 -0.78125807705E+01  0.52920738031E+01 -0.48832005650E+01  0.10624881715E+02  0.51100000000E-03 0. -1.
        -11    1    3    3    0    0  0.15018311081E+02  0.35099834859E+02  0.78701680836E+01  0.38980605700E+02  0.51100000000E-03 0.  1.
         12    1    3    3    0    0 -0.78017617477E+01 -0.39490428728E+02 -0.34613885381E+01  0.40402260557E+02  0.00000000000E+00 0. -1.
</event>
<event>
 7    1  0.1654239E-015  0.9000745E+02  0.7816164E-02  0.1186340E+00
        -11   -1    0    0    0    0  0.00000000000E+00  0.00000000000E+00  0.45593999997E+02  0.45594000000E+02  0.51100000000E-03 0.  1.
         11   -1    0    0    0    0 -0.00000000000E+00 -0.00000000000E+00 -0.45593999997E+02  0.45594000000E+02  0.51100000000E-03 0. -1.
    9900012    2    1    2    0    0  0.21305827150E+00 -0.90077338239E+00 -0.73274650579E+00  0.90007447606E+02  0.89999705114E+02 0.  0.
        -12    1    1    2    0    0 -0.21305827150E+00  0.90077338239E+00  0.73274650579E+00  0.11805523941E+01  0.00000000000E+00 0.  1.
         11    1    3    3    0    0 -0.13565118400E+01 -0.19858250764E+02 -0.14704146787E+02  0.24746761016E+02  0.51100000000E-03 0. -1.
        -11    1    3    3    0    0  0.25014138207E+02  0.26858117502E+02 -0.29190914514E+00  0.36703552923E+02  0.51100000000E-03 0.  1.
         12    1    3    3    0    0 -0.23444568095E+02 -0.79006401204E+01  0.14263309426E+02  0.28557133667E+02  0.00000000000E+00 0. -1.
</event>
<event>
 7    1  0.1654239E-015  0.9000871E+02  0.7816164E-02  0.1186337E+00
        -11   -1    0    0    0    0  0.00000000000E+00  0.00000000000E+00  0.45593999997E+02  0.45594000000E+02  0.51100000000E-03 0. -1.
         11   -1    0    0    0    0 -0.00000000000E+00 -0.00000000000E+00 -0.45593999997E+02  0.45594000000E+02  0.51100000000E-03 0.  1.
    9900012    2    1    2    0    0 -0.42954291855E+00  0.66195643245E+00  0.87637406921E+00  0.90008709982E+02  0.90000984148E+02 0.  0.
        -12    1    1    2    0    0  0.42954291855E+00 -0.66195643245E+00 -0.87637406921E+00  0.11792900180E+01  0.00000000000E+00 0.  1.
         11    1    3    3    0    0 -0.34938419053E+02  0.30757016979E+01  0.24694340577E+02  0.42894795997E+02  0.51100000000E-03 0. -1.
        -11    1    3    3    0    0  0.32968490404E+01 -0.56465050201E+01  0.16004301048E+01  0.67315384065E+01  0.51100000000E-03 0.  1.
        -12    1    3    3    0    0  0.31212027094E+02  0.32327597546E+01 -0.25418396613E+02  0.40382375578E+02  0.00000000000E+00 0.  1.
</event>
<event>
 7    1  0.1654239E-015  0.9000774E+02  0.7816164E-02  0.1186339E+00
        -11   -1    0    0    0    0  0.00000000000E+00  0.00000000000E+00  0.45593999997E+02  0.45594000000E+02  0.51100000000E-03 0. -1.
         11   -1    0    0    0    0 -0.00000000000E+00 -0.00000000000E+00 -0.45593999997E+02  0.45594000000E+02  0.51100000000E-03 0.  1.
    9900012    2    1    2    0    0  0.70541723639E+00 -0.43421987351E+00 -0.84074589945E+00  0.90007739841E+02  0.90000001207E+02 0.  0.
        -12    1    1    2    0    0 -0.70541723639E+00  0.43421987351E+00  0.84074589945E+00  0.11802601592E+01  0.00000000000E+00 0.  1.
         11    1    3    3    0    0 -0.21456147295E+02  0.26430637202E+01  0.33817726178E+02  0.40137147964E+02  0.51100000000E-03 0. -1.
        -11    1    3    3    0    0  0.18067150389E+01 -0.89616201764E+01  0.12385634112E+00  0.91427674187E+01  0.51100000000E-03 0.  1.
        -12    1    3    3    0    0  0.20354849493E+02  0.58843365828E+01 -0.34782328418E+02  0.40727824458E+02  0.00000000000E+00 0.  1.
</event>
<event>
 7    1  0.1654239E-015  0.9000777E+02  0.7816164E-02  0.1186339E+00
        -11   -1    0    0    0    0  0.00000000000E+00  0.00000000000E+00  0.45593999997E+02  0.45594000000E+02  0.51100000000E-03 0. -1.
         11   -1    0    0    0    0 -0.00000000000E+00 -0.00000000000E+00 -0.45593999997E+02  0.45594000000E+02  0.51100000000E-03 0.  1.
    9900012    2    1    2    0    0 -0.38802780114E+00 -0.10859022355E+01  0.25140299378E+00  0.90007765826E+02  0.90000027535E+02 0.  0.
        -12    1    1    2    0    0  0.38802780114E+00  0.10859022355E+01 -0.25140299378E+00  0.11802341737E+01  0.00000000000E+00 0.  1.
         11    1    3    3    0    0 -0.19315961165E+00 -0.77025482962E+01  0.90601779740E+01  0.11893417762E+02  0.51100000000E-03 0. -1.
        -11    1    3    3    0    0  0.29185637815E+02  0.17005956319E+02 -0.25906006750E+02  0.42569063779E+02  0.51100000000E-03 0.  1.
         12    1    3    3    0    0 -0.29380506004E+02 -0.10389310259E+02  0.17097231770E+02  0.35545284285E+02  0.00000000000E+00 0. -1.
</event>
<event>
 7    1  0.1654239E-015  0.9000747E+02  0.7816164E-02  0.1186340E+00
        -11   -1    0    0    0    0  0.00000000000E+00  0.00000000000E+00  0.45593999997E+02  0.45594000000E+02  0.51100000000E-03 0.  1.
         11   -1    0    0    0    0 -0.00000000000E+00 -0.00000000000E+00 -0.45593999997E+02  0.45594000000E+02  0.51100000000E-03 0. -1.
    9900012    2    1    2    0    0 -0.54137488284E+00  0.50987886356E+00  0.91683370173E+00  0.90007471620E+02  0.89999729445E+02 0.  0.
        -12    1    1    2    0    0  0.54137488284E+00 -0.50987886356E+00 -0.91683370173E+00  0.11805283800E+01  0.00000000000E+00 0.  1.
         11    1    3    3    0    0 -0.29236297231E+02 -0.17380425582E+02 -0.82812625458E+01  0.35005993469E+02  0.51100000000E-03 0. -1.
        -11    1    3    3    0    0 -0.10590815643E+02  0.61548520499E+01  0.66093621232E+01  0.13918737288E+02  0.51100000000E-03 0.  1.
        -12    1    3    3    0    0  0.39285737991E+02  0.11735452395E+02  0.25887341243E+01  0.41082740863E+02  0.00000000000E+00 0.  1.
</event>
<event>
 7    1  0.1654239E-015  0.9000773E+02  0.7816164E-02  0.1186339E+00
        -11   -1    0    0    0    0  0.00000000000E+00  0.00000000000E+00  0.45593999997E+02  0.45594000000E+02  0.51100000000E-03 0.  1.
         11   -1    0    0    0    0 -0.00000000000E+00 -0.00000000000E+00 -0.45593999997E+02  0.45594000000E+02  0.51100000000E-03 0. -1.
    9900012    2    1    2    0    0  0.76053421743E+00 -0.57101994006E+00 -0.69897168395E+00  0.90007729911E+02  0.89999991146E+02 0.  0.
        -12    1    1    2    0    0 -0.76053421743E+00  0.57101994006E+00  0.69897168395E+00  0.11802700889E+01  0.00000000000E+00 0.  1.
         11    1    3    3    0    0 -0.16693405892E+02  0.45172860250E+01 -0.31977207829E+02  0.36354057464E+02  0.51100000000E-03 0. -1.
        -11    1    3    3    0    0  0.26215691034E+01 -0.75927189099E+00 -0.95854106349E+01  0.99664043501E+01  0.51100000000E-03 0.  1.
        -12    1    3    3    0    0  0.14832371006E+02 -0.43290340741E+01  0.40863646780E+02  0.43687268097E+02  0.00000000000E+00 0.  1.
</event>
<event>
 7    1  0.1654239E-015  0.9000771E+02  0.7816164E-02  0.1186339E+00
        -11   -1    0    0    0    0  0.00000000000E+00  0.00000000000E+00  0.45593999997E+02  0.45594000000E+02  0.51100000000E-03 0.  1.
         11   -1    0    0    0    0 -0.00000000000E+00 -0.00000000000E+00 -0.45593999997E+02  0.45594000000E+02  0.51100000000E-03 0. -1.
    9900012    2    1    2    0    0 -0.11733182677E+01  0.12687804840E+00 -0.17420580960E-01  0.90007713055E+02  0.89999974067E+02 0.  0.
        -12    1    1    2    0    0  0.11733182677E+01 -0.12687804840E+00  0.17420580960E-01  0.11802869452E+01  0.00000000000E+00 0.  1.
         11    1    3    3    0    0  0.95369295789E+01  0.19631130483E+01  0.70076207882E+00  0.97620646579E+01  0.51100000000E-03 0. -1.
        -11    1    3    3    0    0 -0.59219485956E+01 -0.40671216060E+02  0.36188715832E+00  0.41101681882E+02  0.51100000000E-03 0.  1.
         12    1    3    3    0    0 -0.47882992509E+01  0.38834981060E+02 -0.10800698181E+01  0.39143966514E+02  0.00000000000E+00 0. -1.
</event>
<event>
 7    1  0.1654239E-015  0.9000776E+02  0.7816164E-02  0.1186339E+00
        -11   -1    0    0    0    0  0.00000000000E+00  0.00000000000E+00  0.45593999997E+02  0.45594000000E+02  0.51100000000E-03 0.  1.
         11   -1    0    0    0    0 -0.00000000000E+00 -0.00000000000E+00 -0.45593999997E+02  0.45594000000E+02  0.51100000000E-03 0. -1.
    9900012    2    1    2    0    0  0.77933473378E+00 -0.31036253771E+00 -0.83023280522E+00  0.90007756787E+02  0.90000018376E+02 0.  0.
        -12    1    1    2    0    0 -0.77933473378E+00  0.31036253771E+00  0.83023280522E+00  0.11802432135E+01  0.00000000000E+00 0.  1.
         11    1    3    3    0    0 -0.77489721080E+01  0.11392814840E+02 -0.88685486800E+01  0.16385785140E+02  0.51100000000E-03 0. -1.
        -11    1    3    3    0    0 -0.25972152748E+02  0.51877413257E+01  0.20222185166E+02  0.33322697243E+02  0.51100000000E-03 0.  1.
         12    1    3    3    0    0  0.34500459590E+02 -0.16890918703E+02 -0.12183869291E+02  0.40299274403E+02  0.00000000000E+00 0. -1.
</event>
<event>
 7    1  0.1654239E-015  0.9000776E+02  0.7816164E-02  0.1186339E+00
        -11   -1    0    0    0    0  0.00000000000E+00  0.00000000000E+00  0.45593999997E+02  0.45594000000E+02  0.51100000000E-03 0.  1.
         11   -1    0    0    0    0 -0.00000000000E+00 -0.00000000000E+00 -0.45593999997E+02  0.45594000000E+02  0.51100000000E-03 0. -1.
    9900012    2    1    2    0    0  0.51456088196E+00  0.15189881118E+00  0.10512477801E+01  0.90007759327E+02  0.90000020951E+02 0.  0.
        -12    1    1    2    0    0 -0.51456088196E+00 -0.15189881118E+00 -0.10512477801E+01  0.11802406726E+01  0.00000000000E+00 0.  1.
         11    1    3    3    0    0 -0.65205944245E+01 -0.12198006497E+02 -0.43223107655E+01  0.14491096741E+02  0.51100000000E-03 0. -1.
        -11    1    3    3    0    0  0.40114804221E+02  0.99012916999E+00  0.57625522005E+01  0.40538683767E+02  0.51100000000E-03 0.  1.
         12    1    3    3    0    0 -0.33079648914E+02  0.11359776138E+02 -0.38899365490E+00  0.34977978819E+02  0.00000000000E+00 0. -1.
</event>
<event>
 7    1  0.1654239E-015  0.9000774E+02  0.7816164E-02  0.1186339E+00
        -11   -1    0    0    0    0  0.00000000000E+00  0.00000000000E+00  0.45593999997E+02  0.45594000000E+02  0.51100000000E-03 0.  1.
         11   -1    0    0    0    0 -0.00000000000E+00 -0.00000000000E+00 -0.45593999997E+02  0.45594000000E+02  0.51100000000E-03 0. -1.
    9900012    2    1    2    0    0 -0.88609868394E+00  0.12600508903E+00 -0.76939637205E+00  0.90007737768E+02  0.89999999106E+02 0.  0.
        -12    1    1    2    0    0  0.88609868394E+00 -0.12600508903E+00  0.76939637205E+00  0.11802622325E+01  0.00000000000E+00 0.  1.
         11    1    3    3    0    0  0.18995513826E+01 -0.24745167701E+02 -0.34440460094E+02  0.42450876454E+02  0.51100000000E-03 0. -1.
        -11    1    3    3    0    0  0.16684406982E+01 -0.37844805262E+01  0.71424474865E+01  0.82535170428E+01  0.51100000000E-03 0.  1.
        -12    1    3    3    0    0 -0.44540907648E+01  0.28655653316E+02  0.26528616235E+02  0.39303344271E+02  0.00000000000E+00 0.  1.
</event>
<event>
 7    1  0.1654239E-015  0.9000774E+02  0.7816164E-02  0.1186339E+00
        -11   -1    0    0    0    0  0.00000000000E+00  0.00000000000E+00  0.45593999997E+02  0.45594000000E+02  0.51100000000E-03 0. -1.
         11   -1    0    0    0    0 -0.00000000000E+00 -0.00000000000E+00 -0.45593999997E+02  0.45594000000E+02  0.51100000000E-03 0.  1.
    9900012    2    1    2    0    0 -0.11713354838E+01 -0.58157351773E-01 -0.13271081925E+00  0.90007736786E+02  0.89999998111E+02 0.  0.
        -12    1    1    2    0    0  0.11713354838E+01  0.58157351773E-01  0.13271081925E+00  0.11802632141E+01  0.00000000000E+00 0.  1.
         11    1    3    3    0    0  0.34973574514E+00  0.18711747176E+01  0.79406830169E+01  0.81656632891E+01  0.51100000000E-03 0. -1.
        -11    1    3    3    0    0  0.33763661615E+02 -0.37503402944E+00  0.17695672520E+02  0.38121677854E+02  0.51100000000E-03 0.  1.
         12    1    3    3    0    0 -0.35284732844E+02 -0.15542980399E+01 -0.25769066357E+02  0.43720395643E+02  0.00000000000E+00 0. -1.
</event>
<event>
 7    1  0.2170603E-015  0.9000777E+02  0.7816164E-02  0.1186339E+00
        -11   -1    0    0    0    0  0.00000000000E+00  0.00000000000E+00  0.45593999997E+02  0.45594000000E+02  0.51100000000E-03 0.  1.
         11   -1    0    0    0    0 -0.00000000000E+00 -0.00000000000E+00 -0.45593999997E+02  0.45594000000E+02  0.51100000000E-03 0. -1.
    9900012    2    1    2    0    0 -0.11258077398E+01 -0.73389749889E-01 -0.34657383375E+00  0.90007770131E+02  0.90000031896E+02 0.  0.
        -12    1    1    2    0    0  0.11258077398E+01  0.73389749889E-01  0.34657383375E+00  0.11802298694E+01  0.00000000000E+00 0.  1.
         11    1    3    3    0    0 -0.72545334022E+01  0.45335071392E+01 -0.38976533577E+01  0.94006725197E+01  0.51100000000E-03 0. -1.
        -11    1    3    3    0    0 -0.57259177209E+01  0.33576237258E+02 -0.14149484412E+02  0.36883027961E+02  0.51100000000E-03 0.  1.
         12    1    3    3    0    0  0.11854643383E+02 -0.38183134148E+02  0.17700563936E+02  0.43724069650E+02  0.00000000000E+00 0. -1.
</event>
<event>
 7    1  0.1654239E-015  0.9000749E+02  0.7816164E-02  0.1186340E+00
        -11   -1    0    0    0    0  0.00000000000E+00  0.00000000000E+00  0.45593999997E+02  0.45594000000E+02  0.51100000000E-03 0.  1.
         11   -1    0    0    0    0 -0.00000000000E+00 -0.00000000000E+00 -0.45593999997E+02  0.45594000000E+02  0.51100000000E-03 0. -1.
    9900012    2    1    2    0    0 -0.80239000320E+00  0.31697807391E+00 -0.80578432417E+00  0.90007494518E+02  0.89999752645E+02 0.  0.
        -12    1    1    2    0    0  0.80239000320E+00 -0.31697807391E+00  0.80578432417E+00  0.11805054823E+01  0.00000000000E+00 0.  1.
         11    1    3    3    0    0  0.52133880520E+01  0.38935977497E+02 -0.17704819423E+02  0.43088866192E+02  0.51100000000E-03 0. -1.
        -11    1    3    3    0    0  0.23966543043E+01  0.42968049704E+00  0.44612220359E+01  0.50824285041E+01  0.51100000000E-03 0.  1.
        -12    1    3    3    0    0 -0.84124323595E+01 -0.39048679920E+02  0.12437813063E+02  0.41836199822E+02  0.00000000000E+00 0.  1.
</event>
<event>
 7    1  0.1654239E-015  0.9000774E+02  0.7816164E-02  0.1186339E+00
        -11   -1    0    0    0    0  0.00000000000E+00  0.00000000000E+00  0.45593999997E+02  0.45594000000E+02  0.51100000000E-03 0.  1.
         11   -1    0    0    0    0 -0.00000000000E+00 -0.00000000000E+00 -0.45593999997E+02  0.45594000000E+02  0.51100000000E-03 0. -1.
    9900012    2    1    2    0    0 -0.52757638966E+00  0.87644162672E+00 -0.58865813350E+00  0.90007743600E+02  0.90000005015E+02 0.  0.
        -12    1    1    2    0    0  0.52757638966E+00 -0.87644162672E+00  0.58865813350E+00  0.11802564002E+01  0.00000000000E+00 0.  1.
         11    1    3    3    0    0 -0.20289517805E+01 -0.22913900966E+01 -0.38420986613E+02  0.38542694852E+02  0.51100000000E-03 0. -1.
        -11    1    3    3    0    0 -0.57871151881E+01  0.19965337720E+01 -0.50598727513E+01  0.79422390938E+01  0.51100000000E-03 0.  1.
        -12    1    3    3    0    0  0.72884905790E+01  0.11712979514E+01  0.42892201230E+02  0.43522809654E+02  0.00000000000E+00 0.  1.
</event>
<event>
 7    1  0.1654239E-015  0.9000770E+02  0.7816164E-02  0.1186339E+00
        -11   -1    0    0    0    0  0.00000000000E+00  0.00000000000E+00  0.45593999997E+02  0.45594000000E+02  0.51100000000E-03 0.  1.
         11   -1    0    0    0    0 -0.00000000000E+00 -0.00000000000E+00 -0.45593999997E+02  0.45594000000E+02  0.51100000000E-03 0. -1.
    9900012    2    1    2    0    0 -0.11688793851E+01 -0.98770577093E-01 -0.13062922010E+00  0.90007704005E+02  0.89999964897E+02 0.  0.
        -12    1    1    2    0    0  0.11688793851E+01  0.98770577093E-01  0.13062922010E+00  0.11802959955E+01  0.00000000000E+00 0.  1.
         11    1    3    3    0    0 -0.86702654203E+01 -0.14783540104E+02 -0.37336324916E+02  0.41081963426E+02  0.51100000000E-03 0. -1.
        -11    1    3    3    0    0 -0.66306990684E+01 -0.42812808786E+01  0.69062749095E+01  0.10487715170E+02  0.51100000000E-03 0.  1.
        -12    1    3    3    0    0  0.14132085104E+02  0.18966050406E+02  0.30299420786E+02  0.38438025409E+02  0.00000000000E+00 0.  1.
</event>
<event>
 7    1  0.1654239E-015  0.9000762E+02  0.7816164E-02  0.1186339E+00
        -11   -1    0    0    0    0  0.00000000000E+00  0.00000000000E+00  0.45593999997E+02  0.45594000000E+02  0.51100000000E-03 0. -1.
         11   -1    0    0    0    0 -0.00000000000E+00 -0.00000000000E+00 -0.45593999997E+02  0.45594000000E+02  0.51100000000E-03 0.  1.
    9900012    2    1    2    0    0  0.65620287022E+00 -0.94857354528E+00  0.25080535996E+00  0.90007619847E+02  0.89999879629E+02 0.  0.
        -12    1    1    2    0    0 -0.65620287022E+00  0.94857354528E+00 -0.25080535996E+00  0.11803801533E+01  0.00000000000E+00 0.  1.
         11    1    3    3    0    0 -0.36324921090E+02 -0.14931926794E+02  0.57004186352E+00  0.39278330896E+02  0.51100000000E-03 0. -1.
        -11    1    3    3    0    0 -0.17187811937E+01  0.79106768910E+01 -0.73449936590E+01  0.10930779925E+02  0.51100000000E-03 0.  1.
        -12    1    3    3    0    0  0.38699905154E+02  0.60726763573E+01  0.70257571554E+01  0.39798509026E+02  0.00000000000E+00 0.  1.
</event>
<event>
 7    1  0.1654239E-015  0.9000794E+02  0.7816164E-02  0.1186339E+00
        -11   -1    0    0    0    0  0.00000000000E+00  0.00000000000E+00  0.45593999997E+02  0.45594000000E+02  0.51100000000E-03 0.  1.
         11   -1    0    0    0    0 -0.00000000000E+00 -0.00000000000E+00 -0.45593999997E+02  0.45594000000E+02  0.51100000000E-03 0. -1.
    9900012    2    1    2    0    0 -0.11196502581E+00 -0.67790065081E+00 -0.95940843904E+00  0.90007936437E+02  0.90000200398E+02 0.  0.
        -12    1    1    2    0    0  0.11196502581E+00  0.67790065081E+00  0.95940843904E+00  0.11800635628E+01  0.00000000000E+00 0.  1.
         11    1    3    3    0    0  0.14726619406E+02 -0.17128332361E+01  0.14382566355E+01  0.14895492581E+02  0.51100000000E-03 0. -1.
        -11    1    3    3    0    0  0.23088719419E+02 -0.13051858880E+02  0.15666702407E+02  0.30803985931E+02  0.51100000000E-03 0.  1.
         12    1    3    3    0    0 -0.37927303851E+02  0.14086791465E+02 -0.18064367481E+02  0.44308457925E+02  0.00000000000E+00 0. -1.
</event>
<event>
 7    1  0.1654239E-015  0.9000774E+02  0.7816164E-02  0.1186339E+00
        -11   -1    0    0    0    0  0.00000000000E+00  0.00000000000E+00  0.45593999997E+02  0.45594000000E+02  0.51100000000E-03 0.  1.
         11   -1    0    0    0    0 -0.00000000000E+00 -0.00000000000E+00 -0.45593999997E+02  0.45594000000E+02  0.51100000000E-03 0. -1.
    9900012    2    1    2    0    0  0.64000926283E-01 -0.59260990568E+00 -0.10186890157E+01  0.90007741584E+02  0.90000002972E+02 0.  0.
        -12    1    1    2    0    0 -0.64000926283E-01  0.59260990568E+00  0.10186890157E+01  0.11802584164E+01  0.00000000000E+00 0.  1.
         11    1    3    3    0    0  0.33227796585E+00  0.64029624976E+01 -0.63917175159E+01  0.90533082603E+01  0.51100000000E-03 0. -1.
        -11    1    3    3    0    0  0.12110749608E+02  0.95669269919E+01  0.38739360082E+02  0.41700531986E+02  0.51100000000E-03 0.  1.
         12    1    3    3    0    0 -0.12379026648E+02 -0.16562499395E+02 -0.33366331581E+02  0.39253901337E+02  0.00000000000E+00 0. -1.
</event>
<event>
 7    1  0.1654239E-015  0.9000784E+02  0.7816164E-02  0.1186339E+00
        -11   -1    0    0    0    0  0.00000000000E+00  0.00000000000E+00  0.45593999997E+02  0.45594000000E+02  0.51100000000E-03 0.  1.
         11   -1    0    0    0    0 -0.00000000000E+00 -0.00000000000E+00 -0.45593999997E+02  0.45594000000E+02  0.51100000000E-03 0. -1.
    9900012    2    1    2    0    0  0.10890150449E+01  0.12837294844E-01 -0.45460274095E+00  0.90007838055E+02  0.90000100717E+02 0.  0.
        -12    1    1    2    0    0 -0.10890150449E+01 -0.12837294844E-01  0.45460274095E+00  0.11801619449E+01  0.00000000000E+00 0.  1.
         11    1    3    3    0    0  0.11172221248E+02 -0.29071181230E+01 -0.21352815437E+00  0.11546231330E+02  0.51100000000E-03 0. -1.
        -11    1    3    3    0    0  0.23129567126E+02 -0.25621731035E+02 -0.25308738799E+01  0.34610046222E+02  0.51100000000E-03 0.  1.
         12    1    3    3    0    0 -0.33212773328E+02  0.28541686453E+02  0.22897992933E+01  0.43851560503E+02  0.00000000000E+00 0. -1.
</event>
<event>
 7    1  0.1654239E-015  0.9000773E+02  0.7816164E-02  0.1186339E+00
        -11   -1    0    0    0    0  0.00000000000E+00  0.00000000000E+00  0.45593999997E+02  0.45594000000E+02  0.51100000000E-03 0.  1.
         11   -1    0    0    0    0 -0.00000000000E+00 -0.00000000000E+00 -0.45593999997E+02  0.45594000000E+02  0.51100000000E-03 0. -1.
    9900012    2    1    2    0    0 -0.94270652287E+00  0.62350561850E+00  0.33996233266E+00  0.90007733406E+02  0.89999994687E+02 0.  0.
        -12    1    1    2    0    0  0.94270652287E+00 -0.62350561850E+00 -0.33996233266E+00  0.11802665937E+01  0.00000000000E+00 0.  1.
         11    1    3    3    0    0 -0.79389503101E+01 -0.11726773542E+02 -0.34112782588E+02  0.36935431308E+02  0.51100000000E-03 0. -1.
        -11    1    3    3    0    0  0.69899500034E+01 -0.50043746350E+01 -0.50184759816E+01  0.99543090156E+01  0.51100000000E-03 0.  1.
        -12    1    3    3    0    0  0.62937838283E-02  0.17354653795E+02  0.39471220902E+02  0.43117993083E+02  0.00000000000E+00 0.  1.
</event>
<event>
 7    1  0.1654239E-015  0.9000776E+02  0.7816164E-02  0.1186339E+00
        -11   -1    0    0    0    0  0.00000000000E+00  0.00000000000E+00  0.45593999997E+02  0.45594000000E+02  0.51100000000E-03 0. -1.
         11   -1    0    0    0    0 -0.00000000000E+00 -0.00000000000E+00 -0.45593999997E+02  0.45594000000E+02  0.51100000000E-03 0.  1.
    9900012    2    1    2    0    0 -0.81212407540E+00  0.80394046223E+00  0.29514340539E+00  0.90007756207E+02  0.90000017789E+02 0.  0.
        -12    1    1    2    0    0  0.81212407540E+00 -0.80394046223E+00 -0.29514340539E+00  0.11802437928E+01  0.00000000000E+00 0.  1.
         11    1    3    3    0    0 -0.68792106462E+01 -0.22380576380E+01  0.77990684920E+01  0.10637570715E+02  0.51100000000E-03 0. -1.
        -11    1    3    3    0    0 -0.16930711656E+02  0.18589005193E+02 -0.33129784188E+02  0.41590656545E+02  0.51100000000E-03 0.  1.
         12    1    3    3    0    0  0.22997798227E+02 -0.15547007093E+02  0.25625859101E+02  0.37779528948E+02  0.00000000000E+00 0. -1.
</event>
<event>
 7    1  0.1654239E-015  0.9000777E+02  0.7816164E-02  0.1186339E+00
        -11   -1    0    0    0    0  0.00000000000E+00  0.00000000000E+00  0.45593999997E+02  0.45594000000E+02  0.51100000000E-03 0. -1.
         11   -1    0    0    0    0 -0.00000000000E+00 -0.00000000000E+00 -0.45593999997E+02  0.45594000000E+02  0.51100000000E-03 0.  1.
    9900012    2    1    2    0    0 -0.38662513171E+00  0.10156368230E+01  0.46037293138E+00  0.90007771046E+02  0.90000032823E+02 0.  0.
        -12    1    1    2    0    0  0.38662513171E+00 -0.10156368230E+01 -0.46037293138E+00  0.11802289543E+01  0.00000000000E+00 0.  1.
         11    1    3    3    0    0 -0.19579316603E+02 -0.18473401758E+02  0.20161440151E+02  0.33631828383E+02  0.51100000000E-03 0. -1.
        -11    1    3    3    0    0  0.89960606855E+01 -0.13808777712E+02 -0.23875882926E+00  0.16482368028E+02  0.51100000000E-03 0.  1.
        -12    1    3    3    0    0  0.10196630786E+02  0.33297816293E+02 -0.19462308391E+02  0.39893574635E+02  0.00000000000E+00 0.  1.
</event>
<event>
 7    1  0.1654239E-015  0.9000765E+02  0.7816164E-02  0.1186339E+00
        -11   -1    0    0    0    0  0.00000000000E+00  0.00000000000E+00  0.45593999997E+02  0.45594000000E+02  0.51100000000E-03 0.  1.
         11   -1    0    0    0    0 -0.00000000000E+00 -0.00000000000E+00 -0.45593999997E+02  0.45594000000E+02  0.51100000000E-03 0. -1.
    9900012    2    1    2    0    0  0.76699881929E+00 -0.15004938581E+00 -0.88454917168E+00  0.90007648678E+02  0.89999908840E+02 0.  0.
        -12    1    1    2    0    0 -0.76699881929E+00  0.15004938581E+00  0.88454917168E+00  0.11803513223E+01  0.00000000000E+00 0.  1.
         11    1    3    3    0    0  0.16288036221E+02 -0.31824916854E+02 -0.15028781878E+02  0.38781306601E+02  0.51100000000E-03 0. -1.
        -11    1    3    3    0    0 -0.11419149422E+01 -0.15335552957E+01 -0.83839112441E+01  0.85991702849E+01  0.51100000000E-03 0.  1.
        -12    1    3    3    0    0 -0.14379122459E+02  0.33208422764E+02  0.22528143950E+02  0.42627171792E+02  0.00000000000E+00 0.  1.
</event>
<event>
 7    1  0.1654239E-015  0.9000774E+02  0.7816164E-02  0.1186339E+00
        -11   -1    0    0    0    0  0.00000000000E+00  0.00000000000E+00  0.45593999997E+02  0.45594000000E+02  0.51100000000E-03 0.  1.
         11   -1    0    0    0    0 -0.00000000000E+00 -0.00000000000E+00 -0.45593999997E+02  0.45594000000E+02  0.51100000000E-03 0. -1.
    9900012    2    1    2    0    0 -0.79497929356E+00  0.84455490461E+00  0.21852202602E+00  0.90007738614E+02  0.89999999963E+02 0.  0.
        -12    1    1    2    0    0  0.79497929356E+00 -0.84455490461E+00 -0.21852202602E+00  0.11802613863E+01  0.00000000000E+00 0.  1.
         11    1    3    3    0    0 -0.88881467312E+01  0.63001407649E+00 -0.18127613438E+01  0.90929738812E+01  0.51100000000E-03 0. -1.
        -11    1    3    3    0    0  0.32697431817E+02  0.74458221269E+01  0.28537352757E+02  0.44033428406E+02  0.51100000000E-03 0.  1.
         12    1    3    3    0    0 -0.24604264379E+02 -0.72312812988E+01 -0.26506069387E+02  0.36881336326E+02  0.00000000000E+00 0. -1.
</event>
<event>
 7    1  0.1654239E-015  0.9000770E+02  0.7816164E-02  0.1186339E+00
        -11   -1    0    0    0    0  0.00000000000E+00  0.00000000000E+00  0.45593999997E+02  0.45594000000E+02  0.51100000000E-03 0. -1.
         11   -1    0    0    0    0 -0.00000000000E+00 -0.00000000000E+00 -0.45593999997E+02  0.45594000000E+02  0.51100000000E-03 0.  1.
    9900012    2    1    2    0    0  0.89512456057E+00 -0.21344200713E+00  0.73912876003E+00  0.90007696313E+02  0.89999957104E+02 0.  0.
        -12    1    1    2    0    0 -0.89512456057E+00  0.21344200713E+00 -0.73912876003E+00  0.11803036869E+01  0.00000000000E+00 0.  1.
         11    1    3    3    0    0 -0.22154930439E+02 -0.76157835374E+01  0.27007781825E+02  0.35752781444E+02  0.51100000000E-03 0. -1.
        -11    1    3    3    0    0 -0.68399596901E+01 -0.62999892102E+01  0.34649310107E+01  0.99237422266E+01  0.51100000000E-03 0.  1.
        -12    1    3    3    0    0  0.29890014689E+02  0.13702330740E+02 -0.29733584076E+02  0.44331172642E+02  0.00000000000E+00 0.  1.
</event>
<event>
 7    1  0.1654239E-015  0.9000766E+02  0.7816164E-02  0.1186339E+00
        -11   -1    0    0    0    0  0.00000000000E+00  0.00000000000E+00  0.45593999997E+02  0.45594000000E+02  0.51100000000E-03 0. -1.
         11   -1    0    0    0    0 -0.00000000000E+00 -0.00000000000E+00 -0.45593999997E+02  0.45594000000E+02  0.51100000000E-03 0.  1.
    9900012    2    1    2    0    0  0.10271044864E+01  0.49555100700E+00 -0.30445050285E+00  0.90007659144E+02  0.89999919445E+02 0.  0.
        -12    1    1    2    0    0 -0.10271044864E+01 -0.49555100700E+00  0.30445050285E+00  0.11803408555E+01  0.00000000000E+00 0.  1.
         11    1    3    3    0    0  0.28625316606E+02  0.17813149051E+02 -0.20235844965E+02  0.39321831743E+02  0.51100000000E-03 0. -1.
        -11    1    3    3    0    0  0.72969195504E+01 -0.12489200868E+01  0.68964005360E+01  0.10117567737E+02  0.51100000000E-03 0.  1.
        -12    1    3    3    0    0 -0.34895131670E+02 -0.16068677957E+02  0.13034993926E+02  0.40568259664E+02  0.00000000000E+00 0.  1.
</event>
<event>
 7    1  0.1723356E-015  0.9000780E+02  0.7816164E-02  0.1186339E+00
        -11   -1    0    0    0    0  0.00000000000E+00  0.00000000000E+00  0.45593999997E+02  0.45594000000E+02  0.51100000000E-03 0.  1.
         11   -1    0    0    0    0 -0.00000000000E+00 -0.00000000000E+00 -0.45593999997E+02  0.45594000000E+02  0.51100000000E-03 0. -1.
    9900012    2    1    2    0    0  0.80246388593E+00 -0.33926211598E+00  0.79612428037E+00  0.90007804702E+02  0.90000066924E+02 0.  0.
        -12    1    1    2    0    0 -0.80246388593E+00  0.33926211598E+00 -0.79612428037E+00  0.11801952980E+01  0.00000000000E+00 0.  1.
         11    1    3    3    0    0  0.78273117422E+01 -0.57147335430E+01  0.27399859216E+01  0.10071370894E+02  0.51100000000E-03 0. -1.
        -11    1    3    3    0    0 -0.30122002198E+02 -0.26576035261E+02 -0.45389814867E+01  0.40425524361E+02  0.51100000000E-03 0.  1.
         12    1    3    3    0    0  0.23097154342E+02  0.31951506688E+02  0.25951198454E+01  0.39510909447E+02  0.00000000000E+00 0. -1.
</event>
<event>
 7    1  0.1979439E-015  0.9000782E+02  0.7816164E-02  0.1186339E+00
        -11   -1    0    0    0    0  0.00000000000E+00  0.00000000000E+00  0.45593999997E+02  0.45594000000E+02  0.51100000000E-03 0. -1.
         11   -1    0    0    0    0 -0.00000000000E+00 -0.00000000000E+00 -0.45593999997E+02  0.45594000000E+02  0.51100000000E-03 0.  1.
    9900012    2    1    2    0    0 -0.11741029162E+01 -0.14136013634E-01  0.11872639378E+00  0.90007824826E+02  0.90000087314E+02 0.  0.
        -12    1    1    2    0    0  0.11741029162E+01  0.14136013634E-01 -0.11872639378E+00  0.11801751740E+01  0.00000000000E+00 0.  1.
         11    1    3    3    0    0  0.67973049915E+01 -0.56071592228E+01  0.42455715323E+01  0.97810258969E+01  0.51100000000E-03 0. -1.
        -11    1    3    3    0    0 -0.12850347105E+02 -0.18669570643E+02  0.30293109512E+02  0.37833276000E+02  0.51100000000E-03 0.  1.
         12    1    3    3    0    0  0.48789391974E+01  0.24262593852E+02 -0.34419954651E+02  0.42393522929E+02  0.00000000000E+00 0. -1.
</event>
<event>
 7    1  0.1654239E-015  0.9000772E+02  0.7816164E-02  0.1186339E+00
        -11   -1    0    0    0    0  0.00000000000E+00  0.00000000000E+00  0.45593999997E+02  0.45594000000E+02  0.51100000000E-03 0.  1.
         11   -1    0    0    0    0 -0.00000000000E+00 -0.00000000000E+00 -0.45593999997E+02  0.45594000000E+02  0.51100000000E-03 0. -1.
    9900012    2    1    2    0    0  0.11563944569E+01 -0.23209364967E+00  0.44008431486E-01  0.90007723615E+02  0.89999984767E+02 0.  0.
        -12    1    1    2    0    0 -0.11563944569E+01  0.23209364967E+00 -0.44008431486E-01  0.11802763846E+01  0.00000000000E+00 0.  1.
         11    1    3    3    0    0 -0.59013535044E+00  0.33379325021E+02 -0.99239347958E+01  0.34828322967E+02  0.51100000000E-03 0. -1.
        -11    1    3    3    0    0  0.69645661232E+01  0.88685347780E+01  0.19250696113E+00  0.11277994041E+02  0.51100000000E-03 0.  1.
        -12    1    3    3    0    0 -0.52180363159E+01 -0.42479953448E+02  0.97754362662E+01  0.43901406608E+02  0.00000000000E+00 0.  1.
</event>
<event>
 7    1  0.1654239E-015  0.9000774E+02  0.7816164E-02  0.1186339E+00
        -11   -1    0    0    0    0  0.00000000000E+00  0.00000000000E+00  0.45593999997E+02  0.45594000000E+02  0.51100000000E-03 0. -1.
         11   -1    0    0    0    0 -0.00000000000E+00 -0.00000000000E+00 -0.45593999997E+02  0.45594000000E+02  0.51100000000E-03 0.  1.
    9900012    2    1    2    0    0  0.10651795319E+01  0.50207767610E+00 -0.79566901641E-01  0.90007737182E+02  0.89999998513E+02 0.  0.
        -12    1    1    2    0    0 -0.10651795319E+01 -0.50207767610E+00  0.79566901641E-01  0.11802628181E+01  0.00000000000E+00 0.  1.
         11    1    3    3    0    0 -0.38029154000E+01 -0.92711716127E+01 -0.17961714636E+01  0.10180521637E+02  0.51100000000E-03 0. -1.
        -11    1    3    3    0    0  0.35299392956E+02 -0.15156679555E+02  0.98447640864E+01  0.39657174110E+02  0.51100000000E-03 0.  1.
         12    1    3    3    0    0 -0.30431298024E+02  0.24929928844E+02 -0.81281595244E+01  0.40170041435E+02  0.00000000000E+00 0. -1.
</event>
<event>
 7    1  0.1654239E-015  0.9000769E+02  0.7816164E-02  0.1186339E+00
        -11   -1    0    0    0    0  0.00000000000E+00  0.00000000000E+00  0.45593999997E+02  0.45594000000E+02  0.51100000000E-03 0.  1.
         11   -1    0    0    0    0 -0.00000000000E+00 -0.00000000000E+00 -0.45593999997E+02  0.45594000000E+02  0.51100000000E-03 0. -1.
    9900012    2    1    2    0    0  0.83941922163E+00  0.43600565019E+00  0.70598153618E+00  0.90007688395E+02  0.89999949081E+02 0.  0.
        -12    1    1    2    0    0 -0.83941922163E+00 -0.43600565019E+00 -0.70598153618E+00  0.11803116055E+01  0.00000000000E+00 0.  1.
         11    1    3    3    0    0 -0.29762441655E+02  0.14699661126E+02 -0.21451536224E+02  0.39522795664E+02  0.51100000000E-03 0. -1.
        -11    1    3    3    0    0  0.82443039777E+01  0.15720222222E+01 -0.66658334253E+01  0.10717888666E+02  0.51100000000E-03 0.  1.
        -12    1    3    3    0    0  0.22357556899E+02 -0.15835677698E+02  0.28823351186E+02  0.39767004064E+02  0.00000000000E+00 0.  1.
</event>
<event>
 7    1  0.1654239E-015  0.9000698E+02  0.7816164E-02  0.1186341E+00
        -11   -1    0    0    0    0  0.00000000000E+00  0.00000000000E+00  0.45593999997E+02  0.45594000000E+02  0.51100000000E-03 0. -1.
         11   -1    0    0    0    0 -0.00000000000E+00 -0.00000000000E+00 -0.45593999997E+02  0.45594000000E+02  0.51100000000E-03 0.  1.
    9900012    2    1    2    0    0  0.11734669817E+01  0.13322606103E+00  0.66797877960E-02  0.90006975631E+02  0.89999226906E+02 0.  0.
        -12    1    1    2    0    0 -0.11734669817E+01 -0.13322606103E+00 -0.66797877960E-02  0.11810243690E+01  0.00000000000E+00 0.  1.
         11    1    3    3    0    0  0.32573887310E+02  0.24226754878E+02  0.67991241494E+01  0.41160926567E+02  0.51100000000E-03 0. -1.
        -11    1    3    3    0    0  0.24610474658E+01 -0.43517662090E+01 -0.82233323073E+01  0.96238151615E+01  0.51100000000E-03 0.  1.
        -12    1    3    3    0    0 -0.33861467794E+02 -0.19741762608E+02  0.14308879456E+01  0.39222233903E+02  0.00000000000E+00 0.  1.
</event>
<event>
 7    1  0.1654239E-015  0.9000773E+02  0.7816164E-02  0.1186339E+00
        -11   -1    0    0    0    0  0.00000000000E+00  0.00000000000E+00  0.45593999997E+02  0.45594000000E+02  0.51100000000E-03 0.  1.
         11   -1    0    0    0    0 -0.00000000000E+00 -0.00000000000E+00 -0.45593999997E+02  0.45594000000E+02  0.51100000000E-03 0. -1.
    9900012    2    1    2    0    0 -0.40497753704E+00 -0.78117373469E+00 -0.78663128813E+00  0.90007733931E+02  0.89999995219E+02 0.  0.
        -12    1    1    2    0    0  0.40497753704E+00  0.78117373469E+00  0.78663128813E+00  0.11802660686E+01  0.00000000000E+00 0.  1.
         11    1    3    3    0    0  0.10364496306E+02 -0.35897523078E+02  0.21163892288E+01  0.37423709737E+02  0.51100000000E-03 0. -1.
        -11    1    3    3    0    0  0.35570220485E+01 -0.55565538137E+01  0.55733289305E+01  0.86365323925E+01  0.51100000000E-03 0.  1.
        -12    1    3    3    0    0 -0.14326495891E+02  0.40672903157E+02 -0.84763494474E+01  0.43947491802E+02  0.00000000000E+00 0.  1.
</event>
<event>
 7    1  0.1654239E-015  0.9000783E+02  0.7816164E-02  0.1186339E+00
        -11   -1    0    0    0    0  0.00000000000E+00  0.00000000000E+00  0.45593999997E+02  0.45594000000E+02  0.51100000000E-03 0. -1.
         11   -1    0    0    0    0 -0.00000000000E+00 -0.00000000000E+00 -0.45593999997E+02  0.45594000000E+02  0.51100000000E-03 0.  1.
    9900012    2    1    2    0    0  0.36257689198E+00  0.10247184198E+01  0.45965420527E+00  0.90007833982E+02  0.90000096590E+02 0.  0.
        -12    1    1    2    0    0 -0.36257689198E+00 -0.10247184198E+01 -0.45965420527E+00  0.11801660184E+01  0.00000000000E+00 0.  1.
         11    1    3    3    0    0  0.26599922165E+02 -0.29004354192E+02  0.72000215805E+01  0.40008108332E+02  0.51100000000E-03 0. -1.
        -11    1    3    3    0    0 -0.56284167155E+01 -0.12833201690E+01  0.78759178977E+01  0.97650431833E+01  0.51100000000E-03 0.  1.
        -12    1    3    3    0    0 -0.20608928557E+02  0.31312392781E+02 -0.14616285273E+02  0.40234682466E+02  0.00000000000E+00 0.  1.
</event>
<event>
 7    1  0.1654239E-015  0.9000773E+02  0.7816164E-02  0.1186339E+00
        -11   -1    0    0    0    0  0.00000000000E+00  0.00000000000E+00  0.45593999997E+02  0.45594000000E+02  0.51100000000E-03 0.  1.
         11   -1    0    0    0    0 -0.00000000000E+00 -0.00000000000E+00 -0.45593999997E+02  0.45594000000E+02  0.51100000000E-03 0. -1.
    9900012    2    1    2    0    0  0.40444595920E+00  0.10465484595E+01  0.36634017073E+00  0.90007726586E+02  0.89999987777E+02 0.  0.
        -12    1    1    2    0    0 -0.40444595920E+00 -0.10465484595E+01 -0.36634017073E+00  0.11802734144E+01  0.00000000000E+00 0.  1.
         11    1    3    3    0    0  0.21884288750E+01  0.36997418088E+02  0.61276681433E+00  0.37067150546E+02  0.51100000000E-03 0. -1.
        -11    1    3    3    0    0 -0.13237268316E+02 -0.19421789010E+01 -0.88461027548E+01  0.16039041916E+02  0.51100000000E-03 0.  1.
        -12    1    3    3    0    0  0.11453285401E+02 -0.34008690728E+02  0.85996761112E+01  0.36901534124E+02  0.00000000000E+00 0.  1.
</event>
<event>
 7    1  0.1654239E-015  0.9000772E+02  0.7816164E-02  0.1186339E+00
        -11   -1    0    0    0    0  0.00000000000E+00  0.00000000000E+00  0.45593999997E+02  0.45594000000E+02  0.51100000000E-03 0.  1.
         11   -1    0    0    0    0 -0.00000000000E+00 -0.00000000000E+00 -0.45593999997E+02  0.45594000000E+02  0.51100000000E-03 0. -1.
    9900012    2    1    2    0    0 -0.28359964522E+00  0.10829981823E+01 -0.37382745529E+00  0.90007720038E+02  0.89999981143E+02 0.  0.
        -12    1    1    2    0    0  0.28359964522E+00 -0.10829981823E+01  0.37382745529E+00  0.11802799617E+01  0.00000000000E+00 0.  1.
         11    1    3    3    0    0 -0.27121786886E+02  0.90811703927E+01 -0.24942051151E+02  0.37949504548E+02  0.51100000000E-03 0. -1.
        -11    1    3    3    0    0 -0.82995177580E+01 -0.37433455420E+01  0.23756784620E+00  0.91077477789E+01  0.51100000000E-03 0.  1.
        -12    1    3    3    0    0  0.35137704999E+02 -0.42548266684E+01  0.24330655849E+02  0.42950467711E+02  0.00000000000E+00 0.  1.
</event>
<event>
 7    1  0.1654239E-015  0.9000773E+02  0.7816164E-02  0.1186339E+00
        -11   -1    0    0    0    0  0.00000000000E+00  0.00000000000E+00  0.45593999997E+02  0.45594000000E+02  0.51100000000E-03 0.  1.
         11   -1    0    0    0    0 -0.00000000000E+00 -0.00000000000E+00 -0.45593999997E+02  0.45594000000E+02  0.51100000000E-03 0. -1.
    9900012    2    1    2    0    0 -0.11025414915E+01 -0.35729430802E+00  0.22311208599E+00  0.90007730554E+02  0.89999991797E+02 0.  0.
        -12    1    1    2    0    0  0.11025414915E+01  0.35729430802E+00 -0.22311208599E+00  0.11802694463E+01  0.00000000000E+00 0.  1.
         11    1    3    3    0    0  0.20036196948E+02 -0.32743612438E+02  0.55150022595E+00  0.38391372682E+02  0.51100000000E-03 0. -1.
        -11    1    3    3    0    0 -0.11475379382E+02 -0.41791917978E+01  0.54195914836E+01  0.13361210580E+02  0.51100000000E-03 0.  1.
        -12    1    3    3    0    0 -0.96633590580E+01  0.36565509928E+02 -0.57479796236E+01  0.38255147292E+02  0.00000000000E+00 0.  1.
</event>
<event>
 7    1  0.1654239E-015  0.9000761E+02  0.7816164E-02  0.1186339E+00
        -11   -1    0    0    0    0  0.00000000000E+00  0.00000000000E+00  0.45593999997E+02  0.45594000000E+02  0.51100000000E-03 0. -1.
         11   -1    0    0    0    0 -0.00000000000E+00 -0.00000000000E+00 -0.45593999997E+02  0.45594000000E+02  0.51100000000E-03 0.  1.
    9900012    2    1    2    0    0 -0.97677679347E-01  0.94302772842E+00 -0.70319716124E+00  0.90007606645E+02  0.89999866252E+02 0.  0.
        -12    1    1    2    0    0  0.97677679347E-01 -0.94302772842E+00  0.70319716124E+00  0.11803933553E+01  0.00000000000E+00 0.  1.
         11    1    3    3    0    0 -0.31720243146E+02  0.14555630755E+02 -0.17464206325E+02  0.39026128616E+02  0.51100000000E-03 0. -1.
        -11    1    3    3    0    0 -0.65409878121E+01 -0.66969970734E+01  0.33942781746E+01  0.99576812536E+01  0.51100000000E-03 0.  1.
        -12    1    3    3    0    0  0.38163553279E+02 -0.69156059527E+01  0.13366730989E+02  0.41023796776E+02  0.00000000000E+00 0.  1.
</event>
<event>
 7    1  0.1654239E-015  0.9000772E+02  0.7816164E-02  0.1186339E+00
        -11   -1    0    0    0    0  0.00000000000E+00  0.00000000000E+00  0.45593999997E+02  0.45594000000E+02  0.51100000000E-03 0. -1.
         11   -1    0    0    0    0 -0.00000000000E+00 -0.00000000000E+00 -0.45593999997E+02  0.45594000000E+02  0.51100000000E-03 0.  1.
    9900012    2    1    2    0    0 -0.21435589473E-01  0.11098115751E+01  0.40115862834E+00  0.90007716364E+02  0.89999977420E+02 0.  0.
        -12    1    1    2    0    0  0.21435589473E-01 -0.11098115751E+01 -0.40115862834E+00  0.11802836361E+01  0.00000000000E+00 0.  1.
         11    1    3    3    0    0 -0.10755283043E+02  0.54985183029E+01  0.34040736306E+00  0.12084109164E+02  0.51100000000E-03 0. -1.
        -11    1    3    3    0    0  0.11019266021E+02  0.11214858377E+02 -0.35643792145E+02  0.38957376590E+02  0.51100000000E-03 0.  1.
         12    1    3    3    0    0 -0.28541856738E+00 -0.15603565104E+02  0.35704543411E+02  0.38966230609E+02  0.00000000000E+00 0. -1.
</event>
<event>
 7    1  0.1654239E-015  0.9000776E+02  0.7816164E-02  0.1186339E+00
        -11   -1    0    0    0    0  0.00000000000E+00  0.00000000000E+00  0.45593999997E+02  0.45594000000E+02  0.51100000000E-03 0.  1.
         11   -1    0    0    0    0 -0.00000000000E+00 -0.00000000000E+00 -0.45593999997E+02  0.45594000000E+02  0.51100000000E-03 0. -1.
    9900012    2    1    2    0    0 -0.97269154963E-01 -0.81493412832E+00 -0.84816258229E+00  0.90007763292E+02  0.90000024967E+02 0.  0.
        -12    1    1    2    0    0  0.97269154963E-01  0.81493412832E+00  0.84816258229E+00  0.11802367085E+01  0.00000000000E+00 0.  1.
         11    1    3    3    0    0 -0.78815267660E+01 -0.24652974085E+01 -0.78898911864E+01  0.11421319480E+02  0.51100000000E-03 0. -1.
        -11    1    3    3    0    0 -0.12361846071E+01 -0.23142811116E+02  0.33817207992E+02  0.40996602486E+02  0.51100000000E-03 0.  1.
         12    1    3    3    0    0  0.90204422182E+01  0.24793174396E+02 -0.26775479388E+02  0.37589841326E+02  0.00000000000E+00 0. -1.
</event>
<event>
 7    1  0.1654239E-015  0.9000765E+02  0.7816164E-02  0.1186339E+00
        -11   -1    0    0    0    0  0.00000000000E+00  0.00000000000E+00  0.45593999997E+02  0.45594000000E+02  0.51100000000E-03 0.  1.
         11   -1    0    0    0    0 -0.00000000000E+00 -0.00000000000E+00 -0.45593999997E+02  0.45594000000E+02  0.51100000000E-03 0. -1.
    9900012    2    1    2    0    0  0.10171766886E+01  0.56695849417E+00 -0.19271079576E+00  0.90007649289E+02  0.89999909460E+02 0.  0.
        -12    1    1    2    0    0 -0.10171766886E+01 -0.56695849417E+00  0.19271079576E+00  0.11803507109E+01  0.00000000000E+00 0.  1.
         11    1    3    3    0    0  0.52272597034E+00 -0.11934521692E+02  0.34971800672E+01  0.12447341850E+02  0.51100000000E-03 0. -1.
        -11    1    3    3    0    0 -0.88581120563E+01  0.55997316828E+01  0.35327127851E+02  0.36848732768E+02  0.51100000000E-03 0.  1.
         12    1    3    3    0    0  0.93525627745E+01  0.69017485032E+01 -0.39017018714E+02  0.40711574671E+02  0.00000000000E+00 0. -1.
</event>
<event>
 7    1  0.1654239E-015  0.9000782E+02  0.7816164E-02  0.1186339E+00
        -11   -1    0    0    0    0  0.00000000000E+00  0.00000000000E+00  0.45593999997E+02  0.45594000000E+02  0.51100000000E-03 0. -1.
         11   -1    0    0    0    0 -0.00000000000E+00 -0.00000000000E+00 -0.45593999997E+02  0.45594000000E+02  0.51100000000E-03 0.  1.
    9900012    2    1    2    0    0  0.10495571512E+01 -0.53965992422E+00 -0.32786390733E-02  0.90007824675E+02  0.90000087161E+02 0.  0.
        -12    1    1    2    0    0 -0.10495571512E+01  0.53965992422E+00  0.32786390733E-02  0.11801753246E+01  0.00000000000E+00 0.  1.
         11    1    3    3    0    0  0.49403843699E+01 -0.36424149988E+02 -0.10184682483E+02  0.38142546553E+02  0.51100000000E-03 0. -1.
        -11    1    3    3    0    0  0.89877432660E+01 -0.27904230716E+01 -0.13391455708E+01  0.95057509464E+01  0.51100000000E-03 0.  1.
        -12    1    3    3    0    0 -0.12878570485E+02  0.38674913135E+02  0.11520549414E+02  0.42359527176E+02  0.00000000000E+00 0.  1.
</event>
<event>
 7    1  0.1656732E-015  0.9000782E+02  0.7816164E-02  0.1186339E+00
        -11   -1    0    0    0    0  0.00000000000E+00  0.00000000000E+00  0.45593999997E+02  0.45594000000E+02  0.51100000000E-03 0. -1.
         11   -1    0    0    0    0 -0.00000000000E+00 -0.00000000000E+00 -0.45593999997E+02  0.45594000000E+02  0.51100000000E-03 0.  1.
    9900012    2    1    2    0    0  0.25707751182E+00  0.59921302824E+00  0.98370499593E+00  0.90007821785E+02  0.90000084232E+02 0.  0.
        -12    1    1    2    0    0 -0.25707751182E+00 -0.59921302824E+00 -0.98370499593E+00  0.11801782151E+01  0.00000000000E+00 0.  1.
         11    1    3    3    0    0  0.23566278499E+02 -0.67970396873E+01  0.30523126784E+02  0.39156487326E+02  0.51100000000E-03 0. -1.
        -11    1    3    3    0    0  0.76213132453E+01 -0.36491327309E+01 -0.46706793551E+01  0.96548346009E+01  0.51100000000E-03 0.  1.
        -12    1    3    3    0    0 -0.30930514232E+02  0.11045385446E+02 -0.24868742433E+02  0.41196499858E+02  0.00000000000E+00 0.  1.
</event>
<event>
 7    1  0.1654239E-015  0.9000778E+02  0.7816164E-02  0.1186339E+00
        -11   -1    0    0    0    0  0.00000000000E+00  0.00000000000E+00  0.45593999997E+02  0.45594000000E+02  0.51100000000E-03 0.  1.
         11   -1    0    0    0    0 -0.00000000000E+00 -0.00000000000E+00 -0.45593999997E+02  0.45594000000E+02  0.51100000000E-03 0. -1.
    9900012    2    1    2    0    0  0.11164308499E+00 -0.92162224365E+00 -0.72875000967E+00  0.90007776159E+02  0.90000038004E+02 0.  0.
        -12    1    1    2    0    0 -0.11164308499E+00  0.92162224365E+00  0.72875000967E+00  0.11802238411E+01  0.00000000000E+00 0.  1.
         11    1    3    3    0    0 -0.19307778740E-01  0.90743663253E+01  0.36213910419E+01  0.97703106570E+01  0.51100000000E-03 0. -1.
        -11    1    3    3    0    0 -0.32987530288E+02 -0.53316795711E+01  0.19930384680E+02  0.38907893740E+02  0.51100000000E-03 0.  1.
         12    1    3    3    0    0  0.33118481152E+02 -0.46643089978E+01 -0.24280525732E+02  0.41329571762E+02  0.00000000000E+00 0. -1.
</event>
<event>
 7    1  0.1654239E-015  0.9000767E+02  0.7816164E-02  0.1186339E+00
        -11   -1    0    0    0    0  0.00000000000E+00  0.00000000000E+00  0.45593999997E+02  0.45594000000E+02  0.51100000000E-03 0. -1.
         11   -1    0    0    0    0 -0.00000000000E+00 -0.00000000000E+00 -0.45593999997E+02  0.45594000000E+02  0.51100000000E-03 0.  1.
    9900012    2    1    2    0    0 -0.83077690444E+00  0.81998223748E+00  0.17495722397E+00  0.90007673280E+02  0.89999933768E+02 0.  0.
        -12    1    1    2    0    0  0.83077690444E+00 -0.81998223748E+00 -0.17495722397E+00  0.11803267196E+01  0.00000000000E+00 0.  1.
         11    1    3    3    0    0  0.58003145993E+01 -0.17353820817E+01  0.38092434658E+02  0.38570568817E+02  0.51100000000E-03 0. -1.
        -11    1    3    3    0    0  0.54016976485E+01 -0.88895887391E+01 -0.40129631078E+00  0.10409810970E+02  0.51100000000E-03 0.  1.
        -12    1    3    3    0    0 -0.12032789152E+02  0.11444953058E+02 -0.37516181124E+02  0.41027293493E+02  0.00000000000E+00 0.  1.
</event>
<event>
 7    1  0.1654239E-015  0.9000774E+02  0.7816164E-02  0.1186339E+00
        -11   -1    0    0    0    0  0.00000000000E+00  0.00000000000E+00  0.45593999997E+02  0.45594000000E+02  0.51100000000E-03 0. -1.
         11   -1    0    0    0    0 -0.00000000000E+00 -0.00000000000E+00 -0.45593999997E+02  0.45594000000E+02  0.51100000000E-03 0.  1.
    9900012    2    1    2    0    0 -0.65947230397E+00 -0.57948488103E+00 -0.78887138705E+00  0.90007735406E+02  0.89999996713E+02 0.  0.
        -12    1    1    2    0    0  0.65947230397E+00  0.57948488103E+00  0.78887138705E+00  0.11802645942E+01  0.00000000000E+00 0.  1.
         11    1    3    3    0    0  0.18841508097E+01 -0.11165627520E+02 -0.49093045537E-01  0.11323589209E+02  0.51100000000E-03 0. -1.
        -11    1    3    3    0    0 -0.28553209977E+02  0.15334829721E+02 -0.26428599307E+02  0.41820015115E+02  0.51100000000E-03 0.  1.
         12    1    3    3    0    0  0.26009586864E+02 -0.47486870815E+01  0.25688820966E+02  0.36864131082E+02  0.00000000000E+00 0. -1.
</event>
<event>
 7    1  0.1654239E-015  0.9000778E+02  0.7816164E-02  0.1186339E+00
        -11   -1    0    0    0    0  0.00000000000E+00  0.00000000000E+00  0.45593999997E+02  0.45594000000E+02  0.51100000000E-03 0. -1.
         11   -1    0    0    0    0 -0.00000000000E+00 -0.00000000000E+00 -0.45593999997E+02  0.45594000000E+02  0.51100000000E-03 0.  1.
    9900012    2    1    2    0    0 -0.31062285818E+00 -0.90241250812E+00  0.69431600031E+00  0.90007784086E+02  0.90000046036E+02 0.  0.
        -12    1    1    2    0    0  0.31062285818E+00  0.90241250812E+00 -0.69431600031E+00  0.11802159138E+01  0.00000000000E+00 0.  1.
         11    1    3    3    0    0  0.50546326337E+01  0.30783327511E+02 -0.16415336306E+02  0.35250898287E+02  0.51100000000E-03 0. -1.
        -11    1    3    3    0    0  0.87444688651E+01  0.54552985338E+01 -0.22668251137E+01  0.10552938651E+02  0.51100000000E-03 0.  1.
        -12    1    3    3    0    0 -0.14109724357E+02 -0.37141038553E+02  0.19376477420E+02  0.44203947148E+02  0.00000000000E+00 0.  1.
</event>
<event>
 7    1  0.1654239E-015  0.9000775E+02  0.7816164E-02  0.1186339E+00
        -11   -1    0    0    0    0  0.00000000000E+00  0.00000000000E+00  0.45593999997E+02  0.45594000000E+02  0.51100000000E-03 0. -1.
         11   -1    0    0    0    0 -0.00000000000E+00 -0.00000000000E+00 -0.45593999997E+02  0.45594000000E+02  0.51100000000E-03 0.  1.
    9900012    2    1    2    0    0  0.92650771305E+00  0.43934948245E+00  0.58442731970E+00  0.90007745874E+02  0.90000007319E+02 0.  0.
        -12    1    1    2    0    0 -0.92650771305E+00 -0.43934948245E+00 -0.58442731970E+00  0.11802541261E+01  0.00000000000E+00 0.  1.
         11    1    3    3    0    0 -0.71092414877E+01  0.82792510457E+01 -0.31764169767E+01  0.11365603261E+02  0.51100000000E-03 0. -1.
        -11    1    3    3    0    0  0.30740745613E+02  0.58316119932E+00 -0.26005243942E+02  0.40269172212E+02  0.51100000000E-03 0.  1.
         12    1    3    3    0    0 -0.22704996413E+02 -0.84230627626E+01  0.29766088239E+02  0.38372970402E+02  0.00000000000E+00 0. -1.
</event>
<event>
 7    1  0.1654239E-015  0.9000773E+02  0.7816164E-02  0.1186339E+00
        -11   -1    0    0    0    0  0.00000000000E+00  0.00000000000E+00  0.45593999997E+02  0.45594000000E+02  0.51100000000E-03 0.  1.
         11   -1    0    0    0    0 -0.00000000000E+00 -0.00000000000E+00 -0.45593999997E+02  0.45594000000E+02  0.51100000000E-03 0. -1.
    9900012    2    1    2    0    0 -0.25191319298E+00 -0.47315211901E+00 -0.10515238773E+01  0.90007730688E+02  0.89999991933E+02 0.  0.
        -12    1    1    2    0    0  0.25191319298E+00  0.47315211901E+00  0.10515238773E+01  0.11802693121E+01  0.00000000000E+00 0.  1.
         11    1    3    3    0    0 -0.92682192629E+01 -0.36923103700E+00  0.35230519829E+01  0.99221023679E+01  0.51100000000E-03 0. -1.
        -11    1    3    3    0    0 -0.18736983167E+02 -0.65833192626E+01  0.29563621073E+02  0.35614917126E+02  0.51100000000E-03 0.  1.
         12    1    3    3    0    0  0.27753289237E+02  0.64793981806E+01 -0.34138196933E+02  0.44470711194E+02  0.00000000000E+00 0. -1.
</event>
<event>
 7    1  0.1654239E-015  0.9000762E+02  0.7816164E-02  0.1186339E+00
        -11   -1    0    0    0    0  0.00000000000E+00  0.00000000000E+00  0.45593999997E+02  0.45594000000E+02  0.51100000000E-03 0.  1.
         11   -1    0    0    0    0 -0.00000000000E+00 -0.00000000000E+00 -0.45593999997E+02  0.45594000000E+02  0.51100000000E-03 0. -1.
    9900012    2    1    2    0    0  0.10021200457E+01  0.50007828787E+00 -0.37278923336E+00  0.90007620954E+02  0.89999880750E+02 0.  0.
        -12    1    1    2    0    0 -0.10021200457E+01 -0.50007828787E+00  0.37278923336E+00  0.11803790461E+01  0.00000000000E+00 0.  1.
         11    1    3    3    0    0 -0.20986293828E+02 -0.29005579311E+02  0.14498379047E+02  0.38625783553E+02  0.51100000000E-03 0. -1.
        -11    1    3    3    0    0 -0.18962222858E+01 -0.54806069698E+01 -0.55069966272E+01  0.79974823431E+01  0.51100000000E-03 0.  1.
        -12    1    3    3    0    0  0.23884636160E+02  0.34986264569E+02 -0.93641716536E+01  0.43384355057E+02  0.00000000000E+00 0.  1.
</event>
<event>
 7    1  0.1654239E-015  0.9000779E+02  0.7816164E-02  0.1186339E+00
        -11   -1    0    0    0    0  0.00000000000E+00  0.00000000000E+00  0.45593999997E+02  0.45594000000E+02  0.51100000000E-03 0.  1.
         11   -1    0    0    0    0 -0.00000000000E+00 -0.00000000000E+00 -0.45593999997E+02  0.45594000000E+02  0.51100000000E-03 0. -1.
    9900012    2    1    2    0    0 -0.12871828937E+00  0.21896976604E+00 -0.11525536307E+01  0.90007789837E+02  0.90000051863E+02 0.  0.
        -12    1    1    2    0    0  0.12871828937E+00 -0.21896976604E+00  0.11525536307E+01  0.11802101627E+01  0.00000000000E+00 0.  1.
         11    1    3    3    0    0 -0.37500485523E+02  0.53769322217E+01  0.10429953904E+02  0.39293533225E+02  0.51100000000E-03 0. -1.
        -11    1    3    3    0    0 -0.21898498926E+01  0.58983051555E+01 -0.69523680360E+01  0.93766128121E+01  0.51100000000E-03 0.  1.
        -12    1    3    3    0    0  0.39561617127E+02 -0.11056267611E+02 -0.46301394988E+01  0.41337643800E+02  0.00000000000E+00 0.  1.
</event>
<event>
 7    1  0.1654239E-015  0.9000775E+02  0.7816164E-02  0.1186339E+00
        -11   -1    0    0    0    0  0.00000000000E+00  0.00000000000E+00  0.45593999997E+02  0.45594000000E+02  0.51100000000E-03 0. -1.
         11   -1    0    0    0    0 -0.00000000000E+00 -0.00000000000E+00 -0.45593999997E+02  0.45594000000E+02  0.51100000000E-03 0.  1.
    9900012    2    1    2    0    0  0.28970037486E+00  0.84383569184E+00  0.77266597803E+00  0.90007746766E+02  0.90000008224E+02 0.  0.
        -12    1    1    2    0    0 -0.28970037486E+00 -0.84383569184E+00 -0.77266597803E+00  0.11802532337E+01  0.00000000000E+00 0.  1.
         11    1    3    3    0    0 -0.18125247551E+02 -0.12854128474E+01  0.23858473509E+02  0.29990059076E+02  0.51100000000E-03 0. -1.
        -11    1    3    3    0    0  0.14004415050E+02  0.29950202188E+00  0.15641622781E+02  0.20996992781E+02  0.51100000000E-03 0.  1.
        -12    1    3    3    0    0  0.44105328757E+01  0.18297465173E+01 -0.38727430313E+02  0.39020694909E+02  0.00000000000E+00 0.  1.
</event>
<event>
 7    1  0.1654239E-015  0.9000765E+02  0.7816164E-02  0.1186339E+00
        -11   -1    0    0    0    0  0.00000000000E+00  0.00000000000E+00  0.45593999997E+02  0.45594000000E+02  0.51100000000E-03 0.  1.
         11   -1    0    0    0    0 -0.00000000000E+00 -0.00000000000E+00 -0.45593999997E+02  0.45594000000E+02  0.51100000000E-03 0. -1.
    9900012    2    1    2    0    0 -0.10768746170E+01  0.45738282505E+00 -0.15608655589E+00  0.90007652169E+02  0.89999912377E+02 0.  0.
        -12    1    1    2    0    0  0.10768746170E+01 -0.45738282505E+00  0.15608655589E+00  0.11803478311E+01  0.00000000000E+00 0.  1.
         11    1    3    3    0    0 -0.11059885041E+02  0.28177543285E-02 -0.14732890548E+02  0.18422245499E+02  0.51100000000E-03 0. -1.
        -11    1    3    3    0    0 -0.10684849783E+02 -0.25855669739E+02 -0.10385664934E+02  0.29841978971E+02  0.51100000000E-03 0.  1.
         12    1    3    3    0    0  0.20667860207E+02  0.26310234809E+02  0.24962468926E+02  0.41743427700E+02  0.00000000000E+00 0. -1.
</event>
<event>
 7    1  0.1654239E-015  0.9000765E+02  0.7816164E-02  0.1186339E+00
        -11   -1    0    0    0    0  0.00000000000E+00  0.00000000000E+00  0.45593999997E+02  0.45594000000E+02  0.51100000000E-03 0.  1.
         11   -1    0    0    0    0 -0.00000000000E+00 -0.00000000000E+00 -0.45593999997E+02  0.45594000000E+02  0.51100000000E-03 0. -1.
    9900012    2    1    2    0    0 -0.11325680618E-01 -0.11738714815E+01 -0.12297443231E+00  0.90007650375E+02  0.89999910560E+02 0.  0.
        -12    1    1    2    0    0  0.11325680618E-01  0.11738714815E+01  0.12297443231E+00  0.11803496249E+01  0.00000000000E+00 0.  1.
         11    1    3    3    0    0 -0.62534717874E+01 -0.96366935209E+01  0.20348026739E+01  0.11666713059E+02  0.51100000000E-03 0. -1.
        -11    1    3    3    0    0  0.31077313798E+02  0.11017924326E+02  0.25054021119E+02  0.41411327724E+02  0.51100000000E-03 0.  1.
         12    1    3    3    0    0 -0.24835167691E+02 -0.25551022867E+01 -0.27211798226E+02  0.36929609592E+02  0.00000000000E+00 0. -1.
</event>
<event>
 7    1  0.1654239E-015  0.9000771E+02  0.7816164E-02  0.1186339E+00
        -11   -1    0    0    0    0  0.00000000000E+00  0.00000000000E+00  0.45593999997E+02  0.45594000000E+02  0.51100000000E-03 0.  1.
         11   -1    0    0    0    0 -0.00000000000E+00 -0.00000000000E+00 -0.45593999997E+02  0.45594000000E+02  0.51100000000E-03 0. -1.
    9900012    2    1    2    0    0 -0.11671146483E+01  0.15597111633E+00  0.81247769204E-01  0.90007709870E+02  0.89999970840E+02 0.  0.
        -12    1    1    2    0    0  0.11671146483E+01 -0.15597111633E+00 -0.81247769204E-01  0.11802901302E+01  0.00000000000E+00 0.  1.
         11    1    3    3    0    0  0.11330932648E+02 -0.54514451751E+01  0.10892938385E+02  0.16636237438E+02  0.51100000000E-03 0. -1.
        -11    1    3    3    0    0  0.18126158190E+02 -0.89188203984E+01  0.19369329922E+02  0.27987031102E+02  0.51100000000E-03 0.  1.
         12    1    3    3    0    0 -0.30624205487E+02  0.14526236690E+02 -0.30181020538E+02  0.45384441329E+02  0.00000000000E+00 0. -1.
</event>
<event>
 7    1  0.1654239E-015  0.9000776E+02  0.7816164E-02  0.1186339E+00
        -11   -1    0    0    0    0  0.00000000000E+00  0.00000000000E+00  0.45593999997E+02  0.45594000000E+02  0.51100000000E-03 0.  1.
         11   -1    0    0    0    0 -0.00000000000E+00 -0.00000000000E+00 -0.45593999997E+02  0.45594000000E+02  0.51100000000E-03 0. -1.
    9900012    2    1    2    0    0  0.10272103002E+00  0.54359463970E+00 -0.10425496371E+01  0.90007764224E+02  0.90000025911E+02 0.  0.
        -12    1    1    2    0    0 -0.10272103002E+00 -0.54359463970E+00  0.10425496371E+01  0.11802357765E+01  0.00000000000E+00 0.  1.
         11    1    3    3    0    0 -0.28285993517E+01  0.31260089878E+02 -0.15772594926E+02  0.35127894107E+02  0.51100000000E-03 0. -1.
        -11    1    3    3    0    0 -0.57080779154E+01  0.92746066112E+01 -0.12380694215E+01  0.10960533629E+02  0.51100000000E-03 0.  1.
        -12    1    3    3    0    0  0.86393982972E+01 -0.39991101849E+02  0.15968114710E+02  0.43919336487E+02  0.00000000000E+00 0.  1.
</event>
<event>
 7    1  0.1654239E-015  0.9000779E+02  0.7816164E-02  0.1186339E+00
        -11   -1    0    0    0    0  0.00000000000E+00  0.00000000000E+00  0.45593999997E+02  0.45594000000E+02  0.51100000000E-03 0.  1.
         11   -1    0    0    0    0 -0.00000000000E+00 -0.00000000000E+00 -0.45593999997E+02  0.45594000000E+02  0.51100000000E-03 0. -1.
    9900012    2    1    2    0    0 -0.57420095035E+00 -0.83480256790E+00 -0.60522714466E+00  0.90007787326E+02  0.90000049319E+02 0.  0.
        -12    1    1    2    0    0  0.57420095035E+00  0.83480256790E+00  0.60522714466E+00  0.11802126738E+01  0.00000000000E+00 0.  1.
         11    1    3    3    0    0  0.18187170407E+01 -0.37963463510E+02  0.85281715526E-01  0.38007098897E+02  0.51100000000E-03 0. -1.
        -11    1    3    3    0    0  0.74753808261E+01 -0.26150717160E+01 -0.69965056837E+01  0.10567450526E+02  0.51100000000E-03 0.  1.
        -12    1    3    3    0    0 -0.98682988171E+01  0.39743732658E+02  0.63059968235E+01  0.41433237903E+02  0.00000000000E+00 0.  1.
</event>
<event>
 7    1  0.1654239E-015  0.9000777E+02  0.7816164E-02  0.1186339E+00
        -11   -1    0    0    0    0  0.00000000000E+00  0.00000000000E+00  0.45593999997E+02  0.45594000000E+02  0.51100000000E-03 0. -1.
         11   -1    0    0    0    0 -0.00000000000E+00 -0.00000000000E+00 -0.45593999997E+02  0.45594000000E+02  0.51100000000E-03 0.  1.
    9900012    2    1    2    0    0  0.33355183285E+00 -0.76739836365E+00  0.83233221165E+00  0.90007773757E+02  0.90000035571E+02 0.  0.
        -12    1    1    2    0    0 -0.33355183285E+00  0.76739836365E+00 -0.83233221165E+00  0.11802262428E+01  0.00000000000E+00 0.  1.
         11    1    3    3    0    0  0.81291029741E+01 -0.16461085967E+01  0.52440890538E+01  0.98128721046E+01  0.51100000000E-03 0. -1.
        -11    1    3    3    0    0  0.32923455272E+02  0.12173060117E+02  0.82964983301E+01  0.36068950421E+02  0.51100000000E-03 0.  1.
         12    1    3    3    0    0 -0.40719006413E+02 -0.11294349883E+02 -0.12708255172E+02  0.44125951232E+02  0.00000000000E+00 0. -1.
</event>
<event>
 7    1  0.1654239E-015  0.9000791E+02  0.7816164E-02  0.1186339E+00
        -11   -1    0    0    0    0  0.00000000000E+00  0.00000000000E+00  0.45593999997E+02  0.45594000000E+02  0.51100000000E-03 0. -1.
         11   -1    0    0    0    0 -0.00000000000E+00 -0.00000000000E+00 -0.45593999997E+02  0.45594000000E+02  0.51100000000E-03 0.  1.
    9900012    2    1    2    0    0  0.11426997006E+01  0.28111119487E+00 -0.88464958385E-01  0.90007910106E+02  0.90000173719E+02 0.  0.
        -12    1    1    2    0    0 -0.11426997006E+01 -0.28111119487E+00  0.88464958385E-01  0.11800898943E+01  0.00000000000E+00 0.  1.
         11    1    3    3    0    0  0.46723531479E+01 -0.19685925728E+02  0.25988529773E+02  0.32935850311E+02  0.51100000000E-03 0. -1.
        -11    1    3    3    0    0  0.15704152178E+02  0.11583118858E+02  0.44643738234E+01  0.20017983715E+02  0.51100000000E-03 0.  1.
        -12    1    3    3    0    0 -0.19233805625E+02  0.83839180645E+01 -0.30541368554E+02  0.37054076080E+02  0.00000000000E+00 0.  1.
</event>
<event>
 7    1  0.1654239E-015  0.9000773E+02  0.7816164E-02  0.1186339E+00
        -11   -1    0    0    0    0  0.00000000000E+00  0.00000000000E+00  0.45593999997E+02  0.45594000000E+02  0.51100000000E-03 0. -1.
         11   -1    0    0    0    0 -0.00000000000E+00 -0.00000000000E+00 -0.45593999997E+02  0.45594000000E+02  0.51100000000E-03 0.  1.
    9900012    2    1    2    0    0  0.47571041214E+00  0.31408572529E+00  0.10334810526E+01  0.90007731672E+02  0.89999992930E+02 0.  0.
        -12    1    1    2    0    0 -0.47571041214E+00 -0.31408572529E+00 -0.10334810526E+01  0.11802683276E+01  0.00000000000E+00 0.  1.
         11    1    3    3    0    0  0.22584938598E+02  0.31990502116E+02  0.17970013977E+02  0.43085880282E+02  0.51100000000E-03 0. -1.
        -11    1    3    3    0    0 -0.11734592948E+01  0.69584399754E+00 -0.69699719914E+01  0.71022331282E+01  0.51100000000E-03 0.  1.
        -12    1    3    3    0    0 -0.20935768891E+02 -0.32372260388E+02 -0.99665609328E+01  0.39819618262E+02  0.00000000000E+00 0.  1.
</event>
<event>
 7    1  0.1654239E-015  0.9000717E+02  0.7816164E-02  0.1186340E+00
        -11   -1    0    0    0    0  0.00000000000E+00  0.00000000000E+00  0.45593999997E+02  0.45594000000E+02  0.51100000000E-03 0. -1.
         11   -1    0    0    0    0 -0.00000000000E+00 -0.00000000000E+00 -0.45593999997E+02  0.45594000000E+02  0.51100000000E-03 0.  1.
    9900012    2    1    2    0    0  0.28290345056E+00 -0.11214024299E+01  0.23831256142E+00  0.90007165274E+02  0.89999419054E+02 0.  0.
        -12    1    1    2    0    0 -0.28290345056E+00  0.11214024299E+01 -0.23831256142E+00  0.11808347256E+01  0.00000000000E+00 0.  1.
         11    1    3    3    0    0 -0.57140702240E+01  0.24716623803E+02 -0.26218590915E+02  0.36482552002E+02  0.51100000000E-03 0. -1.
        -11    1    3    3    0    0  0.14650671239E+02  0.14146835103E+01  0.22408084364E+00  0.14720520020E+02  0.51100000000E-03 0.  1.
        -12    1    3    3    0    0 -0.86536975645E+01 -0.27252709743E+02  0.26232822632E+02  0.38804093252E+02  0.00000000000E+00 0.  1.
</event>
<event>
 7    1  0.1654239E-015  0.9000774E+02  0.7816164E-02  0.1186339E+00
        -11   -1    0    0    0    0  0.00000000000E+00  0.00000000000E+00  0.45593999997E+02  0.45594000000E+02  0.51100000000E-03 0.  1.
         11   -1    0    0    0    0 -0.00000000000E+00 -0.00000000000E+00 -0.45593999997E+02  0.45594000000E+02  0.51100000000E-03 0. -1.
    9900012    2    1    2    0    0 -0.89463504335E+00  0.55139961576E+00 -0.53720655195E+00  0.90007743978E+02  0.90000005399E+02 0.  0.
        -12    1    1    2    0    0  0.89463504335E+00 -0.55139961576E+00  0.53720655195E+00  0.11802560216E+01  0.00000000000E+00 0.  1.
         11    1    3    3    0    0  0.15196258354E+02  0.69573040528E-01 -0.43453710596E+01  0.15805485069E+02  0.51100000000E-03 0. -1.
        -11    1    3    3    0    0  0.78301349540E+01  0.32757043212E+02 -0.13023969826E+01  0.33705060919E+02  0.51100000000E-03 0.  1.
         12    1    3    3    0    0 -0.23921028351E+02 -0.32275216637E+02  0.51105614902E+01  0.40497197990E+02  0.00000000000E+00 0. -1.
</event>
<event>
 7    1  0.1654239E-015  0.9000777E+02  0.7816164E-02  0.1186339E+00
        -11   -1    0    0    0    0  0.00000000000E+00  0.00000000000E+00  0.45593999997E+02  0.45594000000E+02  0.51100000000E-03 0. -1.
         11   -1    0    0    0    0 -0.00000000000E+00 -0.00000000000E+00 -0.45593999997E+02  0.45594000000E+02  0.51100000000E-03 0.  1.
    9900012    2    1    2    0    0 -0.10811630945E+01 -0.46611010686E+00  0.82255661362E-01  0.90007771945E+02  0.90000033734E+02 0.  0.
        -12    1    1    2    0    0  0.10811630945E+01  0.46611010686E+00 -0.82255661362E-01  0.11802280553E+01  0.00000000000E+00 0.  1.
         11    1    3    3    0    0  0.10521423863E+02  0.22373275384E+01 -0.14694374652E+01  0.10856575949E+02  0.51100000000E-03 0. -1.
        -11    1    3    3    0    0  0.12320565341E+02  0.29237704637E+02  0.17431714434E+02  0.36200889094E+02  0.51100000000E-03 0.  1.
         12    1    3    3    0    0 -0.23923152299E+02 -0.31941142283E+02 -0.15880021308E+02  0.42950306902E+02  0.00000000000E+00 0. -1.
</event>
<event>
 7    1  0.1654239E-015  0.9000799E+02  0.7816164E-02  0.1186339E+00
        -11   -1    0    0    0    0  0.00000000000E+00  0.00000000000E+00  0.45593999997E+02  0.45594000000E+02  0.51100000000E-03 0.  1.
         11   -1    0    0    0    0 -0.00000000000E+00 -0.00000000000E+00 -0.45593999997E+02  0.45594000000E+02  0.51100000000E-03 0. -1.
    9900012    2    1    2    0    0 -0.41701367988E+00 -0.89734930301E+00  0.64288085434E+00  0.90007986452E+02  0.90000251073E+02 0.  0.
        -12    1    1    2    0    0  0.41701367988E+00  0.89734930301E+00 -0.64288085434E+00  0.11800135481E+01  0.00000000000E+00 0.  1.
         11    1    3    3    0    0  0.47647777962E+01 -0.34452928349E+01 -0.43413787298E+01  0.73089479203E+01  0.51100000000E-03 0. -1.
        -11    1    3    3    0    0  0.15147425301E+02 -0.22704897023E+02  0.30875603618E+02  0.41209947113E+02  0.51100000000E-03 0.  1.
         12    1    3    3    0    0 -0.20329216777E+02  0.25252840555E+02 -0.25891344034E+02  0.41489091418E+02  0.00000000000E+00 0. -1.
</event>
<event>
 7    1  0.1654239E-015  0.9000766E+02  0.7816164E-02  0.1186339E+00
        -11   -1    0    0    0    0  0.00000000000E+00  0.00000000000E+00  0.45593999997E+02  0.45594000000E+02  0.51100000000E-03 0.  1.
         11   -1    0    0    0    0 -0.00000000000E+00 -0.00000000000E+00 -0.45593999997E+02  0.45594000000E+02  0.51100000000E-03 0. -1.
    9900012    2    1    2    0    0  0.33991531823E+00  0.11158580183E+01  0.18034251929E+00  0.90007658962E+02  0.89999919261E+02 0.  0.
        -12    1    1    2    0    0 -0.33991531823E+00 -0.11158580183E+01 -0.18034251929E+00  0.11803410375E+01  0.00000000000E+00 0.  1.
         11    1    3    3    0    0  0.22056457097E+00  0.15446628979E+02 -0.12843504928E+02  0.20089863480E+02  0.51100000000E-03 0. -1.
        -11    1    3    3    0    0  0.13388913632E+02  0.16200487573E+02  0.26655634438E+02  0.33944685201E+02  0.51100000000E-03 0.  1.
         12    1    3    3    0    0 -0.13269562885E+02 -0.30531258534E+02 -0.13631786991E+02  0.35973110282E+02  0.00000000000E+00 0. -1.
</event>
<event>
 7    1  0.1654239E-015  0.9000776E+02  0.7816164E-02  0.1186339E+00
        -11   -1    0    0    0    0  0.00000000000E+00  0.00000000000E+00  0.45593999997E+02  0.45594000000E+02  0.51100000000E-03 0. -1.
         11   -1    0    0    0    0 -0.00000000000E+00 -0.00000000000E+00 -0.45593999997E+02  0.45594000000E+02  0.51100000000E-03 0.  1.
    9900012    2    1    2    0    0 -0.81108838997E-01 -0.11319428079E+01  0.32418987833E+00  0.90007757550E+02  0.90000019149E+02 0.  0.
        -12    1    1    2    0    0  0.81108838997E-01  0.11319428079E+01 -0.32418987833E+00  0.11802424502E+01  0.00000000000E+00 0.  1.
         11    1    3    3    0    0  0.57977881774E+01 -0.85562068026E+01  0.36899688107E+02  0.38319838273E+02  0.51100000000E-03 0. -1.
        -11    1    3    3    0    0 -0.73273130581E+01 -0.66514889114E+01  0.24343052215E+01  0.10191058020E+02  0.51100000000E-03 0.  1.
        -12    1    3    3    0    0  0.14484160416E+01  0.14075752906E+02 -0.39009803451E+02  0.41496861257E+02  0.00000000000E+00 0.  1.
</event>
<event>
 7    1  0.1654239E-015  0.9000674E+02  0.7816164E-02  0.1186341E+00
        -11   -1    0    0    0    0  0.00000000000E+00  0.00000000000E+00  0.45593999997E+02  0.45594000000E+02  0.51100000000E-03 0. -1.
         11   -1    0    0    0    0 -0.00000000000E+00 -0.00000000000E+00 -0.45593999997E+02  0.45594000000E+02  0.51100000000E-03 0.  1.
    9900012    2    1    2    0    0 -0.10171959432E+01 -0.29294289596E+00  0.52427803356E+00  0.90006741949E+02  0.89998990137E+02 0.  0.
        -12    1    1    2    0    0  0.10171959432E+01  0.29294289596E+00 -0.52427803356E+00  0.11812580512E+01  0.00000000000E+00 0.  1.
         11    1    3    3    0    0  0.18991990764E+01  0.10379231393E+02 -0.45899198413E+01  0.11506640077E+02  0.51100000000E-03 0. -1.
        -11    1    3    3    0    0 -0.16238711287E+02 -0.23750125192E+02 -0.28216019986E+02  0.40297741562E+02  0.51100000000E-03 0.  1.
         12    1    3    3    0    0  0.13322316268E+02  0.13077950902E+02  0.33330217861E+02  0.38202360310E+02  0.00000000000E+00 0. -1.
</event>
<event>
 7    1  0.1654239E-015  0.9000775E+02  0.7816164E-02  0.1186339E+00
        -11   -1    0    0    0    0  0.00000000000E+00  0.00000000000E+00  0.45593999997E+02  0.45594000000E+02  0.51100000000E-03 0. -1.
         11   -1    0    0    0    0 -0.00000000000E+00 -0.00000000000E+00 -0.45593999997E+02  0.45594000000E+02  0.51100000000E-03 0.  1.
    9900012    2    1    2    0    0  0.77043531609E+00  0.85499413655E+00 -0.26155435509E+00  0.90007747387E+02  0.90000008853E+02 0.  0.
        -12    1    1    2    0    0 -0.77043531609E+00 -0.85499413655E+00  0.26155435509E+00  0.11802526130E+01  0.00000000000E+00 0.  1.
         11    1    3    3    0    0  0.60331421702E+01 -0.18674646593E+02  0.33667413293E+02  0.38969679854E+02  0.51100000000E-03 0. -1.
        -11    1    3    3    0    0 -0.79971861550E+01 -0.68649615491E+00  0.32263206482E+01  0.86507461270E+01  0.51100000000E-03 0.  1.
        -12    1    3    3    0    0  0.27344793009E+01  0.20216136884E+02 -0.37155288296E+02  0.42387321406E+02  0.00000000000E+00 0.  1.
</event>
<event>
 7    1  0.1654239E-015  0.9000776E+02  0.7816164E-02  0.1186339E+00
        -11   -1    0    0    0    0  0.00000000000E+00  0.00000000000E+00  0.45593999997E+02  0.45594000000E+02  0.51100000000E-03 0. -1.
         11   -1    0    0    0    0 -0.00000000000E+00 -0.00000000000E+00 -0.45593999997E+02  0.45594000000E+02  0.51100000000E-03 0.  1.
    9900012    2    1    2    0    0 -0.82372105891E+00 -0.35305364828E+00  0.76799035137E+00  0.90007757465E+02  0.90000019064E+02 0.  0.
        -12    1    1    2    0    0  0.82372105891E+00  0.35305364828E+00 -0.76799035137E+00  0.11802425349E+01  0.00000000000E+00 0.  1.
         11    1    3    3    0    0  0.24070306563E+02  0.24977916647E+02  0.19247726672E+02  0.39670530125E+02  0.51100000000E-03 0. -1.
        -11    1    3    3    0    0  0.69041807371E+01 -0.50738491251E+01 -0.65743518829E+01  0.10799711086E+02  0.51100000000E-03 0.  1.
        -12    1    3    3    0    0 -0.31798208359E+02 -0.20257121171E+02 -0.11905384438E+02  0.39537516254E+02  0.00000000000E+00 0.  1.
</event>
<event>
 7    1  0.1654239E-015  0.9000773E+02  0.7816164E-02  0.1186339E+00
        -11   -1    0    0    0    0  0.00000000000E+00  0.00000000000E+00  0.45593999997E+02  0.45594000000E+02  0.51100000000E-03 0.  1.
         11   -1    0    0    0    0 -0.00000000000E+00 -0.00000000000E+00 -0.45593999997E+02  0.45594000000E+02  0.51100000000E-03 0. -1.
    9900012    2    1    2    0    0  0.10615476574E+01  0.16131433423E+00 -0.49003666677E+00  0.90007728134E+02  0.89999989345E+02 0.  0.
        -12    1    1    2    0    0 -0.10615476574E+01 -0.16131433423E+00  0.49003666677E+00  0.11802718662E+01  0.00000000000E+00 0.  1.
         11    1    3    3    0    0  0.84615567690E+01 -0.41147468269E+01 -0.13594795801E+01  0.95066960293E+01  0.51100000000E-03 0. -1.
        -11    1    3    3    0    0  0.29603000621E+02  0.24160972764E+02 -0.29223797196E+01  0.38322715903E+02  0.51100000000E-03 0.  1.
         12    1    3    3    0    0 -0.37003009733E+02 -0.19884911603E+02  0.37918226330E+01  0.42178316202E+02  0.00000000000E+00 0. -1.
</event>
<event>
 7    1  0.1654239E-015  0.9000765E+02  0.7816164E-02  0.1186339E+00
        -11   -1    0    0    0    0  0.00000000000E+00  0.00000000000E+00  0.45593999997E+02  0.45594000000E+02  0.51100000000E-03 0. -1.
         11   -1    0    0    0    0 -0.00000000000E+00 -0.00000000000E+00 -0.45593999997E+02  0.45594000000E+02  0.51100000000E-03 0.  1.
    9900012    2    1    2    0    0  0.11156523955E+01  0.23760629350E+00  0.30344723900E+00  0.90007653761E+02  0.89999913990E+02 0.  0.
        -12    1    1    2    0    0 -0.11156523955E+01 -0.23760629350E+00 -0.30344723900E+00  0.11803462395E+01  0.00000000000E+00 0.  1.
         11    1    3    3    0    0  0.25338867903E+02 -0.23151802632E+02  0.12076004329E+02  0.36385355193E+02  0.51100000000E-03 0. -1.
        -11    1    3    3    0    0  0.60826926353E+00 -0.95733473221E+01  0.25715321317E+01  0.99313517817E+01  0.51100000000E-03 0.  1.
        -12    1    3    3    0    0 -0.24831484772E+02  0.32962756248E+02 -0.14344089221E+02  0.43690946785E+02  0.00000000000E+00 0.  1.
</event>
<event>
 7    1  0.1654239E-015  0.9000758E+02  0.7816164E-02  0.1186339E+00
        -11   -1    0    0    0    0  0.00000000000E+00  0.00000000000E+00  0.45593999997E+02  0.45594000000E+02  0.51100000000E-03 0.  1.
         11   -1    0    0    0    0 -0.00000000000E+00 -0.00000000000E+00 -0.45593999997E+02  0.45594000000E+02  0.51100000000E-03 0. -1.
    9900012    2    1    2    0    0  0.77669437828E+00 -0.88196545092E+00 -0.11083606055E+00  0.90007575565E+02  0.89999834763E+02 0.  0.
        -12    1    1    2    0    0 -0.77669437828E+00  0.88196545092E+00  0.11083606055E+00  0.11804244348E+01  0.00000000000E+00 0.  1.
         11    1    3    3    0    0  0.22229706842E+02  0.29601045871E+02  0.55187725013E+01  0.37427778897E+02  0.51100000000E-03 0. -1.
        -11    1    3    3    0    0  0.18371278209E+01  0.62880629725E+01 -0.62427615184E+01  0.90491351086E+01  0.51100000000E-03 0.  1.
        -12    1    3    3    0    0 -0.23290140285E+02 -0.36771074295E+02  0.61315295658E+00  0.43530661560E+02  0.00000000000E+00 0.  1.
</event>
<event>
 7    1  0.1654239E-015  0.9000665E+02  0.7816164E-02  0.1186341E+00
        -11   -1    0    0    0    0  0.00000000000E+00  0.00000000000E+00  0.45593999997E+02  0.45594000000E+02  0.51100000000E-03 0. -1.
         11   -1    0    0    0    0 -0.00000000000E+00 -0.00000000000E+00 -0.45593999997E+02  0.45594000000E+02  0.51100000000E-03 0.  1.
    9900012    2    1    2    0    0 -0.55887722841E+00  0.89227248246E+00  0.53580281033E+00  0.90006653907E+02  0.89998900932E+02 0.  0.
        -12    1    1    2    0    0  0.55887722841E+00 -0.89227248246E+00 -0.53580281033E+00  0.11813460928E+01  0.00000000000E+00 0.  1.
         11    1    3    3    0    0 -0.21118989278E+02 -0.10789653143E+01  0.35565191521E+02  0.41377031339E+02  0.51100000000E-03 0. -1.
        -11    1    3    3    0    0  0.15152222085E+01 -0.91832419685E+01 -0.30913591442E+01  0.98073611646E+01  0.51100000000E-03 0.  1.
        -12    1    3    3    0    0  0.19044889841E+02  0.11154479765E+02 -0.31938029567E+02  0.38822261403E+02  0.00000000000E+00 0.  1.
</event>
<event>
 7    1  0.1654239E-015  0.9000783E+02  0.7816164E-02  0.1186339E+00
        -11   -1    0    0    0    0  0.00000000000E+00  0.00000000000E+00  0.45593999997E+02  0.45594000000E+02  0.51100000000E-03 0. -1.
         11   -1    0    0    0    0 -0.00000000000E+00 -0.00000000000E+00 -0.45593999997E+02  0.45594000000E+02  0.51100000000E-03 0.  1.
    9900012    2    1    2    0    0 -0.64925181682E+00  0.66185819754E+00  0.73020995054E+00  0.90007834432E+02  0.90000097047E+02 0.  0.
        -12    1    1    2    0    0  0.64925181682E+00 -0.66185819754E+00 -0.73020995054E+00  0.11801655677E+01  0.00000000000E+00 0.  1.
         11    1    3    3    0    0 -0.11398491508E+02  0.20171516702E+02  0.32005972320E+02  0.39511997661E+02  0.51100000000E-03 0. -1.
        -11    1    3    3    0    0 -0.56617141125E+01  0.49525062266E+01  0.13567603415E-01  0.75221346011E+01  0.51100000000E-03 0.  1.
        -12    1    3    3    0    0  0.16410953803E+02 -0.24462164731E+02 -0.31289329973E+02  0.42973702170E+02  0.00000000000E+00 0.  1.
</event>
<event>
 7    1  0.1654239E-015  0.9000759E+02  0.7816164E-02  0.1186339E+00
        -11   -1    0    0    0    0  0.00000000000E+00  0.00000000000E+00  0.45593999997E+02  0.45594000000E+02  0.51100000000E-03 0.  1.
         11   -1    0    0    0    0 -0.00000000000E+00 -0.00000000000E+00 -0.45593999997E+02  0.45594000000E+02  0.51100000000E-03 0. -1.
    9900012    2    1    2    0    0 -0.13847342470E+00 -0.10303884189E+01 -0.55901699289E+00  0.90007586860E+02  0.89999846206E+02 0.  0.
        -12    1    1    2    0    0  0.13847342470E+00  0.10303884189E+01  0.55901699289E+00  0.11804131402E+01  0.00000000000E+00 0.  1.
         11    1    3    3    0    0  0.10573946858E+02  0.34806348255E+02  0.17489534022E+02  0.40363028028E+02  0.51100000000E-03 0. -1.
        -11    1    3    3    0    0 -0.65582923493E+01 -0.53078205036E+01  0.61722608213E+01  0.10453753438E+02  0.51100000000E-03 0.  1.
        -12    1    3    3    0    0 -0.41541279330E+01 -0.30528916170E+02 -0.24220811836E+02  0.39190805394E+02  0.00000000000E+00 0.  1.
</event>
<event>
 7    1  0.1654239E-015  0.9000778E+02  0.7816164E-02  0.1186339E+00
        -11   -1    0    0    0    0  0.00000000000E+00  0.00000000000E+00  0.45593999997E+02  0.45594000000E+02  0.51100000000E-03 0. -1.
         11   -1    0    0    0    0 -0.00000000000E+00 -0.00000000000E+00 -0.45593999997E+02  0.45594000000E+02  0.51100000000E-03 0.  1.
    9900012    2    1    2    0    0 -0.78483084446E+00 -0.54739609107E+00  0.69087357368E+00  0.90007784668E+02  0.90000046626E+02 0.  0.
        -12    1    1    2    0    0  0.78483084446E+00  0.54739609107E+00 -0.69087357368E+00  0.11802153319E+01  0.00000000000E+00 0.  1.
         11    1    3    3    0    0 -0.17924974458E+02  0.19916309179E+02  0.24414108469E+02  0.36249314107E+02  0.51100000000E-03 0. -1.
        -11    1    3    3    0    0 -0.30925577966E+00  0.14104665266E+01  0.99058832164E+01  0.10010573286E+02  0.51100000000E-03 0.  1.
        -12    1    3    3    0    0  0.17449399393E+02 -0.21874171796E+02 -0.33629118112E+02  0.43747897275E+02  0.00000000000E+00 0.  1.
</event>
<event>
 7    1  0.1654239E-015  0.9000772E+02  0.7816164E-02  0.1186339E+00
        -11   -1    0    0    0    0  0.00000000000E+00  0.00000000000E+00  0.45593999997E+02  0.45594000000E+02  0.51100000000E-03 0.  1.
         11   -1    0    0    0    0 -0.00000000000E+00 -0.00000000000E+00 -0.45593999997E+02  0.45594000000E+02  0.51100000000E-03 0. -1.
    9900012    2    1    2    0    0  0.67572698110E+00 -0.77857385947E+00 -0.57470725665E+00  0.90007715018E+02  0.89999976056E+02 0.  0.
        -12    1    1    2    0    0 -0.67572698110E+00  0.77857385947E+00  0.57470725665E+00  0.11802849819E+01  0.00000000000E+00 0.  1.
         11    1    3    3    0    0  0.13188281692E+02 -0.33602712107E+02 -0.21675033595E+02  0.42105582962E+02  0.51100000000E-03 0. -1.
        -11    1    3    3    0    0  0.17368626262E+01 -0.24270496243E+01  0.65373321615E+01  0.71863741700E+01  0.51100000000E-03 0.  1.
        -12    1    3    3    0    0 -0.14249417337E+02  0.35251187872E+02  0.14562994177E+02  0.40715757886E+02  0.00000000000E+00 0.  1.
</event>
<event>
 7    1  0.1654239E-015  0.9000732E+02  0.7816164E-02  0.1186340E+00
        -11   -1    0    0    0    0  0.00000000000E+00  0.00000000000E+00  0.45593999997E+02  0.45594000000E+02  0.51100000000E-03 0. -1.
         11   -1    0    0    0    0 -0.00000000000E+00 -0.00000000000E+00 -0.45593999997E+02  0.45594000000E+02  0.51100000000E-03 0.  1.
    9900012    2    1    2    0    0  0.33439266988E-01  0.40554270699E+00  0.11083403861E+01  0.90007321600E+02  0.89999577445E+02 0.  0.
        -12    1    1    2    0    0 -0.33439266988E-01 -0.40554270699E+00 -0.11083403861E+01  0.11806783996E+01  0.00000000000E+00 0.  1.
         11    1    3    3    0    0 -0.96612616246E+01  0.16670402620E+01 -0.28879391696E+00  0.98082822961E+01  0.51100000000E-03 0. -1.
        -11    1    3    3    0    0 -0.26100753743E+02  0.24461829043E+02  0.42707031679E+01  0.36025953587E+02  0.51100000000E-03 0.  1.
         12    1    3    3    0    0  0.35795454634E+02 -0.25723326598E+02 -0.28735688649E+01  0.44173085717E+02  0.00000000000E+00 0. -1.
</event>
<event>
 7    1  0.1654239E-015  0.9000773E+02  0.7816164E-02  0.1186339E+00
        -11   -1    0    0    0    0  0.00000000000E+00  0.00000000000E+00  0.45593999997E+02  0.45594000000E+02  0.51100000000E-03 0. -1.
         11   -1    0    0    0    0 -0.00000000000E+00 -0.00000000000E+00 -0.45593999997E+02  0.45594000000E+02  0.51100000000E-03 0.  1.
    9900012    2    1    2    0    0 -0.10864633103E+00 -0.78468294876E-01  0.11726392841E+01  0.90007727070E+02  0.89999988267E+02 0.  0.
        -12    1    1    2    0    0  0.10864633103E+00  0.78468294876E-01 -0.11726392841E+01  0.11802729300E+01  0.00000000000E+00 0.  1.
         11    1    3    3    0    0 -0.21059298442E+02  0.27435341892E+01  0.35051679989E+02  0.40983427151E+02  0.51100000000E-03 0. -1.
        -11    1    3    3    0    0  0.96006502054E+00  0.66558874566E+01  0.18729870420E+01  0.69807337293E+01  0.51100000000E-03 0.  1.
        -12    1    3    3    0    0  0.19990587091E+02 -0.94778899407E+01 -0.35752027747E+02  0.42043566190E+02  0.00000000000E+00 0.  1.
</event>
<event>
 7    1  0.1654239E-015  0.9000773E+02  0.7816164E-02  0.1186339E+00
        -11   -1    0    0    0    0  0.00000000000E+00  0.00000000000E+00  0.45593999997E+02  0.45594000000E+02  0.51100000000E-03 0. -1.
         11   -1    0    0    0    0 -0.00000000000E+00 -0.00000000000E+00 -0.45593999997E+02  0.45594000000E+02  0.51100000000E-03 0.  1.
    9900012    2    1    2    0    0  0.84197760463E+00 -0.70919067407E+00  0.42563773944E+00  0.90007726649E+02  0.89999987840E+02 0.  0.
        -12    1    1    2    0    0 -0.84197760463E+00  0.70919067407E+00 -0.42563773944E+00  0.11802733514E+01  0.00000000000E+00 0.  1.
         11    1    3    3    0    0 -0.23897381557E+01 -0.50836710793E+01  0.69410542210E+01  0.89293221498E+01  0.51100000000E-03 0. -1.
        -11    1    3    3    0    0  0.41257098672E+01 -0.32941842508E+02 -0.22882057555E+02  0.40320900634E+02  0.51100000000E-03 0.  1.
         12    1    3    3    0    0 -0.89399410690E+00  0.37316322913E+02  0.16366641073E+02  0.40757503865E+02  0.00000000000E+00 0. -1.
</event>
<event>
 7    1  0.1654239E-015  0.9000756E+02  0.7816164E-02  0.1186339E+00
        -11   -1    0    0    0    0  0.00000000000E+00  0.00000000000E+00  0.45593999997E+02  0.45594000000E+02  0.51100000000E-03 0.  1.
         11   -1    0    0    0    0 -0.00000000000E+00 -0.00000000000E+00 -0.45593999997E+02  0.45594000000E+02  0.51100000000E-03 0. -1.
    9900012    2    1    2    0    0 -0.11751973996E+01 -0.21604449938E-01 -0.10902948886E+00  0.90007558087E+02  0.89999817054E+02 0.  0.
        -12    1    1    2    0    0  0.11751973996E+01  0.21604449938E-01  0.10902948886E+00  0.11804419129E+01  0.00000000000E+00 0.  1.
         11    1    3    3    0    0  0.24860703520E+02 -0.28864999029E+02 -0.53306542491E+01  0.38466331037E+02  0.51100000000E-03 0. -1.
        -11    1    3    3    0    0 -0.10125748064E+01  0.32171049416E+01 -0.11520653555E+02  0.12004188042E+02  0.51100000000E-03 0.  1.
        -12    1    3    3    0    0 -0.25023326113E+02  0.25626289638E+02  0.16742278316E+02  0.39537039008E+02  0.00000000000E+00 0.  1.
</event>
<event>
 7    1  0.1654239E-015  0.9000778E+02  0.7816164E-02  0.1186339E+00
        -11   -1    0    0    0    0  0.00000000000E+00  0.00000000000E+00  0.45593999997E+02  0.45594000000E+02  0.51100000000E-03 0.  1.
         11   -1    0    0    0    0 -0.00000000000E+00 -0.00000000000E+00 -0.45593999997E+02  0.45594000000E+02  0.51100000000E-03 0. -1.
    9900012    2    1    2    0    0  0.79574031074E+00 -0.68598096950E+00 -0.53772412972E+00  0.90007779778E+02  0.90000041671E+02 0.  0.
        -12    1    1    2    0    0 -0.79574031074E+00  0.68598096950E+00  0.53772412972E+00  0.11802202220E+01  0.00000000000E+00 0.  1.
         11    1    3    3    0    0 -0.84392838288E+01  0.17962143265E+01  0.39689130982E+01  0.94973769480E+01  0.51100000000E-03 0. -1.
        -11    1    3    3    0    0 -0.19088192120E+02  0.30860489658E+02 -0.57750057346E+01  0.36743429233E+02  0.51100000000E-03 0.  1.
         12    1    3    3    0    0  0.28323216259E+02 -0.33342684954E+02  0.12683685066E+01  0.43766973597E+02  0.00000000000E+00 0. -1.
</event>
<event>
 7    1  0.1654239E-015  0.9000775E+02  0.7816164E-02  0.1186339E+00
        -11   -1    0    0    0    0  0.00000000000E+00  0.00000000000E+00  0.45593999997E+02  0.45594000000E+02  0.51100000000E-03 0. -1.
         11   -1    0    0    0    0 -0.00000000000E+00 -0.00000000000E+00 -0.45593999997E+02  0.45594000000E+02  0.51100000000E-03 0.  1.
    9900012    2    1    2    0    0  0.21674961057E+00  0.11368636707E+01  0.23140448954E+00  0.90007751112E+02  0.90000012627E+02 0.  0.
        -12    1    1    2    0    0 -0.21674961057E+00 -0.11368636707E+01 -0.23140448954E+00  0.11802488878E+01  0.00000000000E+00 0.  1.
         11    1    3    3    0    0  0.37848723838E+02 -0.14153754848E+01  0.19048360606E+02  0.42395391565E+02  0.51100000000E-03 0. -1.
        -11    1    3    3    0    0 -0.16641198048E+02 -0.87008577497E+01 -0.29871266379E+01  0.19014660761E+02  0.51100000000E-03 0.  1.
        -12    1    3    3    0    0 -0.20990776179E+02  0.11253096905E+02 -0.15829829478E+02  0.28597698786E+02  0.00000000000E+00 0.  1.
</event>
<event>
 7    1  0.1654239E-015  0.9000781E+02  0.7816164E-02  0.1186339E+00
        -11   -1    0    0    0    0  0.00000000000E+00  0.00000000000E+00  0.45593999997E+02  0.45594000000E+02  0.51100000000E-03 0.  1.
         11   -1    0    0    0    0 -0.00000000000E+00 -0.00000000000E+00 -0.45593999997E+02  0.45594000000E+02  0.51100000000E-03 0. -1.
    9900012    2    1    2    0    0  0.85375601281E+00 -0.80707759305E+00  0.11210625101E+00  0.90007812988E+02  0.90000075320E+02 0.  0.
        -12    1    1    2    0    0 -0.85375601281E+00  0.80707759305E+00 -0.11210625101E+00  0.11801870115E+01  0.00000000000E+00 0.  1.
         11    1    3    3    0    0  0.36260193135E+02  0.32148404273E+01  0.78592395784E+01  0.37241166096E+02  0.51100000000E-03 0. -1.
        -11    1    3    3    0    0  0.65886290798E+01 -0.69078909853E+01  0.15149048557E+01  0.96656054130E+01  0.51100000000E-03 0.  1.
        -12    1    3    3    0    0 -0.41995066202E+02  0.28859729649E+01 -0.92620381831E+01  0.43101041479E+02  0.00000000000E+00 0.  1.
</event>
<event>
 7    1  0.1654239E-015  0.9000765E+02  0.7816164E-02  0.1186339E+00
        -11   -1    0    0    0    0  0.00000000000E+00  0.00000000000E+00  0.45593999997E+02  0.45594000000E+02  0.51100000000E-03 0. -1.
         11   -1    0    0    0    0 -0.00000000000E+00 -0.00000000000E+00 -0.45593999997E+02  0.45594000000E+02  0.51100000000E-03 0.  1.
    9900012    2    1    2    0    0 -0.67085539440E+00  0.95483515067E+00 -0.17736798024E+00  0.90007654065E+02  0.89999914299E+02 0.  0.
        -12    1    1    2    0    0  0.67085539440E+00 -0.95483515067E+00  0.17736798024E+00  0.11803459347E+01  0.00000000000E+00 0.  1.
         11    1    3    3    0    0 -0.81958539905E+01  0.75441605506E+01 -0.67709295354E+01  0.13035791809E+02  0.51100000000E-03 0. -1.
        -11    1    3    3    0    0 -0.24436809720E+02 -0.18887033221E+02 -0.17124318845E+02  0.35314586071E+02  0.51100000000E-03 0.  1.
         12    1    3    3    0    0  0.31961808317E+02  0.12297707821E+02  0.23717880400E+02  0.41657276185E+02  0.00000000000E+00 0. -1.
</event>
<event>
 7    1  0.1654239E-015  0.9000778E+02  0.7816164E-02  0.1186339E+00
        -11   -1    0    0    0    0  0.00000000000E+00  0.00000000000E+00  0.45593999997E+02  0.45594000000E+02  0.51100000000E-03 0.  1.
         11   -1    0    0    0    0 -0.00000000000E+00 -0.00000000000E+00 -0.45593999997E+02  0.45594000000E+02  0.51100000000E-03 0. -1.
    9900012    2    1    2    0    0  0.11371201383E+01 -0.31574818942E+00 -0.13263389553E-01  0.90007781781E+02  0.90000043700E+02 0.  0.
        -12    1    1    2    0    0 -0.11371201383E+01  0.31574818942E+00  0.13263389553E-01  0.11802182195E+01  0.00000000000E+00 0.  1.
         11    1    3    3    0    0  0.12518538129E+01  0.21951594143E+01  0.93786599635E+01  0.97131419116E+01  0.51100000000E-03 0. -1.
        -11    1    3    3    0    0 -0.14787417246E+02  0.13156371578E+02  0.29703638062E+02  0.35694032222E+02  0.51100000000E-03 0.  1.
         12    1    3    3    0    0  0.14672683571E+02 -0.15667279182E+02 -0.39095561415E+02  0.44600607647E+02  0.00000000000E+00 0. -1.
</event>
<event>
 7    1  0.1654239E-015  0.9000755E+02  0.7816164E-02  0.1186339E+00
        -11   -1    0    0    0    0  0.00000000000E+00  0.00000000000E+00  0.45593999997E+02  0.45594000000E+02  0.51100000000E-03 0. -1.
         11   -1    0    0    0    0 -0.00000000000E+00 -0.00000000000E+00 -0.45593999997E+02  0.45594000000E+02  0.51100000000E-03 0.  1.
    9900012    2    1    2    0    0 -0.36177750106E+00  0.94427000171E+00  0.60903634262E+00  0.90007553448E+02  0.89999812353E+02 0.  0.
        -12    1    1    2    0    0  0.36177750106E+00 -0.94427000171E+00 -0.60903634262E+00  0.11804465524E+01  0.00000000000E+00 0.  1.
         11    1    3    3    0    0 -0.62042827988E+00  0.14799212812E+02  0.56199105841E+01  0.15842506947E+02  0.51100000000E-03 0. -1.
        -11    1    3    3    0    0  0.33074187816E+02  0.81019618145E+01 -0.64389294222E+01  0.34655497360E+02  0.51100000000E-03 0.  1.
         12    1    3    3    0    0 -0.32815537037E+02 -0.21956904625E+02  0.14280551807E+01  0.39509549141E+02  0.00000000000E+00 0. -1.
</event>
<event>
 7    1  0.1654239E-015  0.9000766E+02  0.7816164E-02  0.1186339E+00
        -11   -1    0    0    0    0  0.00000000000E+00  0.00000000000E+00  0.45593999997E+02  0.45594000000E+02  0.51100000000E-03 0.  1.
         11   -1    0    0    0    0 -0.00000000000E+00 -0.00000000000E+00 -0.45593999997E+02  0.45594000000E+02  0.51100000000E-03 0. -1.
    9900012    2    1    2    0    0  0.40917306852E+00  0.76643416637E+00 -0.79896685173E+00  0.90007664471E+02  0.89999924842E+02 0.  0.
        -12    1    1    2    0    0 -0.40917306852E+00 -0.76643416637E+00  0.79896685173E+00  0.11803355292E+01  0.00000000000E+00 0.  1.
         11    1    3    3    0    0  0.77057210188E+00  0.67176688058E+01 -0.70022863899E+01  0.97341086134E+01  0.51100000000E-03 0. -1.
        -11    1    3    3    0    0  0.26371239634E+02  0.21298916240E+02  0.20379861734E+02  0.39552811246E+02  0.51100000000E-03 0.  1.
         12    1    3    3    0    0 -0.26732638668E+02 -0.27250150880E+02 -0.14176542196E+02  0.40720744612E+02  0.00000000000E+00 0. -1.
</event>
<event>
 7    1  0.1654239E-015  0.9000778E+02  0.7816164E-02  0.1186339E+00
        -11   -1    0    0    0    0  0.00000000000E+00  0.00000000000E+00  0.45593999997E+02  0.45594000000E+02  0.51100000000E-03 0. -1.
         11   -1    0    0    0    0 -0.00000000000E+00 -0.00000000000E+00 -0.45593999997E+02  0.45594000000E+02  0.51100000000E-03 0.  1.
    9900012    2    1    2    0    0  0.50464337613E+00 -0.28097134549E+00  0.10292262984E+01  0.90007781119E+02  0.90000043030E+02 0.  0.
        -12    1    1    2    0    0 -0.50464337613E+00  0.28097134549E+00 -0.10292262984E+01  0.11802188812E+01  0.00000000000E+00 0.  1.
         11    1    3    3    0    0 -0.87041449487E+01 -0.79559572201E+01  0.29307912548E+01  0.12151087697E+02  0.51100000000E-03 0. -1.
        -11    1    3    3    0    0  0.22703522873E+02  0.26225695919E+01 -0.34975254892E+02  0.41780333617E+02  0.51100000000E-03 0.  1.
         12    1    3    3    0    0 -0.13494734548E+02  0.50524162827E+01  0.33073689936E+02  0.36076359805E+02  0.00000000000E+00 0. -1.
</event>
<event>
 7    1  0.1654239E-015  0.9000769E+02  0.7816164E-02  0.1186339E+00
        -11   -1    0    0    0    0  0.00000000000E+00  0.00000000000E+00  0.45593999997E+02  0.45594000000E+02  0.51100000000E-03 0. -1.
         11   -1    0    0    0    0 -0.00000000000E+00 -0.00000000000E+00 -0.45593999997E+02  0.45594000000E+02  0.51100000000E-03 0.  1.
    9900012    2    1    2    0    0  0.61905296404E+00  0.85846682495E+00  0.52244221026E+00  0.90007687446E+02  0.89999948120E+02 0.  0.
        -12    1    1    2    0    0 -0.61905296404E+00 -0.85846682495E+00 -0.52244221026E+00  0.11803125539E+01  0.00000000000E+00 0.  1.
         11    1    3    3    0    0  0.36003563912E+02  0.17562962601E+02  0.10112591076E+02  0.41315599575E+02  0.51100000000E-03 0. -1.
        -11    1    3    3    0    0 -0.12526417792E+01 -0.22467385171E+01  0.74600586144E+01  0.78910975271E+01  0.51100000000E-03 0.  1.
        -12    1    3    3    0    0 -0.34131869169E+02 -0.14457757259E+02 -0.17050207480E+02  0.40800990344E+02  0.00000000000E+00 0.  1.
</event>
<event>
 7    1  0.1654239E-015  0.9000784E+02  0.7816164E-02  0.1186339E+00
        -11   -1    0    0    0    0  0.00000000000E+00  0.00000000000E+00  0.45593999997E+02  0.45594000000E+02  0.51100000000E-03 0. -1.
         11   -1    0    0    0    0 -0.00000000000E+00 -0.00000000000E+00 -0.45593999997E+02  0.45594000000E+02  0.51100000000E-03 0.  1.
    9900012    2    1    2    0    0  0.82299654461E+00  0.10060743675E+00  0.83984069731E+00  0.90007840025E+02  0.90000102714E+02 0.  0.
        -12    1    1    2    0    0 -0.82299654461E+00 -0.10060743675E+00 -0.83984069731E+00  0.11801599746E+01  0.00000000000E+00 0.  1.
         11    1    3    3    0    0 -0.14604639571E+02 -0.31534786746E+02  0.29084250798E+01  0.34874019109E+02  0.51100000000E-03 0. -1.
        -11    1    3    3    0    0 -0.40383066015E+01 -0.89365722796E+01 -0.25439229273E+01  0.10131228378E+02  0.51100000000E-03 0.  1.
        -12    1    3    3    0    0  0.19465942717E+02  0.40571966462E+02  0.47533854478E+00  0.45002592539E+02  0.00000000000E+00 0.  1.
</event>
<event>
 7    1  0.1654239E-015  0.9000774E+02  0.7816164E-02  0.1186339E+00
        -11   -1    0    0    0    0  0.00000000000E+00  0.00000000000E+00  0.45593999997E+02  0.45594000000E+02  0.51100000000E-03 0.  1.
         11   -1    0    0    0    0 -0.00000000000E+00 -0.00000000000E+00 -0.45593999997E+02  0.45594000000E+02  0.51100000000E-03 0. -1.
    9900012    2    1    2    0    0  0.28082387761E-02 -0.11794143003E+01  0.44581147272E-01  0.90007740089E+02  0.90000001459E+02 0.  0.
        -12    1    1    2    0    0 -0.28082387761E-02  0.11794143003E+01 -0.44581147272E-01  0.11802599106E+01  0.00000000000E+00 0.  1.
         11    1    3    3    0    0  0.25877789620E+02  0.15841699515E+02 -0.26217406675E+02  0.40099524338E+02  0.51100000000E-03 0. -1.
        -11    1    3    3    0    0 -0.67299768966E+01  0.16425351257E+00 -0.57403288178E+01  0.88470867206E+01  0.51100000000E-03 0.  1.
        -12    1    3    3    0    0 -0.19145004485E+02 -0.17185367328E+02  0.32002316640E+02  0.41061129030E+02  0.00000000000E+00 0.  1.
</event>
<event>
 7    1  0.1654239E-015  0.9000771E+02  0.7816164E-02  0.1186339E+00
        -11   -1    0    0    0    0  0.00000000000E+00  0.00000000000E+00  0.45593999997E+02  0.45594000000E+02  0.51100000000E-03 0.  1.
         11   -1    0    0    0    0 -0.00000000000E+00 -0.00000000000E+00 -0.45593999997E+02  0.45594000000E+02  0.51100000000E-03 0. -1.
    9900012    2    1    2    0    0 -0.15005300721E+00  0.46578021819E+00 -0.10740625699E+01  0.90007712950E+02  0.89999973961E+02 0.  0.
        -12    1    1    2    0    0  0.15005300721E+00 -0.46578021819E+00  0.10740625699E+01  0.11802870501E+01  0.00000000000E+00 0.  1.
         11    1    3    3    0    0  0.11838996826E+02 -0.42149782159E+01 -0.34519341317E+01  0.13032411010E+02  0.51100000000E-03 0. -1.
        -11    1    3    3    0    0 -0.39526706100E+02 -0.15780387829E+02 -0.32816670858E+00  0.42561588654E+02  0.51100000000E-03 0.  1.
         12    1    3    3    0    0  0.27537656266E+02  0.20461146263E+02  0.27060382704E+01  0.34413713286E+02  0.00000000000E+00 0. -1.
</event>
<event>
 7    1  0.1654239E-015  0.9000779E+02  0.7816164E-02  0.1186339E+00
        -11   -1    0    0    0    0  0.00000000000E+00  0.00000000000E+00  0.45593999997E+02  0.45594000000E+02  0.51100000000E-03 0. -1.
         11   -1    0    0    0    0 -0.00000000000E+00 -0.00000000000E+00 -0.45593999997E+02  0.45594000000E+02  0.51100000000E-03 0.  1.
    9900012    2    1    2    0    0  0.25810563842E+00  0.13225509903E-01  0.11515647881E+01  0.90007790317E+02  0.90000052349E+02 0.  0.
        -12    1    1    2    0    0 -0.25810563842E+00 -0.13225509903E-01 -0.11515647881E+01  0.11802096830E+01  0.00000000000E+00 0.  1.
         11    1    3    3    0    0 -0.31658666691E+02 -0.53454385870E+01 -0.24489093369E+02  0.40380200403E+02  0.51100000000E-03 0. -1.
        -11    1    3    3    0    0 -0.12647844980E+01  0.88727839716E+01  0.37180092700E+01  0.97030700516E+01  0.51100000000E-03 0.  1.
        -12    1    3    3    0    0  0.33181556828E+02 -0.35141198747E+01  0.21922648887E+02  0.39924519862E+02  0.00000000000E+00 0.  1.
</event>
<event>
 7    1  0.1654239E-015  0.9000774E+02  0.7816164E-02  0.1186339E+00
        -11   -1    0    0    0    0  0.00000000000E+00  0.00000000000E+00  0.45593999997E+02  0.45594000000E+02  0.51100000000E-03 0. -1.
         11   -1    0    0    0    0 -0.00000000000E+00 -0.00000000000E+00 -0.45593999997E+02  0.45594000000E+02  0.51100000000E-03 0.  1.
    9900012    2    1    2    0    0  0.39064755398E+00 -0.20721579903E+00  0.10942936852E+01  0.90007736229E+02  0.89999997548E+02 0.  0.
        -12    1    1    2    0    0 -0.39064755398E+00  0.20721579903E+00 -0.10942936852E+01  0.11802637707E+01  0.00000000000E+00 0.  1.
         11    1    3    3    0    0  0.29685881419E+01  0.90178079244E+01 -0.40214614385E+01  0.10310457200E+02  0.51100000000E-03 0. -1.
        -11    1    3    3    0    0  0.10670428406E+02  0.11949989156E+02 -0.31519439231E+02  0.35357252903E+02  0.51100000000E-03 0.  1.
         12    1    3    3    0    0 -0.13248368994E+02 -0.21175012879E+02  0.36635194355E+02  0.44340026126E+02  0.00000000000E+00 0. -1.
</event>
<event>
 7    1  0.1654239E-015  0.9000779E+02  0.7816164E-02  0.1186339E+00
        -11   -1    0    0    0    0  0.00000000000E+00  0.00000000000E+00  0.45593999997E+02  0.45594000000E+02  0.51100000000E-03 0.  1.
         11   -1    0    0    0    0 -0.00000000000E+00 -0.00000000000E+00 -0.45593999997E+02  0.45594000000E+02  0.51100000000E-03 0. -1.
    9900012    2    1    2    0    0  0.67249823852E+00  0.83377802759E+00  0.49543660827E+00  0.90007789378E+02  0.90000051398E+02 0.  0.
        -12    1    1    2    0    0 -0.67249823852E+00 -0.83377802759E+00 -0.49543660827E+00  0.11802106223E+01  0.00000000000E+00 0.  1.
         11    1    3    3    0    0 -0.36199459597E+02  0.20617681344E+02  0.94154015429E+01  0.42709945511E+02  0.51100000000E-03 0. -1.
        -11    1    3    3    0    0  0.87812477698E+01  0.44622619878E+00  0.48512012439E+01  0.10042090618E+02  0.51100000000E-03 0.  1.
        -12    1    3    3    0    0  0.28090710066E+02 -0.20230129515E+02 -0.13771166179E+02  0.37255753248E+02  0.00000000000E+00 0.  1.
</event>
<event>
 7    1  0.1654239E-015  0.9000772E+02  0.7816164E-02  0.1186339E+00
        -11   -1    0    0    0    0  0.00000000000E+00  0.00000000000E+00  0.45593999997E+02  0.45594000000E+02  0.51100000000E-03 0.  1.
         11   -1    0    0    0    0 -0.00000000000E+00 -0.00000000000E+00 -0.45593999997E+02  0.45594000000E+02  0.51100000000E-03 0. -1.
    9900012    2    1    2    0    0 -0.48113578386E+00 -0.76448367539E+00 -0.75968668197E+00  0.90007724275E+02  0.89999985435E+02 0.  0.
        -12    1    1    2    0    0  0.48113578386E+00  0.76448367539E+00  0.75968668197E+00  0.11802757251E+01  0.00000000000E+00 0.  1.
         11    1    3    3    0    0  0.76561759613E+00 -0.11617087873E+02 -0.40781427653E+02  0.42410703161E+02  0.51100000000E-03 0. -1.
        -11    1    3    3    0    0 -0.42633338211E+01  0.84442749065E+01  0.23752189740E+01  0.97531256222E+01  0.51100000000E-03 0.  1.
        -12    1    3    3    0    0  0.30165804411E+01  0.24083292911E+01  0.37646521997E+02  0.37843895492E+02  0.00000000000E+00 0.  1.
</event>
<event>
 7    1  0.1654239E-015  0.9000753E+02  0.7816164E-02  0.1186339E+00
        -11   -1    0    0    0    0  0.00000000000E+00  0.00000000000E+00  0.45593999997E+02  0.45594000000E+02  0.51100000000E-03 0. -1.
         11   -1    0    0    0    0 -0.00000000000E+00 -0.00000000000E+00 -0.45593999997E+02  0.45594000000E+02  0.51100000000E-03 0.  1.
    9900012    2    1    2    0    0 -0.47016613139E-01 -0.76707585531E+00 -0.89604064023E+00  0.90007531975E+02  0.89999790597E+02 0.  0.
        -12    1    1    2    0    0  0.47016613139E-01  0.76707585531E+00  0.89604064023E+00  0.11804680253E+01  0.00000000000E+00 0.  1.
         11    1    3    3    0    0 -0.99273490905E+01  0.17154230482E+02  0.33652805420E+02  0.39055488684E+02  0.51100000000E-03 0. -1.
        -11    1    3    3    0    0 -0.91812116256E+01 -0.34429082804E+01 -0.11664369711E+01  0.98746564401E+01  0.51100000000E-03 0.  1.
        -12    1    3    3    0    0  0.19061544103E+02 -0.14478398057E+02 -0.33382409090E+02  0.41077386851E+02  0.00000000000E+00 0.  1.
</event>
<event>
 7    1  0.1654239E-015  0.9000774E+02  0.7816164E-02  0.1186339E+00
        -11   -1    0    0    0    0  0.00000000000E+00  0.00000000000E+00  0.45593999997E+02  0.45594000000E+02  0.51100000000E-03 0.  1.
         11   -1    0    0    0    0 -0.00000000000E+00 -0.00000000000E+00 -0.45593999997E+02  0.45594000000E+02  0.51100000000E-03 0. -1.
    9900012    2    1    2    0    0 -0.32769252164E+00  0.73062189753E+00 -0.86708160950E+00  0.90007736782E+02  0.89999998108E+02 0.  0.
        -12    1    1    2    0    0  0.32769252164E+00 -0.73062189753E+00  0.86708160950E+00  0.11802632179E+01  0.00000000000E+00 0.  1.
         11    1    3    3    0    0  0.16965112182E+01 -0.11312621527E+02  0.54769362643E+01  0.12682680601E+02  0.51100000000E-03 0. -1.
        -11    1    3    3    0    0 -0.17514132526E+02  0.21721952828E+01  0.31020795904E+02  0.35689677069E+02  0.51100000000E-03 0.  1.
         12    1    3    3    0    0  0.15489928786E+02  0.98710481413E+01 -0.37364813778E+02  0.41635379113E+02  0.00000000000E+00 0. -1.
</event>
<event>
 7    1  0.1654239E-015  0.9000770E+02  0.7816164E-02  0.1186339E+00
        -11   -1    0    0    0    0  0.00000000000E+00  0.00000000000E+00  0.45593999997E+02  0.45594000000E+02  0.51100000000E-03 0.  1.
         11   -1    0    0    0    0 -0.00000000000E+00 -0.00000000000E+00 -0.45593999997E+02  0.45594000000E+02  0.51100000000E-03 0. -1.
    9900012    2    1    2    0    0  0.10475952279E+01  0.21070789923E-01  0.54332238454E+00  0.90007703870E+02  0.89999964762E+02 0.  0.
        -12    1    1    2    0    0 -0.10475952279E+01 -0.21070789923E-01 -0.54332238454E+00  0.11802961295E+01  0.00000000000E+00 0.  1.
         11    1    3    3    0    0  0.22547154740E+01  0.33762003856E+01  0.10246160381E+02  0.11021173881E+02  0.51100000000E-03 0. -1.
        -11    1    3    3    0    0  0.18399175034E+02  0.30449255099E+02  0.73854666850E+01  0.36334995479E+02  0.51100000000E-03 0.  1.
         12    1    3    3    0    0 -0.19606295280E+02 -0.33804384695E+02 -0.17088304681E+02  0.42651534510E+02  0.00000000000E+00 0. -1.
</event>
<event>
 7    1  0.1654239E-015  0.9000770E+02  0.7816164E-02  0.1186339E+00
        -11   -1    0    0    0    0  0.00000000000E+00  0.00000000000E+00  0.45593999997E+02  0.45594000000E+02  0.51100000000E-03 0.  1.
         11   -1    0    0    0    0 -0.00000000000E+00 -0.00000000000E+00 -0.45593999997E+02  0.45594000000E+02  0.51100000000E-03 0. -1.
    9900012    2    1    2    0    0 -0.54748378960E+00  0.67189799612E+00 -0.80119875448E+00  0.90007701368E+02  0.89999962226E+02 0.  0.
        -12    1    1    2    0    0  0.54748378960E+00 -0.67189799612E+00  0.80119875448E+00  0.11802986322E+01  0.00000000000E+00 0.  1.
         11    1    3    3    0    0 -0.37030133982E+02  0.18937457751E+02 -0.64594697802E+01  0.42090175562E+02  0.51100000000E-03 0. -1.
        -11    1    3    3    0    0  0.69988910014E+01  0.61320738849E+01  0.14517001480E+01  0.94177618870E+01  0.51100000000E-03 0.  1.
        -12    1    3    3    0    0  0.29483759191E+02 -0.24397633640E+02  0.42065708778E+01  0.38499763918E+02  0.00000000000E+00 0.  1.
</event>
<event>
 7    1  0.1654239E-015  0.9000779E+02  0.7816164E-02  0.1186339E+00
        -11   -1    0    0    0    0  0.00000000000E+00  0.00000000000E+00  0.45593999997E+02  0.45594000000E+02  0.51100000000E-03 0.  1.
         11   -1    0    0    0    0 -0.00000000000E+00 -0.00000000000E+00 -0.45593999997E+02  0.45594000000E+02  0.51100000000E-03 0. -1.
    9900012    2    1    2    0    0  0.49975441472E+00 -0.10684318661E+01  0.39923226462E-01  0.90007790276E+02  0.90000052308E+02 0.  0.
        -12    1    1    2    0    0 -0.49975441472E+00  0.10684318661E+01 -0.39923226462E-01  0.11802097235E+01  0.00000000000E+00 0.  1.
         11    1    3    3    0    0  0.67950623731E+01  0.51765265286E+00  0.71132265830E+01  0.98508288791E+01  0.51100000000E-03 0. -1.
        -11    1    3    3    0    0  0.44286198010E+00 -0.14656618026E+01  0.36265248310E+02  0.36297555379E+02  0.51100000000E-03 0.  1.
         12    1    3    3    0    0 -0.67381699385E+01 -0.12042271636E+00 -0.43338551666E+02  0.43859406018E+02  0.00000000000E+00 0. -1.
</event>
<event>
 7    1  0.1654239E-015  0.9000766E+02  0.7816164E-02  0.1186339E+00
        -11   -1    0    0    0    0  0.00000000000E+00  0.00000000000E+00  0.45593999997E+02  0.45594000000E+02  0.51100000000E-03 0. -1.
         11   -1    0    0    0    0 -0.00000000000E+00 -0.00000000000E+00 -0.45593999997E+02  0.45594000000E+02  0.51100000000E-03 0.  1.
    9900012    2    1    2    0    0  0.60322686326E+00 -0.54376133359E-01  0.10130995260E+01  0.90007656803E+02  0.89999917073E+02 0.  0.
        -12    1    1    2    0    0 -0.60322686326E+00  0.54376133359E-01 -0.10130995260E+01  0.11803431967E+01  0.00000000000E+00 0.  1.
         11    1    3    3    0    0  0.32432988427E+02 -0.15967301080E+02 -0.42829448827E+01  0.36403256163E+02  0.51100000000E-03 0. -1.
        -11    1    3    3    0    0  0.54039362036E+01 -0.36143082870E+01 -0.72411333153E+01  0.97313803151E+01  0.51100000000E-03 0.  1.
        -12    1    3    3    0    0 -0.37233697768E+02  0.19527233234E+02  0.12537177724E+02  0.43873020326E+02  0.00000000000E+00 0.  1.
</event>
<event>
 7    1  0.1654239E-015  0.9000760E+02  0.7816164E-02  0.1186339E+00
        -11   -1    0    0    0    0  0.00000000000E+00  0.00000000000E+00  0.45593999997E+02  0.45594000000E+02  0.51100000000E-03 0.  1.
         11   -1    0    0    0    0 -0.00000000000E+00 -0.00000000000E+00 -0.45593999997E+02  0.45594000000E+02  0.51100000000E-03 0. -1.
    9900012    2    1    2    0    0  0.36162794778E+00  0.10898427346E+01 -0.27352040922E+00  0.90007599486E+02  0.89999858999E+02 0.  0.
        -12    1    1    2    0    0 -0.36162794778E+00 -0.10898427346E+01  0.27352040922E+00  0.11804005138E+01  0.00000000000E+00 0.  1.
         11    1    3    3    0    0  0.20128028796E+02  0.28143200932E+02 -0.14350024818E+02  0.37457983320E+02  0.51100000000E-03 0. -1.
        -11    1    3    3    0    0 -0.22553071023E+01  0.29845054261E+01 -0.97211183214E+01  0.10416036888E+02  0.51100000000E-03 0.  1.
        -12    1    3    3    0    0 -0.17511093746E+02 -0.30037863623E+02  0.23797622730E+02  0.42133579278E+02  0.00000000000E+00 0.  1.
</event>
<event>
 7    1  0.1654239E-015  0.9000775E+02  0.7816164E-02  0.1186339E+00
        -11   -1    0    0    0    0  0.00000000000E+00  0.00000000000E+00  0.45593999997E+02  0.45594000000E+02  0.51100000000E-03 0. -1.
         11   -1    0    0    0    0 -0.00000000000E+00 -0.00000000000E+00 -0.45593999997E+02  0.45594000000E+02  0.51100000000E-03 0.  1.
    9900012    2    1    2    0    0  0.58150681361E+00  0.10174840513E+01 -0.13984479216E+00  0.90007754036E+02  0.90000015590E+02 0.  0.
        -12    1    1    2    0    0 -0.58150681361E+00 -0.10174840513E+01  0.13984479216E+00  0.11802459637E+01  0.00000000000E+00 0.  1.
         11    1    3    3    0    0  0.18033183974E+00 -0.19749489220E+02  0.34053271571E+02  0.39366231075E+02  0.51100000000E-03 0. -1.
        -11    1    3    3    0    0  0.14858987941E+01  0.74513551894E+01  0.50922530136E+01  0.91466731876E+01  0.51100000000E-03 0.  1.
        -12    1    3    3    0    0 -0.10847238202E+01  0.13315618082E+02 -0.39285369377E+02  0.41494849774E+02  0.00000000000E+00 0.  1.
</event>
<event>
 7    1  0.1654239E-015  0.9000785E+02  0.7816164E-02  0.1186339E+00
        -11   -1    0    0    0    0  0.00000000000E+00  0.00000000000E+00  0.45593999997E+02  0.45594000000E+02  0.51100000000E-03 0. -1.
         11   -1    0    0    0    0 -0.00000000000E+00 -0.00000000000E+00 -0.45593999997E+02  0.45594000000E+02  0.51100000000E-03 0.  1.
    9900012    2    1    2    0    0  0.10049244589E+01  0.35058780158E+00  0.50987987367E+00  0.90007846425E+02  0.90000109198E+02 0.  0.
        -12    1    1    2    0    0 -0.10049244589E+01 -0.35058780158E+00 -0.50987987367E+00  0.11801535748E+01  0.00000000000E+00 0.  1.
         11    1    3    3    0    0 -0.33524002764E+01 -0.37440862264E+01  0.81755119672E+01  0.95966538685E+01  0.51100000000E-03 0. -1.
        -11    1    3    3    0    0  0.32573522916E+02 -0.23749008379E+02 -0.57905782564E+01  0.40725674837E+02  0.51100000000E-03 0.  1.
         12    1    3    3    0    0 -0.28216198181E+02  0.27843682407E+02 -0.18750538372E+01  0.39685517719E+02  0.00000000000E+00 0. -1.
</event>
<event>
 7    1  0.1654239E-015  0.9000776E+02  0.7816164E-02  0.1186339E+00
        -11   -1    0    0    0    0  0.00000000000E+00  0.00000000000E+00  0.45593999997E+02  0.45594000000E+02  0.51100000000E-03 0. -1.
         11   -1    0    0    0    0 -0.00000000000E+00 -0.00000000000E+00 -0.45593999997E+02  0.45594000000E+02  0.51100000000E-03 0.  1.
    9900012    2    1    2    0    0  0.41354796439E+00 -0.67038414451E+00  0.87893871566E+00  0.90007758463E+02  0.90000020075E+02 0.  0.
        -12    1    1    2    0    0 -0.41354796439E+00  0.67038414451E+00 -0.87893871566E+00  0.11802415371E+01  0.00000000000E+00 0.  1.
         11    1    3    3    0    0 -0.36996190554E+01 -0.21916509758E+02  0.10254295738E+02  0.24477973006E+02  0.51100000000E-03 0. -1.
        -11    1    3    3    0    0 -0.88238977908E+01 -0.19598283279E+02 -0.70601354681E+01  0.22622983729E+02  0.51100000000E-03 0.  1.
        -12    1    3    3    0    0  0.12937064811E+02  0.40844408892E+02 -0.23152215547E+01  0.42906801728E+02  0.00000000000E+00 0.  1.
</event>
<event>
 7    1  0.1654239E-015  0.9000772E+02  0.7816164E-02  0.1186339E+00
        -11   -1    0    0    0    0  0.00000000000E+00  0.00000000000E+00  0.45593999997E+02  0.45594000000E+02  0.51100000000E-03 0. -1.
         11   -1    0    0    0    0 -0.00000000000E+00 -0.00000000000E+00 -0.45593999997E+02  0.45594000000E+02  0.51100000000E-03 0.  1.
    9900012    2    1    2    0    0 -0.10153536055E+01 -0.59552500957E+00 -0.86403257363E-01  0.90007721006E+02  0.89999982123E+02 0.  0.
        -12    1    1    2    0    0  0.10153536055E+01  0.59552500957E+00  0.86403257363E-01  0.11802789942E+01  0.00000000000E+00 0.  1.
         11    1    3    3    0    0 -0.27679812927E+02 -0.21106261913E+02 -0.10859495602E+02  0.36463337486E+02  0.51100000000E-03 0. -1.
        -11    1    3    3    0    0 -0.92784533140E+01 -0.26978759258E+01  0.21649554875E+01  0.99022857430E+01  0.51100000000E-03 0.  1.
        -12    1    3    3    0    0  0.35942912636E+02  0.23208612829E+02  0.86081368575E+01  0.43642097777E+02  0.00000000000E+00 0.  1.
</event>
<event>
 7    1  0.1654239E-015  0.9000773E+02  0.7816164E-02  0.1186339E+00
        -11   -1    0    0    0    0  0.00000000000E+00  0.00000000000E+00  0.45593999997E+02  0.45594000000E+02  0.51100000000E-03 0. -1.
         11   -1    0    0    0    0 -0.00000000000E+00 -0.00000000000E+00 -0.45593999997E+02  0.45594000000E+02  0.51100000000E-03 0.  1.
    9900012    2    1    2    0    0 -0.91188197080E+00  0.49815206729E+00  0.55978239762E+00  0.90007728614E+02  0.89999989832E+02 0.  0.
        -12    1    1    2    0    0  0.91188197080E+00 -0.49815206729E+00 -0.55978239762E+00  0.11802713855E+01  0.00000000000E+00 0.  1.
         11    1    3    3    0    0  0.25700479372E+02 -0.13374740481E+02  0.26241590275E+02  0.39089888505E+02  0.51100000000E-03 0. -1.
        -11    1    3    3    0    0  0.33123263115E+01 -0.66948418449E+01 -0.62179128383E+01  0.97187886718E+01  0.51100000000E-03 0.  1.
        -12    1    3    3    0    0 -0.29924687654E+02  0.20567734394E+02 -0.19463895039E+02  0.41199051438E+02  0.00000000000E+00 0.  1.
</event>
<event>
 7    1  0.1660482E-015  0.9000768E+02  0.7816164E-02  0.1186339E+00
        -11   -1    0    0    0    0  0.00000000000E+00  0.00000000000E+00  0.45593999997E+02  0.45594000000E+02  0.51100000000E-03 0.  1.
         11   -1    0    0    0    0 -0.00000000000E+00 -0.00000000000E+00 -0.45593999997E+02  0.45594000000E+02  0.51100000000E-03 0. -1.
    9900012    2    1    2    0    0 -0.90339255894E+00  0.59194721594E+00 -0.47605928989E+00  0.90007681370E+02  0.89999941964E+02 0.  0.
        -12    1    1    2    0    0  0.90339255894E+00 -0.59194721594E+00  0.47605928989E+00  0.11803186305E+01  0.00000000000E+00 0.  1.
         11    1    3    3    0    0  0.21196145442E+01 -0.97698832300E+01 -0.10160850724E+01  0.10048672215E+02  0.51100000000E-03 0. -1.
        -11    1    3    3    0    0  0.21509818195E+02  0.29477065452E+02  0.21594743235E+02  0.42401681595E+02  0.51100000000E-03 0.  1.
         12    1    3    3    0    0 -0.24532825298E+02 -0.19115235006E+02 -0.21054717453E+02  0.37557327560E+02  0.00000000000E+00 0. -1.
</event>
<event>
 7    1  0.1654239E-015  0.9000788E+02  0.7816164E-02  0.1186339E+00
        -11   -1    0    0    0    0  0.00000000000E+00  0.00000000000E+00  0.45593999997E+02  0.45594000000E+02  0.51100000000E-03 0.  1.
         11   -1    0    0    0    0 -0.00000000000E+00 -0.00000000000E+00 -0.45593999997E+02  0.45594000000E+02  0.51100000000E-03 0. -1.
    9900012    2    1    2    0    0  0.47248742697E+00  0.68466019657E+00 -0.83706493379E+00  0.90007880660E+02  0.90000143885E+02 0.  0.
        -12    1    1    2    0    0 -0.47248742697E+00 -0.68466019657E+00  0.83706493379E+00  0.11801193401E+01  0.00000000000E+00 0.  1.
         11    1    3    3    0    0 -0.81251383276E+01 -0.40009019924E+01  0.58470588404E+01  0.10780222026E+02  0.51100000000E-03 0. -1.
        -11    1    3    3    0    0 -0.15591009149E+02  0.35475736923E+02  0.30820177070E+01  0.38872950877E+02  0.51100000000E-03 0.  1.
         12    1    3    3    0    0  0.24188634904E+02 -0.30790174734E+02 -0.97661414812E+01  0.40354707756E+02  0.00000000000E+00 0. -1.
</event>
<event>
 7    1  0.1654239E-015  0.9000696E+02  0.7816164E-02  0.1186341E+00
        -11   -1    0    0    0    0  0.00000000000E+00  0.00000000000E+00  0.45593999997E+02  0.45594000000E+02  0.51100000000E-03 0. -1.
         11   -1    0    0    0    0 -0.00000000000E+00 -0.00000000000E+00 -0.45593999997E+02  0.45594000000E+02  0.51100000000E-03 0.  1.
    9900012    2    1    2    0    0 -0.55223032296E+00 -0.23528503233E+00  0.10171249662E+01  0.90006957845E+02  0.89999208885E+02 0.  0.
        -12    1    1    2    0    0  0.55223032296E+00  0.23528503233E+00 -0.10171249662E+01  0.11810421554E+01  0.00000000000E+00 0.  1.
         11    1    3    3    0    0 -0.86569461696E+01 -0.35916264431E+02  0.91512248780E+01  0.38061341079E+02  0.51100000000E-03 0. -1.
        -11    1    3    3    0    0 -0.73431290201E+01 -0.36642087197E+01  0.20671344227E+01  0.84629199648E+01  0.51100000000E-03 0.  1.
        -12    1    3    3    0    0  0.15447844867E+02  0.39345188119E+02 -0.10201234335E+02  0.43482696801E+02  0.00000000000E+00 0.  1.
</event>
<event>
 7    1  0.1654239E-015  0.9000766E+02  0.7816164E-02  0.1186339E+00
        -11   -1    0    0    0    0  0.00000000000E+00  0.00000000000E+00  0.45593999997E+02  0.45594000000E+02  0.51100000000E-03 0.  1.
         11   -1    0    0    0    0 -0.00000000000E+00 -0.00000000000E+00 -0.45593999997E+02  0.45594000000E+02  0.51100000000E-03 0. -1.
    9900012    2    1    2    0    0 -0.18792143859E+00 -0.11421578506E+01 -0.23099389438E+00  0.90007662251E+02  0.89999922593E+02 0.  0.
        -12    1    1    2    0    0  0.18792143859E+00  0.11421578506E+01  0.23099389438E+00  0.11803377491E+01  0.00000000000E+00 0.  1.
         11    1    3    3    0    0 -0.18949762099E+02  0.29703236220E+02 -0.18307949214E+02  0.39705877779E+02  0.51100000000E-03 0. -1.
        -11    1    3    3    0    0  0.13092956040E+01 -0.40917163113E+01 -0.79906385286E+01  0.90723041013E+01  0.51100000000E-03 0.  1.
        -12    1    3    3    0    0  0.17452545056E+02 -0.26753677759E+02  0.26067593848E+02  0.41229480370E+02  0.00000000000E+00 0.  1.
</event>
<event>
 7    1  0.1654239E-015  0.9000773E+02  0.7816164E-02  0.1186339E+00
        -11   -1    0    0    0    0  0.00000000000E+00  0.00000000000E+00  0.45593999997E+02  0.45594000000E+02  0.51100000000E-03 0. -1.
         11   -1    0    0    0    0 -0.00000000000E+00 -0.00000000000E+00 -0.45593999997E+02  0.45594000000E+02  0.51100000000E-03 0.  1.
    9900012    2    1    2    0    0 -0.11510839782E+01  0.17016810091E+00  0.19772497867E+00  0.90007726017E+02  0.89999987201E+02 0.  0.
        -12    1    1    2    0    0  0.11510839782E+01 -0.17016810091E+00 -0.19772497867E+00  0.11802739829E+01  0.00000000000E+00 0.  1.
         11    1    3    3    0    0 -0.11007585486E+02  0.15817949996E+01  0.31652165415E+02  0.33548898483E+02  0.51100000000E-03 0. -1.
        -11    1    3    3    0    0  0.11533729155E+02 -0.54070681043E+01  0.91118840698E+01  0.15661728043E+02  0.51100000000E-03 0.  1.
        -12    1    3    3    0    0 -0.16772276472E+01  0.39954412056E+01 -0.40566324506E+02  0.40797099492E+02  0.00000000000E+00 0.  1.
</event>
<event>
 7    1  0.2609069E-015  0.9000786E+02  0.7816164E-02  0.1186339E+00
        -11   -1    0    0    0    0  0.00000000000E+00  0.00000000000E+00  0.45593999997E+02  0.45594000000E+02  0.51100000000E-03 0. -1.
         11   -1    0    0    0    0 -0.00000000000E+00 -0.00000000000E+00 -0.45593999997E+02  0.45594000000E+02  0.51100000000E-03 0.  1.
    9900012    2    1    2    0    0  0.13634056833E+00 -0.11112833258E+01  0.37309134893E+00  0.90007857409E+02  0.90000120327E+02 0.  0.
        -12    1    1    2    0    0 -0.13634056833E+00  0.11112833258E+01 -0.37309134893E+00  0.11801425912E+01  0.00000000000E+00 0.  1.
         11    1    3    3    0    0 -0.18703750678E+01  0.93858752010E+01  0.67414346091E+00  0.95941349715E+01  0.51100000000E-03 0. -1.
        -11    1    3    3    0    0  0.65465470910E+01  0.28974847130E+02 -0.20253775455E+02  0.35952947939E+02  0.51100000000E-03 0.  1.
         12    1    3    3    0    0 -0.45398314549E+01 -0.39472005657E+02  0.19952723343E+02  0.44460774499E+02  0.00000000000E+00 0. -1.
</event>
<event>
 7    1  0.1654239E-015  0.9000777E+02  0.7816164E-02  0.1186339E+00
        -11   -1    0    0    0    0  0.00000000000E+00  0.00000000000E+00  0.45593999997E+02  0.45594000000E+02  0.51100000000E-03 0.  1.
         11   -1    0    0    0    0 -0.00000000000E+00 -0.00000000000E+00 -0.45593999997E+02  0.45594000000E+02  0.51100000000E-03 0. -1.
    9900012    2    1    2    0    0 -0.24107389044E+00 -0.11378459773E+01 -0.20035827707E+00  0.90007765478E+02  0.90000027182E+02 0.  0.
        -12    1    1    2    0    0  0.24107389044E+00  0.11378459773E+01  0.20035827707E+00  0.11802345224E+01  0.00000000000E+00 0.  1.
         11    1    3    3    0    0  0.73196949341E+01  0.11489989650E+01 -0.36960518043E+01  0.82800321105E+01  0.51100000000E-03 0. -1.
        -11    1    3    3    0    0  0.56694069116E+01  0.31477931859E+02 -0.20731138012E+02  0.38115383409E+02  0.51100000000E-03 0.  1.
         12    1    3    3    0    0 -0.13230175736E+02 -0.33764776802E+02  0.24226831539E+02  0.43612349958E+02  0.00000000000E+00 0. -1.
</event>
<event>
 7    1  0.1654239E-015  0.9000772E+02  0.7816164E-02  0.1186339E+00
        -11   -1    0    0    0    0  0.00000000000E+00  0.00000000000E+00  0.45593999997E+02  0.45594000000E+02  0.51100000000E-03 0.  1.
         11   -1    0    0    0    0 -0.00000000000E+00 -0.00000000000E+00 -0.45593999997E+02  0.45594000000E+02  0.51100000000E-03 0. -1.
    9900012    2    1    2    0    0 -0.72866652677E+00 -0.89437485147E+00  0.24942204112E+00  0.90007715019E+02  0.89999976057E+02 0.  0.
        -12    1    1    2    0    0  0.72866652677E+00  0.89437485147E+00 -0.24942204112E+00  0.11802849812E+01  0.00000000000E+00 0.  1.
         11    1    3    3    0    0  0.38772883410E+02  0.64731536443E+01 -0.96079130551E+01  0.40466655404E+02  0.51100000000E-03 0. -1.
        -11    1    3    3    0    0 -0.17084522214E+01  0.64512727751E+01  0.62434849399E+01  0.91388639266E+01  0.51100000000E-03 0.  1.
        -12    1    3    3    0    0 -0.37793097715E+02 -0.13818801271E+02  0.36138501563E+01  0.40402195688E+02  0.00000000000E+00 0.  1.
</event>
<event>
 7    1  0.1654239E-015  0.9000771E+02  0.7816164E-02  0.1186339E+00
        -11   -1    0    0    0    0  0.00000000000E+00  0.00000000000E+00  0.45593999997E+02  0.45594000000E+02  0.51100000000E-03 0.  1.
         11   -1    0    0    0    0 -0.00000000000E+00 -0.00000000000E+00 -0.45593999997E+02  0.45594000000E+02  0.51100000000E-03 0. -1.
    9900012    2    1    2    0    0  0.10655039623E+01  0.27502400211E+00 -0.42677957742E+00  0.90007712873E+02  0.89999973882E+02 0.  0.
        -12    1    1    2    0    0 -0.10655039623E+01 -0.27502400211E+00  0.42677957742E+00  0.11802871274E+01  0.00000000000E+00 0.  1.
         11    1    3    3    0    0  0.13063049473E+02 -0.45605799971E+01 -0.35703450579E+02  0.38290710818E+02  0.51100000000E-03 0. -1.
        -11    1    3    3    0    0 -0.56873076719E+01 -0.83107370188E+01 -0.32024825673E+01  0.10567389139E+02  0.51100000000E-03 0.  1.
        -12    1    3    3    0    0 -0.63102378388E+01  0.13146341018E+02  0.38479153569E+02  0.41149612916E+02  0.00000000000E+00 0.  1.
</event>
<event>
 7    1  0.1654239E-015  0.9000774E+02  0.7816164E-02  0.1186339E+00
        -11   -1    0    0    0    0  0.00000000000E+00  0.00000000000E+00  0.45593999997E+02  0.45594000000E+02  0.51100000000E-03 0. -1.
         11   -1    0    0    0    0 -0.00000000000E+00 -0.00000000000E+00 -0.45593999997E+02  0.45594000000E+02  0.51100000000E-03 0.  1.
    9900012    2    1    2    0    0  0.42598545518E+00 -0.78441500352E+00 -0.77216758474E+00  0.90007740162E+02  0.90000001532E+02 0.  0.
        -12    1    1    2    0    0 -0.42598545518E+00  0.78441500352E+00  0.77216758474E+00  0.11802598378E+01  0.00000000000E+00 0.  1.
         11    1    3    3    0    0  0.12236575432E+02 -0.97240581764E+01  0.35801612316E+02  0.39064645530E+02  0.51100000000E-03 0. -1.
        -11    1    3    3    0    0  0.63333852183E+01 -0.81912252307E+01 -0.86263174085E+01  0.13476694379E+02  0.51100000000E-03 0.  1.
        -12    1    3    3    0    0 -0.18143975196E+02  0.17130868404E+02 -0.27947462492E+02  0.37466400253E+02  0.00000000000E+00 0.  1.
</event>
<event>
 7    1  0.1654239E-015  0.9000771E+02  0.7816164E-02  0.1186339E+00
        -11   -1    0    0    0    0  0.00000000000E+00  0.00000000000E+00  0.45593999997E+02  0.45594000000E+02  0.51100000000E-03 0. -1.
         11   -1    0    0    0    0 -0.00000000000E+00 -0.00000000000E+00 -0.45593999997E+02  0.45594000000E+02  0.51100000000E-03 0.  1.
    9900012    2    1    2    0    0 -0.26752192723E+00 -0.82796408859E+00 -0.79748728713E+00  0.90007712541E+02  0.89999973546E+02 0.  0.
        -12    1    1    2    0    0  0.26752192723E+00  0.82796408859E+00  0.79748728713E+00  0.11802874593E+01  0.00000000000E+00 0.  1.
         11    1    3    3    0    0 -0.12815402554E+02  0.25315771536E+02  0.24988463843E+02  0.37809339542E+02  0.51100000000E-03 0. -1.
        -11    1    3    3    0    0  0.25186012393E+01  0.86532465041E+01 -0.34469164969E+01  0.96490031020E+01  0.51100000000E-03 0.  1.
        -12    1    3    3    0    0  0.10029279388E+02 -0.34796982129E+02 -0.22339034633E+02  0.42549369897E+02  0.00000000000E+00 0.  1.
</event>
<event>
 7    1  0.1654239E-015  0.9000752E+02  0.7816164E-02  0.1186339E+00
        -11   -1    0    0    0    0  0.00000000000E+00  0.00000000000E+00  0.45593999997E+02  0.45594000000E+02  0.51100000000E-03 0.  1.
         11   -1    0    0    0    0 -0.00000000000E+00 -0.00000000000E+00 -0.45593999997E+02  0.45594000000E+02  0.51100000000E-03 0. -1.
    9900012    2    1    2    0    0  0.15237823017E+00 -0.29565637496E+00 -0.11326518088E+01  0.90007520463E+02  0.89999778933E+02 0.  0.
        -12    1    1    2    0    0 -0.15237823017E+00  0.29565637496E+00  0.11326518088E+01  0.11804795369E+01  0.00000000000E+00 0.  1.
         11    1    3    3    0    0 -0.10796212617E+01  0.65373748758E+01  0.83333405556E+01  0.10646474412E+02  0.51100000000E-03 0. -1.
        -11    1    3    3    0    0 -0.34443380116E+01 -0.33687601403E+01  0.34589196656E+02  0.34923123210E+02  0.51100000000E-03 0.  1.
         12    1    3    3    0    0  0.46763375035E+01 -0.34642711105E+01 -0.44055189020E+02  0.44437922840E+02  0.00000000000E+00 0. -1.
</event>
<event>
 7    1  0.1654239E-015  0.9000764E+02  0.7816164E-02  0.1186339E+00
        -11   -1    0    0    0    0  0.00000000000E+00  0.00000000000E+00  0.45593999997E+02  0.45594000000E+02  0.51100000000E-03 0. -1.
         11   -1    0    0    0    0 -0.00000000000E+00 -0.00000000000E+00 -0.45593999997E+02  0.45594000000E+02  0.51100000000E-03 0.  1.
    9900012    2    1    2    0    0 -0.78364811110E+00 -0.56672482481E-01  0.88086764001E+00  0.90007642456E+02  0.89999902536E+02 0.  0.
        -12    1    1    2    0    0  0.78364811110E+00  0.56672482481E-01 -0.88086764001E+00  0.11803575439E+01  0.00000000000E+00 0.  1.
         11    1    3    3    0    0 -0.10760762176E+02 -0.33777408686E+02  0.15116244649E+02  0.38538398938E+02  0.51100000000E-03 0. -1.
        -11    1    3    3    0    0 -0.88477546508E+01 -0.18448444822E+01 -0.92776908717E+00  0.90855362673E+01  0.51100000000E-03 0.  1.
        -12    1    3    3    0    0  0.18824868716E+02  0.35565580686E+02 -0.13307607922E+02  0.42383707251E+02  0.00000000000E+00 0.  1.
</event>
<event>
 7    1  0.1654239E-015  0.9000775E+02  0.7816164E-02  0.1186339E+00
        -11   -1    0    0    0    0  0.00000000000E+00  0.00000000000E+00  0.45593999997E+02  0.45594000000E+02  0.51100000000E-03 0.  1.
         11   -1    0    0    0    0 -0.00000000000E+00 -0.00000000000E+00 -0.45593999997E+02  0.45594000000E+02  0.51100000000E-03 0. -1.
    9900012    2    1    2    0    0 -0.60533464956E+00  0.10125692068E+01 -0.35449113773E-01  0.90007752960E+02  0.90000014499E+02 0.  0.
        -12    1    1    2    0    0  0.60533464956E+00 -0.10125692068E+01  0.35449113773E-01  0.11802470403E+01  0.00000000000E+00 0.  1.
         11    1    3    3    0    0  0.65420073992E+00 -0.11173612897E+02 -0.41991105003E+02  0.43457226135E+02  0.51100000000E-03 0. -1.
        -11    1    3    3    0    0 -0.59112193632E+01  0.32429821376E+01  0.54231946891E+01  0.86527734514E+01  0.51100000000E-03 0.  1.
        -12    1    3    3    0    0  0.46516839737E+01  0.89431999658E+01  0.36532461200E+02  0.37897753373E+02  0.00000000000E+00 0.  1.
</event>
<event>
 7    1  0.1654239E-015  0.9000769E+02  0.7816164E-02  0.1186339E+00
        -11   -1    0    0    0    0  0.00000000000E+00  0.00000000000E+00  0.45593999997E+02  0.45594000000E+02  0.51100000000E-03 0.  1.
         11   -1    0    0    0    0 -0.00000000000E+00 -0.00000000000E+00 -0.45593999997E+02  0.45594000000E+02  0.51100000000E-03 0. -1.
    9900012    2    1    2    0    0  0.11785606025E+01  0.52595394738E-01  0.36820147354E-01  0.90007691950E+02  0.89999952684E+02 0.  0.
        -12    1    1    2    0    0 -0.11785606025E+01 -0.52595394738E-01 -0.36820147354E-01  0.11803080498E+01  0.00000000000E+00 0.  1.
         11    1    3    3    0    0  0.14100418702E+02  0.56597694086E+01  0.24735927028E+02  0.29029655243E+02  0.51100000000E-03 0. -1.
        -11    1    3    3    0    0 -0.76168774120E+01  0.13164126449E+02  0.12029237219E+02  0.19391069982E+02  0.51100000000E-03 0.  1.
        -12    1    3    3    0    0 -0.53049806875E+01 -0.18771300463E+02 -0.36728344100E+02  0.41586966726E+02  0.00000000000E+00 0.  1.
</event>
<event>
 7    1  0.1654239E-015  0.9000779E+02  0.7816164E-02  0.1186339E+00
        -11   -1    0    0    0    0  0.00000000000E+00  0.00000000000E+00  0.45593999997E+02  0.45594000000E+02  0.51100000000E-03 0. -1.
         11   -1    0    0    0    0 -0.00000000000E+00 -0.00000000000E+00 -0.45593999997E+02  0.45594000000E+02  0.51100000000E-03 0.  1.
    9900012    2    1    2    0    0  0.67831341812E+00  0.87606073602E+00 -0.40658922172E+00  0.90007785485E+02  0.90000047453E+02 0.  0.
        -12    1    1    2    0    0 -0.67831341812E+00 -0.87606073602E+00  0.40658922172E+00  0.11802145151E+01  0.00000000000E+00 0.  1.
         11    1    3    3    0    0  0.18448553773E+02  0.23796726017E+02  0.24368219860E+02  0.38735557887E+02  0.51100000000E-03 0. -1.
        -11    1    3    3    0    0 -0.80939430010E+01  0.48316139131E+01  0.39085274859E+01  0.10204557495E+02  0.51100000000E-03 0.  1.
        -12    1    3    3    0    0 -0.96762973539E+01 -0.27752279194E+02 -0.28683336568E+02  0.41067670102E+02  0.00000000000E+00 0.  1.
</event>
<event>
 7    1  0.1654239E-015  0.9000766E+02  0.7816164E-02  0.1186339E+00
        -11   -1    0    0    0    0  0.00000000000E+00  0.00000000000E+00  0.45593999997E+02  0.45594000000E+02  0.51100000000E-03 0.  1.
         11   -1    0    0    0    0 -0.00000000000E+00 -0.00000000000E+00 -0.45593999997E+02  0.45594000000E+02  0.51100000000E-03 0. -1.
    9900012    2    1    2    0    0  0.66410936517E+00 -0.55869461588E+00 -0.80001704348E+00  0.90007657595E+02  0.89999917875E+02 0.  0.
        -12    1    1    2    0    0 -0.66410936517E+00  0.55869461588E+00  0.80001704348E+00  0.11803424048E+01  0.00000000000E+00 0.  1.
         11    1    3    3    0    0 -0.10890599279E+02  0.22527716701E+02  0.15232558203E+02  0.29293924320E+02  0.51100000000E-03 0. -1.
        -11    1    3    3    0    0 -0.96069510019E+01  0.12849653955E+02 -0.27130838335E-01  0.16043935012E+02  0.51100000000E-03 0.  1.
        -12    1    3    3    0    0  0.21161659646E+02 -0.35936065272E+02 -0.16005444408E+02  0.44669798263E+02  0.00000000000E+00 0.  1.
</event>
<event>
 7    1  0.1654239E-015  0.9000784E+02  0.7816164E-02  0.1186339E+00
        -11   -1    0    0    0    0  0.00000000000E+00  0.00000000000E+00  0.45593999997E+02  0.45594000000E+02  0.51100000000E-03 0.  1.
         11   -1    0    0    0    0 -0.00000000000E+00 -0.00000000000E+00 -0.45593999997E+02  0.45594000000E+02  0.51100000000E-03 0. -1.
    9900012    2    1    2    0    0 -0.60282941349E+00  0.98114078801E+00 -0.25833658001E+00  0.90007839699E+02  0.90000102383E+02 0.  0.
        -12    1    1    2    0    0  0.60282941349E+00 -0.98114078801E+00  0.25833658001E+00  0.11801603011E+01  0.00000000000E+00 0.  1.
         11    1    3    3    0    0 -0.14047759012E+00  0.62759471761E+01 -0.95775158633E+01  0.11451465290E+02  0.51100000000E-03 0. -1.
        -11    1    3    3    0    0 -0.11620275687E+02 -0.39917708163E+02  0.63804169073E+01  0.42061430696E+02  0.51100000000E-03 0.  1.
         12    1    3    3    0    0  0.11157923864E+02  0.34622901775E+02  0.29387623760E+01  0.36494943713E+02  0.00000000000E+00 0. -1.
</event>
<event>
 7    1  0.1654239E-015  0.9000770E+02  0.7816164E-02  0.1186339E+00
        -11   -1    0    0    0    0  0.00000000000E+00  0.00000000000E+00  0.45593999997E+02  0.45594000000E+02  0.51100000000E-03 0. -1.
         11   -1    0    0    0    0 -0.00000000000E+00 -0.00000000000E+00 -0.45593999997E+02  0.45594000000E+02  0.51100000000E-03 0.  1.
    9900012    2    1    2    0    0  0.62445718063E+00 -0.17007848207E+00  0.98703047829E+00  0.90007702315E+02  0.89999963185E+02 0.  0.
        -12    1    1    2    0    0 -0.62445718063E+00  0.17007848207E+00 -0.98703047829E+00  0.11802976852E+01  0.00000000000E+00 0.  1.
         11    1    3    3    0    0 -0.55388700146E+01  0.34975474613E+02  0.73444190684E+01  0.36164947078E+02  0.51100000000E-03 0. -1.
        -11    1    3    3    0    0  0.10605292653E+01  0.79975809228E+01  0.42558236063E+01  0.91212969346E+01  0.51100000000E-03 0.  1.
        -12    1    3    3    0    0  0.51027979299E+01 -0.43143134018E+02 -0.10613212196E+02  0.44721458302E+02  0.00000000000E+00 0.  1.
</event>
<event>
 7    1  0.1654239E-015  0.9000777E+02  0.7816164E-02  0.1186339E+00
        -11   -1    0    0    0    0  0.00000000000E+00  0.00000000000E+00  0.45593999997E+02  0.45594000000E+02  0.51100000000E-03 0. -1.
         11   -1    0    0    0    0 -0.00000000000E+00 -0.00000000000E+00 -0.45593999997E+02  0.45594000000E+02  0.51100000000E-03 0.  1.
    9900012    2    1    2    0    0 -0.92010248434E+00 -0.60263008263E+00  0.42800780818E+00  0.90007770242E+02  0.90000032009E+02 0.  0.
        -12    1    1    2    0    0  0.92010248434E+00  0.60263008263E+00 -0.42800780818E+00  0.11802297582E+01  0.00000000000E+00 0.  1.
         11    1    3    3    0    0 -0.13422301803E+02  0.13542632500E+02  0.30106274303E+02  0.35636341471E+02  0.51100000000E-03 0. -1.
        -11    1    3    3    0    0 -0.99335551921E+01 -0.11366111533E+02  0.22374167269E+01  0.15260080078E+02  0.51100000000E-03 0.  1.
        -12    1    3    3    0    0  0.22435754511E+02 -0.27791510499E+01 -0.31915683222E+02  0.39111348693E+02  0.00000000000E+00 0.  1.
</event>
<event>
 7    1  0.1654239E-015  0.9000780E+02  0.7816164E-02  0.1186339E+00
        -11   -1    0    0    0    0  0.00000000000E+00  0.00000000000E+00  0.45593999997E+02  0.45594000000E+02  0.51100000000E-03 0.  1.
         11   -1    0    0    0    0 -0.00000000000E+00 -0.00000000000E+00 -0.45593999997E+02  0.45594000000E+02  0.51100000000E-03 0. -1.
    9900012    2    1    2    0    0 -0.10706955089E+01 -0.48755836480E-01 -0.49407652515E+00  0.90007797637E+02  0.90000059766E+02 0.  0.
        -12    1    1    2    0    0  0.10706955089E+01  0.48755836480E-01  0.49407652515E+00  0.11802023628E+01  0.00000000000E+00 0.  1.
         11    1    3    3    0    0  0.56473181190E+01 -0.14455771973E+01  0.67727752514E+01  0.89360159040E+01  0.51100000000E-03 0. -1.
        -11    1    3    3    0    0  0.10345053579E+02 -0.30199940966E+02 -0.25445326620E+02  0.40823047595E+02  0.51100000000E-03 0.  1.
         12    1    3    3    0    0 -0.17063067207E+02  0.31596762327E+02  0.18178474844E+02  0.40248734138E+02  0.00000000000E+00 0. -1.
</event>
<event>
 7    1  0.1654239E-015  0.9000898E+02  0.7816164E-02  0.1186337E+00
        -11   -1    0    0    0    0  0.00000000000E+00  0.00000000000E+00  0.45593999997E+02  0.45594000000E+02  0.51100000000E-03 0.  1.
         11   -1    0    0    0    0 -0.00000000000E+00 -0.00000000000E+00 -0.45593999997E+02  0.45594000000E+02  0.51100000000E-03 0. -1.
    9900012    2    1    2    0    0 -0.90715827143E+00 -0.68232790689E+00 -0.31870034591E+00  0.90008984558E+02  0.90001262345E+02 0.  0.
        -12    1    1    2    0    0  0.90715827143E+00  0.68232790689E+00  0.31870034591E+00  0.11790154420E+01  0.00000000000E+00 0.  1.
         11    1    3    3    0    0 -0.30761197897E+02 -0.22424505048E+02  0.33111601319E+01  0.38210908186E+02  0.51100000000E-03 0. -1.
        -11    1    3    3    0    0  0.28029156328E+01 -0.32873449245E+01  0.11251762683E+02  0.12052598742E+02  0.51100000000E-03 0.  1.
        -12    1    3    3    0    0  0.27051123993E+02  0.25029522066E+02 -0.14881623160E+02  0.39745477630E+02  0.00000000000E+00 0.  1.
</event>
<event>
 7    1  0.1654239E-015  0.9000726E+02  0.7816164E-02  0.1186340E+00
        -11   -1    0    0    0    0  0.00000000000E+00  0.00000000000E+00  0.45593999997E+02  0.45594000000E+02  0.51100000000E-03 0. -1.
         11   -1    0    0    0    0 -0.00000000000E+00 -0.00000000000E+00 -0.45593999997E+02  0.45594000000E+02  0.51100000000E-03 0.  1.
    9900012    2    1    2    0    0  0.11425911459E+01 -0.91242485305E-01 -0.28338218722E+00  0.90007260748E+02  0.89999515788E+02 0.  0.
        -12    1    1    2    0    0 -0.11425911459E+01  0.91242485305E-01  0.28338218722E+00  0.11807392523E+01  0.00000000000E+00 0.  1.
         11    1    3    3    0    0 -0.16742649788E+02  0.79423108284E+01  0.31438002494E+02  0.36493076389E+02  0.51100000000E-03 0. -1.
        -11    1    3    3    0    0 -0.20174837827E+01  0.25687886868E+01  0.75513977831E+01  0.82275467103E+01  0.51100000000E-03 0.  1.
        -12    1    3    3    0    0  0.19902724716E+02 -0.10602342001E+02 -0.39272782464E+02  0.45286637649E+02  0.00000000000E+00 0.  1.
</event>
<event>
 7    1  0.1654239E-015  0.9000763E+02  0.7816164E-02  0.1186339E+00
        -11   -1    0    0    0    0  0.00000000000E+00  0.00000000000E+00  0.45593999997E+02  0.45594000000E+02  0.51100000000E-03 0.  1.
         11   -1    0    0    0    0 -0.00000000000E+00 -0.00000000000E+00 -0.45593999997E+02  0.45594000000E+02  0.51100000000E-03 0. -1.
    9900012    2    1    2    0    0 -0.27777931403E+00 -0.26145175336E+00 -0.11170272032E+01  0.90007632202E+02  0.89999892147E+02 0.  0.
        -12    1    1    2    0    0  0.27777931403E+00  0.26145175336E+00  0.11170272032E+01  0.11803677983E+01  0.00000000000E+00 0.  1.
         11    1    3    3    0    0  0.53232690581E+01  0.84761069644E+01 -0.79114606647E+00  0.10040293576E+02  0.51100000000E-03 0. -1.
        -11    1    3    3    0    0  0.83041758869E+01  0.25798183329E+02  0.23411775419E+02  0.35813640262E+02  0.51100000000E-03 0.  1.
         12    1    3    3    0    0 -0.13905224259E+02 -0.34535742047E+02 -0.23737656556E+02  0.44153698364E+02  0.00000000000E+00 0. -1.
</event>
<event>
 7    1  0.1654239E-015  0.9000772E+02  0.7816164E-02  0.1186339E+00
        -11   -1    0    0    0    0  0.00000000000E+00  0.00000000000E+00  0.45593999997E+02  0.45594000000E+02  0.51100000000E-03 0.  1.
         11   -1    0    0    0    0 -0.00000000000E+00 -0.00000000000E+00 -0.45593999997E+02  0.45594000000E+02  0.51100000000E-03 0. -1.
    9900012    2    1    2    0    0  0.74555545005E+00  0.75737023547E+00 -0.51341125784E+00  0.90007723032E+02  0.89999984176E+02 0.  0.
        -12    1    1    2    0    0 -0.74555545005E+00 -0.75737023547E+00  0.51341125784E+00  0.11802769685E+01  0.00000000000E+00 0.  1.
         11    1    3    3    0    0  0.39848908196E+02 -0.11960409702E+02 -0.20349209899E+01  0.41654865122E+02  0.51100000000E-03 0. -1.
        -11    1    3    3    0    0 -0.21502539906E+00  0.75777348577E+01  0.48272741306E+01  0.89872619462E+01  0.51100000000E-03 0.  1.
        -12    1    3    3    0    0 -0.38888327347E+02  0.51400450797E+01 -0.33057643985E+01  0.39365595963E+02  0.00000000000E+00 0.  1.
</event>
<event>
 7    1  0.1654239E-015  0.9000785E+02  0.7816164E-02  0.1186339E+00
        -11   -1    0    0    0    0  0.00000000000E+00  0.00000000000E+00  0.45593999997E+02  0.45594000000E+02  0.51100000000E-03 0.  1.
         11   -1    0    0    0    0 -0.00000000000E+00 -0.00000000000E+00 -0.45593999997E+02  0.45594000000E+02  0.51100000000E-03 0. -1.
    9900012    2    1    2    0    0 -0.94651339133E+00 -0.30508481569E+00  0.63544889985E+00  0.90007847616E+02  0.90000110405E+02 0.  0.
        -12    1    1    2    0    0  0.94651339133E+00  0.30508481569E+00 -0.63544889985E+00  0.11801523838E+01  0.00000000000E+00 0.  1.
         11    1    3    3    0    0 -0.28680971234E+02  0.21543026311E+02 -0.16338950153E+02  0.39416511590E+02  0.51100000000E-03 0. -1.
        -11    1    3    3    0    0 -0.65097531462E+01 -0.74701161519E+01  0.38902532235E+00  0.99161919258E+01  0.51100000000E-03 0.  1.
        -12    1    3    3    0    0  0.34244210989E+02 -0.14377994975E+02  0.16585373731E+02  0.40675144100E+02  0.00000000000E+00 0.  1.
</event>
<event>
 7    1  0.1654239E-015  0.9000771E+02  0.7816164E-02  0.1186339E+00
        -11   -1    0    0    0    0  0.00000000000E+00  0.00000000000E+00  0.45593999997E+02  0.45594000000E+02  0.51100000000E-03 0. -1.
         11   -1    0    0    0    0 -0.00000000000E+00 -0.00000000000E+00 -0.45593999997E+02  0.45594000000E+02  0.51100000000E-03 0.  1.
    9900012    2    1    2    0    0  0.36304031139E+00  0.45812676547E+00  0.10253856418E+01  0.90007705920E+02  0.89999966838E+02 0.  0.
        -12    1    1    2    0    0 -0.36304031139E+00 -0.45812676547E+00 -0.10253856418E+01  0.11802940800E+01  0.00000000000E+00 0.  1.
         11    1    3    3    0    0  0.90899309618E+01  0.25122744339E+01 -0.24787824830E+01  0.97510374105E+01  0.51100000000E-03 0. -1.
        -11    1    3    3    0    0 -0.44066901757E+02 -0.15196041552E+01 -0.34761807748E+01  0.44229909114E+02  0.51100000000E-03 0.  1.
         12    1    3    3    0    0  0.35340011106E+02 -0.53454351329E+00  0.69803488996E+01  0.36026759395E+02  0.00000000000E+00 0. -1.
</event>
<event>
 7    1  0.1654239E-015  0.9000784E+02  0.7816164E-02  0.1186339E+00
        -11   -1    0    0    0    0  0.00000000000E+00  0.00000000000E+00  0.45593999997E+02  0.45594000000E+02  0.51100000000E-03 0.  1.
         11   -1    0    0    0    0 -0.00000000000E+00 -0.00000000000E+00 -0.45593999997E+02  0.45594000000E+02  0.51100000000E-03 0. -1.
    9900012    2    1    2    0    0  0.39270288712E+00 -0.25467166144E+00 -0.10833730977E+01  0.90007843027E+02  0.90000105755E+02 0.  0.
        -12    1    1    2    0    0 -0.39270288712E+00  0.25467166144E+00  0.10833730977E+01  0.11801569732E+01  0.00000000000E+00 0.  1.
         11    1    3    3    0    0 -0.29891979522E+01 -0.27093119936E+02  0.26943113845E+02  0.38326281273E+02  0.51100000000E-03 0. -1.
        -11    1    3    3    0    0 -0.80881365116E+01 -0.42848839179E+00  0.31629731346E+01  0.86951684195E+01  0.51100000000E-03 0.  1.
        -12    1    3    3    0    0  0.11470037351E+02  0.27266936667E+02 -0.31189460077E+02  0.42986393335E+02  0.00000000000E+00 0.  1.
</event>
<event>
 7    1  0.1654239E-015  0.9000684E+02  0.7816164E-02  0.1186341E+00
        -11   -1    0    0    0    0  0.00000000000E+00  0.00000000000E+00  0.45593999997E+02  0.45594000000E+02  0.51100000000E-03 0. -1.
         11   -1    0    0    0    0 -0.00000000000E+00 -0.00000000000E+00 -0.45593999997E+02  0.45594000000E+02  0.51100000000E-03 0.  1.
    9900012    2    1    2    0    0  0.50982797253E+00 -0.84838591667E+00  0.64455793475E+00  0.90006840334E+02  0.89999089822E+02 0.  0.
        -12    1    1    2    0    0 -0.50982797253E+00  0.84838591667E+00 -0.64455793475E+00  0.11811596659E+01  0.00000000000E+00 0.  1.
         11    1    3    3    0    0  0.16666679519E+02  0.31614182049E+02  0.15649809894E+02  0.39014756988E+02  0.51100000000E-03 0. -1.
        -11    1    3    3    0    0  0.84698947236E+01 -0.15289815684E+01 -0.58496821390E+01  0.10406521160E+02  0.51100000000E-03 0.  1.
        -12    1    3    3    0    0 -0.24626746270E+02 -0.30933586398E+02 -0.91555698205E+01  0.40585562186E+02  0.00000000000E+00 0.  1.
</event>
<event>
 7    1  0.1654239E-015  0.9000769E+02  0.7816164E-02  0.1186339E+00
        -11   -1    0    0    0    0  0.00000000000E+00  0.00000000000E+00  0.45593999997E+02  0.45594000000E+02  0.51100000000E-03 0. -1.
         11   -1    0    0    0    0 -0.00000000000E+00 -0.00000000000E+00 -0.45593999997E+02  0.45594000000E+02  0.51100000000E-03 0.  1.
    9900012    2    1    2    0    0  0.80790177565E+00 -0.20800600093E-01 -0.86022827635E+00  0.90007690451E+02  0.89999951165E+02 0.  0.
        -12    1    1    2    0    0 -0.80790177565E+00  0.20800600093E-01  0.86022827635E+00  0.11803095490E+01  0.00000000000E+00 0.  1.
         11    1    3    3    0    0 -0.94499242007E+01 -0.21864594348E+01  0.12253006852E+01  0.97766576236E+01  0.51100000000E-03 0. -1.
        -11    1    3    3    0    0  0.17636571355E+02  0.10528966351E+02  0.35506316900E+02  0.41019584611E+02  0.51100000000E-03 0.  1.
         12    1    3    3    0    0 -0.73787453790E+01 -0.83633075163E+01 -0.37591845861E+02  0.39211448217E+02  0.00000000000E+00 0. -1.
</event>
<event>
 7    1  0.1654239E-015  0.9000770E+02  0.7816164E-02  0.1186339E+00
        -11   -1    0    0    0    0  0.00000000000E+00  0.00000000000E+00  0.45593999997E+02  0.45594000000E+02  0.51100000000E-03 0. -1.
         11   -1    0    0    0    0 -0.00000000000E+00 -0.00000000000E+00 -0.45593999997E+02  0.45594000000E+02  0.51100000000E-03 0.  1.
    9900012    2    1    2    0    0 -0.60776641949E+00 -0.10116391191E+01  0.17651105502E-01  0.90007701186E+02  0.89999962042E+02 0.  0.
        -12    1    1    2    0    0  0.60776641949E+00  0.10116391191E+01 -0.17651105502E-01  0.11802988136E+01  0.00000000000E+00 0.  1.
         11    1    3    3    0    0  0.14803032582E+02  0.22688722135E+02  0.28068865479E+02  0.39009858950E+02  0.51100000000E-03 0. -1.
        -11    1    3    3    0    0  0.65619794840E+01 -0.18580592512E+01  0.27098076874E+01  0.73385977470E+01  0.51100000000E-03 0.  1.
        -12    1    3    3    0    0 -0.21972778486E+02 -0.21842302003E+02 -0.30761022060E+02  0.43659244489E+02  0.00000000000E+00 0.  1.
</event>
<event>
 7    1  0.1654239E-015  0.9000774E+02  0.7816164E-02  0.1186339E+00
        -11   -1    0    0    0    0  0.00000000000E+00  0.00000000000E+00  0.45593999997E+02  0.45594000000E+02  0.51100000000E-03 0. -1.
         11   -1    0    0    0    0 -0.00000000000E+00 -0.00000000000E+00 -0.45593999997E+02  0.45594000000E+02  0.51100000000E-03 0.  1.
    9900012    2    1    2    0    0 -0.91760917719E+00  0.70518239938E+00  0.23181106669E+00  0.90007735119E+02  0.89999996423E+02 0.  0.
        -12    1    1    2    0    0  0.91760917719E+00 -0.70518239938E+00 -0.23181106669E+00  0.11802648809E+01  0.00000000000E+00 0.  1.
         11    1    3    3    0    0  0.74622777880E+01  0.20590023803E+01 -0.81450032215E+01  0.11236821540E+02  0.51100000000E-03 0. -1.
        -11    1    3    3    0    0  0.26554882710E+01  0.18035125019E+02 -0.29578348697E+02  0.34744727144E+02  0.51100000000E-03 0.  1.
         12    1    3    3    0    0 -0.11035375236E+02 -0.19388945000E+02  0.37955162985E+02  0.44026186435E+02  0.00000000000E+00 0. -1.
</event>
<event>
 7    1  0.1654239E-015  0.9000775E+02  0.7816164E-02  0.1186339E+00
        -11   -1    0    0    0    0  0.00000000000E+00  0.00000000000E+00  0.45593999997E+02  0.45594000000E+02  0.51100000000E-03 0.  1.
         11   -1    0    0    0    0 -0.00000000000E+00 -0.00000000000E+00 -0.45593999997E+02  0.45594000000E+02  0.51100000000E-03 0. -1.
    9900012    2    1    2    0    0  0.70357268251E+00 -0.89819340848E+00 -0.30203670276E+00  0.90007749142E+02  0.90000010630E+02 0.  0.
        -12    1    1    2    0    0 -0.70357268251E+00  0.89819340848E+00  0.30203670276E+00  0.11802508583E+01  0.00000000000E+00 0.  1.
         11    1    3    3    0    0 -0.31276378212E+02  0.24676343786E+02  0.11041371365E+02  0.41340605445E+02  0.51100000000E-03 0. -1.
        -11    1    3    3    0    0  0.10725077603E+02 -0.11098372455E+00  0.48327678090E+01  0.11764151135E+02  0.51100000000E-03 0.  1.
        -12    1    3    3    0    0  0.21254873292E+02 -0.25463553470E+02 -0.16176175877E+02  0.36902992561E+02  0.00000000000E+00 0.  1.
</event>
<event>
 7    1  0.1654239E-015  0.9000829E+02  0.7816164E-02  0.1186338E+00
        -11   -1    0    0    0    0  0.00000000000E+00  0.00000000000E+00  0.45593999997E+02  0.45594000000E+02  0.51100000000E-03 0.  1.
         11   -1    0    0    0    0 -0.00000000000E+00 -0.00000000000E+00 -0.45593999997E+02  0.45594000000E+02  0.51100000000E-03 0. -1.
    9900012    2    1    2    0    0 -0.10027618017E-02 -0.55133924166E+00 -0.10429525477E+01  0.90008285636E+02  0.90000554204E+02 0.  0.
        -12    1    1    2    0    0  0.10027618017E-02  0.55133924166E+00  0.10429525477E+01  0.11797143644E+01  0.00000000000E+00 0.  1.
         11    1    3    3    0    0 -0.27686875579E+02 -0.62468243576E+01 -0.20722443243E+02  0.35142645718E+02  0.51100000000E-03 0. -1.
        -11    1    3    3    0    0 -0.45044460597E+01  0.10015881996E+02 -0.68374907428E+01  0.12936738630E+02  0.51100000000E-03 0.  1.
        -12    1    3    3    0    0  0.32190318877E+02 -0.43203968802E+01  0.26516981438E+02  0.41928901287E+02  0.00000000000E+00 0.  1.
</event>
<event>
 7    1  0.1654239E-015  0.9000778E+02  0.7816164E-02  0.1186339E+00
        -11   -1    0    0    0    0  0.00000000000E+00  0.00000000000E+00  0.45593999997E+02  0.45594000000E+02  0.51100000000E-03 0.  1.
         11   -1    0    0    0    0 -0.00000000000E+00 -0.00000000000E+00 -0.45593999997E+02  0.45594000000E+02  0.51100000000E-03 0. -1.
    9900012    2    1    2    0    0 -0.78734062098E+00 -0.87244364154E+00 -0.10886392452E+00  0.90007782005E+02  0.90000043928E+02 0.  0.
        -12    1    1    2    0    0  0.78734062098E+00  0.87244364154E+00  0.10886392452E+00  0.11802179948E+01  0.00000000000E+00 0.  1.
         11    1    3    3    0    0  0.25411015382E+02 -0.23221363686E+02 -0.12629649293E+02  0.36666871638E+02  0.51100000000E-03 0. -1.
        -11    1    3    3    0    0  0.76672182937E+01  0.35028235116E+01 -0.60393228472E+01  0.10369639802E+02  0.51100000000E-03 0.  1.
        -12    1    3    3    0    0 -0.33865574297E+02  0.18846096533E+02  0.18560108216E+02  0.42971270565E+02  0.00000000000E+00 0.  1.
</event>
<event>
 7    1  0.1654239E-015  0.9000773E+02  0.7816164E-02  0.1186339E+00
        -11   -1    0    0    0    0  0.00000000000E+00  0.00000000000E+00  0.45593999997E+02  0.45594000000E+02  0.51100000000E-03 0. -1.
         11   -1    0    0    0    0 -0.00000000000E+00 -0.00000000000E+00 -0.45593999997E+02  0.45594000000E+02  0.51100000000E-03 0.  1.
    9900012    2    1    2    0    0  0.92524880400E+00  0.71688066862E+00 -0.15179081016E+00  0.90007727280E+02  0.89999988481E+02 0.  0.
        -12    1    1    2    0    0 -0.92524880400E+00 -0.71688066862E+00  0.15179081016E+00  0.11802727195E+01  0.00000000000E+00 0.  1.
         11    1    3    3    0    0 -0.17261518593E+01  0.42267055597E+01  0.10983027496E+02  0.11894180651E+02  0.51100000000E-03 0. -1.
        -11    1    3    3    0    0 -0.61959594961E+01  0.35656612010E+02  0.87873434986E+00  0.36201603120E+02  0.51100000000E-03 0.  1.
         12    1    3    3    0    0  0.88473601595E+01 -0.39166436901E+02 -0.12013552656E+02  0.41911943509E+02  0.00000000000E+00 0. -1.
</event>
<event>
 7    1  0.1654239E-015  0.9000773E+02  0.7816164E-02  0.1186339E+00
        -11   -1    0    0    0    0  0.00000000000E+00  0.00000000000E+00  0.45593999997E+02  0.45594000000E+02  0.51100000000E-03 0.  1.
         11   -1    0    0    0    0 -0.00000000000E+00 -0.00000000000E+00 -0.45593999997E+02  0.45594000000E+02  0.51100000000E-03 0. -1.
    9900012    2    1    2    0    0  0.67553199332E+00 -0.61183787762E+00 -0.74989432202E+00  0.90007732845E+02  0.89999994119E+02 0.  0.
        -12    1    1    2    0    0 -0.67553199332E+00  0.61183787762E+00  0.74989432202E+00  0.11802671548E+01  0.00000000000E+00 0.  1.
         11    1    3    3    0    0 -0.23931702784E+01 -0.90424066400E+00 -0.37679924236E+02  0.37766673217E+02  0.51100000000E-03 0. -1.
        -11    1    3    3    0    0 -0.54465619617E+01 -0.40401243845E+01 -0.55107437923E+01  0.87381885794E+01  0.51100000000E-03 0.  1.
        -12    1    3    3    0    0  0.85152642334E+01  0.43325271709E+01  0.42440773707E+02  0.43502871049E+02  0.00000000000E+00 0.  1.
</event>
<event>
 7    1  0.1654239E-015  0.9000773E+02  0.7816164E-02  0.1186339E+00
        -11   -1    0    0    0    0  0.00000000000E+00  0.00000000000E+00  0.45593999997E+02  0.45594000000E+02  0.51100000000E-03 0.  1.
         11   -1    0    0    0    0 -0.00000000000E+00 -0.00000000000E+00 -0.45593999997E+02  0.45594000000E+02  0.51100000000E-03 0. -1.
    9900012    2    1    2    0    0  0.77368779715E+00 -0.78980500484E+00 -0.41311237084E+00  0.90007726055E+02  0.89999987239E+02 0.  0.
        -12    1    1    2    0    0 -0.77368779715E+00  0.78980500484E+00  0.41311237084E+00  0.11802739445E+01  0.00000000000E+00 0.  1.
         11    1    3    3    0    0  0.13206943487E+02 -0.71849608738E+01 -0.15878367643E+00  0.15035698572E+02  0.51100000000E-03 0. -1.
        -11    1    3    3    0    0  0.16769882576E+02 -0.24727705837E+02 -0.94056774582E+01  0.31323396468E+02  0.51100000000E-03 0.  1.
         12    1    3    3    0    0 -0.29203138266E+02  0.31122861706E+02  0.91513487638E+01  0.43648631016E+02  0.00000000000E+00 0. -1.
</event>
<event>
 7    1  0.1654239E-015  0.9000771E+02  0.7816164E-02  0.1186339E+00
        -11   -1    0    0    0    0  0.00000000000E+00  0.00000000000E+00  0.45593999997E+02  0.45594000000E+02  0.51100000000E-03 0. -1.
         11   -1    0    0    0    0 -0.00000000000E+00 -0.00000000000E+00 -0.45593999997E+02  0.45594000000E+02  0.51100000000E-03 0.  1.
    9900012    2    1    2    0    0  0.46628993951E+00  0.65085760237E+00  0.86719746173E+00  0.90007714711E+02  0.89999975745E+02 0.  0.
        -12    1    1    2    0    0 -0.46628993951E+00 -0.65085760237E+00 -0.86719746173E+00  0.11802852892E+01  0.00000000000E+00 0.  1.
         11    1    3    3    0    0  0.32871018554E+02 -0.18846795618E+02  0.18845981111E+01  0.37937544414E+02  0.51100000000E-03 0. -1.
        -11    1    3    3    0    0  0.77781452716E+01  0.50907136389E+01  0.90138078383E+00  0.93395608461E+01  0.51100000000E-03 0.  1.
        -12    1    3    3    0    0 -0.40182873886E+02  0.14406939582E+02 -0.19187814332E+01  0.42730609451E+02  0.00000000000E+00 0.  1.
</event>
<event>
 7    1  0.1654239E-015  0.9000675E+02  0.7816164E-02  0.1186341E+00
        -11   -1    0    0    0    0  0.00000000000E+00  0.00000000000E+00  0.45593999997E+02  0.45594000000E+02  0.51100000000E-03 0.  1.
         11   -1    0    0    0    0 -0.00000000000E+00 -0.00000000000E+00 -0.45593999997E+02  0.45594000000E+02  0.51100000000E-03 0. -1.
    9900012    2    1    2    0    0 -0.90180041314E+00 -0.71454824855E+00 -0.26743333741E+00  0.90006753296E+02  0.89999001634E+02 0.  0.
        -12    1    1    2    0    0  0.90180041314E+00  0.71454824855E+00  0.26743333741E+00  0.11812467035E+01  0.00000000000E+00 0.  1.
         11    1    3    3    0    0  0.14940094568E+02 -0.24407257815E+00 -0.32155528042E+02  0.35457636427E+02  0.51100000000E-03 0. -1.
        -11    1    3    3    0    0 -0.49203105918E+00  0.51877274550E+00 -0.99486690000E+01  0.99743287923E+01  0.51100000000E-03 0.  1.
        -12    1    3    3    0    0 -0.15349863922E+02 -0.98924841590E+00  0.41836763704E+02  0.44574788077E+02  0.00000000000E+00 0.  1.
</event>
<event>
 7    1  0.1654239E-015  0.9000780E+02  0.7816164E-02  0.1186339E+00
        -11   -1    0    0    0    0  0.00000000000E+00  0.00000000000E+00  0.45593999997E+02  0.45594000000E+02  0.51100000000E-03 0.  1.
         11   -1    0    0    0    0 -0.00000000000E+00 -0.00000000000E+00 -0.45593999997E+02  0.45594000000E+02  0.51100000000E-03 0. -1.
    9900012    2    1    2    0    0  0.70212266302E+00 -0.88104463639E+00 -0.35165644147E+00  0.90007797417E+02  0.90000059542E+02 0.  0.
        -12    1    1    2    0    0 -0.70212266302E+00  0.88104463639E+00  0.35165644147E+00  0.11802025835E+01  0.00000000000E+00 0.  1.
         11    1    3    3    0    0  0.29630669851E+01  0.56900634290E+01  0.78632811750E+01  0.10148289456E+02  0.51100000000E-03 0. -1.
        -11    1    3    3    0    0  0.29622869880E+02 -0.26191877064E+02  0.56379698337E+01  0.39941401430E+02  0.51100000000E-03 0.  1.
         12    1    3    3    0    0 -0.31883814202E+02  0.19620768998E+02 -0.13852907450E+02  0.39918106531E+02  0.00000000000E+00 0. -1.
</event>
<event>
 7    1  0.1654239E-015  0.9000787E+02  0.7816164E-02  0.1186339E+00
        -11   -1    0    0    0    0  0.00000000000E+00  0.00000000000E+00  0.45593999997E+02  0.45594000000E+02  0.51100000000E-03 0.  1.
         11   -1    0    0    0    0 -0.00000000000E+00 -0.00000000000E+00 -0.45593999997E+02  0.45594000000E+02  0.51100000000E-03 0. -1.
    9900012    2    1    2    0    0 -0.95098938727E+00 -0.64554750897E+00 -0.26758150285E+00  0.90007867693E+02  0.90000130747E+02 0.  0.
        -12    1    1    2    0    0  0.95098938727E+00  0.64554750897E+00  0.26758150285E+00  0.11801323069E+01  0.00000000000E+00 0.  1.
         11    1    3    3    0    0  0.32848783616E+01 -0.85329514737E+01 -0.20252098136E+01  0.93649966233E+01  0.51100000000E-03 0. -1.
        -11    1    3    3    0    0  0.54648631330E+01 -0.30131421220E+02 -0.19215347889E+02  0.36152411657E+02  0.51100000000E-03 0.  1.
         12    1    3    3    0    0 -0.97007308819E+01  0.38018825185E+02  0.20972976200E+02  0.44490459413E+02  0.00000000000E+00 0. -1.
</event>
<event>
 7    1  0.1654239E-015  0.9000780E+02  0.7816164E-02  0.1186339E+00
        -11   -1    0    0    0    0  0.00000000000E+00  0.00000000000E+00  0.45593999997E+02  0.45594000000E+02  0.51100000000E-03 0.  1.
         11   -1    0    0    0    0 -0.00000000000E+00 -0.00000000000E+00 -0.45593999997E+02  0.45594000000E+02  0.51100000000E-03 0. -1.
    9900012    2    1    2    0    0  0.66560698652E+00  0.63687171642E+00 -0.73772664611E+00  0.90007797116E+02  0.90000059238E+02 0.  0.
        -12    1    1    2    0    0 -0.66560698652E+00 -0.63687171642E+00  0.73772664611E+00  0.11802028843E+01  0.00000000000E+00 0.  1.
         11    1    3    3    0    0 -0.20909174242E+01  0.92206077304E+01 -0.63917961141E+01  0.11412563271E+02  0.51100000000E-03 0. -1.
        -11    1    3    3    0    0  0.16316885456E+02  0.25135499971E+02  0.23522472450E+02  0.38096467293E+02  0.51100000000E-03 0.  1.
         12    1    3    3    0    0 -0.13560361045E+02 -0.33719235985E+02 -0.17868402982E+02  0.40498766552E+02  0.00000000000E+00 0. -1.
</event>
<event>
 7    1  0.1654239E-015  0.9000754E+02  0.7816164E-02  0.1186339E+00
        -11   -1    0    0    0    0  0.00000000000E+00  0.00000000000E+00  0.45593999997E+02  0.45594000000E+02  0.51100000000E-03 0.  1.
         11   -1    0    0    0    0 -0.00000000000E+00 -0.00000000000E+00 -0.45593999997E+02  0.45594000000E+02  0.51100000000E-03 0. -1.
    9900012    2    1    2    0    0  0.12077851626E-01 -0.55088733983E+00 -0.10439658507E+01  0.90007539313E+02  0.89999798032E+02 0.  0.
        -12    1    1    2    0    0 -0.12077851626E-01  0.55088733983E+00  0.10439658507E+01  0.11804606868E+01  0.00000000000E+00 0.  1.
         11    1    3    3    0    0 -0.10257057144E+02  0.18701223042E+02 -0.32740036242E+02  0.39074965616E+02  0.51100000000E-03 0. -1.
        -11    1    3    3    0    0 -0.22128502297E+01 -0.23938299473E+01 -0.65474616588E+01  0.73141221202E+01  0.51100000000E-03 0.  1.
        -12    1    3    3    0    0  0.12481985226E+02 -0.16858280434E+02  0.38243532050E+02  0.43618451577E+02  0.00000000000E+00 0.  1.
</event>
<event>
 7    1  0.1654239E-015  0.9000771E+02  0.7816164E-02  0.1186339E+00
        -11   -1    0    0    0    0  0.00000000000E+00  0.00000000000E+00  0.45593999997E+02  0.45594000000E+02  0.51100000000E-03 0. -1.
         11   -1    0    0    0    0 -0.00000000000E+00 -0.00000000000E+00 -0.45593999997E+02  0.45594000000E+02  0.51100000000E-03 0.  1.
    9900012    2    1    2    0    0 -0.50521268325E-01 -0.11787595315E+01  0.32440298391E-01  0.90007712406E+02  0.89999973410E+02 0.  0.
        -12    1    1    2    0    0  0.50521268325E-01  0.11787595315E+01 -0.32440298391E-01  0.11802875940E+01  0.00000000000E+00 0.  1.
         11    1    3    3    0    0 -0.29290238409E+01 -0.11289473066E+02 -0.61606406267E+00  0.11679508464E+02  0.51100000000E-03 0. -1.
        -11    1    3    3    0    0 -0.31067192939E+02 -0.16389421074E+02  0.25828938740E+01  0.35220092863E+02  0.51100000000E-03 0.  1.
         12    1    3    3    0    0  0.33945695511E+02  0.26500134609E+02 -0.19343895130E+01  0.43108111079E+02  0.00000000000E+00 0. -1.
</event>
<event>
 7    1  0.1654239E-015  0.9000777E+02  0.7816164E-02  0.1186339E+00
        -11   -1    0    0    0    0  0.00000000000E+00  0.00000000000E+00  0.45593999997E+02  0.45594000000E+02  0.51100000000E-03 0.  1.
         11   -1    0    0    0    0 -0.00000000000E+00 -0.00000000000E+00 -0.45593999997E+02  0.45594000000E+02  0.51100000000E-03 0. -1.
    9900012    2    1    2    0    0 -0.43208632394E+00  0.45377204062E+00 -0.10001687913E+01  0.90007768977E+02  0.90000030728E+02 0.  0.
        -12    1    1    2    0    0  0.43208632394E+00 -0.45377204062E+00  0.10001687913E+01  0.11802310229E+01  0.00000000000E+00 0.  1.
         11    1    3    3    0    0 -0.67254608978E+01 -0.47973941482E+01 -0.83890182235E+01  0.11773803205E+02  0.51100000000E-03 0. -1.
        -11    1    3    3    0    0  0.19314610658E+02 -0.25402282908E+02  0.25020136940E+02  0.40550430510E+02  0.51100000000E-03 0.  1.
         12    1    3    3    0    0 -0.13021236084E+02  0.30653449097E+02 -0.17631287507E+02  0.37683535262E+02  0.00000000000E+00 0. -1.
</event>
<event>
 7    1  0.1654239E-015  0.9000764E+02  0.7816164E-02  0.1186339E+00
        -11   -1    0    0    0    0  0.00000000000E+00  0.00000000000E+00  0.45593999997E+02  0.45594000000E+02  0.51100000000E-03 0. -1.
         11   -1    0    0    0    0 -0.00000000000E+00 -0.00000000000E+00 -0.45593999997E+02  0.45594000000E+02  0.51100000000E-03 0.  1.
    9900012    2    1    2    0    0 -0.29957896612E+00  0.97838997901E+00  0.58843190695E+00  0.90007641318E+02  0.89999901384E+02 0.  0.
        -12    1    1    2    0    0  0.29957896612E+00 -0.97838997901E+00 -0.58843190695E+00  0.11803586815E+01  0.00000000000E+00 0.  1.
         11    1    3    3    0    0  0.89418479583E+01  0.13261672838E+01  0.50443965779E+00  0.90537188052E+01  0.51100000000E-03 0. -1.
        -11    1    3    3    0    0 -0.10292353683E+02  0.39506214117E+02  0.32907014609E+01  0.40957321867E+02  0.51100000000E-03 0.  1.
         12    1    3    3    0    0  0.10509267586E+01 -0.39853991421E+02 -0.32067092117E+01  0.39996600646E+02  0.00000000000E+00 0. -1.
</event>
<event>
 7    1  0.1747245E-015  0.9000785E+02  0.7816164E-02  0.1186339E+00
        -11   -1    0    0    0    0  0.00000000000E+00  0.00000000000E+00  0.45593999997E+02  0.45594000000E+02  0.51100000000E-03 0. -1.
         11   -1    0    0    0    0 -0.00000000000E+00 -0.00000000000E+00 -0.45593999997E+02  0.45594000000E+02  0.51100000000E-03 0.  1.
    9900012    2    1    2    0    0 -0.66575565954E+00  0.11035948067E+00  0.96816672100E+00  0.90007848903E+02  0.90000111708E+02 0.  0.
        -12    1    1    2    0    0  0.66575565954E+00 -0.11035948067E+00 -0.96816672100E+00  0.11801510975E+01  0.00000000000E+00 0.  1.
         11    1    3    3    0    0  0.79136477688E+01 -0.98929235062E+00  0.58567302998E+01  0.98947365012E+01  0.51100000000E-03 0. -1.
        -11    1    3    3    0    0  0.20087511269E+02 -0.11462613809E+01 -0.33800990168E+02  0.39336102510E+02  0.51100000000E-03 0.  1.
         12    1    3    3    0    0 -0.28666914697E+02  0.22459132122E+01  0.28912426589E+02  0.40777009891E+02  0.00000000000E+00 0. -1.
</event>
<event>
 7    1  0.1654239E-015  0.9000757E+02  0.7816164E-02  0.1186339E+00
        -11   -1    0    0    0    0  0.00000000000E+00  0.00000000000E+00  0.45593999997E+02  0.45594000000E+02  0.51100000000E-03 0.  1.
         11   -1    0    0    0    0 -0.00000000000E+00 -0.00000000000E+00 -0.45593999997E+02  0.45594000000E+02  0.51100000000E-03 0. -1.
    9900012    2    1    2    0    0  0.36040122870E+00  0.15097640345E+00 -0.11138770443E+01  0.90007574234E+02  0.89999833413E+02 0.  0.
        -12    1    1    2    0    0 -0.36040122870E+00 -0.15097640345E+00  0.11138770443E+01  0.11804257663E+01  0.00000000000E+00 0.  1.
         11    1    3    3    0    0 -0.21044880302E+01 -0.77298141200E+01 -0.54139343963E+01  0.96690010915E+01  0.51100000000E-03 0. -1.
        -11    1    3    3    0    0 -0.22782839595E+02 -0.35215433814E+01  0.33126224535E+02  0.40358466274E+02  0.51100000000E-03 0.  1.
         12    1    3    3    0    0  0.25247728854E+02  0.11402333905E+02 -0.28826167183E+02  0.39980106868E+02  0.00000000000E+00 0. -1.
</event>
<event>
 7    1  0.1654239E-015  0.9000773E+02  0.7816164E-02  0.1186339E+00
        -11   -1    0    0    0    0  0.00000000000E+00  0.00000000000E+00  0.45593999997E+02  0.45594000000E+02  0.51100000000E-03 0. -1.
         11   -1    0    0    0    0 -0.00000000000E+00 -0.00000000000E+00 -0.45593999997E+02  0.45594000000E+02  0.51100000000E-03 0.  1.
    9900012    2    1    2    0    0  0.11385172572E+01 -0.11780629042E+00  0.28798002207E+00  0.90007732081E+02  0.89999993345E+02 0.  0.
        -12    1    1    2    0    0 -0.11385172572E+01  0.11780629042E+00 -0.28798002207E+00  0.11802679188E+01  0.00000000000E+00 0.  1.
         11    1    3    3    0    0 -0.28859909354E+02  0.15255402843E+02  0.14414067164E+02  0.35684548705E+02  0.51100000000E-03 0. -1.
        -11    1    3    3    0    0  0.91728335416E+00  0.11294748591E+02  0.23344846553E+01  0.11569899453E+02  0.51100000000E-03 0.  1.
        -12    1    3    3    0    0  0.29081143257E+02 -0.26667957725E+02 -0.16460571797E+02  0.42753283923E+02  0.00000000000E+00 0.  1.
</event>
<event>
 7    1  0.1654239E-015  0.9000774E+02  0.7816164E-02  0.1186339E+00
        -11   -1    0    0    0    0  0.00000000000E+00  0.00000000000E+00  0.45593999997E+02  0.45594000000E+02  0.51100000000E-03 0. -1.
         11   -1    0    0    0    0 -0.00000000000E+00 -0.00000000000E+00 -0.45593999997E+02  0.45594000000E+02  0.51100000000E-03 0.  1.
    9900012    2    1    2    0    0 -0.64801001274E+00  0.95354979472E+00 -0.25266794404E+00  0.90007739318E+02  0.90000000677E+02 0.  0.
        -12    1    1    2    0    0  0.64801001274E+00 -0.95354979472E+00  0.25266794404E+00  0.11802606820E+01  0.00000000000E+00 0.  1.
         11    1    3    3    0    0  0.85367881511E+01 -0.43500673972E+01  0.10292453512E+01  0.96363470543E+01  0.51100000000E-03 0. -1.
        -11    1    3    3    0    0  0.21876713551E+02  0.30819759846E+02  0.90571983974E+01  0.38864907511E+02  0.51100000000E-03 0.  1.
         12    1    3    3    0    0 -0.31061511715E+02 -0.25516142654E+02 -0.10339111693E+02  0.41506484753E+02  0.00000000000E+00 0. -1.
</event>
<event>
 7    1  0.1654239E-015  0.9000755E+02  0.7816164E-02  0.1186339E+00
        -11   -1    0    0    0    0  0.00000000000E+00  0.00000000000E+00  0.45593999997E+02  0.45594000000E+02  0.51100000000E-03 0. -1.
         11   -1    0    0    0    0 -0.00000000000E+00 -0.00000000000E+00 -0.45593999997E+02  0.45594000000E+02  0.51100000000E-03 0.  1.
    9900012    2    1    2    0    0  0.10823380785E+00 -0.90716555241E+00  0.74753183001E+00  0.90007547657E+02  0.89999806486E+02 0.  0.
        -12    1    1    2    0    0 -0.10823380785E+00  0.90716555241E+00 -0.74753183001E+00  0.11804523428E+01  0.00000000000E+00 0.  1.
         11    1    3    3    0    0  0.39270900251E+02 -0.20992729312E-01  0.59672575425E+01  0.39721684381E+02  0.51100000000E-03 0. -1.
        -11    1    3    3    0    0 -0.54642201231E+00  0.92006778840E+01  0.26822693955E+01  0.95992510078E+01  0.51100000000E-03 0.  1.
        -12    1    3    3    0    0 -0.38616244431E+02 -0.10086850707E+02 -0.79019951080E+01  0.40686612268E+02  0.00000000000E+00 0.  1.
</event>
<event>
 7    1  0.1654239E-015  0.9000778E+02  0.7816164E-02  0.1186339E+00
        -11   -1    0    0    0    0  0.00000000000E+00  0.00000000000E+00  0.45593999997E+02  0.45594000000E+02  0.51100000000E-03 0.  1.
         11   -1    0    0    0    0 -0.00000000000E+00 -0.00000000000E+00 -0.45593999997E+02  0.45594000000E+02  0.51100000000E-03 0. -1.
    9900012    2    1    2    0    0 -0.51957030817E+00  0.28753652725E+00 -0.10199479041E+01  0.90007777865E+02  0.90000039733E+02 0.  0.
        -12    1    1    2    0    0  0.51957030817E+00 -0.28753652725E+00  0.10199479041E+01  0.11802221345E+01  0.00000000000E+00 0.  1.
         11    1    3    3    0    0  0.57818730893E+01  0.61849614766E+01  0.38337460238E+01  0.92941601946E+01  0.51100000000E-03 0. -1.
        -11    1    3    3    0    0  0.27712484501E+02  0.12794781321E+02  0.18232939317E+02  0.35554582020E+02  0.51100000000E-03 0.  1.
         12    1    3    3    0    0 -0.34013927898E+02 -0.18692206270E+02 -0.23086633245E+02  0.45159035651E+02  0.00000000000E+00 0. -1.
</event>
<event>
 7    1  0.1654239E-015  0.9000821E+02  0.7816164E-02  0.1186338E+00
        -11   -1    0    0    0    0  0.00000000000E+00  0.00000000000E+00  0.45593999997E+02  0.45594000000E+02  0.51100000000E-03 0. -1.
         11   -1    0    0    0    0 -0.00000000000E+00 -0.00000000000E+00 -0.45593999997E+02  0.45594000000E+02  0.51100000000E-03 0.  1.
    9900012    2    1    2    0    0  0.78281642626E+00  0.88169104911E+00  0.41428864199E-01  0.90008213149E+02  0.90000480761E+02 0.  0.
        -12    1    1    2    0    0 -0.78281642626E+00 -0.88169104911E+00 -0.41428864199E-01  0.11797868511E+01  0.00000000000E+00 0.  1.
         11    1    3    3    0    0 -0.59211332967E+01  0.78978933457E+01 -0.15185385886E+01  0.99871166271E+01  0.51100000000E-03 0. -1.
        -11    1    3    3    0    0 -0.35349513114E+02 -0.21192706697E+01 -0.86831720837E+01  0.36461992037E+02  0.51100000000E-03 0.  1.
         12    1    3    3    0    0  0.42053462837E+02 -0.48969316269E+01  0.10243139536E+02  0.43559104485E+02  0.00000000000E+00 0. -1.
</event>
<event>
 7    1  0.1654239E-015  0.9000775E+02  0.7816164E-02  0.1186339E+00
        -11   -1    0    0    0    0  0.00000000000E+00  0.00000000000E+00  0.45593999997E+02  0.45594000000E+02  0.51100000000E-03 0.  1.
         11   -1    0    0    0    0 -0.00000000000E+00 -0.00000000000E+00 -0.45593999997E+02  0.45594000000E+02  0.51100000000E-03 0. -1.
    9900012    2    1    2    0    0  0.89106719173E+00  0.46226050551E+00 -0.62071969268E+00  0.90007754919E+02  0.90000016484E+02 0.  0.
        -12    1    1    2    0    0 -0.89106719173E+00 -0.46226050551E+00  0.62071969268E+00  0.11802450813E+01  0.00000000000E+00 0.  1.
         11    1    3    3    0    0  0.29230810897E+00  0.13272267691E+02  0.22781060585E+01  0.13469532330E+02  0.51100000000E-03 0. -1.
        -11    1    3    3    0    0 -0.97096706663E+01 -0.33966155683E+02  0.22522748178E+02  0.41895723196E+02  0.51100000000E-03 0.  1.
         12    1    3    3    0    0  0.10308429749E+02  0.21156148497E+02 -0.25421573930E+02  0.34642499393E+02  0.00000000000E+00 0. -1.
</event>
<event>
 7    1  0.1654239E-015  0.9000771E+02  0.7816164E-02  0.1186339E+00
        -11   -1    0    0    0    0  0.00000000000E+00  0.00000000000E+00  0.45593999997E+02  0.45594000000E+02  0.51100000000E-03 0. -1.
         11   -1    0    0    0    0 -0.00000000000E+00 -0.00000000000E+00 -0.45593999997E+02  0.45594000000E+02  0.51100000000E-03 0.  1.
    9900012    2    1    2    0    0  0.52386708158E+00 -0.83437997982E+00 -0.64997317303E+00  0.90007706903E+02  0.89999967834E+02 0.  0.
        -12    1    1    2    0    0 -0.52386708158E+00  0.83437997982E+00  0.64997317303E+00  0.11802930973E+01  0.00000000000E+00 0.  1.
         11    1    3    3    0    0 -0.13390458004E+02  0.56753992148E+01  0.30614463520E+02  0.33893360687E+02  0.51100000000E-03 0. -1.
        -11    1    3    3    0    0  0.58225799085E+01 -0.63523202879E+01  0.10494142864E+02  0.13578712919E+02  0.51100000000E-03 0.  1.
        -12    1    3    3    0    0  0.80917451767E+01 -0.15745890671E+00 -0.41758579557E+02  0.42535633296E+02  0.00000000000E+00 0.  1.
</event>
<event>
 7    1  0.1654239E-015  0.9000782E+02  0.7816164E-02  0.1186339E+00
        -11   -1    0    0    0    0  0.00000000000E+00  0.00000000000E+00  0.45593999997E+02  0.45594000000E+02  0.51100000000E-03 0. -1.
         11   -1    0    0    0    0 -0.00000000000E+00 -0.00000000000E+00 -0.45593999997E+02  0.45594000000E+02  0.51100000000E-03 0.  1.
    9900012    2    1    2    0    0 -0.96229103625E+00  0.65448620715E+00 -0.19615063299E+00  0.90007817258E+02  0.90000079646E+02 0.  0.
        -12    1    1    2    0    0  0.96229103625E+00 -0.65448620715E+00  0.19615063299E+00  0.11801827420E+01  0.00000000000E+00 0.  1.
         11    1    3    3    0    0 -0.37455811912E+02  0.34052886186E+01  0.20420453459E+02  0.42796363821E+02  0.51100000000E-03 0. -1.
        -11    1    3    3    0    0  0.22191561828E+00 -0.32523857999E+00 -0.90564813874E+01  0.90650362413E+01  0.51100000000E-03 0.  1.
        -12    1    3    3    0    0  0.36271605258E+02 -0.24255638315E+01 -0.11560122705E+02  0.38146417195E+02  0.00000000000E+00 0.  1.
</event>
<event>
 7    1  0.1654239E-015  0.9000770E+02  0.7816164E-02  0.1186339E+00
        -11   -1    0    0    0    0  0.00000000000E+00  0.00000000000E+00  0.45593999997E+02  0.45594000000E+02  0.51100000000E-03 0. -1.
         11   -1    0    0    0    0 -0.00000000000E+00 -0.00000000000E+00 -0.45593999997E+02  0.45594000000E+02  0.51100000000E-03 0.  1.
    9900012    2    1    2    0    0 -0.11625666578E+01  0.20355017993E+00  0.10617853477E-01  0.90007700611E+02  0.89999961459E+02 0.  0.
        -12    1    1    2    0    0  0.11625666578E+01 -0.20355017993E+00 -0.10617853477E-01  0.11802993893E+01  0.00000000000E+00 0.  1.
         11    1    3    3    0    0  0.39381091974E+02  0.92782892479E+01 -0.21777175499E+01  0.40517891239E+02  0.51100000000E-03 0. -1.
        -11    1    3    3    0    0 -0.46553849064E+01  0.74278451574E+01  0.46299870452E+01  0.99137416049E+01  0.51100000000E-03 0.  1.
        -12    1    3    3    0    0 -0.35888273726E+02 -0.16502584225E+02 -0.24416516418E+01  0.39576067767E+02  0.00000000000E+00 0.  1.
</event>
<event>
 7    1  0.1654239E-015  0.9000777E+02  0.7816164E-02  0.1186339E+00
        -11   -1    0    0    0    0  0.00000000000E+00  0.00000000000E+00  0.45593999997E+02  0.45594000000E+02  0.51100000000E-03 0.  1.
         11   -1    0    0    0    0 -0.00000000000E+00 -0.00000000000E+00 -0.45593999997E+02  0.45594000000E+02  0.51100000000E-03 0. -1.
    9900012    2    1    2    0    0  0.53444678619E+00  0.10493344682E+01 -0.78784685781E-01  0.90007769844E+02  0.90000031606E+02 0.  0.
        -12    1    1    2    0    0 -0.53444678619E+00 -0.10493344682E+01  0.78784685781E-01  0.11802301556E+01  0.00000000000E+00 0.  1.
         11    1    3    3    0    0  0.16428461009E+02 -0.20912890613E+02 -0.25615300409E+02  0.36924069931E+02  0.51100000000E-03 0. -1.
        -11    1    3    3    0    0 -0.32805097662E+01 -0.45550400858E+01 -0.71852710307E+01  0.91180181265E+01  0.51100000000E-03 0.  1.
        -12    1    3    3    0    0 -0.12613504456E+02  0.26517265168E+02  0.32721786754E+02  0.43965681787E+02  0.00000000000E+00 0.  1.
</event>
<event>
 7    1  0.1654239E-015  0.9000714E+02  0.7816164E-02  0.1186340E+00
        -11   -1    0    0    0    0  0.00000000000E+00  0.00000000000E+00  0.45593999997E+02  0.45594000000E+02  0.51100000000E-03 0.  1.
         11   -1    0    0    0    0 -0.00000000000E+00 -0.00000000000E+00 -0.45593999997E+02  0.45594000000E+02  0.51100000000E-03 0. -1.
    9900012    2    1    2    0    0  0.13124238962E+00 -0.11277512098E+01 -0.32462105349E+00  0.90007141759E+02  0.89999395229E+02 0.  0.
        -12    1    1    2    0    0 -0.13124238962E+00  0.11277512098E+01  0.32462105349E+00  0.11808582406E+01  0.00000000000E+00 0.  1.
         11    1    3    3    0    0  0.32015208985E+02 -0.21588969897E+01 -0.10851520767E+02  0.33873144906E+02  0.51100000000E-03 0. -1.
        -11    1    3    3    0    0  0.37514562268E+01  0.51410512264E+01  0.18347317903E+02  0.19419781308E+02  0.51100000000E-03 0.  1.
        -12    1    3    3    0    0 -0.35635422822E+02 -0.41099054465E+01 -0.78204181894E+01  0.36714215546E+02  0.00000000000E+00 0.  1.
</event>
<event>
 7    1  0.1654239E-015  0.9000774E+02  0.7816164E-02  0.1186339E+00
        -11   -1    0    0    0    0  0.00000000000E+00  0.00000000000E+00  0.45593999997E+02  0.45594000000E+02  0.51100000000E-03 0.  1.
         11   -1    0    0    0    0 -0.00000000000E+00 -0.00000000000E+00 -0.45593999997E+02  0.45594000000E+02  0.51100000000E-03 0. -1.
    9900012    2    1    2    0    0 -0.60749885401E+00  0.65679877765E+00 -0.76979092136E+00  0.90007738353E+02  0.89999999700E+02 0.  0.
        -12    1    1    2    0    0  0.60749885401E+00 -0.65679877765E+00  0.76979092136E+00  0.11802616467E+01  0.00000000000E+00 0.  1.
         11    1    3    3    0    0 -0.75418008255E+01 -0.22955195446E+02  0.11889094506E+02  0.26928986726E+02  0.51100000000E-03 0. -1.
        -11    1    3    3    0    0  0.43198361043E+01  0.67596689700E+01  0.22562321573E+02  0.23946032314E+02  0.51100000000E-03 0.  1.
         12    1    3    3    0    0  0.26144658671E+01  0.16852325253E+02 -0.35221207001E+02  0.39132719313E+02  0.00000000000E+00 0. -1.
</event>
<event>
 7    1  0.1654239E-015  0.9000776E+02  0.7816164E-02  0.1186339E+00
        -11   -1    0    0    0    0  0.00000000000E+00  0.00000000000E+00  0.45593999997E+02  0.45594000000E+02  0.51100000000E-03 0. -1.
         11   -1    0    0    0    0 -0.00000000000E+00 -0.00000000000E+00 -0.45593999997E+02  0.45594000000E+02  0.51100000000E-03 0.  1.
    9900012    2    1    2    0    0  0.44151747564E+00  0.82486714199E+00  0.71946093446E+00  0.90007759550E+02  0.90000021176E+02 0.  0.
        -12    1    1    2    0    0 -0.44151747564E+00 -0.82486714199E+00 -0.71946093446E+00  0.11802404498E+01  0.00000000000E+00 0.  1.
         11    1    3    3    0    0 -0.38027307818E+00  0.76256914472E+01 -0.44074239184E+01  0.88159607259E+01  0.51100000000E-03 0. -1.
        -11    1    3    3    0    0  0.20533558943E+02  0.19971790043E+02 -0.23708045058E+02  0.37182937500E+02  0.51100000000E-03 0.  1.
         12    1    3    3    0    0 -0.19711768390E+02 -0.26772614348E+02  0.28834929911E+02  0.44008861324E+02  0.00000000000E+00 0. -1.
</event>
<event>
 7    1  0.1654239E-015  0.9000780E+02  0.7816164E-02  0.1186339E+00
        -11   -1    0    0    0    0  0.00000000000E+00  0.00000000000E+00  0.45593999997E+02  0.45594000000E+02  0.51100000000E-03 0.  1.
         11   -1    0    0    0    0 -0.00000000000E+00 -0.00000000000E+00 -0.45593999997E+02  0.45594000000E+02  0.51100000000E-03 0. -1.
    9900012    2    1    2    0    0 -0.32417470114E-01 -0.11724189504E+01 -0.13137554541E+00  0.90007798059E+02  0.90000060193E+02 0.  0.
        -12    1    1    2    0    0  0.32417470114E-01  0.11724189504E+01  0.13137554541E+00  0.11802019411E+01  0.00000000000E+00 0.  1.
         11    1    3    3    0    0  0.10414319362E+00 -0.34742963882E+02 -0.18458921074E+02  0.39342294704E+02  0.51100000000E-03 0. -1.
        -11    1    3    3    0    0 -0.56368083578E+00 -0.53322768546E+01  0.92869702714E+01  0.10723746063E+02  0.51100000000E-03 0.  1.
        -12    1    3    3    0    0  0.42712017205E+00  0.38902821786E+02  0.90405752571E+01  0.39941757292E+02  0.00000000000E+00 0.  1.
</event>
<event>
 7    1  0.1654239E-015  0.9000770E+02  0.7816164E-02  0.1186339E+00
        -11   -1    0    0    0    0  0.00000000000E+00  0.00000000000E+00  0.45593999997E+02  0.45594000000E+02  0.51100000000E-03 0. -1.
         11   -1    0    0    0    0 -0.00000000000E+00 -0.00000000000E+00 -0.45593999997E+02  0.45594000000E+02  0.51100000000E-03 0.  1.
    9900012    2    1    2    0    0  0.57465934919E+00  0.10289863069E+01 -0.63686622360E-01  0.90007702506E+02  0.89999963380E+02 0.  0.
        -12    1    1    2    0    0 -0.57465934919E+00 -0.10289863069E+01  0.63686622360E-01  0.11802974936E+01  0.00000000000E+00 0.  1.
         11    1    3    3    0    0 -0.20855081992E+02 -0.20769900782E+02  0.29151186747E+02  0.41426017337E+02  0.51100000000E-03 0. -1.
        -11    1    3    3    0    0  0.93315107523E+01  0.50219190198E+01  0.23395314826E+01  0.10852196615E+02  0.51100000000E-03 0.  1.
        -12    1    3    3    0    0  0.12098230589E+02  0.16776968070E+02 -0.31554404852E+02  0.37729488554E+02  0.00000000000E+00 0.  1.
</event>
<event>
 7    1  0.1654239E-015  0.9000767E+02  0.7816164E-02  0.1186339E+00
        -11   -1    0    0    0    0  0.00000000000E+00  0.00000000000E+00  0.45593999997E+02  0.45594000000E+02  0.51100000000E-03 0.  1.
         11   -1    0    0    0    0 -0.00000000000E+00 -0.00000000000E+00 -0.45593999997E+02  0.45594000000E+02  0.51100000000E-03 0. -1.
    9900012    2    1    2    0    0 -0.75599227596E+00  0.86726194604E+00  0.26366946944E+00  0.90007665643E+02  0.89999926030E+02 0.  0.
        -12    1    1    2    0    0  0.75599227596E+00 -0.86726194604E+00 -0.26366946944E+00  0.11803343566E+01  0.00000000000E+00 0.  1.
         11    1    3    3    0    0  0.48209317406E+01  0.38212992390E+01 -0.44858514974E+01  0.76135783072E+01  0.51100000000E-03 0. -1.
        -11    1    3    3    0    0  0.86372122396E+01  0.37734803029E+02 -0.20305778510E+01  0.38763901269E+02  0.51100000000E-03 0.  1.
         12    1    3    3    0    0 -0.14214136256E+02 -0.40688840322E+02  0.67800988178E+01  0.43630186067E+02  0.00000000000E+00 0. -1.
</event>
<event>
 7    1  0.1654239E-015  0.9000776E+02  0.7816164E-02  0.1186339E+00
        -11   -1    0    0    0    0  0.00000000000E+00  0.00000000000E+00  0.45593999997E+02  0.45594000000E+02  0.51100000000E-03 0. -1.
         11   -1    0    0    0    0 -0.00000000000E+00 -0.00000000000E+00 -0.45593999997E+02  0.45594000000E+02  0.51100000000E-03 0.  1.
    9900012    2    1    2    0    0 -0.42836022328E+00  0.57208394033E+00  0.93925742500E+00  0.90007755523E+02  0.90000017096E+02 0.  0.
        -12    1    1    2    0    0  0.42836022328E+00 -0.57208394033E+00 -0.93925742500E+00  0.11802444773E+01  0.00000000000E+00 0.  1.
         11    1    3    3    0    0 -0.14557491567E+02 -0.20541680464E+02  0.31414729241E+02  0.40258743281E+02  0.51100000000E-03 0. -1.
        -11    1    3    3    0    0 -0.59128054678E+01 -0.40139104015E+01 -0.63562309043E+01  0.95642258851E+01  0.51100000000E-03 0.  1.
        -12    1    3    3    0    0  0.20041936811E+02  0.25127674806E+02 -0.24119240912E+02  0.40184786356E+02  0.00000000000E+00 0.  1.
</event>
<event>
 7    1  0.1654239E-015  0.9000771E+02  0.7816164E-02  0.1186339E+00
        -11   -1    0    0    0    0  0.00000000000E+00  0.00000000000E+00  0.45593999997E+02  0.45594000000E+02  0.51100000000E-03 0. -1.
         11   -1    0    0    0    0 -0.00000000000E+00 -0.00000000000E+00 -0.45593999997E+02  0.45594000000E+02  0.51100000000E-03 0.  1.
    9900012    2    1    2    0    0 -0.73281031713E+00  0.88458022177E+00  0.27128271289E+00  0.90007708748E+02  0.89999969703E+02 0.  0.
        -12    1    1    2    0    0  0.73281031713E+00 -0.88458022177E+00 -0.27128271289E+00  0.11802912522E+01  0.00000000000E+00 0.  1.
         11    1    3    3    0    0 -0.50566755077E+01 -0.76040005018E+01  0.62355002379E+00  0.91531199989E+01  0.51100000000E-03 0. -1.
        -11    1    3    3    0    0 -0.35126759380E+02  0.11754909635E+01  0.14570049939E+02  0.38046778563E+02  0.51100000000E-03 0.  1.
         12    1    3    3    0    0  0.39450624570E+02  0.73130897601E+01 -0.14922317250E+02  0.42807810186E+02  0.00000000000E+00 0. -1.
</event>
<event>
 7    1  0.1654239E-015  0.9000780E+02  0.7816164E-02  0.1186339E+00
        -11   -1    0    0    0    0  0.00000000000E+00  0.00000000000E+00  0.45593999997E+02  0.45594000000E+02  0.51100000000E-03 0. -1.
         11   -1    0    0    0    0 -0.00000000000E+00 -0.00000000000E+00 -0.45593999997E+02  0.45594000000E+02  0.51100000000E-03 0.  1.
    9900012    2    1    2    0    0 -0.64232655695E+00 -0.75056495440E-01  0.98724849807E+00  0.90007798119E+02  0.90000060254E+02 0.  0.
        -12    1    1    2    0    0  0.64232655695E+00  0.75056495440E-01 -0.98724849807E+00  0.11802018811E+01  0.00000000000E+00 0.  1.
         11    1    3    3    0    0 -0.38024363239E+01 -0.33573995641E+02 -0.18512527596E+01  0.33839309130E+02  0.51100000000E-03 0. -1.
        -11    1    3    3    0    0  0.86852102849E+01 -0.68809977192E+01 -0.83844481792E+01  0.13895322193E+02  0.51100000000E-03 0.  1.
        -12    1    3    3    0    0 -0.55251005179E+01  0.40379936865E+02  0.11222949437E+02  0.42273166797E+02  0.00000000000E+00 0.  1.
</event>
<event>
 7    1  0.1654239E-015  0.9000775E+02  0.7816164E-02  0.1186339E+00
        -11   -1    0    0    0    0  0.00000000000E+00  0.00000000000E+00  0.45593999997E+02  0.45594000000E+02  0.51100000000E-03 0. -1.
         11   -1    0    0    0    0 -0.00000000000E+00 -0.00000000000E+00 -0.45593999997E+02  0.45594000000E+02  0.51100000000E-03 0.  1.
    9900012    2    1    2    0    0  0.50947249763E-01 -0.73763154451E+00  0.91994486669E+00  0.90007748130E+02  0.90000009606E+02 0.  0.
        -12    1    1    2    0    0 -0.50947249763E-01  0.73763154451E+00 -0.91994486669E+00  0.11802518695E+01  0.00000000000E+00 0.  1.
         11    1    3    3    0    0  0.28642219906E+02  0.11899831652E+02  0.56755861554E+01  0.31530858424E+02  0.51100000000E-03 0. -1.
        -11    1    3    3    0    0  0.37331244000E+01  0.68286067208E+01 -0.17090275715E+02  0.18778807518E+02  0.51100000000E-03 0.  1.
        -12    1    3    3    0    0 -0.32324397056E+02 -0.19466069917E+02  0.12334634426E+02  0.39698082189E+02  0.00000000000E+00 0.  1.
</event>
<event>
 7    1  0.1654239E-015  0.9000778E+02  0.7816164E-02  0.1186339E+00
        -11   -1    0    0    0    0  0.00000000000E+00  0.00000000000E+00  0.45593999997E+02  0.45594000000E+02  0.51100000000E-03 0.  1.
         11   -1    0    0    0    0 -0.00000000000E+00 -0.00000000000E+00 -0.45593999997E+02  0.45594000000E+02  0.51100000000E-03 0. -1.
    9900012    2    1    2    0    0 -0.11184639074E+00 -0.83351502314E+00  0.82804410873E+00  0.90007782243E+02  0.90000044168E+02 0.  0.
        -12    1    1    2    0    0  0.11184639074E+00  0.83351502314E+00 -0.82804410873E+00  0.11802177574E+01  0.00000000000E+00 0.  1.
         11    1    3    3    0    0 -0.37712998495E+00 -0.23365266418E+02 -0.37216998939E+02  0.43945226272E+02  0.51100000000E-03 0. -1.
        -11    1    3    3    0    0  0.24425338195E+01  0.82743575289E+01  0.49147061396E+01  0.99290130766E+01  0.51100000000E-03 0.  1.
        -12    1    3    3    0    0 -0.21772502253E+01  0.14257393866E+02  0.33130336909E+02  0.36133542894E+02  0.00000000000E+00 0.  1.
</event>
<event>
 7    1  0.1654239E-015  0.9000768E+02  0.7816164E-02  0.1186339E+00
        -11   -1    0    0    0    0  0.00000000000E+00  0.00000000000E+00  0.45593999997E+02  0.45594000000E+02  0.51100000000E-03 0.  1.
         11   -1    0    0    0    0 -0.00000000000E+00 -0.00000000000E+00 -0.45593999997E+02  0.45594000000E+02  0.51100000000E-03 0. -1.
    9900012    2    1    2    0    0  0.10535793666E+01 -0.17444556044E+00  0.50269653812E+00  0.90007676085E+02  0.89999936609E+02 0.  0.
        -12    1    1    2    0    0 -0.10535793666E+01  0.17444556044E+00 -0.50269653812E+00  0.11803239152E+01  0.00000000000E+00 0.  1.
         11    1    3    3    0    0 -0.18274490186E+02 -0.14930035112E+02 -0.18609184696E+02  0.30052698636E+02  0.51100000000E-03 0. -1.
        -11    1    3    3    0    0 -0.14546077786E+01 -0.15318490352E+02 -0.49807351858E+01  0.16173427396E+02  0.51100000000E-03 0.  1.
        -12    1    3    3    0    0  0.20782677331E+02  0.30074079904E+02  0.24092616419E+02  0.43781550053E+02  0.00000000000E+00 0.  1.
</event>
<event>
 7    1  0.1654239E-015  0.9000771E+02  0.7816164E-02  0.1186339E+00
        -11   -1    0    0    0    0  0.00000000000E+00  0.00000000000E+00  0.45593999997E+02  0.45594000000E+02  0.51100000000E-03 0. -1.
         11   -1    0    0    0    0 -0.00000000000E+00 -0.00000000000E+00 -0.45593999997E+02  0.45594000000E+02  0.51100000000E-03 0.  1.
    9900012    2    1    2    0    0 -0.95039965575E+00  0.19580985257E+00  0.67192119589E+00  0.90007712282E+02  0.89999973284E+02 0.  0.
        -12    1    1    2    0    0  0.95039965575E+00 -0.19580985257E+00 -0.67192119589E+00  0.11802877181E+01  0.00000000000E+00 0.  1.
         11    1    3    3    0    0 -0.14069937416E+02  0.31901466590E+02  0.17719879359E+02  0.39110878720E+02  0.51100000000E-03 0. -1.
        -11    1    3    3    0    0  0.52651378295E+01  0.67997410789E+01 -0.40404295213E+01  0.95017485803E+01  0.51100000000E-03 0.  1.
        -12    1    3    3    0    0  0.78543999304E+01 -0.38505397816E+02 -0.13007528642E+02  0.41395084982E+02  0.00000000000E+00 0.  1.
</event>
<event>
 7    1  0.1654239E-015  0.9000772E+02  0.7816164E-02  0.1186339E+00
        -11   -1    0    0    0    0  0.00000000000E+00  0.00000000000E+00  0.45593999997E+02  0.45594000000E+02  0.51100000000E-03 0. -1.
         11   -1    0    0    0    0 -0.00000000000E+00 -0.00000000000E+00 -0.45593999997E+02  0.45594000000E+02  0.51100000000E-03 0.  1.
    9900012    2    1    2    0    0 -0.15356166993E+00 -0.44622130532E+00  0.10818390872E+01  0.90007715945E+02  0.89999976996E+02 0.  0.
        -12    1    1    2    0    0  0.15356166993E+00  0.44622130532E+00 -0.10818390872E+01  0.11802840549E+01  0.00000000000E+00 0.  1.
         11    1    3    3    0    0 -0.18121969135E+01  0.42784247630E+01 -0.91332262843E+01  0.10247184917E+02  0.51100000000E-03 0. -1.
        -11    1    3    3    0    0 -0.22524226739E+02  0.21082184300E+02 -0.16917265133E+02  0.35185126757E+02  0.51100000000E-03 0.  1.
         12    1    3    3    0    0  0.24182861983E+02 -0.25806830368E+02  0.27132330505E+02  0.44575404271E+02  0.00000000000E+00 0. -1.
</event>
<event>
 7    1  0.1654239E-015  0.9000776E+02  0.7816164E-02  0.1186339E+00
        -11   -1    0    0    0    0  0.00000000000E+00  0.00000000000E+00  0.45593999997E+02  0.45594000000E+02  0.51100000000E-03 0. -1.
         11   -1    0    0    0    0 -0.00000000000E+00 -0.00000000000E+00 -0.45593999997E+02  0.45594000000E+02  0.51100000000E-03 0.  1.
    9900012    2    1    2    0    0  0.73894943692E+00 -0.35584178290E+00  0.84870231504E+00  0.90007760506E+02  0.90000022144E+02 0.  0.
        -12    1    1    2    0    0 -0.73894943692E+00  0.35584178290E+00 -0.84870231504E+00  0.11802394945E+01  0.00000000000E+00 0.  1.
         11    1    3    3    0    0 -0.42763921252E+01 -0.58997538084E+01 -0.73860962417E+01  0.10375405658E+02  0.51100000000E-03 0. -1.
        -11    1    3    3    0    0  0.26840103200E+02  0.86506144404E+01 -0.26366078173E+02  0.38605625866E+02  0.51100000000E-03 0.  1.
         12    1    3    3    0    0 -0.21824761638E+02 -0.31067024148E+01  0.34600876730E+02  0.41026728982E+02  0.00000000000E+00 0. -1.
</event>
<event>
 7    1  0.1654239E-015  0.9000767E+02  0.7816164E-02  0.1186339E+00
        -11   -1    0    0    0    0  0.00000000000E+00  0.00000000000E+00  0.45593999997E+02  0.45594000000E+02  0.51100000000E-03 0. -1.
         11   -1    0    0    0    0 -0.00000000000E+00 -0.00000000000E+00 -0.45593999997E+02  0.45594000000E+02  0.51100000000E-03 0.  1.
    9900012    2    1    2    0    0  0.24571274892E+00 -0.10033577727E+01  0.57103045376E+00  0.90007670659E+02  0.89999931111E+02 0.  0.
        -12    1    1    2    0    0 -0.24571274892E+00  0.10033577727E+01 -0.57103045376E+00  0.11803293414E+01  0.00000000000E+00 0.  1.
         11    1    3    3    0    0 -0.29802806162E+01 -0.19372147425E+02  0.35142706093E+02  0.40238935873E+02  0.51100000000E-03 0. -1.
        -11    1    3    3    0    0  0.72741768619E+01 -0.51114490691E+01 -0.15127612195E+01  0.90182596643E+01  0.51100000000E-03 0.  1.
        -12    1    3    3    0    0 -0.40481834969E+01  0.23480238721E+02 -0.33058914420E+02  0.40750475121E+02  0.00000000000E+00 0.  1.
</event>
<event>
 7    1  0.1654239E-015  0.9000773E+02  0.7816164E-02  0.1186339E+00
        -11   -1    0    0    0    0  0.00000000000E+00  0.00000000000E+00  0.45593999997E+02  0.45594000000E+02  0.51100000000E-03 0. -1.
         11   -1    0    0    0    0 -0.00000000000E+00 -0.00000000000E+00 -0.45593999997E+02  0.45594000000E+02  0.51100000000E-03 0.  1.
    9900012    2    1    2    0    0 -0.10555743463E+01  0.71091116444E-01 -0.52319966756E+00  0.90007733488E+02  0.89999994770E+02 0.  0.
        -12    1    1    2    0    0  0.10555743463E+01 -0.71091116444E-01  0.52319966756E+00  0.11802665121E+01  0.00000000000E+00 0.  1.
         11    1    3    3    0    0  0.11171686807E+02  0.10614624699E+02 -0.43405272587E+01  0.16009903834E+02  0.51100000000E-03 0. -1.
        -11    1    3    3    0    0 -0.14261141005E+02 -0.26930926292E+02 -0.25904874369E+02  0.39996467970E+02  0.51100000000E-03 0.  1.
         12    1    3    3    0    0  0.20338798512E+01  0.16387392710E+02  0.29722201960E+02  0.34001361685E+02  0.00000000000E+00 0. -1.
</event>
<event>
 7    1  0.1654239E-015  0.9000777E+02  0.7816164E-02  0.1186339E+00
        -11   -1    0    0    0    0  0.00000000000E+00  0.00000000000E+00  0.45593999997E+02  0.45594000000E+02  0.51100000000E-03 0.  1.
         11   -1    0    0    0    0 -0.00000000000E+00 -0.00000000000E+00 -0.45593999997E+02  0.45594000000E+02  0.51100000000E-03 0. -1.
    9900012    2    1    2    0    0  0.50438036163E+00  0.65761528857E+00 -0.84028944491E+00  0.90007769612E+02  0.90000031371E+02 0.  0.
        -12    1    1    2    0    0 -0.50438036163E+00 -0.65761528857E+00  0.84028944491E+00  0.11802303878E+01  0.00000000000E+00 0.  1.
         11    1    3    3    0    0 -0.33535857336E+02 -0.71647215865E+01 -0.99260922467E+01  0.35700339917E+02  0.51100000000E-03 0. -1.
        -11    1    3    3    0    0 -0.94021566585E+01  0.43375937748E+00  0.59743715503E+00  0.94310990051E+01  0.51100000000E-03 0.  1.
        -12    1    3    3    0    0  0.43442394356E+02  0.73885774976E+01  0.84883656468E+01  0.44876330690E+02  0.00000000000E+00 0.  1.
</event>
<event>
 7    1  0.1654239E-015  0.9000773E+02  0.7816164E-02  0.1186339E+00
        -11   -1    0    0    0    0  0.00000000000E+00  0.00000000000E+00  0.45593999997E+02  0.45594000000E+02  0.51100000000E-03 0.  1.
         11   -1    0    0    0    0 -0.00000000000E+00 -0.00000000000E+00 -0.45593999997E+02  0.45594000000E+02  0.51100000000E-03 0. -1.
    9900012    2    1    2    0    0  0.39832665732E+00  0.79468385417E+00 -0.77643023146E+00  0.90007732887E+02  0.89999994161E+02 0.  0.
        -12    1    1    2    0    0 -0.39832665732E+00 -0.79468385417E+00  0.77643023146E+00  0.11802671131E+01  0.00000000000E+00 0.  1.
         11    1    3    3    0    0  0.25847143541E+02 -0.30680031404E+02  0.35569534852E+01  0.40273950322E+02  0.51100000000E-03 0. -1.
        -11    1    3    3    0    0 -0.93903104346E-01  0.38377132103E+01 -0.10990711642E+02  0.11641847067E+02  0.51100000000E-03 0.  1.
        -12    1    3    3    0    0 -0.25354913779E+02  0.27637002048E+02  0.66573279249E+01  0.38091935498E+02  0.00000000000E+00 0.  1.
</event>
<event>
 7    1  0.1654239E-015  0.9000812E+02  0.7816164E-02  0.1186338E+00
        -11   -1    0    0    0    0  0.00000000000E+00  0.00000000000E+00  0.45593999997E+02  0.45594000000E+02  0.51100000000E-03 0.  1.
         11   -1    0    0    0    0 -0.00000000000E+00 -0.00000000000E+00 -0.45593999997E+02  0.45594000000E+02  0.51100000000E-03 0. -1.
    9900012    2    1    2    0    0 -0.89813715868E+00  0.29018635008E+00 -0.70799597637E+00  0.90008120016E+02  0.90000386400E+02 0.  0.
        -12    1    1    2    0    0  0.89813715868E+00 -0.29018635008E+00  0.70799597637E+00  0.11798799838E+01  0.00000000000E+00 0.  1.
         11    1    3    3    0    0 -0.59802433567E+01 -0.23327198243E+02 -0.26102092719E+02  0.35513951245E+02  0.51100000000E-03 0. -1.
        -11    1    3    3    0    0  0.32219351617E+01 -0.11954539918E+02  0.43572727950E+01  0.13125460651E+02  0.51100000000E-03 0.  1.
        -12    1    3    3    0    0  0.18601710363E+01  0.35571924511E+02  0.21036823948E+02  0.41368708120E+02  0.00000000000E+00 0.  1.
</event>
<event>
 7    1  0.1654239E-015  0.9000776E+02  0.7816164E-02  0.1186339E+00
        -11   -1    0    0    0    0  0.00000000000E+00  0.00000000000E+00  0.45593999997E+02  0.45594000000E+02  0.51100000000E-03 0.  1.
         11   -1    0    0    0    0 -0.00000000000E+00 -0.00000000000E+00 -0.45593999997E+02  0.45594000000E+02  0.51100000000E-03 0. -1.
    9900012    2    1    2    0    0 -0.58974053861E+00  0.57019021343E-01 -0.10207452717E+01  0.90007760202E+02  0.90000021836E+02 0.  0.
        -12    1    1    2    0    0  0.58974053861E+00 -0.57019021343E-01  0.10207452717E+01  0.11802397983E+01  0.00000000000E+00 0.  1.
         11    1    3    3    0    0 -0.21309349109E+02  0.30617331619E+02 -0.12354732319E+02  0.39295658359E+02  0.51100000000E-03 0. -1.
        -11    1    3    3    0    0  0.87005193161E+00  0.48914158470E+01  0.86723254255E+01  0.99946069407E+01  0.51100000000E-03 0.  1.
        -12    1    3    3    0    0  0.19849556639E+02 -0.35451728445E+02  0.26616616222E+01  0.40717494902E+02  0.00000000000E+00 0.  1.
</event>
<event>
 7    1  0.1654239E-015  0.9000721E+02  0.7816164E-02  0.1186340E+00
        -11   -1    0    0    0    0  0.00000000000E+00  0.00000000000E+00  0.45593999997E+02  0.45594000000E+02  0.51100000000E-03 0. -1.
         11   -1    0    0    0    0 -0.00000000000E+00 -0.00000000000E+00 -0.45593999997E+02  0.45594000000E+02  0.51100000000E-03 0.  1.
    9900012    2    1    2    0    0  0.10019734048E+01 -0.51685800272E+00  0.35096973408E+00  0.90007206770E+02  0.89999461097E+02 0.  0.
        -12    1    1    2    0    0 -0.10019734048E+01  0.51685800272E+00 -0.35096973408E+00  0.11807932304E+01  0.00000000000E+00 0.  1.
         11    1    3    3    0    0 -0.17458652649E+01 -0.69234330208E+01  0.58639136257E+01  0.92394509354E+01  0.51100000000E-03 0. -1.
        -11    1    3    3    0    0  0.41072874713E+02 -0.23974588883E+01 -0.49591913784E+01  0.41440589109E+02  0.51100000000E-03 0.  1.
         12    1    3    3    0    0 -0.38325036044E+02  0.88040339063E+01 -0.55375251320E+00  0.39327166725E+02  0.00000000000E+00 0. -1.
</event>
<event>
 7    1  0.1654239E-015  0.9000780E+02  0.7816164E-02  0.1186339E+00
        -11   -1    0    0    0    0  0.00000000000E+00  0.00000000000E+00  0.45593999997E+02  0.45594000000E+02  0.51100000000E-03 0. -1.
         11   -1    0    0    0    0 -0.00000000000E+00 -0.00000000000E+00 -0.45593999997E+02  0.45594000000E+02  0.51100000000E-03 0.  1.
    9900012    2    1    2    0    0  0.76772607030E+00 -0.33236103813E+00  0.83247617187E+00  0.90007795037E+02  0.90000057131E+02 0.  0.
        -12    1    1    2    0    0 -0.76772607030E+00  0.33236103813E+00 -0.83247617187E+00  0.11802049633E+01  0.00000000000E+00 0.  1.
         11    1    3    3    0    0 -0.92071926438E+00 -0.34722656803E+02  0.94381022309E+01  0.35994282787E+02  0.51100000000E-03 0. -1.
        -11    1    3    3    0    0 -0.94261207888E+00 -0.90566962668E+01 -0.48720157891E+01  0.10327090728E+02  0.51100000000E-03 0.  1.
        -12    1    3    3    0    0  0.26310574136E+01  0.43446992031E+02 -0.37336102699E+01  0.43686421521E+02  0.00000000000E+00 0.  1.
</event>
<event>
 7    1  0.1654239E-015  0.9000771E+02  0.7816164E-02  0.1186339E+00
        -11   -1    0    0    0    0  0.00000000000E+00  0.00000000000E+00  0.45593999997E+02  0.45594000000E+02  0.51100000000E-03 0. -1.
         11   -1    0    0    0    0 -0.00000000000E+00 -0.00000000000E+00 -0.45593999997E+02  0.45594000000E+02  0.51100000000E-03 0.  1.
    9900012    2    1    2    0    0 -0.31247562532E+00 -0.11360402785E+01 -0.69681798303E-01  0.90007710170E+02  0.89999971144E+02 0.  0.
        -12    1    1    2    0    0  0.31247562532E+00  0.11360402785E+01  0.69681798303E-01  0.11802898304E+01  0.00000000000E+00 0.  1.
         11    1    3    3    0    0 -0.34014749865E+02 -0.65362659222E+00 -0.19489257197E+02  0.39207927546E+02  0.51100000000E-03 0. -1.
        -11    1    3    3    0    0 -0.28450842720E+01  0.84221062293E+01  0.10934889894E+01  0.89566788646E+01  0.51100000000E-03 0.  1.
        -12    1    3    3    0    0  0.36547358512E+02 -0.89045199155E+01  0.18326086410E+02  0.41843103759E+02  0.00000000000E+00 0.  1.
</event>
<event>
 7    1  0.1654239E-015  0.9000775E+02  0.7816164E-02  0.1186339E+00
        -11   -1    0    0    0    0  0.00000000000E+00  0.00000000000E+00  0.45593999997E+02  0.45594000000E+02  0.51100000000E-03 0. -1.
         11   -1    0    0    0    0 -0.00000000000E+00 -0.00000000000E+00 -0.45593999997E+02  0.45594000000E+02  0.51100000000E-03 0.  1.
    9900012    2    1    2    0    0 -0.47122144928E+00 -0.10821047448E+01  0.59002951684E-03  0.90007745502E+02  0.90000006942E+02 0.  0.
        -12    1    1    2    0    0  0.47122144928E+00  0.10821047448E+01 -0.59002951685E-03  0.11802544984E+01  0.00000000000E+00 0.  1.
         11    1    3    3    0    0 -0.68646637918E+01 -0.29903351459E+01  0.56040583928E+01  0.93526030596E+01  0.51100000000E-03 0. -1.
        -11    1    3    3    0    0 -0.85972209369E+01 -0.30466123891E+02  0.19364970542E+02  0.37109284514E+02  0.51100000000E-03 0.  1.
         12    1    3    3    0    0  0.14990663279E+02  0.32374354292E+02 -0.24968438905E+02  0.43545857928E+02  0.00000000000E+00 0. -1.
</event>
<event>
 7    1  0.1654239E-015  0.9000793E+02  0.7816164E-02  0.1186339E+00
        -11   -1    0    0    0    0  0.00000000000E+00  0.00000000000E+00  0.45593999997E+02  0.45594000000E+02  0.51100000000E-03 0. -1.
         11   -1    0    0    0    0 -0.00000000000E+00 -0.00000000000E+00 -0.45593999997E+02  0.45594000000E+02  0.51100000000E-03 0.  1.
    9900012    2    1    2    0    0  0.76637024174E+00 -0.30746866427E+00  0.84303593500E+00  0.90007928004E+02  0.90000191854E+02 0.  0.
        -12    1    1    2    0    0 -0.76637024174E+00  0.30746866427E+00 -0.84303593500E+00  0.11800719955E+01  0.00000000000E+00 0.  1.
         11    1    3    3    0    0  0.75114743338E+01  0.67270945926E+01  0.30206872397E+01  0.10526186393E+02  0.51100000000E-03 0. -1.
        -11    1    3    3    0    0 -0.20148757536E+02  0.31143298668E+02 -0.96675231499E+01  0.38331951246E+02  0.51100000000E-03 0.  1.
         12    1    3    3    0    0  0.13403653444E+02 -0.38177861925E+02  0.74898718452E+01  0.41149790365E+02  0.00000000000E+00 0. -1.
</event>
<event>
 7    1  0.1654239E-015  0.9000781E+02  0.7816164E-02  0.1186339E+00
        -11   -1    0    0    0    0  0.00000000000E+00  0.00000000000E+00  0.45593999997E+02  0.45594000000E+02  0.51100000000E-03 0. -1.
         11   -1    0    0    0    0 -0.00000000000E+00 -0.00000000000E+00 -0.45593999997E+02  0.45594000000E+02  0.51100000000E-03 0.  1.
    9900012    2    1    2    0    0  0.73788936338E-01  0.78187326734E+00  0.88095508911E+00  0.90007808286E+02  0.90000070555E+02 0.  0.
        -12    1    1    2    0    0 -0.73788936338E-01 -0.78187326734E+00 -0.88095508911E+00  0.11801917142E+01  0.00000000000E+00 0.  1.
         11    1    3    3    0    0 -0.61388422856E+01 -0.18069857248E+01  0.58510750897E+01  0.86709666119E+01  0.51100000000E-03 0. -1.
        -11    1    3    3    0    0 -0.32014600394E+02 -0.18748459751E+02  0.12310594871E+01  0.37120814769E+02  0.51100000000E-03 0.  1.
         12    1    3    3    0    0  0.38227231616E+02  0.21337318743E+02 -0.62011794878E+01  0.44216026904E+02  0.00000000000E+00 0. -1.
</event>
<event>
 7    1  0.1654239E-015  0.9000780E+02  0.7816164E-02  0.1186339E+00
        -11   -1    0    0    0    0  0.00000000000E+00  0.00000000000E+00  0.45593999997E+02  0.45594000000E+02  0.51100000000E-03 0.  1.
         11   -1    0    0    0    0 -0.00000000000E+00 -0.00000000000E+00 -0.45593999997E+02  0.45594000000E+02  0.51100000000E-03 0. -1.
    9900012    2    1    2    0    0 -0.66554796897E+00  0.40365263874E+00 -0.88711615205E+00  0.90007803144E+02  0.90000065345E+02 0.  0.
        -12    1    1    2    0    0  0.66554796897E+00 -0.40365263874E+00  0.88711615205E+00  0.11801968560E+01  0.00000000000E+00 0.  1.
         11    1    3    3    0    0 -0.17297135330E+01 -0.66472837552E+01  0.87261346420E+01  0.11105121174E+02  0.51100000000E-03 0. -1.
        -11    1    3    3    0    0  0.15880016008E+02 -0.26567608384E+02  0.15286864895E+02  0.34521022034E+02  0.51100000000E-03 0.  1.
         12    1    3    3    0    0 -0.14815850444E+02  0.33618544778E+02 -0.24900115689E+02  0.44381659937E+02  0.00000000000E+00 0. -1.
</event>
<event>
 7    1  0.1654239E-015  0.9000782E+02  0.7816164E-02  0.1186339E+00
        -11   -1    0    0    0    0  0.00000000000E+00  0.00000000000E+00  0.45593999997E+02  0.45594000000E+02  0.51100000000E-03 0. -1.
         11   -1    0    0    0    0 -0.00000000000E+00 -0.00000000000E+00 -0.45593999997E+02  0.45594000000E+02  0.51100000000E-03 0.  1.
    9900012    2    1    2    0    0 -0.54004052003E+00 -0.14304267151E-01  0.10492693088E+01  0.90007824395E+02  0.90000086877E+02 0.  0.
        -12    1    1    2    0    0  0.54004052003E+00  0.14304267151E-01 -0.10492693088E+01  0.11801756046E+01  0.00000000000E+00 0.  1.
         11    1    3    3    0    0  0.30281483020E+01 -0.68044278995E+01  0.44598379229E+01  0.86810181280E+01  0.51100000000E-03 0. -1.
        -11    1    3    3    0    0  0.31190159629E+02 -0.15268372455E+02  0.12901435969E+02  0.37045867589E+02  0.51100000000E-03 0.  1.
         12    1    3    3    0    0 -0.34758348452E+02  0.22058496087E+02 -0.16312004583E+02  0.44280938678E+02  0.00000000000E+00 0. -1.
</event>
<event>
 7    1  0.2710986E-015  0.9000772E+02  0.7816164E-02  0.1186339E+00
        -11   -1    0    0    0    0  0.00000000000E+00  0.00000000000E+00  0.45593999997E+02  0.45594000000E+02  0.51100000000E-03 0. -1.
         11   -1    0    0    0    0 -0.00000000000E+00 -0.00000000000E+00 -0.45593999997E+02  0.45594000000E+02  0.51100000000E-03 0.  1.
    9900012    2    1    2    0    0  0.51705524383E+00 -0.65357429926E+00  0.83580157412E+00  0.90007716237E+02  0.89999977291E+02 0.  0.
        -12    1    1    2    0    0 -0.51705524383E+00  0.65357429926E+00 -0.83580157412E+00  0.11802837630E+01  0.00000000000E+00 0.  1.
         11    1    3    3    0    0  0.54919446673E+01  0.70871485864E+01  0.33397167832E+01  0.95678022433E+01  0.51100000000E-03 0. -1.
        -11    1    3    3    0    0 -0.10492940590E+02 -0.83803807521E+01 -0.40175792245E+02  0.42360675946E+02  0.51100000000E-03 0.  1.
         12    1    3    3    0    0  0.55180511666E+01  0.63965786643E+00  0.37671877036E+02  0.38079238048E+02  0.00000000000E+00 0. -1.
</event>
<event>
 7    1  0.1654239E-015  0.9000769E+02  0.7816164E-02  0.1186339E+00
        -11   -1    0    0    0    0  0.00000000000E+00  0.00000000000E+00  0.45593999997E+02  0.45594000000E+02  0.51100000000E-03 0. -1.
         11   -1    0    0    0    0 -0.00000000000E+00 -0.00000000000E+00 -0.45593999997E+02  0.45594000000E+02  0.51100000000E-03 0.  1.
    9900012    2    1    2    0    0 -0.30377975898E+00 -0.91509537865E+00 -0.68076418735E+00  0.90007694288E+02  0.89999955053E+02 0.  0.
        -12    1    1    2    0    0  0.30377975898E+00  0.91509537865E+00  0.68076418735E+00  0.11803057116E+01  0.00000000000E+00 0.  1.
         11    1    3    3    0    0  0.67541605798E+01 -0.13360417701E+01  0.62698972887E+01  0.93121052948E+01  0.51100000000E-03 0. -1.
        -11    1    3    3    0    0  0.30358353907E+01  0.37282734277E+02 -0.17133754277E+02  0.41143457653E+02  0.51100000000E-03 0.  1.
         12    1    3    3    0    0 -0.10093775730E+02 -0.36861787886E+02  0.10183092801E+02  0.39552131341E+02  0.00000000000E+00 0. -1.
</event>
<event>
 7    1  0.1654239E-015  0.9000780E+02  0.7816164E-02  0.1186339E+00
        -11   -1    0    0    0    0  0.00000000000E+00  0.00000000000E+00  0.45593999997E+02  0.45594000000E+02  0.51100000000E-03 0. -1.
         11   -1    0    0    0    0 -0.00000000000E+00 -0.00000000000E+00 -0.45593999997E+02  0.45594000000E+02  0.51100000000E-03 0.  1.
    9900012    2    1    2    0    0 -0.85231641663E+00 -0.51118383535E+00  0.63649107663E+00  0.90007799560E+02  0.90000061714E+02 0.  0.
        -12    1    1    2    0    0  0.85231641663E+00  0.51118383535E+00 -0.63649107663E+00  0.11802004398E+01  0.00000000000E+00 0.  1.
         11    1    3    3    0    0 -0.75499231210E+01 -0.40172011578E+01  0.70527799625E+00  0.85811806640E+01  0.51100000000E-03 0. -1.
        -11    1    3    3    0    0 -0.29173266073E+02  0.70027408776E+01 -0.23781813338E+02  0.38284363376E+02  0.51100000000E-03 0.  1.
         12    1    3    3    0    0  0.35870872778E+02 -0.34967235551E+01  0.23713026418E+02  0.43142255520E+02  0.00000000000E+00 0. -1.
</event>
<event>
 7    1  0.1654239E-015  0.9000737E+02  0.7816164E-02  0.1186340E+00
        -11   -1    0    0    0    0  0.00000000000E+00  0.00000000000E+00  0.45593999997E+02  0.45594000000E+02  0.51100000000E-03 0. -1.
         11   -1    0    0    0    0 -0.00000000000E+00 -0.00000000000E+00 -0.45593999997E+02  0.45594000000E+02  0.51100000000E-03 0.  1.
    9900012    2    1    2    0    0 -0.52801132900E+00 -0.68693806547E+00  0.80199745432E+00  0.90007373139E+02  0.89999629663E+02 0.  0.
        -12    1    1    2    0    0  0.52801132900E+00  0.68693806547E+00 -0.80199745432E+00  0.11806268615E+01  0.00000000000E+00 0.  1.
         11    1    3    3    0    0  0.12714647746E+02 -0.31088408302E+02 -0.23579212390E+01  0.33670628015E+02  0.51100000000E-03 0. -1.
        -11    1    3    3    0    0  0.99661430550E+01  0.44541922851E+01 -0.13814050081E+02  0.17606584456E+02  0.51100000000E-03 0.  1.
         12    1    3    3    0    0 -0.23208802130E+02  0.25947277952E+02  0.16973968774E+02  0.38730160668E+02  0.00000000000E+00 0. -1.
</event>
<event>
 7    1  0.1654239E-015  0.9000774E+02  0.7816164E-02  0.1186339E+00
        -11   -1    0    0    0    0  0.00000000000E+00  0.00000000000E+00  0.45593999997E+02  0.45594000000E+02  0.51100000000E-03 0. -1.
         11   -1    0    0    0    0 -0.00000000000E+00 -0.00000000000E+00 -0.45593999997E+02  0.45594000000E+02  0.51100000000E-03 0.  1.
    9900012    2    1    2    0    0 -0.19340269069E+00 -0.39892566952E+00  0.10938297706E+01  0.90007741614E+02  0.90000003003E+02 0.  0.
        -12    1    1    2    0    0  0.19340269069E+00  0.39892566952E+00 -0.10938297706E+01  0.11802583859E+01  0.00000000000E+00 0.  1.
         11    1    3    3    0    0  0.15369342187E+02 -0.32100753377E+02  0.16627728129E+02  0.39283029283E+02  0.51100000000E-03 0. -1.
        -11    1    3    3    0    0 -0.67022408328E+00  0.26116869188E+01  0.92974925755E+01  0.96805721596E+01  0.51100000000E-03 0.  1.
        -12    1    3    3    0    0 -0.14892520794E+02  0.29090140789E+02 -0.24831390934E+02  0.41044140172E+02  0.00000000000E+00 0.  1.
</event>
<event>
 7    1  0.1654239E-015  0.9000782E+02  0.7816164E-02  0.1186339E+00
        -11   -1    0    0    0    0  0.00000000000E+00  0.00000000000E+00  0.45593999997E+02  0.45594000000E+02  0.51100000000E-03 0.  1.
         11   -1    0    0    0    0 -0.00000000000E+00 -0.00000000000E+00 -0.45593999997E+02  0.45594000000E+02  0.51100000000E-03 0. -1.
    9900012    2    1    2    0    0  0.73771534151E+00 -0.37852960797E+00 -0.83983053467E+00  0.90007820388E+02  0.90000082817E+02 0.  0.
        -12    1    1    2    0    0 -0.73771534151E+00  0.37852960797E+00  0.83983053467E+00  0.11801796118E+01  0.00000000000E+00 0.  1.
         11    1    3    3    0    0  0.40399746120E+01 -0.70574302847E+01 -0.34715128943E+02  0.35654857942E+02  0.51100000000E-03 0. -1.
        -11    1    3    3    0    0  0.57474865204E+01  0.14971569301E+01 -0.86917303034E+01  0.10527167525E+02  0.51100000000E-03 0.  1.
        -12    1    3    3    0    0 -0.90497457909E+01  0.51817437467E+01  0.42567028711E+02  0.43825794921E+02  0.00000000000E+00 0.  1.
</event>
<event>
 7    1  0.1654239E-015  0.9000776E+02  0.7816164E-02  0.1186339E+00
        -11   -1    0    0    0    0  0.00000000000E+00  0.00000000000E+00  0.45593999997E+02  0.45594000000E+02  0.51100000000E-03 0.  1.
         11   -1    0    0    0    0 -0.00000000000E+00 -0.00000000000E+00 -0.45593999997E+02  0.45594000000E+02  0.51100000000E-03 0. -1.
    9900012    2    1    2    0    0 -0.42868667878E+00  0.58203085492E+00 -0.93296671260E+00  0.90007763129E+02  0.90000024802E+02 0.  0.
        -12    1    1    2    0    0  0.42868667878E+00 -0.58203085492E+00  0.93296671260E+00  0.11802368709E+01  0.00000000000E+00 0.  1.
         11    1    3    3    0    0 -0.12648158247E+01  0.99239432061E+01  0.23036666077E+01  0.10266025907E+02  0.51100000000E-03 0. -1.
        -11    1    3    3    0    0  0.20404247987E+02 -0.13726745314E+02  0.31300129105E+02  0.39805212662E+02  0.51100000000E-03 0.  1.
         12    1    3    3    0    0 -0.19568118842E+02  0.43848329632E+01 -0.34536762425E+02  0.39936524560E+02  0.00000000000E+00 0. -1.
</event>
<event>
 7    1  0.1654239E-015  0.9000723E+02  0.7816164E-02  0.1186340E+00
        -11   -1    0    0    0    0  0.00000000000E+00  0.00000000000E+00  0.45593999997E+02  0.45594000000E+02  0.51100000000E-03 0.  1.
         11   -1    0    0    0    0 -0.00000000000E+00 -0.00000000000E+00 -0.45593999997E+02  0.45594000000E+02  0.51100000000E-03 0. -1.
    9900012    2    1    2    0    0 -0.86708573284E+00 -0.49057936987E+00 -0.63380406684E+00  0.90007231868E+02  0.89999486527E+02 0.  0.
        -12    1    1    2    0    0  0.86708573284E+00  0.49057936987E+00  0.63380406684E+00  0.11807681319E+01  0.00000000000E+00 0.  1.
         11    1    3    3    0    0 -0.16233966502E+01 -0.28977718187E+02  0.22968538326E+01  0.29113898842E+02  0.51100000000E-03 0. -1.
        -11    1    3    3    0    0  0.22084994670E+02 -0.70379708124E+00 -0.96670004259E+01  0.24118317052E+02  0.51100000000E-03 0.  1.
        -12    1    3    3    0    0 -0.21328683753E+02  0.29190935899E+02  0.67363425264E+01  0.36775015974E+02  0.00000000000E+00 0.  1.
</event>
<event>
 7    1  0.1654239E-015  0.9000773E+02  0.7816164E-02  0.1186339E+00
        -11   -1    0    0    0    0  0.00000000000E+00  0.00000000000E+00  0.45593999997E+02  0.45594000000E+02  0.51100000000E-03 0.  1.
         11   -1    0    0    0    0 -0.00000000000E+00 -0.00000000000E+00 -0.45593999997E+02  0.45594000000E+02  0.51100000000E-03 0. -1.
    9900012    2    1    2    0    0  0.98888781120E+00  0.24609332992E+00 -0.59546907390E+00  0.90007726960E+02  0.89999988156E+02 0.  0.
        -12    1    1    2    0    0 -0.98888781120E+00 -0.24609332992E+00  0.59546907390E+00  0.11802730397E+01  0.00000000000E+00 0.  1.
         11    1    3    3    0    0  0.69701308925E+01 -0.83910298069E+00 -0.35721847470E+01  0.78770122889E+01  0.51100000000E-03 0. -1.
        -11    1    3    3    0    0  0.23904967818E+02  0.22862013742E+02 -0.19943801756E+02  0.38624789804E+02  0.51100000000E-03 0.  1.
         12    1    3    3    0    0 -0.29886210899E+02 -0.21776817431E+02  0.22920517429E+02  0.43505924867E+02  0.00000000000E+00 0. -1.
</event>
<event>
 7    1  0.1654239E-015  0.9000772E+02  0.7816164E-02  0.1186339E+00
        -11   -1    0    0    0    0  0.00000000000E+00  0.00000000000E+00  0.45593999997E+02  0.45594000000E+02  0.51100000000E-03 0.  1.
         11   -1    0    0    0    0 -0.00000000000E+00 -0.00000000000E+00 -0.45593999997E+02  0.45594000000E+02  0.51100000000E-03 0. -1.
    9900012    2    1    2    0    0 -0.37130811168E+00 -0.11121548887E+01 -0.13530884641E+00  0.90007717536E+02  0.89999978608E+02 0.  0.
        -12    1    1    2    0    0  0.37130811168E+00  0.11121548887E+01  0.13530884641E+00  0.11802824638E+01  0.00000000000E+00 0.  1.
         11    1    3    3    0    0 -0.26067157927E+01 -0.59193194470E+01  0.46505593478E+01  0.79662420530E+01  0.51100000000E-03 0. -1.
        -11    1    3    3    0    0  0.32179140033E+02  0.11546930072E+02  0.22537768112E+02  0.40948499839E+02  0.51100000000E-03 0.  1.
         12    1    3    3    0    0 -0.29943732352E+02 -0.67397655141E+01 -0.27323636306E+02  0.41092975644E+02  0.00000000000E+00 0. -1.
</event>
<event>
 7    1  0.1654239E-015  0.9000854E+02  0.7816164E-02  0.1186337E+00
        -11   -1    0    0    0    0  0.00000000000E+00  0.00000000000E+00  0.45593999997E+02  0.45594000000E+02  0.51100000000E-03 0. -1.
         11   -1    0    0    0    0 -0.00000000000E+00 -0.00000000000E+00 -0.45593999997E+02  0.45594000000E+02  0.51100000000E-03 0.  1.
    9900012    2    1    2    0    0  0.70747315075E-01 -0.37856863712E+00  0.11148113174E+01  0.90008540942E+02  0.90000812879E+02 0.  0.
        -12    1    1    2    0    0 -0.70747315075E-01  0.37856863712E+00 -0.11148113174E+01  0.11794590578E+01  0.00000000000E+00 0.  1.
         11    1    3    3    0    0  0.22202542664E+01  0.22899523995E+01  0.86552093352E+01  0.92242105297E+01  0.51100000000E-03 0. -1.
        -11    1    3    3    0    0 -0.21341953947E+02  0.31060935066E+02  0.87622071063E+01  0.38691561859E+02  0.51100000000E-03 0.  1.
         12    1    3    3    0    0  0.19192446995E+02 -0.33729456103E+02 -0.16302605124E+02  0.42092768553E+02  0.00000000000E+00 0. -1.
</event>
<event>
 7    1  0.1654239E-015  0.9000752E+02  0.7816164E-02  0.1186339E+00
        -11   -1    0    0    0    0  0.00000000000E+00  0.00000000000E+00  0.45593999997E+02  0.45594000000E+02  0.51100000000E-03 0. -1.
         11   -1    0    0    0    0 -0.00000000000E+00 -0.00000000000E+00 -0.45593999997E+02  0.45594000000E+02  0.51100000000E-03 0.  1.
    9900012    2    1    2    0    0 -0.11535645100E+01  0.13301230514E+00 -0.21245539762E+00  0.90007516773E+02  0.89999775195E+02 0.  0.
        -12    1    1    2    0    0  0.11535645100E+01 -0.13301230514E+00  0.21245539762E+00  0.11804832265E+01  0.00000000000E+00 0.  1.
         11    1    3    3    0    0  0.23877029101E+02  0.29844349930E+02 -0.18827829630E+02  0.42606160474E+02  0.51100000000E-03 0. -1.
        -11    1    3    3    0    0 -0.69440311589E+01 -0.66202938929E+01 -0.39690765243E+01  0.10382746683E+02  0.51100000000E-03 0.  1.
        -12    1    3    3    0    0 -0.18086562452E+02 -0.23091043732E+02  0.22584450757E+02  0.37018609617E+02  0.00000000000E+00 0.  1.
</event>
<event>
 7    1  0.1654239E-015  0.9000776E+02  0.7816164E-02  0.1186339E+00
        -11   -1    0    0    0    0  0.00000000000E+00  0.00000000000E+00  0.45593999997E+02  0.45594000000E+02  0.51100000000E-03 0.  1.
         11   -1    0    0    0    0 -0.00000000000E+00 -0.00000000000E+00 -0.45593999997E+02  0.45594000000E+02  0.51100000000E-03 0. -1.
    9900012    2    1    2    0    0 -0.67991187198E+00 -0.86984073774E+00 -0.41719954383E+00  0.90007763362E+02  0.90000025038E+02 0.  0.
        -12    1    1    2    0    0  0.67991187198E+00  0.86984073774E+00  0.41719954383E+00  0.11802366382E+01  0.00000000000E+00 0.  1.
         11    1    3    3    0    0  0.10210998283E+02  0.82187191288E+01 -0.38446277804E+02  0.40619307075E+02  0.51100000000E-03 0. -1.
        -11    1    3    3    0    0 -0.74893857974E+01  0.61456168161E+01  0.16841886946E+01  0.98334123016E+01  0.51100000000E-03 0.  1.
        -12    1    3    3    0    0 -0.34015243577E+01 -0.15234176683E+02  0.36344889565E+02  0.39555043985E+02  0.00000000000E+00 0.  1.
</event>
<event>
 7    1  0.1654239E-015  0.9000790E+02  0.7816164E-02  0.1186339E+00
        -11   -1    0    0    0    0  0.00000000000E+00  0.00000000000E+00  0.45593999997E+02  0.45594000000E+02  0.51100000000E-03 0.  1.
         11   -1    0    0    0    0 -0.00000000000E+00 -0.00000000000E+00 -0.45593999997E+02  0.45594000000E+02  0.51100000000E-03 0. -1.
    9900012    2    1    2    0    0 -0.29133408281E+00  0.93609189906E+00 -0.65688501768E+00  0.90007897666E+02  0.90000161115E+02 0.  0.
        -12    1    1    2    0    0  0.29133408281E+00 -0.93609189906E+00  0.65688501768E+00  0.11801023336E+01  0.00000000000E+00 0.  1.
         11    1    3    3    0    0 -0.67823209774E+01 -0.49405100000E+01 -0.34880125922E+01  0.90870649280E+01  0.51100000000E-03 0. -1.
        -11    1    3    3    0    0 -0.24256677160E+02 -0.25407208236E+02  0.98880748295E+01  0.36492281941E+02  0.51100000000E-03 0.  1.
         12    1    3    3    0    0  0.30747664055E+02  0.31283810135E+02 -0.70569472549E+01  0.44428550797E+02  0.00000000000E+00 0. -1.
</event>
<event>
 7    1  0.1654239E-015  0.9000778E+02  0.7816164E-02  0.1186339E+00
        -11   -1    0    0    0    0  0.00000000000E+00  0.00000000000E+00  0.45593999997E+02  0.45594000000E+02  0.51100000000E-03 0.  1.
         11   -1    0    0    0    0 -0.00000000000E+00 -0.00000000000E+00 -0.45593999997E+02  0.45594000000E+02  0.51100000000E-03 0. -1.
    9900012    2    1    2    0    0  0.72587206191E+00 -0.38019827070E+00 -0.84940405721E+00  0.90007776196E+02  0.90000038042E+02 0.  0.
        -12    1    1    2    0    0 -0.72587206191E+00  0.38019827070E+00  0.84940405721E+00  0.11802238041E+01  0.00000000000E+00 0.  1.
         11    1    3    3    0    0  0.78336094657E+01 -0.59562814912E+01  0.34024041961E+01  0.10412448369E+02  0.51100000000E-03 0. -1.
        -11    1    3    3    0    0  0.11741057092E+02 -0.14960631072E+02  0.29946903213E+02  0.35475201424E+02  0.51100000000E-03 0.  1.
         12    1    3    3    0    0 -0.18848794496E+02  0.20536714293E+02 -0.34198711467E+02  0.44120126403E+02  0.00000000000E+00 0. -1.
</event>
<event>
 7    1  0.1654239E-015  0.9000776E+02  0.7816164E-02  0.1186339E+00
        -11   -1    0    0    0    0  0.00000000000E+00  0.00000000000E+00  0.45593999997E+02  0.45594000000E+02  0.51100000000E-03 0.  1.
         11   -1    0    0    0    0 -0.00000000000E+00 -0.00000000000E+00 -0.45593999997E+02  0.45594000000E+02  0.51100000000E-03 0. -1.
    9900012    2    1    2    0    0 -0.17673118037E+00  0.97777266219E+00 -0.63694146954E+00  0.90007759463E+02  0.90000021088E+02 0.  0.
        -12    1    1    2    0    0  0.17673118037E+00 -0.97777266219E+00  0.63694146954E+00  0.11802405368E+01  0.00000000000E+00 0.  1.
         11    1    3    3    0    0 -0.64673961726E+01 -0.65529001009E+01  0.19004408170E+01  0.94010312491E+01  0.51100000000E-03 0. -1.
        -11    1    3    3    0    0 -0.34439930981E+02  0.17301677057E+02  0.11479086116E+01  0.38558715868E+02  0.51100000000E-03 0.  1.
         12    1    3    3    0    0  0.40730595973E+02 -0.97710042938E+01 -0.36852908982E+01  0.42048012346E+02  0.00000000000E+00 0. -1.
</event>
<event>
 7    1  0.1654239E-015  0.9000807E+02  0.7816164E-02  0.1186338E+00
        -11   -1    0    0    0    0  0.00000000000E+00  0.00000000000E+00  0.45593999997E+02  0.45594000000E+02  0.51100000000E-03 0. -1.
         11   -1    0    0    0    0 -0.00000000000E+00 -0.00000000000E+00 -0.45593999997E+02  0.45594000000E+02  0.51100000000E-03 0.  1.
    9900012    2    1    2    0    0 -0.51728025316E+00 -0.30538242596E+00  0.10155821521E+01  0.90008065937E+02  0.90000331606E+02 0.  0.
        -12    1    1    2    0    0  0.51728025316E+00  0.30538242596E+00 -0.10155821521E+01  0.11799340634E+01  0.00000000000E+00 0.  1.
         11    1    3    3    0    0 -0.38148257894E+01  0.71163740830E+01 -0.12163318031E+01  0.81654846280E+01  0.51100000000E-03 0. -1.
        -11    1    3    3    0    0 -0.27249300189E+02  0.20387679043E+02 -0.14862401202E+02  0.37135869282E+02  0.51100000000E-03 0.  1.
         12    1    3    3    0    0  0.30546845725E+02 -0.27809435552E+02  0.17094315158E+02  0.44706712027E+02  0.00000000000E+00 0. -1.
</event>
<event>
 7    1  0.1654239E-015  0.9000769E+02  0.7816164E-02  0.1186339E+00
        -11   -1    0    0    0    0  0.00000000000E+00  0.00000000000E+00  0.45593999997E+02  0.45594000000E+02  0.51100000000E-03 0.  1.
         11   -1    0    0    0    0 -0.00000000000E+00 -0.00000000000E+00 -0.45593999997E+02  0.45594000000E+02  0.51100000000E-03 0. -1.
    9900012    2    1    2    0    0  0.65005579316E+00  0.47314711133E+00 -0.86411454986E+00  0.90007688737E+02  0.89999949428E+02 0.  0.
        -12    1    1    2    0    0 -0.65005579316E+00 -0.47314711133E+00  0.86411454986E+00  0.11803112634E+01  0.00000000000E+00 0.  1.
         11    1    3    3    0    0  0.58801285881E+01  0.55857148539E+01  0.62969346221E+01  0.10267789856E+02  0.51100000000E-03 0. -1.
        -11    1    3    3    0    0  0.94693406850E+01  0.34719378414E+02  0.29070849869E+01  0.36104775222E+02  0.51100000000E-03 0.  1.
         12    1    3    3    0    0 -0.14699413480E+02 -0.39831946156E+02 -0.10068134159E+02  0.43635123658E+02  0.00000000000E+00 0. -1.
</event>
<event>
 7    1  0.1654239E-015  0.9000773E+02  0.7816164E-02  0.1186339E+00
        -11   -1    0    0    0    0  0.00000000000E+00  0.00000000000E+00  0.45593999997E+02  0.45594000000E+02  0.51100000000E-03 0. -1.
         11   -1    0    0    0    0 -0.00000000000E+00 -0.00000000000E+00 -0.45593999997E+02  0.45594000000E+02  0.51100000000E-03 0.  1.
    9900012    2    1    2    0    0  0.10036124563E+01 -0.41448947662E+00  0.46259087095E+00  0.90007733165E+02  0.89999994442E+02 0.  0.
        -12    1    1    2    0    0 -0.10036124563E+01  0.41448947662E+00 -0.46259087095E+00  0.11802668353E+01  0.00000000000E+00 0.  1.
         11    1    3    3    0    0  0.13315969301E+02  0.30374306336E+02  0.15877269589E+02  0.36769569126E+02  0.51100000000E-03 0. -1.
        -11    1    3    3    0    0 -0.31834795836E+01  0.36893191247E+01  0.88484010292E+01  0.10101476075E+02  0.51100000000E-03 0.  1.
        -12    1    3    3    0    0 -0.91288772608E+01 -0.34478114937E+02 -0.24263079747E+02  0.43136687964E+02  0.00000000000E+00 0.  1.
</event>
<event>
 7    1  0.1654239E-015  0.9000792E+02  0.7816164E-02  0.1186339E+00
        -11   -1    0    0    0    0  0.00000000000E+00  0.00000000000E+00  0.45593999997E+02  0.45594000000E+02  0.51100000000E-03 0. -1.
         11   -1    0    0    0    0 -0.00000000000E+00 -0.00000000000E+00 -0.45593999997E+02  0.45594000000E+02  0.51100000000E-03 0.  1.
    9900012    2    1    2    0    0  0.18770063246E+00 -0.24943559191E+00  0.11380393667E+01  0.90007922358E+02  0.90000186133E+02 0.  0.
        -12    1    1    2    0    0 -0.18770063246E+00  0.24943559191E+00 -0.11380393667E+01  0.11800776424E+01  0.00000000000E+00 0.  1.
         11    1    3    3    0    0  0.28971294806E+02 -0.21670781054E+02  0.17812077203E+02  0.40326526863E+02  0.51100000000E-03 0. -1.
        -11    1    3    3    0    0 -0.40047305977E+01  0.36748265584E+01  0.85416476216E+01  0.10124325249E+02  0.51100000000E-03 0.  1.
        -12    1    3    3    0    0 -0.24778863576E+02  0.17746518904E+02 -0.25215685458E+02  0.39557070246E+02  0.00000000000E+00 0.  1.
</event>
<event>
 7    1  0.1654239E-015  0.9000776E+02  0.7816164E-02  0.1186339E+00
        -11   -1    0    0    0    0  0.00000000000E+00  0.00000000000E+00  0.45593999997E+02  0.45594000000E+02  0.51100000000E-03 0.  1.
         11   -1    0    0    0    0 -0.00000000000E+00 -0.00000000000E+00 -0.45593999997E+02  0.45594000000E+02  0.51100000000E-03 0. -1.
    9900012    2    1    2    0    0  0.75300421550E+00 -0.58428114472E+00  0.69610648259E+00  0.90007761024E+02  0.90000022670E+02 0.  0.
        -12    1    1    2    0    0 -0.75300421550E+00  0.58428114472E+00 -0.69610648259E+00  0.11802389757E+01  0.00000000000E+00 0.  1.
         11    1    3    3    0    0  0.21724867014E+02  0.30242547314E+02 -0.61572394286E+01  0.37742457689E+02  0.51100000000E-03 0. -1.
        -11    1    3    3    0    0 -0.24357080476E+01  0.72290619389E+01 -0.39329374922E+01  0.85825408702E+01  0.51100000000E-03 0.  1.
        -12    1    3    3    0    0 -0.18536154751E+02 -0.38055890397E+02  0.10786283403E+02  0.43682762465E+02  0.00000000000E+00 0.  1.
</event>
<event>
 7    1  0.1654239E-015  0.9000770E+02  0.7816164E-02  0.1186339E+00
        -11   -1    0    0    0    0  0.00000000000E+00  0.00000000000E+00  0.45593999997E+02  0.45594000000E+02  0.51100000000E-03 0.  1.
         11   -1    0    0    0    0 -0.00000000000E+00 -0.00000000000E+00 -0.45593999997E+02  0.45594000000E+02  0.51100000000E-03 0. -1.
    9900012    2    1    2    0    0  0.44383579988E+00 -0.79632313570E+00  0.74966220096E+00  0.90007697425E+02  0.89999958231E+02 0.  0.
        -12    1    1    2    0    0 -0.44383579988E+00  0.79632313570E+00 -0.74966220096E+00  0.11803025753E+01  0.00000000000E+00 0.  1.
         11    1    3    3    0    0  0.20701935241E+01 -0.88443979897E+01  0.20693227069E+01  0.93161780658E+01  0.51100000000E-03 0. -1.
        -11    1    3    3    0    0 -0.45657839722E+01  0.95817637940E+01  0.38906831686E+02  0.40328626716E+02  0.51100000000E-03 0.  1.
         12    1    3    3    0    0  0.29394262481E+01 -0.15336889401E+01 -0.40226492192E+02  0.40362892643E+02  0.00000000000E+00 0. -1.
</event>
<event>
 7    1  0.1654239E-015  0.9000774E+02  0.7816164E-02  0.1186339E+00
        -11   -1    0    0    0    0  0.00000000000E+00  0.00000000000E+00  0.45593999997E+02  0.45594000000E+02  0.51100000000E-03 0. -1.
         11   -1    0    0    0    0 -0.00000000000E+00 -0.00000000000E+00 -0.45593999997E+02  0.45594000000E+02  0.51100000000E-03 0.  1.
    9900012    2    1    2    0    0 -0.26067732517E+00  0.11340304887E+01  0.19759168247E+00  0.90007737195E+02  0.89999998525E+02 0.  0.
        -12    1    1    2    0    0  0.26067732517E+00 -0.11340304887E+01 -0.19759168247E+00  0.11802628055E+01  0.00000000000E+00 0.  1.
         11    1    3    3    0    0  0.16265004213E+02  0.92496746803E+01  0.32409256321E+02  0.37422810414E+02  0.51100000000E-03 0. -1.
        -11    1    3    3    0    0 -0.62836094945E+01  0.27356621683E+01  0.75016938472E+01  0.10160856589E+02  0.51100000000E-03 0.  1.
        -12    1    3    3    0    0 -0.10242072044E+02 -0.10851306360E+02 -0.39713358486E+02  0.42424070192E+02  0.00000000000E+00 0.  1.
</event>
<event>
 7    1  0.1654239E-015  0.9000889E+02  0.7816164E-02  0.1186337E+00
        -11   -1    0    0    0    0  0.00000000000E+00  0.00000000000E+00  0.45593999997E+02  0.45594000000E+02  0.51100000000E-03 0.  1.
         11   -1    0    0    0    0 -0.00000000000E+00 -0.00000000000E+00 -0.45593999997E+02  0.45594000000E+02  0.51100000000E-03 0. -1.
    9900012    2    1    2    0    0  0.80466399409E+00 -0.84511366341E+00  0.16914729225E+00  0.90008885055E+02  0.90001161530E+02 0.  0.
        -12    1    1    2    0    0 -0.80466399409E+00  0.84511366341E+00 -0.16914729225E+00  0.11791149452E+01  0.00000000000E+00 0.  1.
         11    1    3    3    0    0 -0.26720700492E+01  0.56265889084E+01  0.77576771346E+01  0.99488700805E+01  0.51100000000E-03 0. -1.
        -11    1    3    3    0    0 -0.85579606518E+01 -0.44327154105E+01  0.34716391445E+02  0.36029369848E+02  0.51100000000E-03 0.  1.
         12    1    3    3    0    0  0.12034694695E+02 -0.20389871614E+01 -0.42304921288E+02  0.44030645126E+02  0.00000000000E+00 0. -1.
</event>
<event>
 7    1  0.1654239E-015  0.9000776E+02  0.7816164E-02  0.1186339E+00
        -11   -1    0    0    0    0  0.00000000000E+00  0.00000000000E+00  0.45593999997E+02  0.45594000000E+02  0.51100000000E-03 0. -1.
         11   -1    0    0    0    0 -0.00000000000E+00 -0.00000000000E+00 -0.45593999997E+02  0.45594000000E+02  0.51100000000E-03 0.  1.
    9900012    2    1    2    0    0  0.11496563091E+01  0.26122024872E+00 -0.54964419328E-01  0.90007759883E+02  0.90000021513E+02 0.  0.
        -12    1    1    2    0    0 -0.11496563091E+01 -0.26122024872E+00  0.54964419328E-01  0.11802401174E+01  0.00000000000E+00 0.  1.
         11    1    3    3    0    0 -0.28700083254E+01 -0.16461135985E+02  0.30709994221E+02  0.34961545890E+02  0.51100000000E-03 0. -1.
        -11    1    3    3    0    0  0.13907547790E+02 -0.16562861894E+01  0.39400902658E+01  0.14549483875E+02  0.51100000000E-03 0.  1.
        -12    1    3    3    0    0 -0.98878831555E+01  0.18378642423E+02 -0.34705048906E+02  0.40496730117E+02  0.00000000000E+00 0.  1.
</event>
<event>
 7    1  0.1654239E-015  0.9000685E+02  0.7816164E-02  0.1186341E+00
        -11   -1    0    0    0    0  0.00000000000E+00  0.00000000000E+00  0.45593999997E+02  0.45594000000E+02  0.51100000000E-03 0.  1.
         11   -1    0    0    0    0 -0.00000000000E+00 -0.00000000000E+00 -0.45593999997E+02  0.45594000000E+02  0.51100000000E-03 0. -1.
    9900012    2    1    2    0    0  0.32499910086E+00  0.11287381088E+01 -0.12421858068E+00  0.90006854628E+02  0.89999104305E+02 0.  0.
        -12    1    1    2    0    0 -0.32499910086E+00 -0.11287381088E+01  0.12421858068E+00  0.11811453720E+01  0.00000000000E+00 0.  1.
         11    1    3    3    0    0  0.16280101413E+02 -0.23611490820E+02 -0.19259383229E+02  0.34546606829E+02  0.51100000000E-03 0. -1.
        -11    1    3    3    0    0  0.77044948880E+01 -0.79214570404E+01  0.57883260075E+00  0.11065431332E+02  0.51100000000E-03 0.  1.
        -12    1    3    3    0    0 -0.23659597200E+02  0.32661685970E+02  0.18556332048E+02  0.44394816467E+02  0.00000000000E+00 0.  1.
</event>
<event>
 7    1  0.1654239E-015  0.9000778E+02  0.7816164E-02  0.1186339E+00
        -11   -1    0    0    0    0  0.00000000000E+00  0.00000000000E+00  0.45593999997E+02  0.45594000000E+02  0.51100000000E-03 0. -1.
         11   -1    0    0    0    0 -0.00000000000E+00 -0.00000000000E+00 -0.45593999997E+02  0.45594000000E+02  0.51100000000E-03 0.  1.
    9900012    2    1    2    0    0  0.82927626938E+00 -0.88796331033E-01  0.83505900074E+00  0.90007784997E+02  0.90000046959E+02 0.  0.
        -12    1    1    2    0    0 -0.82927626938E+00  0.88796331033E-01 -0.83505900074E+00  0.11802150033E+01  0.00000000000E+00 0.  1.
         11    1    3    3    0    0 -0.18878051112E+01 -0.74155068832E+01  0.78949773880E+01  0.10994735954E+02  0.51100000000E-03 0. -1.
        -11    1    3    3    0    0 -0.28869296331E+02 -0.21201937933E+02  0.29461711075E+00  0.35819620912E+02  0.51100000000E-03 0.  1.
         12    1    3    3    0    0  0.31586377712E+02  0.28528648485E+02 -0.73545354980E+01  0.43193428131E+02  0.00000000000E+00 0. -1.
</event>
<event>
 7    1  0.1654239E-015  0.9000757E+02  0.7816164E-02  0.1186339E+00
        -11   -1    0    0    0    0  0.00000000000E+00  0.00000000000E+00  0.45593999997E+02  0.45594000000E+02  0.51100000000E-03 0. -1.
         11   -1    0    0    0    0 -0.00000000000E+00 -0.00000000000E+00 -0.45593999997E+02  0.45594000000E+02  0.51100000000E-03 0.  1.
    9900012    2    1    2    0    0 -0.42092384701E+00  0.86149685949E+00  0.68852579277E+00  0.90007567244E+02  0.89999826332E+02 0.  0.
        -12    1    1    2    0    0  0.42092384701E+00 -0.86149685949E+00 -0.68852579277E+00  0.11804327559E+01  0.00000000000E+00 0.  1.
         11    1    3    3    0    0  0.82739505390E+01  0.35824942069E+02  0.17020453686E+02  0.40516423531E+02  0.51100000000E-03 0. -1.
        -11    1    3    3    0    0 -0.11817805241E+02 -0.28777088563E+01  0.21200712362E+01  0.12346514945E+02  0.51100000000E-03 0.  1.
        -12    1    3    3    0    0  0.31229308549E+01 -0.32085736354E+02 -0.18451999129E+02  0.37144628768E+02  0.00000000000E+00 0.  1.
</event>
<event>
 7    1  0.1654239E-015  0.9000798E+02  0.7816164E-02  0.1186339E+00
        -11   -1    0    0    0    0  0.00000000000E+00  0.00000000000E+00  0.45593999997E+02  0.45594000000E+02  0.51100000000E-03 0. -1.
         11   -1    0    0    0    0 -0.00000000000E+00 -0.00000000000E+00 -0.45593999997E+02  0.45594000000E+02  0.51100000000E-03 0.  1.
    9900012    2    1    2    0    0  0.58253770176E+00  0.49598871235E+00  0.89838919965E+00  0.90007975369E+02  0.90000239843E+02 0.  0.
        -12    1    1    2    0    0 -0.58253770176E+00 -0.49598871235E+00 -0.89838919965E+00  0.11800246314E+01  0.00000000000E+00 0.  1.
         11    1    3    3    0    0  0.31514639448E+02 -0.21665078121E+02  0.12070639540E+02  0.40102973066E+02  0.51100000000E-03 0. -1.
        -11    1    3    3    0    0 -0.82370405120E+01 -0.24568511330E+01  0.76391036734E+01  0.11499602562E+02  0.51100000000E-03 0.  1.
        -12    1    3    3    0    0 -0.22695061235E+02  0.24617917966E+02 -0.18811354014E+02  0.38405399741E+02  0.00000000000E+00 0.  1.
</event>
<event>
 7    1  0.1654239E-015  0.9000770E+02  0.7816164E-02  0.1186339E+00
        -11   -1    0    0    0    0  0.00000000000E+00  0.00000000000E+00  0.45593999997E+02  0.45594000000E+02  0.51100000000E-03 0.  1.
         11   -1    0    0    0    0 -0.00000000000E+00 -0.00000000000E+00 -0.45593999997E+02  0.45594000000E+02  0.51100000000E-03 0. -1.
    9900012    2    1    2    0    0  0.64454213472E+00  0.36453389263E+00 -0.91912089579E+00  0.90007702265E+02  0.89999963135E+02 0.  0.
        -12    1    1    2    0    0 -0.64454213472E+00 -0.36453389263E+00  0.91912089579E+00  0.11802977351E+01  0.00000000000E+00 0.  1.
         11    1    3    3    0    0 -0.22080967537E+02 -0.13821993682E+02 -0.27911099657E+02  0.38179132010E+02  0.51100000000E-03 0. -1.
        -11    1    3    3    0    0  0.25933576510E+01  0.11402218885E+01 -0.85167579264E+01  0.89755654807E+01  0.51100000000E-03 0.  1.
        -12    1    3    3    0    0  0.20132152021E+02  0.13046305686E+02  0.35508736687E+02  0.42853004774E+02  0.00000000000E+00 0.  1.
</event>
<event>
 7    1  0.1654239E-015  0.9000774E+02  0.7816164E-02  0.1186339E+00
        -11   -1    0    0    0    0  0.00000000000E+00  0.00000000000E+00  0.45593999997E+02  0.45594000000E+02  0.51100000000E-03 0. -1.
         11   -1    0    0    0    0 -0.00000000000E+00 -0.00000000000E+00 -0.45593999997E+02  0.45594000000E+02  0.51100000000E-03 0.  1.
    9900012    2    1    2    0    0  0.37010065910E+00  0.83324781548E+00  0.74949549585E+00  0.90007737352E+02  0.89999998685E+02 0.  0.
        -12    1    1    2    0    0 -0.37010065910E+00 -0.83324781548E+00 -0.74949549585E+00  0.11802626480E+01  0.00000000000E+00 0.  1.
         11    1    3    3    0    0 -0.17944094086E+01  0.15059844857E+02  0.70876795190E+01  0.16740789512E+02  0.51100000000E-03 0. -1.
        -11    1    3    3    0    0  0.15606230691E+02 -0.28450920898E+01 -0.35678402227E+02  0.39046092904E+02  0.51100000000E-03 0.  1.
         12    1    3    3    0    0 -0.13441720623E+02 -0.11381504952E+02  0.29340218204E+02  0.34220854936E+02  0.00000000000E+00 0. -1.
</event>
<event>
 7    1  0.1654239E-015  0.9000789E+02  0.7816164E-02  0.1186339E+00
        -11   -1    0    0    0    0  0.00000000000E+00  0.00000000000E+00  0.45593999997E+02  0.45594000000E+02  0.51100000000E-03 0. -1.
         11   -1    0    0    0    0 -0.00000000000E+00 -0.00000000000E+00 -0.45593999997E+02  0.45594000000E+02  0.51100000000E-03 0.  1.
    9900012    2    1    2    0    0 -0.12235147180E+00 -0.11484857563E+01  0.24222298140E+00  0.90007889248E+02  0.90000152586E+02 0.  0.
        -12    1    1    2    0    0  0.12235147180E+00  0.11484857563E+01 -0.24222298140E+00  0.11801107523E+01  0.00000000000E+00 0.  1.
         11    1    3    3    0    0 -0.18783784836E+02 -0.11798302811E+02  0.18595465109E+02  0.28945152355E+02  0.51100000000E-03 0. -1.
        -11    1    3    3    0    0 -0.19004331196E+02  0.26124124655E-01 -0.43349050811E+01  0.19492477754E+02  0.51100000000E-03 0.  1.
         12    1    3    3    0    0  0.37665764560E+02  0.10623692930E+02 -0.14018337046E+02  0.41570259139E+02  0.00000000000E+00 0. -1.
</event>
<event>
 7    1  0.1654239E-015  0.9000760E+02  0.7816164E-02  0.1186339E+00
        -11   -1    0    0    0    0  0.00000000000E+00  0.00000000000E+00  0.45593999997E+02  0.45594000000E+02  0.51100000000E-03 0.  1.
         11   -1    0    0    0    0 -0.00000000000E+00 -0.00000000000E+00 -0.45593999997E+02  0.45594000000E+02  0.51100000000E-03 0. -1.
    9900012    2    1    2    0    0 -0.46064356252E+00 -0.68026481830E+00 -0.84758338000E+00  0.90007597399E+02  0.89999856884E+02 0.  0.
        -12    1    1    2    0    0  0.46064356252E+00  0.68026481830E+00  0.84758338000E+00  0.11804026011E+01  0.00000000000E+00 0.  1.
         11    1    3    3    0    0  0.66353768273E+01  0.89190874027E+01 -0.47172000353E+01  0.12076022614E+02  0.51100000000E-03 0. -1.
        -11    1    3    3    0    0 -0.22810870585E+02  0.23942878687E+02  0.18747813686E+02  0.38014178604E+02  0.51100000000E-03 0.  1.
         12    1    3    3    0    0  0.15714850195E+02 -0.33542230908E+02 -0.14878197031E+02  0.39917396181E+02  0.00000000000E+00 0. -1.
</event>
<event>
 7    1  0.1654239E-015  0.9000773E+02  0.7816164E-02  0.1186339E+00
        -11   -1    0    0    0    0  0.00000000000E+00  0.00000000000E+00  0.45593999997E+02  0.45594000000E+02  0.51100000000E-03 0. -1.
         11   -1    0    0    0    0 -0.00000000000E+00 -0.00000000000E+00 -0.45593999997E+02  0.45594000000E+02  0.51100000000E-03 0.  1.
    9900012    2    1    2    0    0 -0.73849681007E-01  0.10839022911E+01 -0.46124882010E+00  0.90007725275E+02  0.89999986449E+02 0.  0.
        -12    1    1    2    0    0  0.73849681007E-01 -0.10839022911E+01  0.46124882010E+00  0.11802747248E+01  0.00000000000E+00 0.  1.
         11    1    3    3    0    0 -0.26703366647E+00  0.48809189540E+01 -0.12947932765E+02  0.13839929190E+02  0.51100000000E-03 0. -1.
        -11    1    3    3    0    0 -0.35470585540E+02 -0.72018324855E+00  0.18272528901E+02  0.39906972012E+02  0.51100000000E-03 0.  1.
         12    1    3    3    0    0  0.35663769526E+02 -0.30768334144E+01 -0.57858449554E+01  0.36260824074E+02  0.00000000000E+00 0. -1.
</event>
<event>
 7    1  0.1654239E-015  0.9000720E+02  0.7816164E-02  0.1186340E+00
        -11   -1    0    0    0    0  0.00000000000E+00  0.00000000000E+00  0.45593999997E+02  0.45594000000E+02  0.51100000000E-03 0. -1.
         11   -1    0    0    0    0 -0.00000000000E+00 -0.00000000000E+00 -0.45593999997E+02  0.45594000000E+02  0.51100000000E-03 0.  1.
    9900012    2    1    2    0    0  0.11618489180E+01 -0.17656433153E+00 -0.11500693460E+00  0.90007197533E+02  0.89999451739E+02 0.  0.
        -12    1    1    2    0    0 -0.11618489180E+01  0.17656433153E+00  0.11500693460E+00  0.11808024672E+01  0.00000000000E+00 0.  1.
         11    1    3    3    0    0 -0.34771697666E+02  0.22258514609E+02  0.96805046867E+01  0.42405478449E+02  0.51100000000E-03 0. -1.
        -11    1    3    3    0    0  0.98571588462E+01 -0.12634313628E+02  0.39988674211E+01  0.16516064975E+02  0.51100000000E-03 0.  1.
        -12    1    3    3    0    0  0.26076387738E+02 -0.98007653131E+01 -0.13794379042E+02  0.31085654109E+02  0.00000000000E+00 0.  1.
</event>
<event>
 7    1  0.1654239E-015  0.9000791E+02  0.7816164E-02  0.1186339E+00
        -11   -1    0    0    0    0  0.00000000000E+00  0.00000000000E+00  0.45593999997E+02  0.45594000000E+02  0.51100000000E-03 0. -1.
         11   -1    0    0    0    0 -0.00000000000E+00 -0.00000000000E+00 -0.45593999997E+02  0.45594000000E+02  0.51100000000E-03 0.  1.
    9900012    2    1    2    0    0  0.29087660853E+00  0.10800029415E+00  0.11385690112E+01  0.90007909894E+02  0.90000173504E+02 0.  0.
        -12    1    1    2    0    0 -0.29087660853E+00 -0.10800029415E+00 -0.11385690112E+01  0.11800901060E+01  0.00000000000E+00 0.  1.
         11    1    3    3    0    0 -0.22996174273E+01  0.48349298621E+01  0.32950585281E+00  0.53640806716E+01  0.51100000000E-03 0. -1.
        -11    1    3    3    0    0  0.14924680655E+02  0.23929000036E+02 -0.29736066757E+02  0.40982640249E+02  0.51100000000E-03 0.  1.
         12    1    3    3    0    0 -0.12334186619E+02 -0.28655929604E+02  0.30545129915E+02  0.43661188973E+02  0.00000000000E+00 0. -1.
</event>
<event>
 7    1  0.1654239E-015  0.9000776E+02  0.7816164E-02  0.1186339E+00
        -11   -1    0    0    0    0  0.00000000000E+00  0.00000000000E+00  0.45593999997E+02  0.45594000000E+02  0.51100000000E-03 0. -1.
         11   -1    0    0    0    0 -0.00000000000E+00 -0.00000000000E+00 -0.45593999997E+02  0.45594000000E+02  0.51100000000E-03 0.  1.
    9900012    2    1    2    0    0 -0.58235806619E+00 -0.82528338155E+00 -0.61051400902E+00  0.90007762341E+02  0.90000024004E+02 0.  0.
        -12    1    1    2    0    0  0.58235806619E+00  0.82528338155E+00  0.61051400902E+00  0.11802376593E+01  0.00000000000E+00 0.  1.
         11    1    3    3    0    0 -0.57418612761E+01 -0.47408931986E+01 -0.68995011697E+01  0.10151263758E+02  0.51100000000E-03 0. -1.
        -11    1    3    3    0    0 -0.33000154420E+01  0.20865044735E+02 -0.31301454974E+02  0.37762696904E+02  0.51100000000E-03 0.  1.
         12    1    3    3    0    0  0.84595186520E+01 -0.16949434918E+02  0.37590442135E+02  0.42093801679E+02  0.00000000000E+00 0. -1.
</event>
<event>
 7    1  0.1654239E-015  0.9000782E+02  0.7816164E-02  0.1186339E+00
        -11   -1    0    0    0    0  0.00000000000E+00  0.00000000000E+00  0.45593999997E+02  0.45594000000E+02  0.51100000000E-03 0. -1.
         11   -1    0    0    0    0 -0.00000000000E+00 -0.00000000000E+00 -0.45593999997E+02  0.45594000000E+02  0.51100000000E-03 0.  1.
    9900012    2    1    2    0    0 -0.27762016512E+00 -0.11446921622E+01  0.73683180126E-01  0.90007821067E+02  0.90000083505E+02 0.  0.
        -12    1    1    2    0    0  0.27762016512E+00  0.11446921622E+01 -0.73683180126E-01  0.11801789327E+01  0.00000000000E+00 0.  1.
         11    1    3    3    0    0 -0.30946472600E+02 -0.15138652591E+02  0.15826603508E+02  0.37912324481E+02  0.51100000000E-03 0. -1.
        -11    1    3    3    0    0 -0.69557298919E+01 -0.29554272784E+01 -0.61080816576E+01  0.97172727926E+01  0.51100000000E-03 0.  1.
        -12    1    3    3    0    0  0.37624582327E+02  0.16949387708E+02 -0.96448386706E+01  0.42378223794E+02  0.00000000000E+00 0.  1.
</event>
<event>
 7    1  0.1654239E-015  0.9000770E+02  0.7816164E-02  0.1186339E+00
        -11   -1    0    0    0    0  0.00000000000E+00  0.00000000000E+00  0.45593999997E+02  0.45594000000E+02  0.51100000000E-03 0.  1.
         11   -1    0    0    0    0 -0.00000000000E+00 -0.00000000000E+00 -0.45593999997E+02  0.45594000000E+02  0.51100000000E-03 0. -1.
    9900012    2    1    2    0    0  0.46314928726E+00  0.84955323719E+00 -0.67592143735E+00  0.90007695906E+02  0.89999956692E+02 0.  0.
        -12    1    1    2    0    0 -0.46314928726E+00 -0.84955323719E+00  0.67592143735E+00  0.11803040941E+01  0.00000000000E+00 0.  1.
         11    1    3    3    0    0 -0.35432585154E+01 -0.91438553533E+01  0.22980748187E+00  0.98090561915E+01  0.51100000000E-03 0. -1.
        -11    1    3    3    0    0 -0.32337563543E+02  0.15447851449E+02  0.16594793623E+02  0.39493560310E+02  0.51100000000E-03 0.  1.
         12    1    3    3    0    0  0.36343971346E+02 -0.54544428584E+01 -0.17500522542E+02  0.40705079405E+02  0.00000000000E+00 0. -1.
</event>
<event>
 7    1  0.1654239E-015  0.9000758E+02  0.7816164E-02  0.1186339E+00
        -11   -1    0    0    0    0  0.00000000000E+00  0.00000000000E+00  0.45593999997E+02  0.45594000000E+02  0.51100000000E-03 0. -1.
         11   -1    0    0    0    0 -0.00000000000E+00 -0.00000000000E+00 -0.45593999997E+02  0.45594000000E+02  0.51100000000E-03 0.  1.
    9900012    2    1    2    0    0 -0.83948283704E+00  0.82601952072E+00 -0.79743721157E-01  0.90007576880E+02  0.89999836094E+02 0.  0.
        -12    1    1    2    0    0  0.83948283704E+00 -0.82601952072E+00  0.79743721157E-01  0.11804231205E+01  0.00000000000E+00 0.  1.
         11    1    3    3    0    0 -0.15454552379E+02  0.78808863047E+01  0.35182112270E+02  0.39226682019E+02  0.51100000000E-03 0. -1.
        -11    1    3    3    0    0 -0.80431496108E+01  0.25363132218E+00  0.22197842622E+00  0.80502086428E+01  0.51100000000E-03 0.  1.
        -12    1    3    3    0    0  0.22658219153E+02 -0.73084981062E+01 -0.35483834417E+02  0.42730686218E+02  0.00000000000E+00 0.  1.
</event>
<event>
 7    1  0.1654239E-015  0.9000783E+02  0.7816164E-02  0.1186339E+00
        -11   -1    0    0    0    0  0.00000000000E+00  0.00000000000E+00  0.45593999997E+02  0.45594000000E+02  0.51100000000E-03 0.  1.
         11   -1    0    0    0    0 -0.00000000000E+00 -0.00000000000E+00 -0.45593999997E+02  0.45594000000E+02  0.51100000000E-03 0. -1.
    9900012    2    1    2    0    0 -0.70238689519E+00 -0.14879390410E+00 -0.93664688159E+00  0.90007832911E+02  0.90000095506E+02 0.  0.
        -12    1    1    2    0    0  0.70238689519E+00  0.14879390410E+00  0.93664688159E+00  0.11801670887E+01  0.00000000000E+00 0.  1.
         11    1    3    3    0    0 -0.57220300680E+01  0.14819729966E+02  0.26287368127E+01  0.16102058312E+02  0.51100000000E-03 0. -1.
        -11    1    3    3    0    0 -0.16768005086E+02 -0.30553650800E+01  0.28585942646E+02  0.33281486859E+02  0.51100000000E-03 0.  1.
         12    1    3    3    0    0  0.21787648258E+02 -0.11913158790E+02 -0.32151326340E+02  0.40624287741E+02  0.00000000000E+00 0. -1.
</event>
<event>
 7    1  0.1654239E-015  0.9000776E+02  0.7816164E-02  0.1186339E+00
        -11   -1    0    0    0    0  0.00000000000E+00  0.00000000000E+00  0.45593999997E+02  0.45594000000E+02  0.51100000000E-03 0. -1.
         11   -1    0    0    0    0 -0.00000000000E+00 -0.00000000000E+00 -0.45593999997E+02  0.45594000000E+02  0.51100000000E-03 0.  1.
    9900012    2    1    2    0    0 -0.10760736886E+01  0.34045806147E+00 -0.34514380489E+00  0.90007758279E+02  0.90000019888E+02 0.  0.
        -12    1    1    2    0    0  0.10760736886E+01 -0.34045806147E+00  0.34514380489E+00  0.11802417214E+01  0.00000000000E+00 0.  1.
         11    1    3    3    0    0  0.93363297980E+01 -0.36817944711E+02  0.12374668192E+02  0.39948222989E+02  0.51100000000E-03 0. -1.
        -11    1    3    3    0    0  0.79492979554E+01  0.29149040723E+01  0.16604022431E+01  0.86281480982E+01  0.51100000000E-03 0.  1.
        -12    1    3    3    0    0 -0.18361701442E+02  0.34243498700E+02 -0.14380214240E+02  0.41431387192E+02  0.00000000000E+00 0.  1.
</event>
<event>
 7    1  0.1654239E-015  0.9000794E+02  0.7816164E-02  0.1186339E+00
        -11   -1    0    0    0    0  0.00000000000E+00  0.00000000000E+00  0.45593999997E+02  0.45594000000E+02  0.51100000000E-03 0.  1.
         11   -1    0    0    0    0 -0.00000000000E+00 -0.00000000000E+00 -0.45593999997E+02  0.45594000000E+02  0.51100000000E-03 0. -1.
    9900012    2    1    2    0    0  0.11530114316E+01 -0.24666044571E+00  0.47633552086E-01  0.90007938268E+02  0.90000202253E+02 0.  0.
        -12    1    1    2    0    0 -0.11530114316E+01  0.24666044571E+00 -0.47633552086E-01  0.11800617323E+01  0.00000000000E+00 0.  1.
         11    1    3    3    0    0  0.12738109953E+02 -0.32577103642E+02 -0.11561056006E+02  0.36839993799E+02  0.51100000000E-03 0. -1.
        -11    1    3    3    0    0  0.63465381164E+01 -0.65082742877E+01  0.15297172078E+01  0.92182544586E+01  0.51100000000E-03 0.  1.
        -12    1    3    3    0    0 -0.17931636638E+02  0.38838717484E+02  0.10078972350E+02  0.43949690010E+02  0.00000000000E+00 0.  1.
</event>
<event>
 7    1  0.1654239E-015  0.9000773E+02  0.7816164E-02  0.1186339E+00
        -11   -1    0    0    0    0  0.00000000000E+00  0.00000000000E+00  0.45593999997E+02  0.45594000000E+02  0.51100000000E-03 0.  1.
         11   -1    0    0    0    0 -0.00000000000E+00 -0.00000000000E+00 -0.45593999997E+02  0.45594000000E+02  0.51100000000E-03 0. -1.
    9900012    2    1    2    0    0  0.92817790718E+00 -0.66773177597E+00 -0.29266130892E+00  0.90007732830E+02  0.89999994103E+02 0.  0.
        -12    1    1    2    0    0 -0.92817790718E+00  0.66773177597E+00  0.29266130892E+00  0.11802671705E+01  0.00000000000E+00 0.  1.
         11    1    3    3    0    0 -0.33800476770E+01 -0.54498885279E+01 -0.14615506441E+00  0.64146214876E+01  0.51100000000E-03 0. -1.
        -11    1    3    3    0    0 -0.28873912031E+02  0.28334744579E+02  0.99664017546E+01  0.41664009775E+02  0.51100000000E-03 0.  1.
         12    1    3    3    0    0  0.33182137615E+02 -0.23552587827E+02 -0.10112907999E+02  0.41929101567E+02  0.00000000000E+00 0. -1.
</event>
<event>
 7    1  0.1654239E-015  0.9000774E+02  0.7816164E-02  0.1186339E+00
        -11   -1    0    0    0    0  0.00000000000E+00  0.00000000000E+00  0.45593999997E+02  0.45594000000E+02  0.51100000000E-03 0. -1.
         11   -1    0    0    0    0 -0.00000000000E+00 -0.00000000000E+00 -0.45593999997E+02  0.45594000000E+02  0.51100000000E-03 0.  1.
    9900012    2    1    2    0    0  0.10671955502E+01 -0.40881732707E+00 -0.29489917279E+00  0.90007744320E+02  0.90000005745E+02 0.  0.
        -12    1    1    2    0    0 -0.10671955502E+01  0.40881732707E+00  0.29489917279E+00  0.11802556805E+01  0.00000000000E+00 0.  1.
         11    1    3    3    0    0 -0.24813994311E+01 -0.59556319606E+01  0.63364459239E+01  0.90430881005E+01  0.51100000000E-03 0. -1.
        -11    1    3    3    0    0  0.43573515739E+00 -0.18427023815E+02 -0.37482798599E+02  0.41769669174E+02  0.51100000000E-03 0.  1.
         12    1    3    3    0    0  0.31128598239E+01  0.23973838449E+02  0.30851453502E+02  0.39194987045E+02  0.00000000000E+00 0. -1.
</event>
<event>
 7    1  0.1654239E-015  0.9000774E+02  0.7816164E-02  0.1186339E+00
        -11   -1    0    0    0    0  0.00000000000E+00  0.00000000000E+00  0.45593999997E+02  0.45594000000E+02  0.51100000000E-03 0. -1.
         11   -1    0    0    0    0 -0.00000000000E+00 -0.00000000000E+00 -0.45593999997E+02  0.45594000000E+02  0.51100000000E-03 0.  1.
    9900012    2    1    2    0    0  0.10690389687E+01  0.23299059890E+00 -0.44257819540E+00  0.90007743928E+02  0.90000005348E+02 0.  0.
        -12    1    1    2    0    0 -0.10690389687E+01 -0.23299059890E+00  0.44257819540E+00  0.11802560717E+01  0.00000000000E+00 0.  1.
         11    1    3    3    0    0 -0.24717098933E+02 -0.28184746819E+02 -0.39439273978E+01  0.37694422618E+02  0.51100000000E-03 0. -1.
        -11    1    3    3    0    0 -0.81794478750E+00 -0.66104674288E+01  0.49577308960E+01  0.83033974493E+01  0.51100000000E-03 0.  1.
        -12    1    3    3    0    0  0.26604082690E+02  0.35028204847E+02 -0.14563816936E+01  0.44009923861E+02  0.00000000000E+00 0.  1.
</event>
<event>
 7    1  0.1654239E-015  0.9000766E+02  0.7816164E-02  0.1186339E+00
        -11   -1    0    0    0    0  0.00000000000E+00  0.00000000000E+00  0.45593999997E+02  0.45594000000E+02  0.51100000000E-03 0.  1.
         11   -1    0    0    0    0 -0.00000000000E+00 -0.00000000000E+00 -0.45593999997E+02  0.45594000000E+02  0.51100000000E-03 0. -1.
    9900012    2    1    2    0    0 -0.11611663583E+01 -0.15818042108E+00  0.14098101706E+00  0.90007659369E+02  0.89999919673E+02 0.  0.
        -12    1    1    2    0    0  0.11611663583E+01  0.15818042108E+00 -0.14098101706E+00  0.11803406307E+01  0.00000000000E+00 0.  1.
         11    1    3    3    0    0  0.46183739199E+01 -0.11936411877E+02  0.25904968420E+01  0.13058253340E+02  0.51100000000E-03 0. -1.
        -11    1    3    3    0    0  0.13979839996E+02  0.14270884206E+02  0.31668947541E+02  0.37443508128E+02  0.51100000000E-03 0.  1.
         12    1    3    3    0    0 -0.19759380274E+02 -0.24926527504E+01 -0.34118463365E+02  0.39505897901E+02  0.00000000000E+00 0. -1.
</event>
<event>
 7    1  0.1654239E-015  0.9000777E+02  0.7816164E-02  0.1186339E+00
        -11   -1    0    0    0    0  0.00000000000E+00  0.00000000000E+00  0.45593999997E+02  0.45594000000E+02  0.51100000000E-03 0. -1.
         11   -1    0    0    0    0 -0.00000000000E+00 -0.00000000000E+00 -0.45593999997E+02  0.45594000000E+02  0.51100000000E-03 0.  1.
    9900012    2    1    2    0    0  0.11545897993E+01  0.24443535342E+00 -0.10708532916E-01  0.90007770819E+02  0.90000032594E+02 0.  0.
        -12    1    1    2    0    0 -0.11545897993E+01 -0.24443535342E+00  0.10708532916E-01  0.11802291809E+01  0.00000000000E+00 0.  1.
         11    1    3    3    0    0 -0.32027362693E-01  0.82298768645E+01  0.29991615151E+01  0.87593874793E+01  0.51100000000E-03 0. -1.
        -11    1    3    3    0    0 -0.13358795741E+02  0.31157022070E+02 -0.16042280044E+02  0.37504295716E+02  0.51100000000E-03 0.  1.
         12    1    3    3    0    0  0.14545412903E+02 -0.39142463581E+02  0.13032409996E+02  0.43744087623E+02  0.00000000000E+00 0. -1.
</event>
<event>
 7    1  0.1654239E-015  0.9000777E+02  0.7816164E-02  0.1186339E+00
        -11   -1    0    0    0    0  0.00000000000E+00  0.00000000000E+00  0.45593999997E+02  0.45594000000E+02  0.51100000000E-03 0. -1.
         11   -1    0    0    0    0 -0.00000000000E+00 -0.00000000000E+00 -0.45593999997E+02  0.45594000000E+02  0.51100000000E-03 0.  1.
    9900012    2    1    2    0    0 -0.40186537520E+00  0.10972757542E+01 -0.16566261304E+00  0.90007765294E+02  0.90000026996E+02 0.  0.
        -12    1    1    2    0    0  0.40186537520E+00 -0.10972757542E+01  0.16566261304E+00  0.11802347063E+01  0.00000000000E+00 0.  1.
         11    1    3    3    0    0  0.14977184448E+01 -0.10948453923E+02  0.55648961543E+01  0.12372545143E+02  0.51100000000E-03 0. -1.
        -11    1    3    3    0    0 -0.20392952831E+02 -0.22329020496E+02 -0.19797539992E+02  0.36144159576E+02  0.51100000000E-03 0.  1.
         12    1    3    3    0    0  0.18493369011E+02  0.34374750173E+02  0.14066981225E+02  0.41491060575E+02  0.00000000000E+00 0. -1.
</event>
<event>
 7    1  0.1654239E-015  0.9000772E+02  0.7816164E-02  0.1186339E+00
        -11   -1    0    0    0    0  0.00000000000E+00  0.00000000000E+00  0.45593999997E+02  0.45594000000E+02  0.51100000000E-03 0. -1.
         11   -1    0    0    0    0 -0.00000000000E+00 -0.00000000000E+00 -0.45593999997E+02  0.45594000000E+02  0.51100000000E-03 0.  1.
    9900012    2    1    2    0    0  0.49435890190E+00  0.50711536293E+00  0.94419258950E+00  0.90007721914E+02  0.89999983043E+02 0.  0.
        -12    1    1    2    0    0 -0.49435890190E+00 -0.50711536293E+00 -0.94419258950E+00  0.11802780864E+01  0.00000000000E+00 0.  1.
         11    1    3    3    0    0 -0.66316797819E+01 -0.95518644533E+01 -0.95872809453E+01  0.15070940497E+02  0.51100000000E-03 0. -1.
        -11    1    3    3    0    0  0.76232954113E+01  0.82428169543E+00 -0.31233099679E+02  0.32160543979E+02  0.51100000000E-03 0.  1.
         12    1    3    3    0    0 -0.49725672745E+00  0.92346981208E+01  0.41764573213E+02  0.42776237438E+02  0.00000000000E+00 0. -1.
</event>
<event>
 7    1  0.1654239E-015  0.9000772E+02  0.7816164E-02  0.1186339E+00
        -11   -1    0    0    0    0  0.00000000000E+00  0.00000000000E+00  0.45593999997E+02  0.45594000000E+02  0.51100000000E-03 0.  1.
         11   -1    0    0    0    0 -0.00000000000E+00 -0.00000000000E+00 -0.45593999997E+02  0.45594000000E+02  0.51100000000E-03 0. -1.
    9900012    2    1    2    0    0  0.11236238420E+00  0.11282122420E+01  0.32796994723E+00  0.90007723569E+02  0.89999984720E+02 0.  0.
        -12    1    1    2    0    0 -0.11236238420E+00 -0.11282122420E+01 -0.32796994723E+00  0.11802764315E+01  0.00000000000E+00 0.  1.
         11    1    3    3    0    0 -0.88433691189E+01  0.21432093684E+00  0.34384729958E+02  0.35504376707E+02  0.51100000000E-03 0. -1.
        -11    1    3    3    0    0 -0.38589392427E+01 -0.64896972969E+01  0.73464188886E+01  0.10534583705E+02  0.51100000000E-03 0.  1.
        -12    1    3    3    0    0  0.12814670746E+02  0.74035886021E+01 -0.41403178899E+02  0.43968763156E+02  0.00000000000E+00 0.  1.
</event>
<event>
 7    1  0.1654239E-015  0.9000772E+02  0.7816164E-02  0.1186339E+00
        -11   -1    0    0    0    0  0.00000000000E+00  0.00000000000E+00  0.45593999997E+02  0.45594000000E+02  0.51100000000E-03 0.  1.
         11   -1    0    0    0    0 -0.00000000000E+00 -0.00000000000E+00 -0.45593999997E+02  0.45594000000E+02  0.51100000000E-03 0. -1.
    9900012    2    1    2    0    0 -0.71950537455E+00  0.54247019019E+00 -0.76229967673E+00  0.90007719233E+02  0.89999980327E+02 0.  0.
        -12    1    1    2    0    0  0.71950537455E+00 -0.54247019019E+00  0.76229967673E+00  0.11802807668E+01  0.00000000000E+00 0.  1.
         11    1    3    3    0    0  0.85989868619E+01  0.59366597836E+00  0.27595952770E+00  0.86238719997E+01  0.51100000000E-03 0. -1.
        -11    1    3    3    0    0 -0.39805408199E+02  0.60530883712E+01 -0.20009533079E+02  0.44961003270E+02  0.51100000000E-03 0.  1.
         12    1    3    3    0    0  0.30486915962E+02 -0.61042841594E+01  0.18971273875E+02  0.36422843964E+02  0.00000000000E+00 0. -1.
</event>
<event>
 7    1  0.1654239E-015  0.9000768E+02  0.7816164E-02  0.1186339E+00
        -11   -1    0    0    0    0  0.00000000000E+00  0.00000000000E+00  0.45593999997E+02  0.45594000000E+02  0.51100000000E-03 0. -1.
         11   -1    0    0    0    0 -0.00000000000E+00 -0.00000000000E+00 -0.45593999997E+02  0.45594000000E+02  0.51100000000E-03 0.  1.
    9900012    2    1    2    0    0  0.11127233481E+01  0.19561936787E+00  0.34166865225E+00  0.90007679004E+02  0.89999939566E+02 0.  0.
        -12    1    1    2    0    0 -0.11127233481E+01 -0.19561936787E+00 -0.34166865225E+00  0.11803209963E+01  0.00000000000E+00 0.  1.
         11    1    3    3    0    0 -0.22008773946E+02  0.91694157865E+01  0.74517355811E+01  0.24979845474E+02  0.51100000000E-03 0. -1.
        -11    1    3    3    0    0  0.24602551568E+02  0.22228280720E+02 -0.64804001664E+01  0.33784280279E+02  0.51100000000E-03 0.  1.
         12    1    3    3    0    0 -0.14810542739E+01 -0.31202077138E+02 -0.62966676248E+00  0.31243553251E+02  0.00000000000E+00 0. -1.
</event>
<event>
 7    1  0.1654239E-015  0.9000776E+02  0.7816164E-02  0.1186339E+00
        -11   -1    0    0    0    0  0.00000000000E+00  0.00000000000E+00  0.45593999997E+02  0.45594000000E+02  0.51100000000E-03 0.  1.
         11   -1    0    0    0    0 -0.00000000000E+00 -0.00000000000E+00 -0.45593999997E+02  0.45594000000E+02  0.51100000000E-03 0. -1.
    9900012    2    1    2    0    0  0.88835152651E+00 -0.75984630551E+00 -0.16255379851E+00  0.90007763337E+02  0.90000025013E+02 0.  0.
        -12    1    1    2    0    0 -0.88835152651E+00  0.75984630551E+00  0.16255379851E+00  0.11802366627E+01  0.00000000000E+00 0.  1.
         11    1    3    3    0    0  0.25203205473E+02  0.19639169760E+02  0.17334371424E+02  0.36350776992E+02  0.51100000000E-03 0. -1.
        -11    1    3    3    0    0  0.90341711462E+01  0.19398542157E+01 -0.84264284920E+01  0.12505358054E+02  0.51100000000E-03 0.  1.
        -12    1    3    3    0    0 -0.33349025092E+02 -0.22338870282E+02 -0.90704967305E+01  0.41151628291E+02  0.00000000000E+00 0.  1.
</event>
<event>
 7    1  0.1654239E-015  0.9000776E+02  0.7816164E-02  0.1186339E+00
        -11   -1    0    0    0    0  0.00000000000E+00  0.00000000000E+00  0.45593999997E+02  0.45594000000E+02  0.51100000000E-03 0. -1.
         11   -1    0    0    0    0 -0.00000000000E+00 -0.00000000000E+00 -0.45593999997E+02  0.45594000000E+02  0.51100000000E-03 0.  1.
    9900012    2    1    2    0    0 -0.79557308551E+00  0.68760322216E+00 -0.53594547450E+00  0.90007757535E+02  0.90000019134E+02 0.  0.
        -12    1    1    2    0    0  0.79557308551E+00 -0.68760322216E+00  0.53594547450E+00  0.11802424654E+01  0.00000000000E+00 0.  1.
         11    1    3    3    0    0  0.63929425019E+01 -0.15546293497E+01 -0.11984141781E+01  0.66875094804E+01  0.51100000000E-03 0. -1.
        -11    1    3    3    0    0 -0.22996624628E+02 -0.26079876793E+02 -0.24275507209E+02  0.42406426026E+02  0.51100000000E-03 0.  1.
         12    1    3    3    0    0  0.15808109040E+02  0.28322109365E+02  0.24937975912E+02  0.40913822028E+02  0.00000000000E+00 0. -1.
</event>
<event>
 7    1  0.1654239E-015  0.9000770E+02  0.7816164E-02  0.1186339E+00
        -11   -1    0    0    0    0  0.00000000000E+00  0.00000000000E+00  0.45593999997E+02  0.45594000000E+02  0.51100000000E-03 0. -1.
         11   -1    0    0    0    0 -0.00000000000E+00 -0.00000000000E+00 -0.45593999997E+02  0.45594000000E+02  0.51100000000E-03 0.  1.
    9900012    2    1    2    0    0 -0.39391052299E+00 -0.51921932302E+00  0.98404722082E+00  0.90007702098E+02  0.89999962965E+02 0.  0.
        -12    1    1    2    0    0  0.39391052299E+00  0.51921932302E+00 -0.98404722082E+00  0.11802979024E+01  0.00000000000E+00 0.  1.
         11    1    3    3    0    0  0.35019370729E+02  0.14189914563E+02  0.13066919095E+02  0.39980675038E+02  0.51100000000E-03 0. -1.
        -11    1    3    3    0    0 -0.64110407009E+01 -0.47595175384E+01  0.95902457627E+01  0.12479073047E+02  0.51100000000E-03 0.  1.
        -12    1    3    3    0    0 -0.29002240551E+02 -0.99496163480E+01 -0.21673117637E+02  0.37547954013E+02  0.00000000000E+00 0.  1.
</event>
<event>
 7    1  0.1654239E-015  0.9000777E+02  0.7816164E-02  0.1186339E+00
        -11   -1    0    0    0    0  0.00000000000E+00  0.00000000000E+00  0.45593999997E+02  0.45594000000E+02  0.51100000000E-03 0.  1.
         11   -1    0    0    0    0 -0.00000000000E+00 -0.00000000000E+00 -0.45593999997E+02  0.45594000000E+02  0.51100000000E-03 0. -1.
    9900012    2    1    2    0    0 -0.47692337272E+00  0.14671378057E+00 -0.10695654664E+01  0.90007766496E+02  0.90000028214E+02 0.  0.
        -12    1    1    2    0    0  0.47692337272E+00 -0.14671378057E+00  0.10695654664E+01  0.11802335039E+01  0.00000000000E+00 0.  1.
         11    1    3    3    0    0 -0.21055645657E+01 -0.91600324283E+01 -0.56426444412E+01  0.10962619795E+02  0.51100000000E-03 0. -1.
        -11    1    3    3    0    0 -0.29936523782E+02 -0.19679383456E+02  0.51004533344E+01  0.36186851394E+02  0.51100000000E-03 0.  1.
         12    1    3    3    0    0  0.31565164975E+02  0.28986129665E+02 -0.52737435955E+00  0.42858295306E+02  0.00000000000E+00 0. -1.
</event>
<event>
 7    1  0.1654239E-015  0.9000779E+02  0.7816164E-02  0.1186339E+00
        -11   -1    0    0    0    0  0.00000000000E+00  0.00000000000E+00  0.45593999997E+02  0.45594000000E+02  0.51100000000E-03 0. -1.
         11   -1    0    0    0    0 -0.00000000000E+00 -0.00000000000E+00 -0.45593999997E+02  0.45594000000E+02  0.51100000000E-03 0.  1.
    9900012    2    1    2    0    0 -0.69251075634E-01  0.41928315160E-01  0.11774339258E+01  0.90007786314E+02  0.90000048293E+02 0.  0.
        -12    1    1    2    0    0  0.69251075634E-01 -0.41928315160E-01 -0.11774339258E+01  0.11802136861E+01  0.00000000000E+00 0.  1.
         11    1    3    3    0    0  0.21544811773E+02 -0.19309915140E+02  0.43292188982E+01  0.29253954836E+02  0.51100000000E-03 0. -1.
        -11    1    3    3    0    0 -0.82907891853E-01 -0.17045034763E+02  0.48348857305E+01  0.17717680550E+02  0.51100000000E-03 0.  1.
        -12    1    3    3    0    0 -0.21531154957E+02  0.36396878218E+02 -0.79866707029E+01  0.43036150928E+02  0.00000000000E+00 0.  1.
</event>
<event>
 7    1  0.1654239E-015  0.9000764E+02  0.7816164E-02  0.1186339E+00
        -11   -1    0    0    0    0  0.00000000000E+00  0.00000000000E+00  0.45593999997E+02  0.45594000000E+02  0.51100000000E-03 0.  1.
         11   -1    0    0    0    0 -0.00000000000E+00 -0.00000000000E+00 -0.45593999997E+02  0.45594000000E+02  0.51100000000E-03 0. -1.
    9900012    2    1    2    0    0 -0.45550949999E+00  0.99212354016E+00  0.44883432805E+00  0.90007639768E+02  0.89999899813E+02 0.  0.
        -12    1    1    2    0    0  0.45550949999E+00 -0.99212354016E+00 -0.44883432805E+00  0.11803602321E+01  0.00000000000E+00 0.  1.
         11    1    3    3    0    0  0.23345415045E+01  0.43091981508E+01  0.19615588951E+01  0.52789190465E+01  0.51100000000E-03 0. -1.
        -11    1    3    3    0    0  0.35697091043E+02 -0.21198245376E+02  0.49142477904E+01  0.41806671089E+02  0.51100000000E-03 0.  1.
         12    1    3    3    0    0 -0.38487142047E+02  0.17881170766E+02 -0.64269723575E+01  0.42922049632E+02  0.00000000000E+00 0. -1.
</event>
<event>
 7    1  0.1654239E-015  0.9000769E+02  0.7816164E-02  0.1186339E+00
        -11   -1    0    0    0    0  0.00000000000E+00  0.00000000000E+00  0.45593999997E+02  0.45594000000E+02  0.51100000000E-03 0.  1.
         11   -1    0    0    0    0 -0.00000000000E+00 -0.00000000000E+00 -0.45593999997E+02  0.45594000000E+02  0.51100000000E-03 0. -1.
    9900012    2    1    2    0    0  0.45601518005E+00  0.42037135411E+00 -0.10042203482E+01  0.90007694774E+02  0.89999955545E+02 0.  0.
        -12    1    1    2    0    0 -0.45601518005E+00 -0.42037135411E+00  0.10042203482E+01  0.11803052264E+01  0.00000000000E+00 0.  1.
         11    1    3    3    0    0 -0.26234557318E+01 -0.35166480233E+02  0.67605052949E+01  0.35906382219E+02  0.51100000000E-03 0. -1.
        -11    1    3    3    0    0  0.39575537369E+01 -0.65304749903E+01  0.60770206157E+01  0.97590734705E+01  0.51100000000E-03 0.  1.
        -12    1    3    3    0    0 -0.87808282496E+00  0.42117326578E+02 -0.13841746259E+02  0.44342239084E+02  0.00000000000E+00 0.  1.
</event>
<event>
 7    1  0.1654239E-015  0.9000759E+02  0.7816164E-02  0.1186339E+00
        -11   -1    0    0    0    0  0.00000000000E+00  0.00000000000E+00  0.45593999997E+02  0.45594000000E+02  0.51100000000E-03 0.  1.
         11   -1    0    0    0    0 -0.00000000000E+00 -0.00000000000E+00 -0.45593999997E+02  0.45594000000E+02  0.51100000000E-03 0. -1.
    9900012    2    1    2    0    0  0.39059570066E+00 -0.97614430096E+00 -0.53660797182E+00  0.90007588710E+02  0.89999848081E+02 0.  0.
        -12    1    1    2    0    0 -0.39059570066E+00  0.97614430096E+00  0.53660797182E+00  0.11804112898E+01  0.00000000000E+00 0.  1.
         11    1    3    3    0    0  0.35208310480E+01 -0.12884432927E+02 -0.87430693063E+01  0.15963900660E+02  0.51100000000E-03 0. -1.
        -11    1    3    3    0    0 -0.21331562406E+02  0.24878202983E+02 -0.19741585874E+02  0.38258211556E+02  0.51100000000E-03 0.  1.
         12    1    3    3    0    0  0.18201327059E+02 -0.12969914357E+02  0.27948047209E+02  0.35785476494E+02  0.00000000000E+00 0. -1.
</event>
<event>
 7    1  0.1654239E-015  0.9000801E+02  0.7816164E-02  0.1186339E+00
        -11   -1    0    0    0    0  0.00000000000E+00  0.00000000000E+00  0.45593999997E+02  0.45594000000E+02  0.51100000000E-03 0. -1.
         11   -1    0    0    0    0 -0.00000000000E+00 -0.00000000000E+00 -0.45593999997E+02  0.45594000000E+02  0.51100000000E-03 0.  1.
    9900012    2    1    2    0    0 -0.98768379734E+00 -0.49275990417E+00 -0.41719372270E+00  0.90008007539E+02  0.90000272438E+02 0.  0.
        -12    1    1    2    0    0  0.98768379734E+00  0.49275990417E+00  0.41719372270E+00  0.11799924614E+01  0.00000000000E+00 0.  1.
         11    1    3    3    0    0  0.78529005616E+01  0.13317621559E+02  0.34192355673E+02  0.37525248540E+02  0.51100000000E-03 0. -1.
        -11    1    3    3    0    0  0.38308155165E+01  0.44734949734E+01  0.45522201443E+01  0.74437902511E+01  0.51100000000E-03 0.  1.
        -12    1    3    3    0    0 -0.12671399875E+02 -0.18283876437E+02 -0.39161769540E+02  0.45038968748E+02  0.00000000000E+00 0.  1.
</event>
<event>
 7    1  0.1654239E-015  0.9000776E+02  0.7816164E-02  0.1186339E+00
        -11   -1    0    0    0    0  0.00000000000E+00  0.00000000000E+00  0.45593999997E+02  0.45594000000E+02  0.51100000000E-03 0.  1.
         11   -1    0    0    0    0 -0.00000000000E+00 -0.00000000000E+00 -0.45593999997E+02  0.45594000000E+02  0.51100000000E-03 0. -1.
    9900012    2    1    2    0    0  0.93405516915E+00 -0.48974144275E+00 -0.52977555370E+00  0.90007759399E+02  0.90000021023E+02 0.  0.
        -12    1    1    2    0    0 -0.93405516915E+00  0.48974144275E+00  0.52977555370E+00  0.11802406013E+01  0.00000000000E+00 0.  1.
         11    1    3    3    0    0  0.26459147939E+02 -0.25362088649E+02 -0.96369263164E+01  0.37897129171E+02  0.51100000000E-03 0. -1.
        -11    1    3    3    0    0 -0.40444591042E+01 -0.47157956567E+01 -0.92930721386E+01  0.11178442117E+02  0.51100000000E-03 0.  1.
        -12    1    3    3    0    0 -0.21480633666E+02  0.29588142863E+02  0.18400222901E+02  0.40932188111E+02  0.00000000000E+00 0.  1.
</event>
<event>
 7    1  0.1654239E-015  0.9000776E+02  0.7816164E-02  0.1186339E+00
        -11   -1    0    0    0    0  0.00000000000E+00  0.00000000000E+00  0.45593999997E+02  0.45594000000E+02  0.51100000000E-03 0.  1.
         11   -1    0    0    0    0 -0.00000000000E+00 -0.00000000000E+00 -0.45593999997E+02  0.45594000000E+02  0.51100000000E-03 0. -1.
    9900012    2    1    2    0    0  0.78252235630E+00 -0.29443989418E+00 -0.83302189375E+00  0.90007762073E+02  0.90000023732E+02 0.  0.
        -12    1    1    2    0    0 -0.78252235630E+00  0.29443989418E+00  0.83302189375E+00  0.11802379272E+01  0.00000000000E+00 0.  1.
         11    1    3    3    0    0 -0.16603497460E+01 -0.78283366105E+01 -0.32879214810E+02  0.33839065917E+02  0.51100000000E-03 0. -1.
        -11    1    3    3    0    0  0.10521561438E+02 -0.90803771505E+01 -0.50011967022E+01  0.14770527174E+02  0.51100000000E-03 0.  1.
        -12    1    3    3    0    0 -0.80786893357E+01  0.16614273867E+02  0.37047389618E+02  0.41398168982E+02  0.00000000000E+00 0.  1.
</event>
<event>
 7    1  0.1654239E-015  0.9000777E+02  0.7816164E-02  0.1186339E+00
        -11   -1    0    0    0    0  0.00000000000E+00  0.00000000000E+00  0.45593999997E+02  0.45594000000E+02  0.51100000000E-03 0.  1.
         11   -1    0    0    0    0 -0.00000000000E+00 -0.00000000000E+00 -0.45593999997E+02  0.45594000000E+02  0.51100000000E-03 0. -1.
    9900012    2    1    2    0    0  0.40859738258E+00 -0.89651267591E+00  0.64982096414E+00  0.90007765242E+02  0.90000026943E+02 0.  0.
        -12    1    1    2    0    0 -0.40859738258E+00  0.89651267591E+00 -0.64982096414E+00  0.11802347582E+01  0.00000000000E+00 0.  1.
         11    1    3    3    0    0  0.58004351102E+01 -0.13356669093E+02  0.29623636925E+02  0.33009173295E+02  0.51100000000E-03 0. -1.
        -11    1    3    3    0    0  0.10007959003E+02 -0.87364534963E+01  0.49132591606E+01  0.14164214731E+02  0.51100000000E-03 0.  1.
         12    1    3    3    0    0 -0.15399796731E+02  0.21196609913E+02 -0.33887075121E+02  0.42834377215E+02  0.00000000000E+00 0. -1.
</event>
<event>
 7    1  0.1654239E-015  0.9000768E+02  0.7816164E-02  0.1186339E+00
        -11   -1    0    0    0    0  0.00000000000E+00  0.00000000000E+00  0.45593999997E+02  0.45594000000E+02  0.51100000000E-03 0. -1.
         11   -1    0    0    0    0 -0.00000000000E+00 -0.00000000000E+00 -0.45593999997E+02  0.45594000000E+02  0.51100000000E-03 0.  1.
    9900012    2    1    2    0    0 -0.23030255554E+00 -0.75325692335E+00  0.87904455626E+00  0.90007680301E+02  0.89999940881E+02 0.  0.
        -12    1    1    2    0    0  0.23030255554E+00  0.75325692335E+00 -0.87904455626E+00  0.11803196989E+01  0.00000000000E+00 0.  1.
         11    1    3    3    0    0  0.16499770374E+02  0.47063129021E-02  0.40284722708E+02  0.43532761553E+02  0.51100000000E-03 0. -1.
        -11    1    3    3    0    0  0.11437676719E+01  0.53614592038E+01 -0.62426575418E+01  0.83080817718E+01  0.51100000000E-03 0.  1.
        -12    1    3    3    0    0 -0.17873840601E+02 -0.61194224401E+01 -0.33163020610E+02  0.38166836976E+02  0.00000000000E+00 0.  1.
</event>
<event>
 7    1  0.1654239E-015  0.9000779E+02  0.7816164E-02  0.1186339E+00
        -11   -1    0    0    0    0  0.00000000000E+00  0.00000000000E+00  0.45593999997E+02  0.45594000000E+02  0.51100000000E-03 0. -1.
         11   -1    0    0    0    0 -0.00000000000E+00 -0.00000000000E+00 -0.45593999997E+02  0.45594000000E+02  0.51100000000E-03 0.  1.
    9900012    2    1    2    0    0 -0.10008246458E+01  0.44201179484E+00 -0.44258264206E+00  0.90007786548E+02  0.90000048530E+02 0.  0.
        -12    1    1    2    0    0  0.10008246458E+01 -0.44201179484E+00  0.44258264206E+00  0.11802134525E+01  0.00000000000E+00 0.  1.
         11    1    3    3    0    0 -0.38781741134E+02  0.16150426307E+02 -0.32631675543E+01  0.42136777025E+02  0.51100000000E-03 0. -1.
        -11    1    3    3    0    0 -0.14912676633E+01 -0.80652494168E-02 -0.46843827745E+01  0.49160336178E+01  0.51100000000E-03 0.  1.
        -12    1    3    3    0    0  0.39272184152E+02 -0.15700349262E+02  0.75049676867E+01  0.42954975905E+02  0.00000000000E+00 0.  1.
</event>
<event>
 7    1  0.1654239E-015  0.9000836E+02  0.7816164E-02  0.1186338E+00
        -11   -1    0    0    0    0  0.00000000000E+00  0.00000000000E+00  0.45593999997E+02  0.45594000000E+02  0.51100000000E-03 0. -1.
         11   -1    0    0    0    0 -0.00000000000E+00 -0.00000000000E+00 -0.45593999997E+02  0.45594000000E+02  0.51100000000E-03 0.  1.
    9900012    2    1    2    0    0 -0.10493494212E+01 -0.25922148666E+00 -0.47244994040E+00  0.90008364915E+02  0.90000634530E+02 0.  0.
        -12    1    1    2    0    0  0.10493494212E+01  0.25922148666E+00  0.47244994040E+00  0.11796350847E+01  0.00000000000E+00 0.  1.
         11    1    3    3    0    0  0.31227351734E+01  0.78076473190E+01 -0.55548083708E+01  0.10078031947E+02  0.51100000000E-03 0. -1.
        -11    1    3    3    0    0  0.23887295066E+02 -0.27703357522E+02  0.20983597879E+02  0.42170964700E+02  0.51100000000E-03 0.  1.
         12    1    3    3    0    0 -0.28059379660E+02  0.19636488716E+02 -0.15901239448E+02  0.37759368268E+02  0.00000000000E+00 0. -1.
</event>
<event>
 7    1  0.1654239E-015  0.9000779E+02  0.7816164E-02  0.1186339E+00
        -11   -1    0    0    0    0  0.00000000000E+00  0.00000000000E+00  0.45593999997E+02  0.45594000000E+02  0.51100000000E-03 0.  1.
         11   -1    0    0    0    0 -0.00000000000E+00 -0.00000000000E+00 -0.45593999997E+02  0.45594000000E+02  0.51100000000E-03 0. -1.
    9900012    2    1    2    0    0 -0.97533239508E+00  0.54064319798E+00 -0.38643699922E+00  0.90007787348E+02  0.90000049341E+02 0.  0.
        -12    1    1    2    0    0  0.97533239508E+00 -0.54064319798E+00  0.38643699922E+00  0.11802126515E+01  0.00000000000E+00 0.  1.
         11    1    3    3    0    0  0.71224324782E+00  0.65495007128E+01 -0.37393332341E+02  0.37969258011E+02  0.51100000000E-03 0. -1.
        -11    1    3    3    0    0  0.80103299675E+01 -0.21013712358E+01 -0.43682015783E+01  0.93628164859E+01  0.51100000000E-03 0.  1.
        -12    1    3    3    0    0 -0.96979056104E+01 -0.39074862790E+01  0.41375096920E+02  0.42675712852E+02  0.00000000000E+00 0.  1.
</event>
<event>
 7    1  0.1654239E-015  0.9000774E+02  0.7816164E-02  0.1186339E+00
        -11   -1    0    0    0    0  0.00000000000E+00  0.00000000000E+00  0.45593999997E+02  0.45594000000E+02  0.51100000000E-03 0.  1.
         11   -1    0    0    0    0 -0.00000000000E+00 -0.00000000000E+00 -0.45593999997E+02  0.45594000000E+02  0.51100000000E-03 0. -1.
    9900012    2    1    2    0    0  0.51448908961E+00  0.10398991046E+01 -0.21661362616E+00  0.90007741285E+02  0.90000002670E+02 0.  0.
        -12    1    1    2    0    0 -0.51448908961E+00 -0.10398991046E+01  0.21661362616E+00  0.11802587149E+01  0.00000000000E+00 0.  1.
         11    1    3    3    0    0  0.73027480105E+01  0.24875842096E+01  0.74858797836E+01  0.10749725583E+02  0.51100000000E-03 0. -1.
        -11    1    3    3    0    0  0.34197713047E+02 -0.11340907564E+02 -0.87709765853E+01  0.37081394156E+02  0.51100000000E-03 0.  1.
         12    1    3    3    0    0 -0.40985971968E+02  0.98932224587E+01  0.10684831755E+01  0.42176621547E+02  0.00000000000E+00 0. -1.
</event>
<event>
 7    1  0.1654239E-015  0.9000775E+02  0.7816164E-02  0.1186339E+00
        -11   -1    0    0    0    0  0.00000000000E+00  0.00000000000E+00  0.45593999997E+02  0.45594000000E+02  0.51100000000E-03 0.  1.
         11   -1    0    0    0    0 -0.00000000000E+00 -0.00000000000E+00 -0.45593999997E+02  0.45594000000E+02  0.51100000000E-03 0. -1.
    9900012    2    1    2    0    0  0.25864901012E-01  0.49539566934E+00 -0.10709309216E+01  0.90007754728E+02  0.90000016291E+02 0.  0.
        -12    1    1    2    0    0 -0.25864901012E-01 -0.49539566934E+00  0.10709309216E+01  0.11802452716E+01  0.00000000000E+00 0.  1.
         11    1    3    3    0    0 -0.19213254100E+02  0.26787235752E+02  0.22150360479E+02  0.39715785299E+02  0.51100000000E-03 0. -1.
        -11    1    3    3    0    0  0.28888470529E+01 -0.45206004132E+01  0.75131654461E+01  0.92319510761E+01  0.51100000000E-03 0.  1.
        -12    1    3    3    0    0  0.16350271948E+02 -0.21771239670E+02 -0.30734456846E+02  0.41060018353E+02  0.00000000000E+00 0.  1.
</event>
<event>
 7    1  0.1654239E-015  0.9000783E+02  0.7816164E-02  0.1186339E+00
        -11   -1    0    0    0    0  0.00000000000E+00  0.00000000000E+00  0.45593999997E+02  0.45594000000E+02  0.51100000000E-03 0.  1.
         11   -1    0    0    0    0 -0.00000000000E+00 -0.00000000000E+00 -0.45593999997E+02  0.45594000000E+02  0.51100000000E-03 0. -1.
    9900012    2    1    2    0    0  0.46626005055E+00 -0.78928892811E+00  0.74325140118E+00  0.90007831329E+02  0.90000093902E+02 0.  0.
        -12    1    1    2    0    0 -0.46626005055E+00  0.78928892811E+00 -0.74325140118E+00  0.11801686711E+01  0.00000000000E+00 0.  1.
         11    1    3    3    0    0 -0.15499369244E+02  0.16577426455E+02 -0.50635364901E+01  0.23252546460E+02  0.51100000000E-03 0. -1.
        -11    1    3    3    0    0 -0.20715013435E+01  0.22403737778E+02 -0.11807413455E+01  0.22530262640E+02  0.51100000000E-03 0.  1.
        -12    1    3    3    0    0  0.18037130638E+02 -0.39770453161E+02  0.69875292368E+01  0.44225022229E+02  0.00000000000E+00 0.  1.
</event>
<event>
 7    1  0.1654239E-015  0.9000774E+02  0.7816164E-02  0.1186339E+00
        -11   -1    0    0    0    0  0.00000000000E+00  0.00000000000E+00  0.45593999997E+02  0.45594000000E+02  0.51100000000E-03 0.  1.
         11   -1    0    0    0    0 -0.00000000000E+00 -0.00000000000E+00 -0.45593999997E+02  0.45594000000E+02  0.51100000000E-03 0. -1.
    9900012    2    1    2    0    0  0.44345028122E+00 -0.10937516770E+01 -0.85136102944E-02  0.90007740128E+02  0.90000001498E+02 0.  0.
        -12    1    1    2    0    0 -0.44345028122E+00  0.10937516770E+01  0.85136102945E-02  0.11802598716E+01  0.00000000000E+00 0.  1.
         11    1    3    3    0    0 -0.25042480742E+02 -0.18744701489E+02 -0.22965119019E+02  0.38805751731E+02  0.51100000000E-03 0. -1.
        -11    1    3    3    0    0 -0.77013052916E+01  0.37359463366E+01  0.80464152166E-01  0.85600159442E+01  0.51100000000E-03 0.  1.
        -12    1    3    3    0    0  0.33187236315E+02  0.13915003475E+02  0.22876141256E+02  0.42641972453E+02  0.00000000000E+00 0.  1.
</event>
<event>
 7    1  0.1654239E-015  0.9000775E+02  0.7816164E-02  0.1186339E+00
        -11   -1    0    0    0    0  0.00000000000E+00  0.00000000000E+00  0.45593999997E+02  0.45594000000E+02  0.51100000000E-03 0. -1.
         11   -1    0    0    0    0 -0.00000000000E+00 -0.00000000000E+00 -0.45593999997E+02  0.45594000000E+02  0.51100000000E-03 0.  1.
    9900012    2    1    2    0    0 -0.79770648941E+00 -0.11861457618E+00  0.86173089831E+00  0.90007752059E+02  0.90000013586E+02 0.  0.
        -12    1    1    2    0    0  0.79770648941E+00  0.11861457618E+00 -0.86173089831E+00  0.11802479409E+01  0.00000000000E+00 0.  1.
         11    1    3    3    0    0  0.55793560373E+01 -0.20568806816E+02  0.31107214607E+02  0.37707609689E+02  0.51100000000E-03 0. -1.
        -11    1    3    3    0    0 -0.59493027146E+01 -0.47621115437E+01  0.48886316948E+01  0.90537632646E+01  0.51100000000E-03 0.  1.
        -12    1    3    3    0    0 -0.42775981217E+00  0.25212303784E+02 -0.35134115403E+02  0.43246379105E+02  0.00000000000E+00 0.  1.
</event>
<event>
 7    1  0.1654239E-015  0.9000772E+02  0.7816164E-02  0.1186339E+00
        -11   -1    0    0    0    0  0.00000000000E+00  0.00000000000E+00  0.45593999997E+02  0.45594000000E+02  0.51100000000E-03 0.  1.
         11   -1    0    0    0    0 -0.00000000000E+00 -0.00000000000E+00 -0.45593999997E+02  0.45594000000E+02  0.51100000000E-03 0. -1.
    9900012    2    1    2    0    0 -0.62825395573E+00 -0.86853472388E+00  0.49396486781E+00  0.90007721690E+02  0.89999982816E+02 0.  0.
        -12    1    1    2    0    0  0.62825395573E+00  0.86853472388E+00 -0.49396486781E+00  0.11802783104E+01  0.00000000000E+00 0.  1.
         11    1    3    3    0    0  0.21028727740E+02  0.12196945060E+02 -0.28737820481E+02  0.37640871210E+02  0.51100000000E-03 0. -1.
        -11    1    3    3    0    0 -0.87378406053E+01 -0.31759970624E+01 -0.76603197975E+01  0.12046464853E+02  0.51100000000E-03 0.  1.
        -12    1    3    3    0    0 -0.12919141090E+02 -0.98894827211E+01  0.36892105147E+02  0.40320385627E+02  0.00000000000E+00 0.  1.
</event>
<event>
 7    1  0.1654239E-015  0.9000773E+02  0.7816164E-02  0.1186339E+00
        -11   -1    0    0    0    0  0.00000000000E+00  0.00000000000E+00  0.45593999997E+02  0.45594000000E+02  0.51100000000E-03 0. -1.
         11   -1    0    0    0    0 -0.00000000000E+00 -0.00000000000E+00 -0.45593999997E+02  0.45594000000E+02  0.51100000000E-03 0.  1.
    9900012    2    1    2    0    0  0.97225852811E+00  0.66586325222E+00 -0.66234059078E-01  0.90007725682E+02  0.89999986861E+02 0.  0.
        -12    1    1    2    0    0 -0.97225852811E+00 -0.66586325222E+00  0.66234059078E-01  0.11802743184E+01  0.00000000000E+00 0.  1.
         11    1    3    3    0    0  0.95991722716E+01 -0.42411502919E+01 -0.52315477791E+01  0.11726063130E+02  0.51100000000E-03 0. -1.
        -11    1    3    3    0    0  0.13176377851E+02  0.86294776462E+00 -0.32216420903E+02  0.34817515537E+02  0.51100000000E-03 0.  1.
         12    1    3    3    0    0 -0.21803291594E+02  0.40440657795E+01  0.37381734623E+02  0.43464147015E+02  0.00000000000E+00 0. -1.
</event>
<event>
 7    1  0.1654239E-015  0.9000787E+02  0.7816164E-02  0.1186339E+00
        -11   -1    0    0    0    0  0.00000000000E+00  0.00000000000E+00  0.45593999997E+02  0.45594000000E+02  0.51100000000E-03 0. -1.
         11   -1    0    0    0    0 -0.00000000000E+00 -0.00000000000E+00 -0.45593999997E+02  0.45594000000E+02  0.51100000000E-03 0.  1.
    9900012    2    1    2    0    0 -0.11162784311E+01 -0.38253909188E+00 -0.17095359397E-01  0.90007870370E+02  0.90000133459E+02 0.  0.
        -12    1    1    2    0    0  0.11162784311E+01  0.38253909188E+00  0.17095359397E-01  0.11801296301E+01  0.00000000000E+00 0.  1.
         11    1    3    3    0    0 -0.16576947791E+02 -0.26187631403E+02  0.29182894463E+02  0.42570277966E+02  0.51100000000E-03 0. -1.
        -11    1    3    3    0    0 -0.45704990605E+01  0.92940224960E+01 -0.35621465864E+01  0.10952497632E+02  0.51100000000E-03 0.  1.
        -12    1    3    3    0    0  0.20031168420E+02  0.16511069816E+02 -0.25637843236E+02  0.36485094772E+02  0.00000000000E+00 0.  1.
</event>
<event>
 7    1  0.1654239E-015  0.9000773E+02  0.7816164E-02  0.1186339E+00
        -11   -1    0    0    0    0  0.00000000000E+00  0.00000000000E+00  0.45593999997E+02  0.45594000000E+02  0.51100000000E-03 0. -1.
         11   -1    0    0    0    0 -0.00000000000E+00 -0.00000000000E+00 -0.45593999997E+02  0.45594000000E+02  0.51100000000E-03 0.  1.
    9900012    2    1    2    0    0 -0.63658613252E+00 -0.19115499428E+00 -0.97532604251E+00  0.90007727563E+02  0.89999988767E+02 0.  0.
        -12    1    1    2    0    0  0.63658613252E+00  0.19115499428E+00  0.97532604251E+00  0.11802724368E+01  0.00000000000E+00 0.  1.
         11    1    3    3    0    0 -0.15345098609E+01  0.54579943014E+01 -0.95356003151E+01  0.11093786366E+02  0.51100000000E-03 0. -1.
        -11    1    3    3    0    0  0.21796100831E+02 -0.11152142656E+02 -0.27533807160E+02  0.36844956700E+02  0.51100000000E-03 0.  1.
         12    1    3    3    0    0 -0.20898177103E+02  0.55029933607E+01  0.36094081432E+02  0.42068984497E+02  0.00000000000E+00 0. -1.
</event>
<event>
 7    1  0.1654239E-015  0.9000776E+02  0.7816164E-02  0.1186339E+00
        -11   -1    0    0    0    0  0.00000000000E+00  0.00000000000E+00  0.45593999997E+02  0.45594000000E+02  0.51100000000E-03 0. -1.
         11   -1    0    0    0    0 -0.00000000000E+00 -0.00000000000E+00 -0.45593999997E+02  0.45594000000E+02  0.51100000000E-03 0.  1.
    9900012    2    1    2    0    0 -0.12071481237E+00  0.31474176107E+00  0.11310771757E+01  0.90007758491E+02  0.90000020103E+02 0.  0.
        -12    1    1    2    0    0  0.12071481237E+00 -0.31474176107E+00 -0.11310771757E+01  0.11802415090E+01  0.00000000000E+00 0.  1.
         11    1    3    3    0    0  0.28973769467E+01  0.88060605260E+01 -0.91800383213E+01  0.13046631711E+02  0.51100000000E-03 0. -1.
        -11    1    3    3    0    0 -0.13271744278E+02 -0.19865844964E+01 -0.31065199983E+02  0.33839804438E+02  0.51100000000E-03 0.  1.
         12    1    3    3    0    0  0.10253652518E+02 -0.65047342685E+01  0.41376315480E+02  0.43121322343E+02  0.00000000000E+00 0. -1.
</event>
<event>
 7    1  0.1654239E-015  0.9000767E+02  0.7816164E-02  0.1186339E+00
        -11   -1    0    0    0    0  0.00000000000E+00  0.00000000000E+00  0.45593999997E+02  0.45594000000E+02  0.51100000000E-03 0. -1.
         11   -1    0    0    0    0 -0.00000000000E+00 -0.00000000000E+00 -0.45593999997E+02  0.45594000000E+02  0.51100000000E-03 0.  1.
    9900012    2    1    2    0    0 -0.52272905860E+00  0.17028780465E-01  0.10581325990E+01  0.90007669434E+02  0.89999929870E+02 0.  0.
        -12    1    1    2    0    0  0.52272905860E+00 -0.17028780465E-01 -0.10581325990E+01  0.11803305660E+01  0.00000000000E+00 0.  1.
         11    1    3    3    0    0 -0.84263651743E+01  0.40967086263E+01  0.42032660272E+01  0.10269084534E+02  0.51100000000E-03 0. -1.
        -11    1    3    3    0    0  0.13631599619E+01 -0.41292895108E+02 -0.64287482435E+01  0.41812560263E+02  0.51100000000E-03 0.  1.
         12    1    3    3    0    0  0.65404761538E+01  0.37213215262E+02  0.32836148153E+01  0.37926024637E+02  0.00000000000E+00 0. -1.
</event>
<event>
 7    1  0.1654239E-015  0.9000779E+02  0.7816164E-02  0.1186339E+00
        -11   -1    0    0    0    0  0.00000000000E+00  0.00000000000E+00  0.45593999997E+02  0.45594000000E+02  0.51100000000E-03 0. -1.
         11   -1    0    0    0    0 -0.00000000000E+00 -0.00000000000E+00 -0.45593999997E+02  0.45594000000E+02  0.51100000000E-03 0.  1.
    9900012    2    1    2    0    0 -0.35937253030E+00  0.96714389449E+00  0.57303661877E+00  0.90007793707E+02  0.90000055784E+02 0.  0.
        -12    1    1    2    0    0  0.35937253030E+00 -0.96714389449E+00 -0.57303661877E+00  0.11802062932E+01  0.00000000000E+00 0.  1.
         11    1    3    3    0    0  0.31958105318E+02  0.14778986254E+02  0.16539000851E+02  0.38900867338E+02  0.51100000000E-03 0. -1.
        -11    1    3    3    0    0 -0.42342492199E+01  0.10565064177E-01  0.97290302009E+01  0.10610513983E+02  0.51100000000E-03 0.  1.
        -12    1    3    3    0    0 -0.28083228629E+02 -0.13822407423E+02 -0.25694994433E+02  0.40496412386E+02  0.00000000000E+00 0.  1.
</event>
<event>
 7    1  0.1654239E-015  0.9000754E+02  0.7816164E-02  0.1186339E+00
        -11   -1    0    0    0    0  0.00000000000E+00  0.00000000000E+00  0.45593999997E+02  0.45594000000E+02  0.51100000000E-03 0.  1.
         11   -1    0    0    0    0 -0.00000000000E+00 -0.00000000000E+00 -0.45593999997E+02  0.45594000000E+02  0.51100000000E-03 0. -1.
    9900012    2    1    2    0    0 -0.80500313907E+00  0.30151440434E+00 -0.80903565524E+00  0.90007542597E+02  0.89999801359E+02 0.  0.
        -12    1    1    2    0    0  0.80500313907E+00 -0.30151440434E+00  0.80903565524E+00  0.11804574035E+01  0.00000000000E+00 0.  1.
         11    1    3    3    0    0 -0.31359914919E+02 -0.13459708710E+02 -0.13627795064E+02  0.36746766128E+02  0.51100000000E-03 0. -1.
        -11    1    3    3    0    0 -0.16917143138E+01 -0.10920512333E+02  0.35637004873E+01  0.11611177733E+02  0.51100000000E-03 0.  1.
        -12    1    3    3    0    0  0.32246626094E+02  0.24681735447E+02  0.92550589219E+01  0.41649598735E+02  0.00000000000E+00 0.  1.
</event>
<event>
 7    1  0.1654239E-015  0.9000778E+02  0.7816164E-02  0.1186339E+00
        -11   -1    0    0    0    0  0.00000000000E+00  0.00000000000E+00  0.45593999997E+02  0.45594000000E+02  0.51100000000E-03 0.  1.
         11   -1    0    0    0    0 -0.00000000000E+00 -0.00000000000E+00 -0.45593999997E+02  0.45594000000E+02  0.51100000000E-03 0. -1.
    9900012    2    1    2    0    0  0.23384881031E+00 -0.77146356613E+00 -0.86201311161E+00  0.90007784806E+02  0.90000046765E+02 0.  0.
        -12    1    1    2    0    0 -0.23384881031E+00  0.77146356613E+00  0.86201311161E+00  0.11802151942E+01  0.00000000000E+00 0.  1.
         11    1    3    3    0    0  0.34219336707E+02 -0.10441094829E+02 -0.82278843193E+01  0.36710727949E+02  0.51100000000E-03 0. -1.
        -11    1    3    3    0    0  0.50452995421E+01 -0.29245815449E+01 -0.76525568991E+01  0.96213227800E+01  0.51100000000E-03 0.  1.
        -12    1    3    3    0    0 -0.39030787439E+02  0.12594212808E+02  0.15018428107E+02  0.43675734077E+02  0.00000000000E+00 0.  1.
</event>
<event>
 7    1  0.1654239E-015  0.9000773E+02  0.7816164E-02  0.1186339E+00
        -11   -1    0    0    0    0  0.00000000000E+00  0.00000000000E+00  0.45593999997E+02  0.45594000000E+02  0.51100000000E-03 0.  1.
         11   -1    0    0    0    0 -0.00000000000E+00 -0.00000000000E+00 -0.45593999997E+02  0.45594000000E+02  0.51100000000E-03 0. -1.
    9900012    2    1    2    0    0 -0.11715666897E+01  0.90211002366E-01  0.11103738035E+00  0.90007730610E+02  0.89999991854E+02 0.  0.
        -12    1    1    2    0    0  0.11715666897E+01 -0.90211002366E-01 -0.11103738035E+00  0.11802693901E+01  0.00000000000E+00 0.  1.
         11    1    3    3    0    0  0.49785175001E+01  0.11297277309E+02  0.66417060184E+01  0.14018786331E+02  0.51100000000E-03 0. -1.
        -11    1    3    3    0    0  0.19976324158E+02  0.19089039698E+02 -0.19629668392E+02  0.33893492663E+02  0.51100000000E-03 0.  1.
         12    1    3    3    0    0 -0.26126408348E+02 -0.30296106004E+02  0.13098999754E+02  0.42095451616E+02  0.00000000000E+00 0. -1.
</event>
<event>
 7    1  0.1654239E-015  0.9000783E+02  0.7816164E-02  0.1186339E+00
        -11   -1    0    0    0    0  0.00000000000E+00  0.00000000000E+00  0.45593999997E+02  0.45594000000E+02  0.51100000000E-03 0. -1.
         11   -1    0    0    0    0 -0.00000000000E+00 -0.00000000000E+00 -0.45593999997E+02  0.45594000000E+02  0.51100000000E-03 0.  1.
    9900012    2    1    2    0    0 -0.65830034437E+00  0.16531047575E+00  0.96545720160E+00  0.90007832849E+02  0.90000095442E+02 0.  0.
        -12    1    1    2    0    0  0.65830034437E+00 -0.16531047575E+00 -0.96545720160E+00  0.11801671513E+01  0.00000000000E+00 0.  1.
         11    1    3    3    0    0  0.23436157822E+02 -0.26497559629E+02 -0.33219885066E+01  0.35530406241E+02  0.51100000000E-03 0. -1.
        -11    1    3    3    0    0  0.11349202092E+02  0.90892366070E+01 -0.94917315621E+00  0.14571188701E+02  0.51100000000E-03 0.  1.
        -12    1    3    3    0    0 -0.35443660258E+02  0.17573633497E+02  0.52366188644E+01  0.39906237907E+02  0.00000000000E+00 0.  1.
</event>
<event>
 7    1  0.1654239E-015  0.9000772E+02  0.7816164E-02  0.1186339E+00
        -11   -1    0    0    0    0  0.00000000000E+00  0.00000000000E+00  0.45593999997E+02  0.45594000000E+02  0.51100000000E-03 0. -1.
         11   -1    0    0    0    0 -0.00000000000E+00 -0.00000000000E+00 -0.45593999997E+02  0.45594000000E+02  0.51100000000E-03 0.  1.
    9900012    2    1    2    0    0  0.59959394972E+00 -0.67951190074E+00  0.75618615103E+00  0.90007717482E+02  0.89999978553E+02 0.  0.
        -12    1    1    2    0    0 -0.59959394972E+00  0.67951190074E+00 -0.75618615103E+00  0.11802825182E+01  0.00000000000E+00 0.  1.
         11    1    3    3    0    0 -0.99572289121E+01  0.70543492088E+00 -0.26558777593E+02  0.28372745964E+02  0.51100000000E-03 0.  1.
        -11    1    3    3    0    0  0.12598838144E+02  0.10167695031E+02  0.40720485686E+02  0.43820893413E+02  0.51100000000E-03 0. -1.
         12    1    3    3    0    0 -0.20420152821E+01 -0.11552641852E+02 -0.13405521941E+02  0.17814078104E+02  0.00000000000E+00 0. -1.
</event>
<event>
 7    1  0.1654239E-015  0.9000775E+02  0.7816164E-02  0.1186339E+00
        -11   -1    0    0    0    0  0.00000000000E+00  0.00000000000E+00  0.45593999997E+02  0.45594000000E+02  0.51100000000E-03 0.  1.
         11   -1    0    0    0    0 -0.00000000000E+00 -0.00000000000E+00 -0.45593999997E+02  0.45594000000E+02  0.51100000000E-03 0. -1.
    9900012    2    1    2    0    0 -0.15471413158E-01 -0.10684076816E+01 -0.50124758410E+00  0.90007752789E+02  0.90000014326E+02 0.  0.
        -12    1    1    2    0    0  0.15471413158E-01  0.10684076816E+01  0.50124758410E+00  0.11802472111E+01  0.00000000000E+00 0.  1.
         11    1    3    3    0    0 -0.43706058631E+01  0.64647007850E+01 -0.82118165127E+00  0.78465846976E+01  0.51100000000E-03 0. -1.
        -11    1    3    3    0    0  0.30080021332E+02  0.26094348576E+02  0.31084552330E+00  0.39822347195E+02  0.51100000000E-03 0.  1.
         12    1    3    3    0    0 -0.25724886882E+02 -0.33627457042E+02  0.90885438637E-02  0.42338820896E+02  0.00000000000E+00 0. -1.
</event>
<event>
 7    1  0.1654239E-015  0.9000779E+02  0.7816164E-02  0.1186339E+00
        -11   -1    0    0    0    0  0.00000000000E+00  0.00000000000E+00  0.45593999997E+02  0.45594000000E+02  0.51100000000E-03 0.  1.
         11   -1    0    0    0    0 -0.00000000000E+00 -0.00000000000E+00 -0.45593999997E+02  0.45594000000E+02  0.51100000000E-03 0. -1.
    9900012    2    1    2    0    0  0.35367198658E+00  0.86168212238E+00 -0.72479449289E+00  0.90007785184E+02  0.90000047149E+02 0.  0.
        -12    1    1    2    0    0 -0.35367198658E+00 -0.86168212238E+00  0.72479449289E+00  0.11802148156E+01  0.00000000000E+00 0.  1.
         11    1    3    3    0    0 -0.89602955459E+01 -0.56608729042E+01  0.13807815426E+01  0.10688261610E+02  0.51100000000E-03 0. -1.
        -11    1    3    3    0    0 -0.61881524842E+01 -0.34149355481E+02  0.54858176365E+01  0.35136390059E+02  0.51100000000E-03 0.  1.
         12    1    3    3    0    0  0.15502120017E+02  0.40671910508E+02 -0.75913936720E+01  0.44183133516E+02  0.00000000000E+00 0. -1.
</event>
<event>
 7    1  0.1654239E-015  0.9000776E+02  0.7816164E-02  0.1186339E+00
        -11   -1    0    0    0    0  0.00000000000E+00  0.00000000000E+00  0.45593999997E+02  0.45594000000E+02  0.51100000000E-03 0.  1.
         11   -1    0    0    0    0 -0.00000000000E+00 -0.00000000000E+00 -0.45593999997E+02  0.45594000000E+02  0.51100000000E-03 0. -1.
    9900012    2    1    2    0    0  0.79261202770E+00  0.50781415788E+00 -0.71193933669E+00  0.90007759912E+02  0.90000021543E+02 0.  0.
        -12    1    1    2    0    0 -0.79261202770E+00 -0.50781415788E+00  0.71193933669E+00  0.11802400877E+01  0.00000000000E+00 0.  1.
         11    1    3    3    0    0 -0.71051023149E+01 -0.77333701231E+01 -0.89208163617E+00  0.10539606362E+02  0.51100000000E-03 0. -1.
        -11    1    3    3    0    0 -0.28227790276E+02  0.26738622946E+02  0.26214721411E+00  0.38882268739E+02  0.51100000000E-03 0.  1.
         12    1    3    3    0    0  0.36125504618E+02 -0.18497438665E+02 -0.82004914624E-01  0.40585884811E+02  0.00000000000E+00 0. -1.
</event>
<event>
 7    1  0.1654239E-015  0.9000772E+02  0.7816164E-02  0.1186339E+00
        -11   -1    0    0    0    0  0.00000000000E+00  0.00000000000E+00  0.45593999997E+02  0.45594000000E+02  0.51100000000E-03 0. -1.
         11   -1    0    0    0    0 -0.00000000000E+00 -0.00000000000E+00 -0.45593999997E+02  0.45594000000E+02  0.51100000000E-03 0.  1.
    9900012    2    1    2    0    0 -0.10454494620E+01  0.50298293453E+00  0.21705406394E+00  0.90007716612E+02  0.89999977671E+02 0.  0.
        -12    1    1    2    0    0  0.10454494620E+01 -0.50298293453E+00 -0.21705406394E+00  0.11802833883E+01  0.00000000000E+00 0.  1.
         11    1    3    3    0    0 -0.27970612720E+02 -0.18229386044E+02  0.17342042211E+02  0.37621963263E+02  0.51100000000E-03 0. -1.
        -11    1    3    3    0    0 -0.47399601784E+01 -0.68304672799E+01 -0.58212499514E+01  0.10149357468E+02  0.51100000000E-03 0.  1.
        -12    1    3    3    0    0  0.31665123436E+02  0.25562836258E+02 -0.11303738196E+02  0.42236395881E+02  0.00000000000E+00 0.  1.
</event>
<event>
 7    1  0.1654239E-015  0.9000773E+02  0.7816164E-02  0.1186339E+00
        -11   -1    0    0    0    0  0.00000000000E+00  0.00000000000E+00  0.45593999997E+02  0.45594000000E+02  0.51100000000E-03 0. -1.
         11   -1    0    0    0    0 -0.00000000000E+00 -0.00000000000E+00 -0.45593999997E+02  0.45594000000E+02  0.51100000000E-03 0.  1.
    9900012    2    1    2    0    0 -0.91088581154E+00 -0.61491517443E+00  0.43034727345E+00  0.90007732060E+02  0.89999993324E+02 0.  0.
        -12    1    1    2    0    0  0.91088581154E+00  0.61491517443E+00 -0.43034727345E+00  0.11802679396E+01  0.00000000000E+00 0.  1.
         11    1    3    3    0    0  0.16549300355E+02  0.58258521847E+01  0.34438395698E+02  0.38650006396E+02  0.51100000000E-03 0. -1.
        -11    1    3    3    0    0  0.85443215921E+01 -0.35605534392E+01 -0.11078279240E+01  0.93225669873E+01  0.51100000000E-03 0.  1.
        -12    1    3    3    0    0 -0.26004507759E+02 -0.28802139199E+01 -0.32900220501E+02  0.42035158677E+02  0.00000000000E+00 0.  1.
</event>
<event>
 7    1  0.1654239E-015  0.9000770E+02  0.7816164E-02  0.1186339E+00
        -11   -1    0    0    0    0  0.00000000000E+00  0.00000000000E+00  0.45593999997E+02  0.45594000000E+02  0.51100000000E-03 0.  1.
         11   -1    0    0    0    0 -0.00000000000E+00 -0.00000000000E+00 -0.45593999997E+02  0.45594000000E+02  0.51100000000E-03 0. -1.
    9900012    2    1    2    0    0 -0.93462201250E+00 -0.71783960683E+00  0.65613517802E-01  0.90007696166E+02  0.89999956955E+02 0.  0.
        -12    1    1    2    0    0  0.93462201250E+00  0.71783960683E+00 -0.65613517802E-01  0.11803038342E+01  0.00000000000E+00 0.  1.
         11    1    3    3    0    0  0.57859481247E+01 -0.11616679719E+01  0.77584529014E+01  0.97478335985E+01  0.51100000000E-03 0. -1.
        -11    1    3    3    0    0 -0.71825099580E+01 -0.10312563516E+02  0.34498636271E+02  0.36716390351E+02  0.51100000000E-03 0.  1.
         12    1    3    3    0    0  0.46193982079E+00  0.10756391882E+02 -0.42191475655E+02  0.43543472216E+02  0.00000000000E+00 0. -1.
</event>
<event>
 7    1  0.1654239E-015  0.9000843E+02  0.7816164E-02  0.1186338E+00
        -11   -1    0    0    0    0  0.00000000000E+00  0.00000000000E+00  0.45593999997E+02  0.45594000000E+02  0.51100000000E-03 0. -1.
         11   -1    0    0    0    0 -0.00000000000E+00 -0.00000000000E+00 -0.45593999997E+02  0.45594000000E+02  0.51100000000E-03 0.  1.
    9900012    2    1    2    0    0 -0.56581155898E+00  0.58387307029E+00  0.85459009347E+00  0.90008434525E+02  0.90000705058E+02 0.  0.
        -12    1    1    2    0    0  0.56581155898E+00 -0.58387307029E+00 -0.85459009347E+00  0.11795654752E+01  0.00000000000E+00 0.  1.
         11    1    3    3    0    0  0.10271794115E+02  0.17622769359E+02  0.10851134263E+02  0.23104520538E+02  0.51100000000E-03 0. -1.
        -11    1    3    3    0    0  0.15950442632E+02 -0.21026648597E+02  0.14735738275E+02  0.30227116206E+02  0.51100000000E-03 0.  1.
        -12    1    3    3    0    0 -0.26788048306E+02  0.39877523079E+01 -0.24732282445E+02  0.36676797781E+02  0.00000000000E+00 0.  1.
</event>
<event>
 7    1  0.1654239E-015  0.9000768E+02  0.7816164E-02  0.1186339E+00
        -11   -1    0    0    0    0  0.00000000000E+00  0.00000000000E+00  0.45593999997E+02  0.45594000000E+02  0.51100000000E-03 0.  1.
         11   -1    0    0    0    0 -0.00000000000E+00 -0.00000000000E+00 -0.45593999997E+02  0.45594000000E+02  0.51100000000E-03 0. -1.
    9900012    2    1    2    0    0 -0.85837764065E+00  0.80604158620E+00  0.81470169320E-01  0.90007681144E+02  0.89999941735E+02 0.  0.
        -12    1    1    2    0    0  0.85837764065E+00 -0.80604158620E+00 -0.81470169320E-01  0.11803188557E+01  0.00000000000E+00 0.  1.
         11    1    3    3    0    0  0.57562218502E+01  0.86130256044E+01 -0.68715374423E+01  0.12431264100E+02  0.51100000000E-03 0. -1.
        -11    1    3    3    0    0  0.25170049952E+02  0.22167686623E+02  0.18640925886E+01  0.33591852974E+02  0.51100000000E-03 0.  1.
         12    1    3    3    0    0 -0.31784649443E+02 -0.29974670641E+02  0.50889150230E+01  0.43984564069E+02  0.00000000000E+00 0. -1.
</event>
<event>
 7    1  0.1654239E-015  0.9000772E+02  0.7816164E-02  0.1186339E+00
        -11   -1    0    0    0    0  0.00000000000E+00  0.00000000000E+00  0.45593999997E+02  0.45594000000E+02  0.51100000000E-03 0.  1.
         11   -1    0    0    0    0 -0.00000000000E+00 -0.00000000000E+00 -0.45593999997E+02  0.45594000000E+02  0.51100000000E-03 0. -1.
    9900012    2    1    2    0    0 -0.11700714186E+01  0.10615258998E+00 -0.11277379115E+00  0.90007723158E+02  0.89999984303E+02 0.  0.
        -12    1    1    2    0    0  0.11700714186E+01 -0.10615258998E+00  0.11277379115E+00  0.11802768425E+01  0.00000000000E+00 0.  1.
         11    1    3    3    0    0 -0.22885897851E+01 -0.23404362783E+02 -0.34194536504E+02  0.41500218884E+02  0.51100000000E-03 0. -1.
        -11    1    3    3    0    0 -0.10718854775E+01  0.13063790283E+02  0.33396699614E+00  0.13111944526E+02  0.51100000000E-03 0.  1.
        -12    1    3    3    0    0  0.21904038440E+01  0.10446725090E+02  0.33747795717E+02  0.35395559747E+02  0.00000000000E+00 0.  1.
</event>
<event>
 7    1  0.1654239E-015  0.9000777E+02  0.7816164E-02  0.1186339E+00
        -11   -1    0    0    0    0  0.00000000000E+00  0.00000000000E+00  0.45593999997E+02  0.45594000000E+02  0.51100000000E-03 0. -1.
         11   -1    0    0    0    0 -0.00000000000E+00 -0.00000000000E+00 -0.45593999997E+02  0.45594000000E+02  0.51100000000E-03 0.  1.
    9900012    2    1    2    0    0 -0.57905741374E+00 -0.82669401892E+00  0.61172819252E+00  0.90007770416E+02  0.90000032186E+02 0.  0.
        -12    1    1    2    0    0  0.57905741374E+00  0.82669401892E+00 -0.61172819252E+00  0.11802295840E+01  0.00000000000E+00 0.  1.
         11    1    3    3    0    0  0.14466190689E+02 -0.13640732685E+02  0.35739045004E+02  0.40897672297E+02  0.51100000000E-03 0. -1.
        -11    1    3    3    0    0 -0.37097818307E+01 -0.84864329793E+01 -0.50457425144E+01  0.10547110681E+02  0.51100000000E-03 0.  1.
        -12    1    3    3    0    0 -0.11335466272E+02  0.21300471646E+02 -0.30081574297E+02  0.38562987438E+02  0.00000000000E+00 0.  1.
</event>
<event>
 7    1  0.1654239E-015  0.9000790E+02  0.7816164E-02  0.1186339E+00
        -11   -1    0    0    0    0  0.00000000000E+00  0.00000000000E+00  0.45593999997E+02  0.45594000000E+02  0.51100000000E-03 0. -1.
         11   -1    0    0    0    0 -0.00000000000E+00 -0.00000000000E+00 -0.45593999997E+02  0.45594000000E+02  0.51100000000E-03 0.  1.
    9900012    2    1    2    0    0  0.76739567953E+00  0.52952415626E+00  0.72343047670E+00  0.90007896778E+02  0.90000160215E+02 0.  0.
        -12    1    1    2    0    0 -0.76739567953E+00 -0.52952415626E+00 -0.72343047670E+00  0.11801032225E+01  0.00000000000E+00 0.  1.
         11    1    3    3    0    0 -0.28008194255E+02  0.25393444777E+02  0.26516905526E+01  0.37898778953E+02  0.51100000000E-03 0. -1.
        -11    1    3    3    0    0 -0.79019185924E+01 -0.40220325479E+01  0.35866463096E+01  0.95645750177E+01  0.51100000000E-03 0.  1.
        -12    1    3    3    0    0  0.36677508527E+02 -0.20841888073E+02 -0.55149063855E+01  0.42544542807E+02  0.00000000000E+00 0.  1.
</event>
<event>
 7    1  0.1654239E-015  0.9000759E+02  0.7816164E-02  0.1186339E+00
        -11   -1    0    0    0    0  0.00000000000E+00  0.00000000000E+00  0.45593999997E+02  0.45594000000E+02  0.51100000000E-03 0. -1.
         11   -1    0    0    0    0 -0.00000000000E+00 -0.00000000000E+00 -0.45593999997E+02  0.45594000000E+02  0.51100000000E-03 0.  1.
    9900012    2    1    2    0    0 -0.60717348703E+00  0.22335908281E-01  0.10120351754E+01  0.90007587474E+02  0.89999846828E+02 0.  0.
        -12    1    1    2    0    0  0.60717348703E+00 -0.22335908281E-01 -0.10120351754E+01  0.11804125263E+01  0.00000000000E+00 0.  1.
         11    1    3    3    0    0  0.10230279181E+02  0.33866087201E+01 -0.11178376366E+01  0.10834080117E+02  0.51100000000E-03 0. -1.
        -11    1    3    3    0    0  0.20365937743E+01 -0.39418632278E+02  0.84657179236E+01  0.40368857614E+02  0.51100000000E-03 0.  1.
         12    1    3    3    0    0 -0.12874046442E+02  0.36054359466E+02 -0.63358451116E+01  0.38804649742E+02  0.00000000000E+00 0. -1.
</event>
<event>
 7    1  0.1654239E-015  0.9000725E+02  0.7816164E-02  0.1186340E+00
        -11   -1    0    0    0    0  0.00000000000E+00  0.00000000000E+00  0.45593999997E+02  0.45594000000E+02  0.51100000000E-03 0. -1.
         11   -1    0    0    0    0 -0.00000000000E+00 -0.00000000000E+00 -0.45593999997E+02  0.45594000000E+02  0.51100000000E-03 0.  1.
    9900012    2    1    2    0    0 -0.37393121476E+00  0.63455186817E+00  0.92287110371E+00  0.90007249518E+02  0.89999504410E+02 0.  0.
        -12    1    1    2    0    0  0.37393121476E+00 -0.63455186817E+00 -0.92287110371E+00  0.11807504820E+01  0.00000000000E+00 0.  1.
         11    1    3    3    0    0 -0.15208810341E+02 -0.19878856226E+02  0.26448941546E+02  0.36414603472E+02  0.51100000000E-03 0. -1.
        -11    1    3    3    0    0  0.59277856389E+00  0.37003421095E+01  0.10618979999E+02  0.11260846089E+02  0.51100000000E-03 0.  1.
        -12    1    3    3    0    0  0.14242100563E+02  0.16813065985E+02 -0.36145050441E+02  0.42331799957E+02  0.00000000000E+00 0.  1.
</event>
<event>
 7    1  0.1654239E-015  0.9000778E+02  0.7816164E-02  0.1186339E+00
        -11   -1    0    0    0    0  0.00000000000E+00  0.00000000000E+00  0.45593999997E+02  0.45594000000E+02  0.51100000000E-03 0. -1.
         11   -1    0    0    0    0 -0.00000000000E+00 -0.00000000000E+00 -0.45593999997E+02  0.45594000000E+02  0.51100000000E-03 0.  1.
    9900012    2    1    2    0    0 -0.11070544374E+01  0.40171953867E+00  0.77209824835E-01  0.90007784142E+02  0.90000046092E+02 0.  0.
        -12    1    1    2    0    0  0.11070544374E+01 -0.40171953867E+00 -0.77209824835E-01  0.11802158583E+01  0.00000000000E+00 0.  1.
         11    1    3    3    0    0 -0.16443816228E+02 -0.28052523347E+02 -0.62388853273E+01  0.33109920699E+02  0.51100000000E-03 0. -1.
        -11    1    3    3    0    0  0.77729121291E+01 -0.12595251027E+02  0.13195670104E+01  0.14859332716E+02  0.51100000000E-03 0.  1.
        -12    1    3    3    0    0  0.75638496618E+01  0.41049493913E+02  0.49965281417E+01  0.42038530727E+02  0.00000000000E+00 0.  1.
</event>
<event>
 7    1  0.1654239E-015  0.9000777E+02  0.7816164E-02  0.1186339E+00
        -11   -1    0    0    0    0  0.00000000000E+00  0.00000000000E+00  0.45593999997E+02  0.45594000000E+02  0.51100000000E-03 0. -1.
         11   -1    0    0    0    0 -0.00000000000E+00 -0.00000000000E+00 -0.45593999997E+02  0.45594000000E+02  0.51100000000E-03 0.  1.
    9900012    2    1    2    0    0 -0.76162766215E+00 -0.23394671306E+00  0.87070386306E+00  0.90007774184E+02  0.90000036003E+02 0.  0.
        -12    1    1    2    0    0  0.76162766215E+00  0.23394671306E+00 -0.87070386306E+00  0.11802258163E+01  0.00000000000E+00 0.  1.
         11    1    3    3    0    0  0.15969378569E+02 -0.25290737536E+02  0.25339255350E+02  0.39201024463E+02  0.51100000000E-03 0. -1.
        -11    1    3    3    0    0 -0.26590356110E+01  0.64651577036E+01  0.81334617944E+01  0.10724827996E+02  0.51100000000E-03 0.  1.
        -12    1    3    3    0    0 -0.14071970620E+02  0.18591633120E+02 -0.32602013281E+02  0.40081921725E+02  0.00000000000E+00 0.  1.
</event>
<event>
 7    1  0.1654239E-015  0.9000779E+02  0.7816164E-02  0.1186339E+00
        -11   -1    0    0    0    0  0.00000000000E+00  0.00000000000E+00  0.45593999997E+02  0.45594000000E+02  0.51100000000E-03 0.  1.
         11   -1    0    0    0    0 -0.00000000000E+00 -0.00000000000E+00 -0.45593999997E+02  0.45594000000E+02  0.51100000000E-03 0. -1.
    9900012    2    1    2    0    0 -0.89658766977E+00  0.76311315301E+00  0.81763907190E-01  0.90007789650E+02  0.90000051673E+02 0.  0.
        -12    1    1    2    0    0  0.89658766977E+00 -0.76311315301E+00 -0.81763907190E-01  0.11802103501E+01  0.00000000000E+00 0.  1.
         11    1    3    3    0    0 -0.10189482680E+02  0.15213124209E+02 -0.33012859286E+02  0.37750676603E+02  0.51100000000E-03 0. -1.
        -11    1    3    3    0    0  0.72146793413E+01  0.35928619058E+01 -0.53941683593E+01  0.96983146588E+01  0.51100000000E-03 0.  1.
        -12    1    3    3    0    0  0.20782156684E+01 -0.18042872962E+02  0.38488791553E+02  0.42558798388E+02  0.00000000000E+00 0.  1.
</event>
<event>
 7    1  0.1654239E-015  0.9000778E+02  0.7816164E-02  0.1186339E+00
        -11   -1    0    0    0    0  0.00000000000E+00  0.00000000000E+00  0.45593999997E+02  0.45594000000E+02  0.51100000000E-03 0. -1.
         11   -1    0    0    0    0 -0.00000000000E+00 -0.00000000000E+00 -0.45593999997E+02  0.45594000000E+02  0.51100000000E-03 0.  1.
    9900012    2    1    2    0    0 -0.10460073116E+00  0.10999834815E+00  0.11704227101E+01  0.90007775331E+02  0.90000037165E+02 0.  0.
        -12    1    1    2    0    0  0.10460073116E+00 -0.10999834815E+00 -0.11704227101E+01  0.11802246692E+01  0.00000000000E+00 0.  1.
         11    1    3    3    0    0 -0.84080269129E+01 -0.37985260868E+01 -0.12372333148E+01  0.93088379262E+01  0.51100000000E-03 0. -1.
        -11    1    3    3    0    0 -0.19111037243E+02 -0.14824959243E+02 -0.27067663148E+02  0.36299718313E+02  0.51100000000E-03 0.  1.
         12    1    3    3    0    0  0.27414463424E+02  0.18733483678E+02  0.29475319173E+02  0.44399219091E+02  0.00000000000E+00 0. -1.
</event>
<event>
 7    1  0.1654239E-015  0.9000775E+02  0.7816164E-02  0.1186339E+00
        -11   -1    0    0    0    0  0.00000000000E+00  0.00000000000E+00  0.45593999997E+02  0.45594000000E+02  0.51100000000E-03 0. -1.
         11   -1    0    0    0    0 -0.00000000000E+00 -0.00000000000E+00 -0.45593999997E+02  0.45594000000E+02  0.51100000000E-03 0.  1.
    9900012    2    1    2    0    0 -0.53513821876E+00  0.10058433769E+01  0.30806034061E+00  0.90007747914E+02  0.90000009387E+02 0.  0.
        -12    1    1    2    0    0  0.53513821876E+00 -0.10058433769E+01 -0.30806034061E+00  0.11802520856E+01  0.00000000000E+00 0.  1.
         11    1    3    3    0    0 -0.20158607830E+02 -0.19612996493E+02 -0.15257631187E+02  0.31997412564E+02  0.51100000000E-03 0.  1.
        -11    1    3    3    0    0  0.27561832040E+02  0.13127200814E+01 -0.57390337736E+01  0.28183582603E+02  0.51100000000E-03 0. -1.
        -12    1    3    3    0    0 -0.79383624284E+01  0.19306119788E+02  0.21304725301E+02  0.29826752748E+02  0.00000000000E+00 0.  1.
</event>
<event>
 7    1  0.1654239E-015  0.9000774E+02  0.7816164E-02  0.1186339E+00
        -11   -1    0    0    0    0  0.00000000000E+00  0.00000000000E+00  0.45593999997E+02  0.45594000000E+02  0.51100000000E-03 0. -1.
         11   -1    0    0    0    0 -0.00000000000E+00 -0.00000000000E+00 -0.45593999997E+02  0.45594000000E+02  0.51100000000E-03 0.  1.
    9900012    2    1    2    0    0 -0.10695416738E+01  0.12305522177E+00  0.48368532931E+00  0.90007740081E+02  0.90000001450E+02 0.  0.
        -12    1    1    2    0    0  0.10695416738E+01 -0.12305522177E+00 -0.48368532931E+00  0.11802599194E+01  0.00000000000E+00 0.  1.
         11    1    3    3    0    0 -0.49283850732E+01 -0.44749916036E+01  0.59865225036E+01  0.89528197362E+01  0.51100000000E-03 0. -1.
        -11    1    3    3    0    0 -0.30412286526E+02 -0.19413586403E+02 -0.13366439124E+02  0.38476696894E+02  0.51100000000E-03 0.  1.
         12    1    3    3    0    0  0.34271129925E+02  0.24011633228E+02  0.78636019495E+01  0.42578223451E+02  0.00000000000E+00 0. -1.
</event>
<event>
 7    1  0.1654239E-015  0.9000803E+02  0.7816164E-02  0.1186338E+00
        -11   -1    0    0    0    0  0.00000000000E+00  0.00000000000E+00  0.45593999997E+02  0.45594000000E+02  0.51100000000E-03 0.  1.
         11   -1    0    0    0    0 -0.00000000000E+00 -0.00000000000E+00 -0.45593999997E+02  0.45594000000E+02  0.51100000000E-03 0. -1.
    9900012    2    1    2    0    0 -0.97969839660E+00 -0.69723030460E-01 -0.65394846236E+00  0.90008034390E+02  0.90000299643E+02 0.  0.
        -12    1    1    2    0    0  0.97969839660E+00  0.69723030460E-01  0.65394846236E+00  0.11799656100E+01  0.00000000000E+00 0.  1.
         11    1    3    3    0    0  0.25957147930E+01  0.43595521240E+01 -0.76887022943E+01  0.92119255990E+01  0.51100000000E-03 0. -1.
        -11    1    3    3    0    0  0.17894628185E+02 -0.58523286621E+01 -0.31478784787E+02  0.36679440571E+02  0.51100000000E-03 0.  1.
         12    1    3    3    0    0 -0.21470041374E+02  0.14230535076E+01  0.38513538619E+02  0.44116668220E+02  0.00000000000E+00 0. -1.
</event>
<event>
 7    1  0.1654239E-015  0.9000773E+02  0.7816164E-02  0.1186339E+00
        -11   -1    0    0    0    0  0.00000000000E+00  0.00000000000E+00  0.45593999997E+02  0.45594000000E+02  0.51100000000E-03 0.  1.
         11   -1    0    0    0    0 -0.00000000000E+00 -0.00000000000E+00 -0.45593999997E+02  0.45594000000E+02  0.51100000000E-03 0. -1.
    9900012    2    1    2    0    0  0.31109626982E+00  0.32127121692E+00 -0.10922649310E+01  0.90007729369E+02  0.89999990596E+02 0.  0.
        -12    1    1    2    0    0 -0.31109626982E+00 -0.32127121692E+00  0.10922649310E+01  0.11802706315E+01  0.00000000000E+00 0.  1.
         11    1    3    3    0    0 -0.12741589336E+02 -0.45243086563E+01 -0.38997835917E+01  0.14072163300E+02  0.51100000000E-03 0. -1.
        -11    1    3    3    0    0 -0.66292809739E+01 -0.21632460270E+01  0.36025136119E+02  0.36693833709E+02  0.51100000000E-03 0.  1.
         12    1    3    3    0    0  0.19681966579E+02  0.70088259002E+01 -0.33217617459E+02  0.39241732359E+02  0.00000000000E+00 0. -1.
</event>
<event>
 7    1  0.1654239E-015  0.9000774E+02  0.7816164E-02  0.1186339E+00
        -11   -1    0    0    0    0  0.00000000000E+00  0.00000000000E+00  0.45593999997E+02  0.45594000000E+02  0.51100000000E-03 0.  1.
         11   -1    0    0    0    0 -0.00000000000E+00 -0.00000000000E+00 -0.45593999997E+02  0.45594000000E+02  0.51100000000E-03 0. -1.
    9900012    2    1    2    0    0 -0.36477689531E+00  0.89266231375E+00 -0.68052497975E+00  0.90007736285E+02  0.89999997604E+02 0.  0.
        -12    1    1    2    0    0  0.36477689531E+00 -0.89266231375E+00  0.68052497975E+00  0.11802637154E+01  0.00000000000E+00 0.  1.
         11    1    3    3    0    0 -0.13353539995E+02 -0.75780700049E+01 -0.12326236484E+02  0.19689598307E+02  0.51100000000E-03 0. -1.
        -11    1    3    3    0    0 -0.23408394347E+02  0.14777336621E+02  0.17740391571E+02  0.32879235040E+02  0.51100000000E-03 0.  1.
        -12    1    3    3    0    0  0.36397157446E+02 -0.63066043018E+01 -0.60946800668E+01  0.37438902937E+02  0.00000000000E+00 0.  1.
</event>
<event>
 7    1  0.1654239E-015  0.9000777E+02  0.7816164E-02  0.1186339E+00
        -11   -1    0    0    0    0  0.00000000000E+00  0.00000000000E+00  0.45593999997E+02  0.45594000000E+02  0.51100000000E-03 0. -1.
         11   -1    0    0    0    0 -0.00000000000E+00 -0.00000000000E+00 -0.45593999997E+02  0.45594000000E+02  0.51100000000E-03 0.  1.
    9900012    2    1    2    0    0  0.34814859079E+00  0.11722035158E+00  0.11216041626E+01  0.90007769535E+02  0.90000031293E+02 0.  0.
        -12    1    1    2    0    0 -0.34814859079E+00 -0.11722035158E+00 -0.11216041626E+01  0.11802304646E+01  0.00000000000E+00 0.  1.
         11    1    3    3    0    0 -0.39623194964E+02  0.54094231586E+01 -0.13543605660E+01  0.40013669301E+02  0.51100000000E-03 0. -1.
        -11    1    3    3    0    0  0.26037166312E+01  0.43189392586E+01 -0.84964690293E+01  0.98804130907E+01  0.51100000000E-03 0.  1.
        -12    1    3    3    0    0  0.37367626924E+02 -0.96111420656E+01  0.10972433758E+02  0.40113687144E+02  0.00000000000E+00 0.  1.
</event>
<event>
 7    1  0.1654239E-015  0.9000769E+02  0.7816164E-02  0.1186339E+00
        -11   -1    0    0    0    0  0.00000000000E+00  0.00000000000E+00  0.45593999997E+02  0.45594000000E+02  0.51100000000E-03 0.  1.
         11   -1    0    0    0    0 -0.00000000000E+00 -0.00000000000E+00 -0.45593999997E+02  0.45594000000E+02  0.51100000000E-03 0. -1.
    9900012    2    1    2    0    0  0.82449289949E+00 -0.50904799563E+00 -0.67394995060E+00  0.90007692015E+02  0.89999952750E+02 0.  0.
        -12    1    1    2    0    0 -0.82449289949E+00  0.50904799563E+00  0.67394995060E+00  0.11803079848E+01  0.00000000000E+00 0.  1.
         11    1    3    3    0    0 -0.21570532301E+02  0.32352119255E+02  0.39895265264E+01  0.39087898462E+02  0.51100000000E-03 0. -1.
        -11    1    3    3    0    0  0.62168232698E+01  0.46406720317E+01 -0.63751686261E+01  0.10041289944E+02  0.51100000000E-03 0.  1.
        -12    1    3    3    0    0  0.16178201931E+02 -0.37501839282E+02  0.17116921491E+01  0.40878503609E+02  0.00000000000E+00 0.  1.
</event>
<event>
 7    1  0.1654239E-015  0.9000773E+02  0.7816164E-02  0.1186339E+00
        -11   -1    0    0    0    0  0.00000000000E+00  0.00000000000E+00  0.45593999997E+02  0.45594000000E+02  0.51100000000E-03 0.  1.
         11   -1    0    0    0    0 -0.00000000000E+00 -0.00000000000E+00 -0.45593999997E+02  0.45594000000E+02  0.51100000000E-03 0. -1.
    9900012    2    1    2    0    0 -0.48004225163E+00  0.64868204174E+00  0.86128013785E+00  0.90007732051E+02  0.89999993314E+02 0.  0.
        -12    1    1    2    0    0  0.48004225163E+00 -0.64868204174E+00 -0.86128013785E+00  0.11802679486E+01  0.00000000000E+00 0.  1.
         11    1    3    3    0    0  0.14785146864E+02  0.37417069078E+02 -0.34349654017E+01  0.40378665329E+02  0.51100000000E-03 0. -1.
        -11    1    3    3    0    0 -0.39374023301E+01  0.24111050289E-01 -0.82482853308E+01  0.91399086216E+01  0.51100000000E-03 0.  1.
        -12    1    3    3    0    0 -0.11327786786E+02 -0.36792498087E+02  0.12544530870E+02  0.40489158100E+02  0.00000000000E+00 0.  1.
</event>
<event>
 7    1  0.1654239E-015  0.9000780E+02  0.7816164E-02  0.1186339E+00
        -11   -1    0    0    0    0  0.00000000000E+00  0.00000000000E+00  0.45593999997E+02  0.45594000000E+02  0.51100000000E-03 0. -1.
         11   -1    0    0    0    0 -0.00000000000E+00 -0.00000000000E+00 -0.45593999997E+02  0.45594000000E+02  0.51100000000E-03 0.  1.
    9900012    2    1    2    0    0  0.43348395709E+00  0.10921380711E+01 -0.11044803708E+00  0.90007799730E+02  0.90000061887E+02 0.  0.
        -12    1    1    2    0    0 -0.43348395709E+00 -0.10921380711E+01  0.11044803708E+00  0.11802002696E+01  0.00000000000E+00 0.  1.
         11    1    3    3    0    0  0.26795434437E+02 -0.23167473172E+02  0.25142662697E+02  0.43438239002E+02  0.51100000000E-03 0. -1.
        -11    1    3    3    0    0 -0.47837944151E+01 -0.33140202515E+00 -0.86297580528E+01  0.98725498540E+01  0.51100000000E-03 0.  1.
        -12    1    3    3    0    0 -0.21578156064E+02  0.24591013269E+02 -0.16623352682E+02  0.36697010874E+02  0.00000000000E+00 0.  1.
</event>
<event>
 7    1  0.1654239E-015  0.9000774E+02  0.7816164E-02  0.1186339E+00
        -11   -1    0    0    0    0  0.00000000000E+00  0.00000000000E+00  0.45593999997E+02  0.45594000000E+02  0.51100000000E-03 0. -1.
         11   -1    0    0    0    0 -0.00000000000E+00 -0.00000000000E+00 -0.45593999997E+02  0.45594000000E+02  0.51100000000E-03 0.  1.
    9900012    2    1    2    0    0 -0.78587241773E+00  0.77338584207E+00  0.42105169378E+00  0.90007743398E+02  0.90000004811E+02 0.  0.
        -12    1    1    2    0    0  0.78587241773E+00 -0.77338584207E+00 -0.42105169378E+00  0.11802566020E+01  0.00000000000E+00 0.  1.
         11    1    3    3    0    0  0.37671714026E+02  0.22331024422E+02 -0.70983353799E+01  0.44364614895E+02  0.51100000000E-03 0. -1.
        -11    1    3    3    0    0 -0.58240576093E+01 -0.62328079533E+01  0.39920447660E+01  0.94182781703E+01  0.51100000000E-03 0.  1.
        -12    1    3    3    0    0 -0.32633528834E+02 -0.15324830626E+02  0.35273423077E+01  0.36224850333E+02  0.00000000000E+00 0.  1.
</event>
<event>
 7    1  0.1654239E-015  0.9000792E+02  0.7816164E-02  0.1186339E+00
        -11   -1    0    0    0    0  0.00000000000E+00  0.00000000000E+00  0.45593999997E+02  0.45594000000E+02  0.51100000000E-03 0.  1.
         11   -1    0    0    0    0 -0.00000000000E+00 -0.00000000000E+00 -0.45593999997E+02  0.45594000000E+02  0.51100000000E-03 0. -1.
    9900012    2    1    2    0    0  0.63882357814E+00 -0.19848985578E+00 -0.97216299932E+00  0.90007917510E+02  0.90000181221E+02 0.  0.
        -12    1    1    2    0    0 -0.63882357814E+00  0.19848985578E+00  0.97216299932E+00  0.11800824904E+01  0.00000000000E+00 0.  1.
         11    1    3    3    0    0  0.51888627301E+01 -0.16276955405E+02  0.87717753514E+00  0.17106519645E+02  0.51100000000E-03 0. -1.
        -11    1    3    3    0    0  0.91744156150E+01 -0.11785503225E+02  0.26777394071E+02  0.30660998379E+02  0.51100000000E-03 0.  1.
         12    1    3    3    0    0 -0.13724454767E+02  0.27863968774E+02 -0.28626734605E+02  0.42240399485E+02  0.00000000000E+00 0. -1.
</event>
<event>
 7    1  0.1654239E-015  0.9000773E+02  0.7816164E-02  0.1186339E+00
        -11   -1    0    0    0    0  0.00000000000E+00  0.00000000000E+00  0.45593999997E+02  0.45594000000E+02  0.51100000000E-03 0. -1.
         11   -1    0    0    0    0 -0.00000000000E+00 -0.00000000000E+00 -0.45593999997E+02  0.45594000000E+02  0.51100000000E-03 0.  1.
    9900012    2    1    2    0    0  0.61891262035E+00  0.24097966844E+00  0.97566624922E+00  0.90007725175E+02  0.89999986347E+02 0.  0.
        -12    1    1    2    0    0 -0.61891262035E+00 -0.24097966844E+00 -0.97566624922E+00  0.11802748248E+01  0.00000000000E+00 0.  1.
         11    1    3    3    0    0  0.71192115452E+01 -0.22740008978E+02  0.29429372120E+02  0.37866596427E+02  0.51100000000E-03 0. -1.
        -11    1    3    3    0    0 -0.36315980592E+01  0.31464795336E+01  0.86932877146E+01  0.99328792135E+01  0.51100000000E-03 0.  1.
        -12    1    3    3    0    0 -0.28687008657E+01  0.19834509112E+02 -0.37146993585E+02  0.42208249535E+02  0.00000000000E+00 0.  1.
</event>
<event>
 7    1  0.1654239E-015  0.9000775E+02  0.7816164E-02  0.1186339E+00
        -11   -1    0    0    0    0  0.00000000000E+00  0.00000000000E+00  0.45593999997E+02  0.45594000000E+02  0.51100000000E-03 0.  1.
         11   -1    0    0    0    0 -0.00000000000E+00 -0.00000000000E+00 -0.45593999997E+02  0.45594000000E+02  0.51100000000E-03 0. -1.
    9900012    2    1    2    0    0 -0.28753348209E+00  0.56580279900E+00 -0.99508429334E+00  0.90007745340E+02  0.90000006779E+02 0.  0.
        -12    1    1    2    0    0  0.28753348209E+00 -0.56580279900E+00  0.99508429334E+00  0.11802546596E+01  0.00000000000E+00 0.  1.
         11    1    3    3    0    0 -0.77914298138E+01 -0.18406992351E+01  0.49192501361E+01  0.93964660581E+01  0.51100000000E-03 0. -1.
        -11    1    3    3    0    0 -0.20728861192E+02  0.32432950967E+02 -0.81154461797E+01  0.39337545191E+02  0.51100000000E-03 0.  1.
         12    1    3    3    0    0  0.28232757524E+02 -0.30026448933E+02  0.22011117503E+01  0.41273734091E+02  0.00000000000E+00 0. -1.
</event>
<event>
 7    1  0.1654239E-015  0.9000777E+02  0.7816164E-02  0.1186339E+00
        -11   -1    0    0    0    0  0.00000000000E+00  0.00000000000E+00  0.45593999997E+02  0.45594000000E+02  0.51100000000E-03 0. -1.
         11   -1    0    0    0    0 -0.00000000000E+00 -0.00000000000E+00 -0.45593999997E+02  0.45594000000E+02  0.51100000000E-03 0.  1.
    9900012    2    1    2    0    0  0.10108353820E+00  0.70675238021E+00  0.93980514647E+00  0.90007766751E+02  0.90000028472E+02 0.  0.
        -12    1    1    2    0    0 -0.10108353820E+00 -0.70675238021E+00 -0.93980514647E+00  0.11802332490E+01  0.00000000000E+00 0.  1.
         11    1    3    3    0    0  0.25691251808E+01 -0.10342826302E+02 -0.11590731207E+01  0.10719977186E+02  0.51100000000E-03 0. -1.
        -11    1    3    3    0    0  0.25421953576E+02 -0.21858365216E+02 -0.90627229494E+01  0.34730344097E+02  0.51100000000E-03 0.  1.
         12    1    3    3    0    0 -0.27889995218E+02  0.32907943899E+02  0.11161601217E+02  0.44557445468E+02  0.00000000000E+00 0. -1.
</event>
<event>
 7    1  0.1654239E-015  0.9000779E+02  0.7816164E-02  0.1186339E+00
        -11   -1    0    0    0    0  0.00000000000E+00  0.00000000000E+00  0.45593999997E+02  0.45594000000E+02  0.51100000000E-03 0. -1.
         11   -1    0    0    0    0 -0.00000000000E+00 -0.00000000000E+00 -0.45593999997E+02  0.45594000000E+02  0.51100000000E-03 0.  1.
    9900012    2    1    2    0    0 -0.60424308354E+00  0.91959487861E+00  0.42676879986E+00  0.90007789827E+02  0.90000051852E+02 0.  0.
        -12    1    1    2    0    0  0.60424308354E+00 -0.91959487861E+00 -0.42676879986E+00  0.11802101734E+01  0.00000000000E+00 0.  1.
         11    1    3    3    0    0 -0.61921033998E+01  0.12485843081E+02  0.85863770535E+01  0.16369614935E+02  0.51100000000E-03 0. -1.
        -11    1    3    3    0    0  0.45359100880E+01  0.17634528466E+02  0.24039741499E+02  0.30157258598E+02  0.51100000000E-03 0.  1.
         12    1    3    3    0    0  0.10519502282E+01 -0.29200776668E+02 -0.32199349752E+02  0.43480916294E+02  0.00000000000E+00 0. -1.
</event>
<event>
 7    1  0.1654239E-015  0.9000780E+02  0.7816164E-02  0.1186339E+00
        -11   -1    0    0    0    0  0.00000000000E+00  0.00000000000E+00  0.45593999997E+02  0.45594000000E+02  0.51100000000E-03 0. -1.
         11   -1    0    0    0    0 -0.00000000000E+00 -0.00000000000E+00 -0.45593999997E+02  0.45594000000E+02  0.51100000000E-03 0.  1.
    9900012    2    1    2    0    0  0.52699430912E+00  0.20426944534E-01  0.10558134558E+01  0.90007795647E+02  0.90000057749E+02 0.  0.
        -12    1    1    2    0    0 -0.52699430912E+00 -0.20426944534E-01 -0.10558134558E+01  0.11802043532E+01  0.00000000000E+00 0.  1.
         11    1    3    3    0    0  0.28285139223E+02  0.89501904344E+01  0.18366643465E+02  0.34892529316E+02  0.51100000000E-03 0. -1.
        -11    1    3    3    0    0  0.47086027585E+01  0.66691625429E+01  0.77329883339E+01  0.11244900079E+02  0.51100000000E-03 0.  1.
        -12    1    3    3    0    0 -0.32466747672E+02 -0.15598926033E+02 -0.25043818343E+02  0.43870366251E+02  0.00000000000E+00 0.  1.
</event>
<event>
 7    1  0.1813687E-015  0.9000717E+02  0.7816164E-02  0.1186340E+00
        -11   -1    0    0    0    0  0.00000000000E+00  0.00000000000E+00  0.45593999997E+02  0.45594000000E+02  0.51100000000E-03 0. -1.
         11   -1    0    0    0    0 -0.00000000000E+00 -0.00000000000E+00 -0.45593999997E+02  0.45594000000E+02  0.51100000000E-03 0.  1.
    9900012    2    1    2    0    0 -0.24608722317E-01  0.94591654052E+00  0.70640309771E+00  0.90007165961E+02  0.89999419750E+02 0.  0.
        -12    1    1    2    0    0  0.24608722317E-01 -0.94591654052E+00 -0.70640309771E+00  0.11808340388E+01  0.00000000000E+00 0.  1.
         11    1    3    3    0    0  0.64701717680E+01  0.45451501990E+01  0.52093632116E+01  0.94688425043E+01  0.51100000000E-03 0. -1.
        -11    1    3    3    0    0  0.24084734526E+02 -0.15680922663E+02 -0.28000987363E+02  0.40125067804E+02  0.51100000000E-03 0.  1.
         12    1    3    3    0    0 -0.30579515016E+02  0.12081689004E+02  0.23498027249E+02  0.40413255652E+02  0.00000000000E+00 0. -1.
</event>
<event>
 7    1  0.1654239E-015  0.9000769E+02  0.7816164E-02  0.1186339E+00
        -11   -1    0    0    0    0  0.00000000000E+00  0.00000000000E+00  0.45593999997E+02  0.45594000000E+02  0.51100000000E-03 0.  1.
         11   -1    0    0    0    0 -0.00000000000E+00 -0.00000000000E+00 -0.45593999997E+02  0.45594000000E+02  0.51100000000E-03 0. -1.
    9900012    2    1    2    0    0  0.11229441712E+01  0.17128493659E+00  0.32059977425E+00  0.90007692262E+02  0.89999953000E+02 0.  0.
        -12    1    1    2    0    0 -0.11229441712E+01 -0.17128493659E+00 -0.32059977425E+00  0.11803077380E+01  0.00000000000E+00 0.  1.
         11    1    3    3    0    0 -0.16172655833E+02  0.19908377444E+02 -0.20144113875E+02  0.32614162771E+02  0.51100000000E-03 0. -1.
        -11    1    3    3    0    0 -0.11466561444E+02  0.76768243739E+01  0.38532843624E+01  0.14327018687E+02  0.51100000000E-03 0.  1.
        -12    1    3    3    0    0  0.28762161448E+02 -0.27413916881E+02  0.16611429287E+02  0.43066510805E+02  0.00000000000E+00 0.  1.
</event>
<event>
 7    1  0.1654239E-015  0.9000773E+02  0.7816164E-02  0.1186339E+00
        -11   -1    0    0    0    0  0.00000000000E+00  0.00000000000E+00  0.45593999997E+02  0.45594000000E+02  0.51100000000E-03 0. -1.
         11   -1    0    0    0    0 -0.00000000000E+00 -0.00000000000E+00 -0.45593999997E+02  0.45594000000E+02  0.51100000000E-03 0.  1.
    9900012    2    1    2    0    0 -0.11360824801E+01 -0.80859575305E-01  0.30954460239E+00  0.90007729042E+02  0.89999990266E+02 0.  0.
        -12    1    1    2    0    0  0.11360824801E+01  0.80859575305E-01 -0.30954460239E+00  0.11802709576E+01  0.00000000000E+00 0.  1.
         11    1    3    3    0    0  0.44043286374E+01 -0.24151678157E+01 -0.85214551467E+01  0.98917311125E+01  0.51100000000E-03 0. -1.
        -11    1    3    3    0    0 -0.19537365304E+01 -0.38535406715E+02  0.50853405560E+01  0.38918573278E+02  0.51100000000E-03 0.  1.
         12    1    3    3    0    0 -0.35866745871E+01  0.40869714956E+02  0.37456591931E+01  0.41197424652E+02  0.00000000000E+00 0. -1.
</event>
<event>
 7    1  0.1654239E-015  0.9000778E+02  0.7816164E-02  0.1186339E+00
        -11   -1    0    0    0    0  0.00000000000E+00  0.00000000000E+00  0.45593999997E+02  0.45594000000E+02  0.51100000000E-03 0.  1.
         11   -1    0    0    0    0 -0.00000000000E+00 -0.00000000000E+00 -0.45593999997E+02  0.45594000000E+02  0.51100000000E-03 0. -1.
    9900012    2    1    2    0    0 -0.66769151073E+00  0.55060699672E+00 -0.80246534411E+00  0.90007775171E+02  0.90000037003E+02 0.  0.
        -12    1    1    2    0    0  0.66769151073E+00 -0.55060699672E+00  0.80246534411E+00  0.11802248289E+01  0.00000000000E+00 0.  1.
         11    1    3    3    0    0 -0.32989343761E+02 -0.12741913315E+02 -0.22000825805E+02  0.41649603756E+02  0.51100000000E-03 0. -1.
        -11    1    3    3    0    0  0.69321955662E+00  0.60833474857E+01  0.13783079559E+02  0.15081808657E+02  0.51100000000E-03 0.  1.
        -12    1    3    3    0    0  0.31628432694E+02  0.72091728257E+01  0.74152809017E+01  0.33276362757E+02  0.00000000000E+00 0.  1.
</event>
<event>
 7    1  0.1654239E-015  0.9000771E+02  0.7816164E-02  0.1186339E+00
        -11   -1    0    0    0    0  0.00000000000E+00  0.00000000000E+00  0.45593999997E+02  0.45594000000E+02  0.51100000000E-03 0. -1.
         11   -1    0    0    0    0 -0.00000000000E+00 -0.00000000000E+00 -0.45593999997E+02  0.45594000000E+02  0.51100000000E-03 0.  1.
    9900012    2    1    2    0    0 -0.43221032945E+00  0.29851452750E+00  0.10569667380E+01  0.90007705385E+02  0.89999966296E+02 0.  0.
        -12    1    1    2    0    0  0.43221032945E+00 -0.29851452750E+00 -0.10569667380E+01  0.11802946146E+01  0.00000000000E+00 0.  1.
         11    1    3    3    0    0  0.21827539770E+02 -0.22676278082E+01  0.23301025362E+02  0.32008146017E+02  0.51100000000E-03 0. -1.
        -11    1    3    3    0    0  0.54825695500E+01  0.97626792307E+01  0.98913839469E+01  0.14940145624E+02  0.51100000000E-03 0.  1.
        -12    1    3    3    0    0 -0.27742319649E+02 -0.71965368950E+01 -0.32135442571E+02  0.43059413744E+02  0.00000000000E+00 0.  1.
</event>
<event>
 7    1  0.1654239E-015  0.9000783E+02  0.7816164E-02  0.1186339E+00
        -11   -1    0    0    0    0  0.00000000000E+00  0.00000000000E+00  0.45593999997E+02  0.45594000000E+02  0.51100000000E-03 0. -1.
         11   -1    0    0    0    0 -0.00000000000E+00 -0.00000000000E+00 -0.45593999997E+02  0.45594000000E+02  0.51100000000E-03 0.  1.
    9900012    2    1    2    0    0  0.83318360277E+00 -0.71319691897E+00  0.43583337803E+00  0.90007832429E+02  0.90000095017E+02 0.  0.
        -12    1    1    2    0    0 -0.83318360277E+00  0.71319691897E+00 -0.43583337803E+00  0.11801675705E+01  0.00000000000E+00 0.  1.
         11    1    3    3    0    0 -0.21624609448E+02 -0.78893543875E+01 -0.41856892870E+01  0.23396274094E+02  0.51100000000E-03 0. -1.
        -11    1    3    3    0    0 -0.14482723572E+02  0.13618224802E+01 -0.17816812557E+02  0.23000927209E+02  0.51100000000E-03 0.  1.
         12    1    3    3    0    0  0.36940516622E+02  0.58143349884E+01  0.22438335222E+02  0.43610631126E+02  0.00000000000E+00 0. -1.
</event>
<event>
 7    1  0.1827452E-015  0.9000779E+02  0.7816164E-02  0.1186339E+00
        -11   -1    0    0    0    0  0.00000000000E+00  0.00000000000E+00  0.45593999997E+02  0.45594000000E+02  0.51100000000E-03 0. -1.
         11   -1    0    0    0    0 -0.00000000000E+00 -0.00000000000E+00 -0.45593999997E+02  0.45594000000E+02  0.51100000000E-03 0.  1.
    9900012    2    1    2    0    0 -0.27589901547E-01 -0.59968908425E+00  0.10161215902E+01  0.90007791846E+02  0.90000053898E+02 0.  0.
        -12    1    1    2    0    0  0.27589901547E-01  0.59968908425E+00 -0.10161215902E+01  0.11802081539E+01  0.00000000000E+00 0.  1.
         11    1    3    3    0    0 -0.15770043336E+01 -0.85163252338E+01 -0.19768607815E+01  0.88838458433E+01  0.51100000000E-03 0. -1.
        -11    1    3    3    0    0  0.68465244644E+01  0.18444076016E+02 -0.35653028951E+02  0.40720968935E+02  0.51100000000E-03 0.  1.
         12    1    3    3    0    0 -0.52971100324E+01 -0.10527439867E+02  0.38646011322E+02  0.40402977068E+02  0.00000000000E+00 0. -1.
</event>
<event>
 7    1  0.1654239E-015  0.9000785E+02  0.7816164E-02  0.1186339E+00
        -11   -1    0    0    0    0  0.00000000000E+00  0.00000000000E+00  0.45593999997E+02  0.45594000000E+02  0.51100000000E-03 0.  1.
         11   -1    0    0    0    0 -0.00000000000E+00 -0.00000000000E+00 -0.45593999997E+02  0.45594000000E+02  0.51100000000E-03 0. -1.
    9900012    2    1    2    0    0  0.80384075418E+00  0.35350334425E-01 -0.86333238084E+00  0.90007850686E+02  0.90000113515E+02 0.  0.
        -12    1    1    2    0    0 -0.80384075418E+00 -0.35350334425E-01  0.86333238084E+00  0.11801493143E+01  0.00000000000E+00 0.  1.
         11    1    3    3    0    0  0.47193499780E+01  0.71999115663E+01  0.21376907244E+00  0.86114277709E+01  0.51100000000E-03 0. -1.
        -11    1    3    3    0    0 -0.98728742979E+01  0.14570366248E+02  0.34817637971E+02  0.39013294319E+02  0.51100000000E-03 0.  1.
         12    1    3    3    0    0  0.59573650741E+01 -0.21734927480E+02 -0.35894739424E+02  0.42383128595E+02  0.00000000000E+00 0. -1.
</event>
<event>
 7    1  0.1654239E-015  0.9000781E+02  0.7816164E-02  0.1186339E+00
        -11   -1    0    0    0    0  0.00000000000E+00  0.00000000000E+00  0.45593999997E+02  0.45594000000E+02  0.51100000000E-03 0.  1.
         11   -1    0    0    0    0 -0.00000000000E+00 -0.00000000000E+00 -0.45593999997E+02  0.45594000000E+02  0.51100000000E-03 0. -1.
    9900012    2    1    2    0    0 -0.83605567457E+00 -0.80112268064E+00  0.22818608604E+00  0.90007806994E+02  0.90000069247E+02 0.  0.
        -12    1    1    2    0    0  0.83605567457E+00  0.80112268064E+00 -0.22818608604E+00  0.11801930055E+01  0.00000000000E+00 0.  1.
         11    1    3    3    0    0 -0.33641272942E+01  0.87028120787E+01 -0.54034652703E+01  0.10782102194E+02  0.51100000000E-03 0. -1.
        -11    1    3    3    0    0 -0.31947409175E+02 -0.25589780437E+02  0.43149462246E+01  0.41159355887E+02  0.51100000000E-03 0.  1.
         12    1    3    3    0    0  0.34475480795E+02  0.16085845678E+02  0.13167051317E+01  0.38066348914E+02  0.00000000000E+00 0. -1.
</event>
<event>
 7    1  0.1654239E-015  0.9000772E+02  0.7816164E-02  0.1186339E+00
        -11   -1    0    0    0    0  0.00000000000E+00  0.00000000000E+00  0.45593999997E+02  0.45594000000E+02  0.51100000000E-03 0.  1.
         11   -1    0    0    0    0 -0.00000000000E+00 -0.00000000000E+00 -0.45593999997E+02  0.45594000000E+02  0.51100000000E-03 0. -1.
    9900012    2    1    2    0    0  0.80410613766E+00  0.81943954899E+00 -0.27385003122E+00  0.90007719654E+02  0.89999980754E+02 0.  0.
        -12    1    1    2    0    0 -0.80410613766E+00 -0.81943954899E+00  0.27385003122E+00  0.11802803458E+01  0.00000000000E+00 0.  1.
         11    1    3    3    0    0 -0.73014848330E+01  0.21349964157E+01 -0.61876538623E+01  0.98059650745E+01  0.51100000000E-03 0. -1.
        -11    1    3    3    0    0 -0.33917527424E+02 -0.12522743518E+02  0.63436032582E+01  0.36707752237E+02  0.51100000000E-03 0.  1.
         12    1    3    3    0    0  0.42023118394E+02  0.11207186652E+02 -0.42979942711E+00  0.43494002342E+02  0.00000000000E+00 0. -1.
</event>
<event>
 7    1  0.1654239E-015  0.9000784E+02  0.7816164E-02  0.1186339E+00
        -11   -1    0    0    0    0  0.00000000000E+00  0.00000000000E+00  0.45593999997E+02  0.45594000000E+02  0.51100000000E-03 0. -1.
         11   -1    0    0    0    0 -0.00000000000E+00 -0.00000000000E+00 -0.45593999997E+02  0.45594000000E+02  0.51100000000E-03 0.  1.
    9900012    2    1    2    0    0 -0.27006794599E+00 -0.11486230460E+01 -0.22721709868E-01  0.90007835658E+02  0.90000098289E+02 0.  0.
        -12    1    1    2    0    0  0.27006794599E+00  0.11486230460E+01  0.22721709868E-01  0.11801643416E+01  0.00000000000E+00 0.  1.
         11    1    3    3    0    0  0.27224550837E+02 -0.10687760329E+02  0.21503447783E+02  0.36301551702E+02  0.51100000000E-03 0. -1.
        -11    1    3    3    0    0  0.82268653018E+01  0.94360517731E+01 -0.11246140198E+01  0.12569214085E+02  0.51100000000E-03 0.  1.
        -12    1    3    3    0    0 -0.35721484085E+02  0.10308551045E+00 -0.20401555473E+02  0.41137069871E+02  0.00000000000E+00 0.  1.
</event>
<event>
 7    1  0.1654239E-015  0.9000776E+02  0.7816164E-02  0.1186339E+00
        -11   -1    0    0    0    0  0.00000000000E+00  0.00000000000E+00  0.45593999997E+02  0.45594000000E+02  0.51100000000E-03 0. -1.
         11   -1    0    0    0    0 -0.00000000000E+00 -0.00000000000E+00 -0.45593999997E+02  0.45594000000E+02  0.51100000000E-03 0.  1.
    9900012    2    1    2    0    0  0.24693286601E+00  0.67547378698E+00  0.93579803898E+00  0.90007763309E+02  0.90000024985E+02 0.  0.
        -12    1    1    2    0    0 -0.24693286601E+00 -0.67547378698E+00 -0.93579803898E+00  0.11802366911E+01  0.00000000000E+00 0.  1.
         11    1    3    3    0    0  0.58108549141E+00  0.47804025788E+01  0.83253826551E+01  0.96177911070E+01  0.51100000000E-03 0. -1.
        -11    1    3    3    0    0 -0.18426678303E+02  0.24080702081E+02  0.20669659595E+02  0.36696832480E+02  0.51100000000E-03 0.  1.
         12    1    3    3    0    0  0.18092525677E+02 -0.28185630873E+02 -0.28059244211E+02  0.43693139722E+02  0.00000000000E+00 0. -1.
</event>
<event>
 7    1  0.1654239E-015  0.9000777E+02  0.7816164E-02  0.1186339E+00
        -11   -1    0    0    0    0  0.00000000000E+00  0.00000000000E+00  0.45593999997E+02  0.45594000000E+02  0.51100000000E-03 0. -1.
         11   -1    0    0    0    0 -0.00000000000E+00 -0.00000000000E+00 -0.45593999997E+02  0.45594000000E+02  0.51100000000E-03 0.  1.
    9900012    2    1    2    0    0 -0.42902271825E+00  0.99058735112E+00  0.47708421551E+00  0.90007774114E+02  0.90000035932E+02 0.  0.
        -12    1    1    2    0    0  0.42902271825E+00 -0.99058735112E+00 -0.47708421551E+00  0.11802258859E+01  0.00000000000E+00 0.  1.
         11    1    3    3    0    0 -0.90754084737E+01  0.45051749423E+01  0.15687198416E+01  0.10252829972E+02  0.51100000000E-03 0. -1.
        -11    1    3    3    0    0 -0.25597663402E+02 -0.25366221876E+02  0.10455949295E+02  0.37523492106E+02  0.51100000000E-03 0.  1.
         12    1    3    3    0    0  0.34244049158E+02  0.21851634285E+02 -0.11547584921E+02  0.42231452037E+02  0.00000000000E+00 0. -1.
</event>
<event>
 7    1  0.1654239E-015  0.9000730E+02  0.7816164E-02  0.1186340E+00
        -11   -1    0    0    0    0  0.00000000000E+00  0.00000000000E+00  0.45593999997E+02  0.45594000000E+02  0.51100000000E-03 0.  1.
         11   -1    0    0    0    0 -0.00000000000E+00 -0.00000000000E+00 -0.45593999997E+02  0.45594000000E+02  0.51100000000E-03 0. -1.
    9900012    2    1    2    0    0 -0.14724417004E+00 -0.41146833655E+00 -0.10968430037E+01  0.90007300372E+02  0.89999555936E+02 0.  0.
        -12    1    1    2    0    0  0.14724417004E+00  0.41146833655E+00  0.10968430037E+01  0.11806996283E+01  0.00000000000E+00 0.  1.
         11    1    3    3    0    0  0.34182791417E+02  0.13791122264E+02 -0.37578260156E+01  0.37051039648E+02  0.51100000000E-03 0. -1.
        -11    1    3    3    0    0  0.78108327366E+01 -0.18784325393E+01 -0.32265566513E+01  0.86572677520E+01  0.51100000000E-03 0.  1.
        -12    1    3    3    0    0 -0.42140868324E+02 -0.12324158061E+02  0.58875396632E+01  0.44298992972E+02  0.00000000000E+00 0.  1.
</event>
<event>
 7    1  0.1894295E-015  0.9000773E+02  0.7816164E-02  0.1186339E+00
        -11   -1    0    0    0    0  0.00000000000E+00  0.00000000000E+00  0.45593999997E+02  0.45594000000E+02  0.51100000000E-03 0.  1.
         11   -1    0    0    0    0 -0.00000000000E+00 -0.00000000000E+00 -0.45593999997E+02  0.45594000000E+02  0.51100000000E-03 0. -1.
    9900012    2    1    2    0    0 -0.31360506152E+00  0.10913539468E+01 -0.32194274383E+00  0.90007725158E+02  0.89999986330E+02 0.  0.
        -12    1    1    2    0    0  0.31360506152E+00 -0.10913539468E+01  0.32194274383E+00  0.11802748418E+01  0.00000000000E+00 0.  1.
         11    1    3    3    0    0  0.13215533530E+01  0.44435946707E+01 -0.83683598184E+01  0.95666861124E+01  0.51100000000E-03 0. -1.
        -11    1    3    3    0    0  0.26213155693E+02  0.12629419794E+02 -0.21991467295E+02  0.36472680321E+02  0.51100000000E-03 0.  1.
         12    1    3    3    0    0 -0.27848314107E+02 -0.15981660518E+02  0.30037884370E+02  0.43968358725E+02  0.00000000000E+00 0. -1.
</event>
<event>
 7    1  0.1654239E-015  0.9000773E+02  0.7816164E-02  0.1186339E+00
        -11   -1    0    0    0    0  0.00000000000E+00  0.00000000000E+00  0.45593999997E+02  0.45594000000E+02  0.51100000000E-03 0.  1.
         11   -1    0    0    0    0 -0.00000000000E+00 -0.00000000000E+00 -0.45593999997E+02  0.45594000000E+02  0.51100000000E-03 0. -1.
    9900012    2    1    2    0    0 -0.74796539149E+00 -0.91111585149E+00  0.58827921546E-01  0.90007726707E+02  0.89999987900E+02 0.  0.
        -12    1    1    2    0    0  0.74796539149E+00  0.91111585149E+00 -0.58827921546E-01  0.11802732930E+01  0.00000000000E+00 0.  1.
         11    1    3    3    0    0 -0.25566194940E+02  0.17800191267E+02 -0.32362358249E+01  0.31320127002E+02  0.51100000000E-03 0. -1.
        -11    1    3    3    0    0 -0.93388437328E+01  0.92916190938E+01 -0.43268549277E+01  0.13866140829E+02  0.51100000000E-03 0.  1.
        -12    1    3    3    0    0  0.34157073281E+02 -0.28002926212E+02  0.76219186741E+01  0.44821458877E+02  0.00000000000E+00 0.  1.
</event>
<event>
 7    1  0.1654239E-015  0.9000778E+02  0.7816164E-02  0.1186339E+00
        -11   -1    0    0    0    0  0.00000000000E+00  0.00000000000E+00  0.45593999997E+02  0.45594000000E+02  0.51100000000E-03 0.  1.
         11   -1    0    0    0    0 -0.00000000000E+00 -0.00000000000E+00 -0.45593999997E+02  0.45594000000E+02  0.51100000000E-03 0. -1.
    9900012    2    1    2    0    0 -0.34933191245E+00 -0.24859556900E+00  0.10995895659E+01  0.90007775549E+02  0.90000037386E+02 0.  0.
        -12    1    1    2    0    0  0.34933191245E+00  0.24859556900E+00 -0.10995895659E+01  0.11802244513E+01  0.00000000000E+00 0.  1.
         11    1    3    3    0    0 -0.41126345733E+01 -0.84899408923E+01  0.22316328008E+01  0.96939695021E+01  0.51100000000E-03 0. -1.
        -11    1    3    3    0    0  0.26806933384E+02 -0.26623392752E+02  0.48678029691E+01  0.38093466961E+02  0.51100000000E-03 0.  1.
         12    1    3    3    0    0 -0.23043630723E+02  0.34864738076E+02 -0.59998462040E+01  0.42220339085E+02  0.00000000000E+00 0. -1.
</event>
<event>
 7    1  0.1654239E-015  0.9000769E+02  0.7816164E-02  0.1186339E+00
        -11   -1    0    0    0    0  0.00000000000E+00  0.00000000000E+00  0.45593999997E+02  0.45594000000E+02  0.51100000000E-03 0. -1.
         11   -1    0    0    0    0 -0.00000000000E+00 -0.00000000000E+00 -0.45593999997E+02  0.45594000000E+02  0.51100000000E-03 0.  1.
    9900012    2    1    2    0    0  0.10050028573E+01  0.61894307240E+00  0.42398591092E-02  0.90007686801E+02  0.89999947467E+02 0.  0.
        -12    1    1    2    0    0 -0.10050028573E+01 -0.61894307240E+00 -0.42398591092E-02  0.11803131985E+01  0.00000000000E+00 0.  1.
         11    1    3    3    0    0 -0.17890778781E+02  0.24649596643E+02  0.24893211042E+02  0.39336427600E+02  0.51100000000E-03 0. -1.
        -11    1    3    3    0    0 -0.65582698001E+01 -0.60275485055E+01  0.24141264254E+01  0.92287729638E+01  0.51100000000E-03 0.  1.
        -12    1    3    3    0    0  0.25454051438E+02 -0.18003105066E+02 -0.27303097608E+02  0.41442486238E+02  0.00000000000E+00 0.  1.
</event>
<event>
 7    1  0.1654239E-015  0.9000774E+02  0.7816164E-02  0.1186339E+00
        -11   -1    0    0    0    0  0.00000000000E+00  0.00000000000E+00  0.45593999997E+02  0.45594000000E+02  0.51100000000E-03 0.  1.
         11   -1    0    0    0    0 -0.00000000000E+00 -0.00000000000E+00 -0.45593999997E+02  0.45594000000E+02  0.51100000000E-03 0. -1.
    9900012    2    1    2    0    0 -0.22848697253E+00  0.47854460918E+00 -0.10544175922E+01  0.90007742529E+02  0.90000003930E+02 0.  0.
        -12    1    1    2    0    0  0.22848697253E+00 -0.47854460918E+00  0.10544175922E+01  0.11802574712E+01  0.00000000000E+00 0.  1.
         11    1    3    3    0    0  0.59774482763E+01  0.87168021673E+01  0.37770193566E+02  0.39221168394E+02  0.51100000000E-03 0. -1.
        -11    1    3    3    0    0 -0.57302139695E+01  0.35123417185E+01  0.29853134100E+01  0.73541820008E+01  0.51100000000E-03 0.  1.
        -12    1    3    3    0    0 -0.47572127934E+00 -0.11750599277E+02 -0.41809924568E+02  0.43432392134E+02  0.00000000000E+00 0.  1.
</event>
<event>
 7    1  0.1654239E-015  0.9000770E+02  0.7816164E-02  0.1186339E+00
        -11   -1    0    0    0    0  0.00000000000E+00  0.00000000000E+00  0.45593999997E+02  0.45594000000E+02  0.51100000000E-03 0.  1.
         11   -1    0    0    0    0 -0.00000000000E+00 -0.00000000000E+00 -0.45593999997E+02  0.45594000000E+02  0.51100000000E-03 0. -1.
    9900012    2    1    2    0    0 -0.94922944422E+00  0.67939633074E+00 -0.17460415721E+00  0.90007702358E+02  0.89999963229E+02 0.  0.
        -12    1    1    2    0    0  0.94922944422E+00 -0.67939633074E+00  0.17460415721E+00  0.11802976420E+01  0.00000000000E+00 0.  1.
         11    1    3    3    0    0  0.22055363683E+02 -0.13882184648E+02 -0.22033414144E+02  0.34126609220E+02  0.51100000000E-03 0. -1.
        -11    1    3    3    0    0  0.89187273906E+00  0.83493671395E+00 -0.12091856774E+02  0.12153417495E+02  0.51100000000E-03 0.  1.
        -12    1    3    3    0    0 -0.23896465866E+02  0.13726644265E+02  0.33950666760E+02  0.43727675643E+02  0.00000000000E+00 0.  1.
</event>
<event>
 7    1  0.1654239E-015  0.9000773E+02  0.7816164E-02  0.1186339E+00
        -11   -1    0    0    0    0  0.00000000000E+00  0.00000000000E+00  0.45593999997E+02  0.45594000000E+02  0.51100000000E-03 0.  1.
         11   -1    0    0    0    0 -0.00000000000E+00 -0.00000000000E+00 -0.45593999997E+02  0.45594000000E+02  0.51100000000E-03 0. -1.
    9900012    2    1    2    0    0  0.10407477065E+01  0.55462375431E-01 -0.55390741140E+00  0.90007726606E+02  0.89999987797E+02 0.  0.
        -12    1    1    2    0    0 -0.10407477065E+01 -0.55462375431E-01  0.55390741140E+00  0.11802733938E+01  0.00000000000E+00 0.  1.
         11    1    3    3    0    0 -0.29307476322E+02 -0.20412157026E+02 -0.37925307658E+01  0.35916119121E+02  0.51100000000E-03 0. -1.
        -11    1    3    3    0    0 -0.40172633778E+01 -0.66926749103E+01 -0.53390367483E+01  0.94570405605E+01  0.51100000000E-03 0.  1.
        -12    1    3    3    0    0  0.34365487407E+02  0.27160294311E+02  0.85776601026E+01  0.44634566925E+02  0.00000000000E+00 0.  1.
</event>
<event>
 7    1  0.1654239E-015  0.9000816E+02  0.7816164E-02  0.1186338E+00
        -11   -1    0    0    0    0  0.00000000000E+00  0.00000000000E+00  0.45593999997E+02  0.45594000000E+02  0.51100000000E-03 0.  1.
         11   -1    0    0    0    0 -0.00000000000E+00 -0.00000000000E+00 -0.45593999997E+02  0.45594000000E+02  0.51100000000E-03 0. -1.
    9900012    2    1    2    0    0  0.32319182440E-01  0.23615730788E+00 -0.11555071098E+01  0.90008164637E+02  0.90000431609E+02 0.  0.
        -12    1    1    2    0    0 -0.32319182440E-01 -0.23615730788E+00  0.11555071098E+01  0.11798353632E+01  0.00000000000E+00 0.  1.
         11    1    3    3    0    0 -0.11806082347E+02 -0.52210177907E+01  0.10670488277E+02  0.16748191768E+02  0.51100000000E-03 0. -1.
        -11    1    3    3    0    0 -0.67005622282E+01  0.17199738106E+02  0.24587311895E+02  0.30745152977E+02  0.51100000000E-03 0.  1.
         12    1    3    3    0    0  0.18538963758E+02 -0.11742563008E+02 -0.36413307282E+02  0.42514819892E+02  0.00000000000E+00 0. -1.
</event>
<event>
 7    1  0.1693653E-015  0.9000772E+02  0.7816164E-02  0.1186339E+00
        -11   -1    0    0    0    0  0.00000000000E+00  0.00000000000E+00  0.45593999997E+02  0.45594000000E+02  0.51100000000E-03 0.  1.
         11   -1    0    0    0    0 -0.00000000000E+00 -0.00000000000E+00 -0.45593999997E+02  0.45594000000E+02  0.51100000000E-03 0. -1.
    9900012    2    1    2    0    0 -0.18359611364E+00 -0.11343908802E+01  0.26926077507E+00  0.90007723945E+02  0.89999985101E+02 0.  0.
        -12    1    1    2    0    0  0.18359611364E+00  0.11343908802E+01 -0.26926077507E+00  0.11802760555E+01  0.00000000000E+00 0.  1.
         11    1    3    3    0    0 -0.80918720325E+01  0.11564176534E+01  0.59665750270E+01  0.10120064851E+02  0.51100000000E-03 0. -1.
        -11    1    3    3    0    0 -0.22080359359E+02  0.26977977726E+02  0.80622735272E+01  0.35782031892E+02  0.51100000000E-03 0.  1.
         12    1    3    3    0    0  0.29988635278E+02 -0.29268786260E+02 -0.13759587779E+02  0.44105627201E+02  0.00000000000E+00 0. -1.
</event>
<event>
 7    1  0.1654239E-015  0.9000772E+02  0.7816164E-02  0.1186339E+00
        -11   -1    0    0    0    0  0.00000000000E+00  0.00000000000E+00  0.45593999997E+02  0.45594000000E+02  0.51100000000E-03 0.  1.
         11   -1    0    0    0    0 -0.00000000000E+00 -0.00000000000E+00 -0.45593999997E+02  0.45594000000E+02  0.51100000000E-03 0. -1.
    9900012    2    1    2    0    0  0.69817019203E+00 -0.89188957282E+00 -0.33188432080E+00  0.90007722139E+02  0.89999983271E+02 0.  0.
        -12    1    1    2    0    0 -0.69817019203E+00  0.89188957282E+00  0.33188432080E+00  0.11802778612E+01  0.00000000000E+00 0.  1.
         11    1    3    3    0    0 -0.10005509840E+02 -0.18210879093E+02 -0.33104439964E+02  0.39085167137E+02  0.51100000000E-03 0. -1.
        -11    1    3    3    0    0  0.58197590871E+01  0.10473008918E+02 -0.44354717081E+01  0.12776029162E+02  0.51100000000E-03 0.  1.
        -12    1    3    3    0    0  0.48839209451E+01  0.68459806026E+01  0.37208027352E+02  0.38146525839E+02  0.00000000000E+00 0.  1.
</event>
<event>
 7    1  0.1654239E-015  0.9000817E+02  0.7816164E-02  0.1186338E+00
        -11   -1    0    0    0    0  0.00000000000E+00  0.00000000000E+00  0.45593999997E+02  0.45594000000E+02  0.51100000000E-03 0. -1.
         11   -1    0    0    0    0 -0.00000000000E+00 -0.00000000000E+00 -0.45593999997E+02  0.45594000000E+02  0.51100000000E-03 0.  1.
    9900012    2    1    2    0    0 -0.67318038733E+00 -0.86876784848E+00  0.42903690071E+00  0.90008168626E+02  0.90000435651E+02 0.  0.
        -12    1    1    2    0    0  0.67318038733E+00  0.86876784848E+00 -0.42903690071E+00  0.11798313738E+01  0.00000000000E+00 0.  1.
         11    1    3    3    0    0  0.12492941940E+02  0.24371953733E+02  0.15138536654E+02  0.31292826964E+02  0.51100000000E-03 0. -1.
        -11    1    3    3    0    0  0.12881054861E+02 -0.24826120874E+02  0.15419066398E+01  0.28011342851E+02  0.51100000000E-03 0.  1.
        -12    1    3    3    0    0 -0.26047177188E+02 -0.41460070761E+00 -0.16251406394E+02  0.30703998811E+02  0.00000000000E+00 0.  1.
</event>
<event>
 7    1  0.1654239E-015  0.9000782E+02  0.7816164E-02  0.1186339E+00
        -11   -1    0    0    0    0  0.00000000000E+00  0.00000000000E+00  0.45593999997E+02  0.45594000000E+02  0.51100000000E-03 0. -1.
         11   -1    0    0    0    0 -0.00000000000E+00 -0.00000000000E+00 -0.45593999997E+02  0.45594000000E+02  0.51100000000E-03 0.  1.
    9900012    2    1    2    0    0 -0.11586574258E+01  0.91192927792E-01  0.20501269500E+00  0.90007816376E+02  0.90000078752E+02 0.  0.
        -12    1    1    2    0    0  0.11586574258E+01 -0.91192927792E-01 -0.20501269500E+00  0.11801836237E+01  0.00000000000E+00 0.  1.
         11    1    3    3    0    0 -0.25809363237E+02 -0.33280117707E+02  0.42615626076E+01  0.42330253737E+02  0.51100000000E-03 0. -1.
        -11    1    3    3    0    0  0.14445779414E+01  0.28944405122E+01 -0.85188193093E+01  0.91123473372E+01  0.51100000000E-03 0.  1.
        -12    1    3    3    0    0  0.23206127870E+02  0.30476870123E+02  0.44622693967E+01  0.38565215303E+02  0.00000000000E+00 0.  1.
</event>
<event>
 7    1  0.1654239E-015  0.9000772E+02  0.7816164E-02  0.1186339E+00
        -11   -1    0    0    0    0  0.00000000000E+00  0.00000000000E+00  0.45593999997E+02  0.45594000000E+02  0.51100000000E-03 0.  1.
         11   -1    0    0    0    0 -0.00000000000E+00 -0.00000000000E+00 -0.45593999997E+02  0.45594000000E+02  0.51100000000E-03 0. -1.
    9900012    2    1    2    0    0  0.89597692777E+00  0.31663270376E+00 -0.70002166211E+00  0.90007719842E+02  0.89999980944E+02 0.  0.
        -12    1    1    2    0    0 -0.89597692777E+00 -0.31663270376E+00  0.70002166211E+00  0.11802801581E+01  0.00000000000E+00 0.  1.
         11    1    3    3    0    0  0.11591984740E+01  0.23967834053E+01  0.95842475153E+01  0.99471660532E+01  0.51100000000E-03 0. -1.
        -11    1    3    3    0    0  0.22150852671E+02  0.31811744217E+02 -0.49454288062E+01  0.39078185865E+02  0.51100000000E-03 0.  1.
         12    1    3    3    0    0 -0.22414074217E+02 -0.33891894918E+02 -0.53388403712E+01  0.40982367924E+02  0.00000000000E+00 0. -1.
</event>
<event>
 7    1  0.1654239E-015  0.9000771E+02  0.7816164E-02  0.1186339E+00
        -11   -1    0    0    0    0  0.00000000000E+00  0.00000000000E+00  0.45593999997E+02  0.45594000000E+02  0.51100000000E-03 0. -1.
         11   -1    0    0    0    0 -0.00000000000E+00 -0.00000000000E+00 -0.45593999997E+02  0.45594000000E+02  0.51100000000E-03 0.  1.
    9900012    2    1    2    0    0 -0.11357872374E+01 -0.10933420460E+00 -0.30185986212E+00  0.90007709361E+02  0.89999970324E+02 0.  0.
        -12    1    1    2    0    0  0.11357872374E+01  0.10933420460E+00  0.30185986212E+00  0.11802906393E+01  0.00000000000E+00 0.  1.
         11    1    3    3    0    0 -0.22338903203E+02 -0.24961704062E+02  0.23211040437E+02  0.40753719639E+02  0.51100000000E-03 0. -1.
        -11    1    3    3    0    0 -0.45453661050E+01 -0.83396200216E+00 -0.89580738087E+01  0.10079827988E+02  0.51100000000E-03 0.  1.
        -12    1    3    3    0    0  0.25748482070E+02  0.25686331859E+02 -0.14554826491E+02  0.39174161733E+02  0.00000000000E+00 0.  1.
</event>
<event>
 7    1  0.1654239E-015  0.9000784E+02  0.7816164E-02  0.1186339E+00
        -11   -1    0    0    0    0  0.00000000000E+00  0.00000000000E+00  0.45593999997E+02  0.45594000000E+02  0.51100000000E-03 0.  1.
         11   -1    0    0    0    0 -0.00000000000E+00 -0.00000000000E+00 -0.45593999997E+02  0.45594000000E+02  0.51100000000E-03 0. -1.
    9900012    2    1    2    0    0  0.11043062306E+01 -0.48835119817E-01  0.41340926073E+00  0.90007837157E+02  0.90000099807E+02 0.  0.
        -12    1    1    2    0    0 -0.11043062306E+01  0.48835119817E-01 -0.41340926073E+00  0.11801628433E+01  0.00000000000E+00 0.  1.
         11    1    3    3    0    0  0.21951085304E+02  0.15930753493E+02  0.27533598161E+02  0.38648907886E+02  0.51100000000E-03 0. -1.
        -11    1    3    3    0    0 -0.12747765558E+02  0.42115100877E+00  0.55553554935E+01  0.13912040462E+02  0.51100000000E-03 0.  1.
        -12    1    3    3    0    0 -0.80990135154E+01 -0.16400739621E+02 -0.32675544394E+02  0.37446888809E+02  0.00000000000E+00 0.  1.
</event>
<event>
 7    1  0.1654239E-015  0.9000769E+02  0.7816164E-02  0.1186339E+00
        -11   -1    0    0    0    0  0.00000000000E+00  0.00000000000E+00  0.45593999997E+02  0.45594000000E+02  0.51100000000E-03 0.  1.
         11   -1    0    0    0    0 -0.00000000000E+00 -0.00000000000E+00 -0.45593999997E+02  0.45594000000E+02  0.51100000000E-03 0. -1.
    9900012    2    1    2    0    0 -0.78994949328E+00  0.23993270256E+00 -0.84353027779E+00  0.90007690196E+02  0.89999950907E+02 0.  0.
        -12    1    1    2    0    0  0.78994949328E+00 -0.23993270256E+00  0.84353027779E+00  0.11803098039E+01  0.00000000000E+00 0.  1.
         11    1    3    3    0    0 -0.24286652872E+01 -0.37434189252E+01  0.18990180007E+02  0.19507396989E+02  0.51100000000E-03 0. -1.
        -11    1    3    3    0    0 -0.67523592846E+01  0.23174110304E+02  0.16024780148E+02  0.28972872197E+02  0.51100000000E-03 0.  1.
         12    1    3    3    0    0  0.83910750785E+01 -0.19190758676E+02 -0.35858490434E+02  0.41527421010E+02  0.00000000000E+00 0. -1.
</event>
<event>
 7    1  0.1654239E-015  0.9000781E+02  0.7816164E-02  0.1186339E+00
        -11   -1    0    0    0    0  0.00000000000E+00  0.00000000000E+00  0.45593999997E+02  0.45594000000E+02  0.51100000000E-03 0.  1.
         11   -1    0    0    0    0 -0.00000000000E+00 -0.00000000000E+00 -0.45593999997E+02  0.45594000000E+02  0.51100000000E-03 0. -1.
    9900012    2    1    2    0    0 -0.48314124097E+00 -0.10455617041E+01 -0.25734930337E+00  0.90007807897E+02  0.90000070161E+02 0.  0.
        -12    1    1    2    0    0  0.48314124097E+00  0.10455617041E+01  0.25734930337E+00  0.11801921029E+01  0.00000000000E+00 0.  1.
         11    1    3    3    0    0 -0.13630480750E+02  0.24045157638E+02  0.17106494919E+02  0.32505257728E+02  0.51100000000E-03 0. -1.
        -11    1    3    3    0    0 -0.89278827201E+01  0.90746364341E+01  0.12069479949E+01  0.12787213926E+02  0.51100000000E-03 0.  1.
        -12    1    3    3    0    0  0.22075222229E+02 -0.34165355776E+02 -0.18570792217E+02  0.44715336243E+02  0.00000000000E+00 0.  1.
</event>
<event>
 7    1  0.1654239E-015  0.9000772E+02  0.7816164E-02  0.1186339E+00
        -11   -1    0    0    0    0  0.00000000000E+00  0.00000000000E+00  0.45593999997E+02  0.45594000000E+02  0.51100000000E-03 0. -1.
         11   -1    0    0    0    0 -0.00000000000E+00 -0.00000000000E+00 -0.45593999997E+02  0.45594000000E+02  0.51100000000E-03 0.  1.
    9900012    2    1    2    0    0 -0.20881832269E+00 -0.49470635241E+00  0.10510532781E+01  0.90007723566E+02  0.89999984717E+02 0.  0.
        -12    1    1    2    0    0  0.20881832269E+00  0.49470635241E+00 -0.10510532781E+01  0.11802764339E+01  0.00000000000E+00 0.  1.
         11    1    3    3    0    0  0.25374433370E+02  0.26044149559E+02  0.10396459452E+02  0.37818592841E+02  0.51100000000E-03 0. -1.
        -11    1    3    3    0    0 -0.37284783831E+01  0.70198636486E+01  0.52933042659E+01  0.95498223549E+01  0.51100000000E-03 0.  1.
        -12    1    3    3    0    0 -0.21854773309E+02 -0.33558719560E+02 -0.14638710439E+02  0.42639308370E+02  0.00000000000E+00 0.  1.
</event>
<event>
 7    1  0.2078202E-015  0.9000771E+02  0.7816164E-02  0.1186339E+00
        -11   -1    0    0    0    0  0.00000000000E+00  0.00000000000E+00  0.45593999997E+02  0.45594000000E+02  0.51100000000E-03 0. -1.
         11   -1    0    0    0    0 -0.00000000000E+00 -0.00000000000E+00 -0.45593999997E+02  0.45594000000E+02  0.51100000000E-03 0.  1.
    9900012    2    1    2    0    0  0.33059199708E+00 -0.94854800848E-01  0.11290658075E+01  0.90007712705E+02  0.89999973712E+02 0.  0.
        -12    1    1    2    0    0 -0.33059199708E+00  0.94854800848E-01 -0.11290658075E+01  0.11802872953E+01  0.00000000000E+00 0.  1.
         11    1    3    3    0    0  0.80300917737E+01  0.19194566635E+01 -0.52691538881E+01  0.97944203879E+01  0.51100000000E-03 0. -1.
        -11    1    3    3    0    0 -0.34009204046E+02  0.18526143014E+02 -0.13901003716E+02  0.41147075709E+02  0.51100000000E-03 0.  1.
         12    1    3    3    0    0  0.26309704270E+02 -0.20540454479E+02  0.20299223411E+02  0.39066216608E+02  0.00000000000E+00 0. -1.
</event>
<event>
 7    1  0.1654239E-015  0.9000758E+02  0.7816164E-02  0.1186339E+00
        -11   -1    0    0    0    0  0.00000000000E+00  0.00000000000E+00  0.45593999997E+02  0.45594000000E+02  0.51100000000E-03 0.  1.
         11   -1    0    0    0    0 -0.00000000000E+00 -0.00000000000E+00 -0.45593999997E+02  0.45594000000E+02  0.51100000000E-03 0. -1.
    9900012    2    1    2    0    0  0.90744033568E+00  0.53912462739E+00 -0.52848324225E+00  0.90007577252E+02  0.89999836472E+02 0.  0.
        -12    1    1    2    0    0 -0.90744033568E+00 -0.53912462739E+00  0.52848324225E+00  0.11804227480E+01  0.00000000000E+00 0.  1.
         11    1    3    3    0    0  0.11374035184E+02 -0.11734727442E+02 -0.23650566681E+02  0.28747553098E+02  0.51100000000E-03 0. -1.
        -11    1    3    3    0    0  0.65600250618E+01  0.14150353877E+02 -0.13629126407E+02  0.20712786644E+02  0.51100000000E-03 0.  1.
        -12    1    3    3    0    0 -0.17026619911E+02 -0.18765018084E+01  0.36751209846E+02  0.40547237511E+02  0.00000000000E+00 0.  1.
</event>
<event>
 7    1  0.1654239E-015  0.9000772E+02  0.7816164E-02  0.1186339E+00
        -11   -1    0    0    0    0  0.00000000000E+00  0.00000000000E+00  0.45593999997E+02  0.45594000000E+02  0.51100000000E-03 0.  1.
         11   -1    0    0    0    0 -0.00000000000E+00 -0.00000000000E+00 -0.45593999997E+02  0.45594000000E+02  0.51100000000E-03 0. -1.
    9900012    2    1    2    0    0  0.39291763569E+00  0.83998265607E+00 -0.73013623819E+00  0.90007722890E+02  0.89999984032E+02 0.  0.
        -12    1    1    2    0    0 -0.39291763569E+00 -0.83998265607E+00  0.73013623819E+00  0.11802771104E+01  0.00000000000E+00 0.  1.
         11    1    3    3    0    0  0.16335819114E+01  0.82566763167E+01  0.27526214129E+00  0.84212269396E+01  0.51100000000E-03 0. -1.
        -11    1    3    3    0    0 -0.15908422819E+02  0.10784059545E+02  0.34256965273E+02  0.39279937968E+02  0.51100000000E-03 0.  1.
         12    1    3    3    0    0  0.14667758543E+02 -0.18200753206E+02 -0.35262363652E+02  0.42306557982E+02  0.00000000000E+00 0. -1.
</event>
<event>
 7    1  0.1654239E-015  0.9000780E+02  0.7816164E-02  0.1186339E+00
        -11   -1    0    0    0    0  0.00000000000E+00  0.00000000000E+00  0.45593999997E+02  0.45594000000E+02  0.51100000000E-03 0.  1.
         11   -1    0    0    0    0 -0.00000000000E+00 -0.00000000000E+00 -0.45593999997E+02  0.45594000000E+02  0.51100000000E-03 0. -1.
    9900012    2    1    2    0    0 -0.36436386244E+00  0.66366966371E+00 -0.90534918744E+00  0.90007798493E+02  0.90000060633E+02 0.  0.
        -12    1    1    2    0    0  0.36436386244E+00 -0.66366966371E+00  0.90534918744E+00  0.11802015074E+01  0.00000000000E+00 0.  1.
         11    1    3    3    0    0 -0.19305470456E+02  0.20051731445E+02 -0.24000041454E+02  0.36752892588E+02  0.51100000000E-03 0. -1.
        -11    1    3    3    0    0  0.11571509643E+01  0.86873700132E+01 -0.46867306547E+01  0.99385532444E+01  0.51100000000E-03 0.  1.
        -12    1    3    3    0    0  0.17783955629E+02 -0.28075431795E+02  0.27781422922E+02  0.43316352661E+02  0.00000000000E+00 0.  1.
</event>
<event>
 7    1  0.1654239E-015  0.9000779E+02  0.7816164E-02  0.1186339E+00
        -11   -1    0    0    0    0  0.00000000000E+00  0.00000000000E+00  0.45593999997E+02  0.45594000000E+02  0.51100000000E-03 0.  1.
         11   -1    0    0    0    0 -0.00000000000E+00 -0.00000000000E+00 -0.45593999997E+02  0.45594000000E+02  0.51100000000E-03 0. -1.
    9900012    2    1    2    0    0  0.20112775802E+00 -0.36164031808E+00 -0.11052893471E+01  0.90007787885E+02  0.90000049885E+02 0.  0.
        -12    1    1    2    0    0 -0.20112775802E+00  0.36164031808E+00  0.11052893471E+01  0.11802121146E+01  0.00000000000E+00 0.  1.
         11    1    3    3    0    0  0.18462738803E+02  0.73386197375E+01  0.56001539856E+01  0.20641942464E+02  0.51100000000E-03 0. -1.
        -11    1    3    3    0    0  0.22901601721E+02 -0.94673741888E+01  0.73250826332E+01  0.25841272632E+02  0.51100000000E-03 0.  1.
        -12    1    3    3    0    0 -0.41163212766E+02  0.17671141332E+01 -0.14030525966E+02  0.43524572789E+02  0.00000000000E+00 0.  1.
</event>
<event>
 7    1  0.1654239E-015  0.9000767E+02  0.7816164E-02  0.1186339E+00
        -11   -1    0    0    0    0  0.00000000000E+00  0.00000000000E+00  0.45593999997E+02  0.45594000000E+02  0.51100000000E-03 0.  1.
         11   -1    0    0    0    0 -0.00000000000E+00 -0.00000000000E+00 -0.45593999997E+02  0.45594000000E+02  0.51100000000E-03 0. -1.
    9900012    2    1    2    0    0 -0.37683492584E-03  0.11204754383E+01  0.37109729144E+00  0.90007670152E+02  0.89999930598E+02 0.  0.
        -12    1    1    2    0    0  0.37683492584E-03 -0.11204754383E+01 -0.37109729144E+00  0.11803298478E+01  0.00000000000E+00 0.  1.
         11    1    3    3    0    0 -0.84370186110E+01  0.20722120641E+02 -0.49034839290E+01  0.22904884235E+02  0.51100000000E-03 0. -1.
        -11    1    3    3    0    0 -0.12629443240E+02  0.16465810640E+02 -0.94667762842E+01  0.22808893223E+02  0.51100000000E-03 0.  1.
         12    1    3    3    0    0  0.21066085017E+02 -0.36067455843E+02  0.14741357505E+02  0.44293892694E+02  0.00000000000E+00 0. -1.
</event>
<event>
 7    1  0.1654239E-015  0.9000769E+02  0.7816164E-02  0.1186339E+00
        -11   -1    0    0    0    0  0.00000000000E+00  0.00000000000E+00  0.45593999997E+02  0.45594000000E+02  0.51100000000E-03 0. -1.
         11   -1    0    0    0    0 -0.00000000000E+00 -0.00000000000E+00 -0.45593999997E+02  0.45594000000E+02  0.51100000000E-03 0.  1.
    9900012    2    1    2    0    0 -0.62462652782E+00 -0.64130606947E+00  0.76921999020E+00  0.90007690224E+02  0.89999950935E+02 0.  0.
        -12    1    1    2    0    0  0.62462652782E+00  0.64130606947E+00 -0.76921999020E+00  0.11803097760E+01  0.00000000000E+00 0.  1.
         11    1    3    3    0    0 -0.33835152350E+01  0.40860772835E+01  0.77329637017E+01  0.93777892270E+01  0.51100000000E-03 0. -1.
        -11    1    3    3    0    0  0.39164620970E+02  0.20425323701E+01  0.91098047285E+01  0.40261992209E+02  0.51100000000E-03 0.  1.
         12    1    3    3    0    0 -0.36405732263E+02 -0.67699157230E+01 -0.16073548440E+02  0.40367908788E+02  0.00000000000E+00 0. -1.
</event>
<event>
 7    1  0.1654239E-015  0.9000772E+02  0.7816164E-02  0.1186339E+00
        -11   -1    0    0    0    0  0.00000000000E+00  0.00000000000E+00  0.45593999997E+02  0.45594000000E+02  0.51100000000E-03 0.  1.
         11   -1    0    0    0    0 -0.00000000000E+00 -0.00000000000E+00 -0.45593999997E+02  0.45594000000E+02  0.51100000000E-03 0. -1.
    9900012    2    1    2    0    0 -0.11226616763E+01 -0.70348619024E-01 -0.35742456199E+00  0.90007715930E+02  0.89999976981E+02 0.  0.
        -12    1    1    2    0    0  0.11226616763E+01  0.70348619024E-01  0.35742456199E+00  0.11802840697E+01  0.00000000000E+00 0.  1.
         11    1    3    3    0    0  0.20505727092E+02  0.34854768859E+01 -0.30876420525E+02  0.37228842815E+02  0.51100000000E-03 0. -1.
        -11    1    3    3    0    0  0.87652658607E+01 -0.18471495466E+01 -0.93469004381E+00  0.90064139809E+01  0.51100000000E-03 0.  1.
        -12    1    3    3    0    0 -0.30393654629E+02 -0.17086759583E+01  0.31453686006E+02  0.43772459134E+02  0.00000000000E+00 0.  1.
</event>
<event>
 7    1  0.1654239E-015  0.9000711E+02  0.7816164E-02  0.1186340E+00
        -11   -1    0    0    0    0  0.00000000000E+00  0.00000000000E+00  0.45593999997E+02  0.45594000000E+02  0.51100000000E-03 0. -1.
         11   -1    0    0    0    0 -0.00000000000E+00 -0.00000000000E+00 -0.45593999997E+02  0.45594000000E+02  0.51100000000E-03 0.  1.
    9900012    2    1    2    0    0 -0.11490009843E+00 -0.74073640810E+00  0.91247959244E+00  0.90007105650E+02  0.89999358642E+02 0.  0.
        -12    1    1    2    0    0  0.11490009843E+00  0.74073640810E+00 -0.91247959244E+00  0.11808943499E+01  0.00000000000E+00 0.  1.
         11    1    3    3    0    0  0.20016440130E+02 -0.30104644582E+02  0.18361754966E+02  0.40547522077E+02  0.51100000000E-03 0. -1.
        -11    1    3    3    0    0 -0.25346382965E+01  0.74010401722E+01  0.82350074021E+01  0.11358482914E+02  0.51100000000E-03 0.  1.
        -12    1    3    3    0    0 -0.17596701932E+02  0.21962868002E+02 -0.25684282776E+02  0.38101100659E+02  0.00000000000E+00 0.  1.
</event>
<event>
 7    1  0.1654239E-015  0.9000773E+02  0.7816164E-02  0.1186339E+00
        -11   -1    0    0    0    0  0.00000000000E+00  0.00000000000E+00  0.45593999997E+02  0.45594000000E+02  0.51100000000E-03 0. -1.
         11   -1    0    0    0    0 -0.00000000000E+00 -0.00000000000E+00 -0.45593999997E+02  0.45594000000E+02  0.51100000000E-03 0.  1.
    9900012    2    1    2    0    0  0.97747718744E+00  0.64849783979E+00 -0.13051445691E+00  0.90007726674E+02  0.89999987866E+02 0.  0.
        -12    1    1    2    0    0 -0.97747718744E+00 -0.64849783979E+00  0.13051445691E+00  0.11802733258E+01  0.00000000000E+00 0.  1.
         11    1    3    3    0    0  0.64907086112E+01 -0.40166058217E+01  0.55839464064E+01  0.94574245084E+01  0.51100000000E-03 0. -1.
        -11    1    3    3    0    0  0.86303121862E+01 -0.11725155943E+02 -0.38557160021E+02  0.41214271308E+02  0.51100000000E-03 0.  1.
         12    1    3    3    0    0 -0.14143543610E+02  0.16390259604E+02  0.32842699157E+02  0.39336030858E+02  0.00000000000E+00 0. -1.
</event>
<event>
 7    1  0.1654239E-015  0.9000771E+02  0.7816164E-02  0.1186339E+00
        -11   -1    0    0    0    0  0.00000000000E+00  0.00000000000E+00  0.45593999997E+02  0.45594000000E+02  0.51100000000E-03 0.  1.
         11   -1    0    0    0    0 -0.00000000000E+00 -0.00000000000E+00 -0.45593999997E+02  0.45594000000E+02  0.51100000000E-03 0. -1.
    9900012    2    1    2    0    0 -0.26507191574E+00  0.10056572746E+01 -0.55809426379E+00  0.90007712373E+02  0.89999973377E+02 0.  0.
        -12    1    1    2    0    0  0.26507191574E+00 -0.10056572746E+01  0.55809426379E+00  0.11802876267E+01  0.00000000000E+00 0.  1.
         11    1    3    3    0    0 -0.94233266694E+00 -0.90956367786E+01  0.60690443004E+01  0.10975058006E+02  0.51100000000E-03 0. -1.
        -11    1    3    3    0    0  0.20996996847E+02 -0.26250547748E+02  0.85881896553E+01  0.34694698954E+02  0.51100000000E-03 0.  1.
         12    1    3    3    0    0 -0.20319736096E+02  0.36351841801E+02 -0.15215328219E+02  0.44337955413E+02  0.00000000000E+00 0. -1.
</event>
<event>
 7    1  0.1654239E-015  0.9000772E+02  0.7816164E-02  0.1186339E+00
        -11   -1    0    0    0    0  0.00000000000E+00  0.00000000000E+00  0.45593999997E+02  0.45594000000E+02  0.51100000000E-03 0.  1.
         11   -1    0    0    0    0 -0.00000000000E+00 -0.00000000000E+00 -0.45593999997E+02  0.45594000000E+02  0.51100000000E-03 0. -1.
    9900012    2    1    2    0    0 -0.47694659892E+00  0.87661588615E+00 -0.63018522067E+00  0.90007717457E+02  0.89999978527E+02 0.  0.
        -12    1    1    2    0    0  0.47694659892E+00 -0.87661588615E+00  0.63018522067E+00  0.11802825435E+01  0.00000000000E+00 0.  1.
         11    1    3    3    0    0  0.87314651246E+01 -0.22742722717E+02 -0.29003362323E+02  0.37876971185E+02  0.51100000000E-03 0. -1.
        -11    1    3    3    0    0 -0.65157130813E+01  0.65044977626E+00 -0.71802520679E+01  0.97176963263E+01  0.51100000000E-03 0.  1.
        -12    1    3    3    0    0 -0.26926986422E+01  0.22968888827E+02  0.35553429171E+02  0.42413049946E+02  0.00000000000E+00 0.  1.
</event>
<event>
 7    1  0.1654239E-015  0.9000752E+02  0.7816164E-02  0.1186339E+00
        -11   -1    0    0    0    0  0.00000000000E+00  0.00000000000E+00  0.45593999997E+02  0.45594000000E+02  0.51100000000E-03 0. -1.
         11   -1    0    0    0    0 -0.00000000000E+00 -0.00000000000E+00 -0.45593999997E+02  0.45594000000E+02  0.51100000000E-03 0.  1.
    9900012    2    1    2    0    0  0.30893972906E+00  0.88940094785E+00 -0.71207316268E+00  0.90007522981E+02  0.89999781485E+02 0.  0.
        -12    1    1    2    0    0 -0.30893972906E+00 -0.88940094785E+00  0.71207316268E+00  0.11804770185E+01  0.00000000000E+00 0.  1.
         11    1    3    3    0    0  0.19680075831E+01 -0.11165278296E+02 -0.35404732166E+01  0.11877350047E+02  0.51100000000E-03 0. -1.
        -11    1    3    3    0    0  0.22833670054E+02 -0.14520050604E+02  0.24065022453E+02  0.36212341316E+02  0.51100000000E-03 0.  1.
         12    1    3    3    0    0 -0.24492737908E+02  0.26574729848E+02 -0.21236622399E+02  0.41917831619E+02  0.00000000000E+00 0. -1.
</event>
<event>
 7    1  0.1654239E-015  0.9000776E+02  0.7816164E-02  0.1186339E+00
        -11   -1    0    0    0    0  0.00000000000E+00  0.00000000000E+00  0.45593999997E+02  0.45594000000E+02  0.51100000000E-03 0. -1.
         11   -1    0    0    0    0 -0.00000000000E+00 -0.00000000000E+00 -0.45593999997E+02  0.45594000000E+02  0.51100000000E-03 0.  1.
    9900012    2    1    2    0    0 -0.58135294364E+00  0.92155095828E+00 -0.45358119180E+00  0.90007761333E+02  0.90000022982E+02 0.  0.
        -12    1    1    2    0    0  0.58135294364E+00 -0.92155095828E+00  0.45358119180E+00  0.11802386671E+01  0.00000000000E+00 0.  1.
         11    1    3    3    0    0  0.11613642273E+02 -0.24150349960E+02 -0.29350754752E+02  0.39743966772E+02  0.51100000000E-03 0. -1.
        -11    1    3    3    0    0 -0.16614255820E+02  0.13610153497E+01  0.86928083069E+01  0.18800286587E+02  0.51100000000E-03 0.  1.
        -12    1    3    3    0    0  0.44192606029E+01  0.23710885569E+02  0.20204365253E+02  0.31463507974E+02  0.00000000000E+00 0.  1.
</event>
<event>
 7    1  0.1654239E-015  0.9000773E+02  0.7816164E-02  0.1186339E+00
        -11   -1    0    0    0    0  0.00000000000E+00  0.00000000000E+00  0.45593999997E+02  0.45594000000E+02  0.51100000000E-03 0.  1.
         11   -1    0    0    0    0 -0.00000000000E+00 -0.00000000000E+00 -0.45593999997E+02  0.45594000000E+02  0.51100000000E-03 0. -1.
    9900012    2    1    2    0    0  0.94908755209E+00 -0.47474446154E+00 -0.51660662710E+00  0.90007732279E+02  0.89999993545E+02 0.  0.
        -12    1    1    2    0    0 -0.94908755209E+00  0.47474446154E+00  0.51660662710E+00  0.11802677207E+01  0.00000000000E+00 0.  1.
         11    1    3    3    0    0 -0.11019318741E+01  0.13506623073E+02 -0.22230936469E+02  0.26035699669E+02  0.51100000000E-03 0. -1.
        -11    1    3    3    0    0  0.53748156761E+01 -0.97922627925E+01 -0.19467417929E+02  0.22444540878E+02  0.51100000000E-03 0.  1.
        -12    1    3    3    0    0 -0.33237962499E+01 -0.41891047421E+01  0.41181747771E+02  0.41527491732E+02  0.00000000000E+00 0.  1.
</event>
<event>
 7    1  0.1654239E-015  0.9000774E+02  0.7816164E-02  0.1186339E+00
        -11   -1    0    0    0    0  0.00000000000E+00  0.00000000000E+00  0.45593999997E+02  0.45594000000E+02  0.51100000000E-03 0.  1.
         11   -1    0    0    0    0 -0.00000000000E+00 -0.00000000000E+00 -0.45593999997E+02  0.45594000000E+02  0.51100000000E-03 0. -1.
    9900012    2    1    2    0    0  0.23231602347E+00  0.23359465357E+00 -0.11333491732E+01  0.90007738357E+02  0.89999999704E+02 0.  0.
        -12    1    1    2    0    0 -0.23231602347E+00 -0.23359465357E+00  0.11333491732E+01  0.11802616428E+01  0.00000000000E+00 0.  1.
         11    1    3    3    0    0 -0.84104882502E+01 -0.28622220378E+02 -0.23429379903E+02  0.37932883557E+02  0.51100000000E-03 0. -1.
        -11    1    3    3    0    0  0.33685253041E+01 -0.60428748766E+01 -0.40631622371E+01  0.80232529017E+01  0.51100000000E-03 0.  1.
        -12    1    3    3    0    0  0.52742789695E+01  0.34898689909E+02  0.26359192967E+02  0.44051601899E+02  0.00000000000E+00 0.  1.
</event>
<event>
 7    1  0.1654239E-015  0.9000773E+02  0.7816164E-02  0.1186339E+00
        -11   -1    0    0    0    0  0.00000000000E+00  0.00000000000E+00  0.45593999997E+02  0.45594000000E+02  0.51100000000E-03 0.  1.
         11   -1    0    0    0    0 -0.00000000000E+00 -0.00000000000E+00 -0.45593999997E+02  0.45594000000E+02  0.51100000000E-03 0. -1.
    9900012    2    1    2    0    0 -0.77794194191E+00  0.88740995854E+00  0.18835824323E-01  0.90007726774E+02  0.89999987968E+02 0.  0.
        -12    1    1    2    0    0  0.77794194191E+00 -0.88740995854E+00 -0.18835824323E-01  0.11802732259E+01  0.00000000000E+00 0.  1.
         11    1    3    3    0    0 -0.16662919494E+02 -0.10987811247E+02 -0.33024473620E+02  0.38587572354E+02  0.51100000000E-03 0. -1.
        -11    1    3    3    0    0 -0.30147892371E+01 -0.87940658091E+01  0.18145733891E+01  0.94719176751E+01  0.51100000000E-03 0.  1.
        -12    1    3    3    0    0  0.18899766790E+02  0.20669287015E+02  0.31228736055E+02  0.41948236745E+02  0.00000000000E+00 0.  1.
</event>
<event>
 7    1  0.1654239E-015  0.9000804E+02  0.7816164E-02  0.1186338E+00
        -11   -1    0    0    0    0  0.00000000000E+00  0.00000000000E+00  0.45593999997E+02  0.45594000000E+02  0.51100000000E-03 0. -1.
         11   -1    0    0    0    0 -0.00000000000E+00 -0.00000000000E+00 -0.45593999997E+02  0.45594000000E+02  0.51100000000E-03 0.  1.
    9900012    2    1    2    0    0  0.81646173224E+00  0.72936269992E+00  0.44015170724E+00  0.90008036766E+02  0.90000302051E+02 0.  0.
        -12    1    1    2    0    0 -0.81646173224E+00 -0.72936269992E+00 -0.44015170724E+00  0.11799632340E+01  0.00000000000E+00 0.  1.
         11    1    3    3    0    0 -0.32154011038E+02  0.88377449648E+01 -0.89856201686E+01  0.34535887595E+02  0.51100000000E-03 0. -1.
        -11    1    3    3    0    0  0.43098536304E+00  0.14839164680E+02  0.23073336259E+01  0.15023659524E+02  0.51100000000E-03 0.  1.
        -12    1    3    3    0    0  0.32539487408E+02 -0.22947546945E+02  0.71184382499E+01  0.40448489646E+02  0.00000000000E+00 0.  1.
</event>
<event>
 7    1  0.1654239E-015  0.9000773E+02  0.7816164E-02  0.1186339E+00
        -11   -1    0    0    0    0  0.00000000000E+00  0.00000000000E+00  0.45593999997E+02  0.45594000000E+02  0.51100000000E-03 0. -1.
         11   -1    0    0    0    0 -0.00000000000E+00 -0.00000000000E+00 -0.45593999997E+02  0.45594000000E+02  0.51100000000E-03 0.  1.
    9900012    2    1    2    0    0  0.10436519921E+01  0.15754713590E+00  0.52821875623E+00  0.90007726458E+02  0.89999987647E+02 0.  0.
        -12    1    1    2    0    0 -0.10436519921E+01 -0.15754713590E+00 -0.52821875623E+00  0.11802735425E+01  0.00000000000E+00 0.  1.
         11    1    3    3    0    0  0.35160873910E+02 -0.48436968951E+01  0.16414056574E+02  0.39104599566E+02  0.51100000000E-03 0. -1.
        -11    1    3    3    0    0  0.32298544125E+01  0.87556205411E+01  0.16441568917E+01  0.94760805575E+01  0.51100000000E-03 0.  1.
        -12    1    3    3    0    0 -0.37347076331E+02 -0.37543765102E+01 -0.17529994710E+02  0.41427046334E+02  0.00000000000E+00 0.  1.
</event>
<event>
 7    1  0.1654239E-015  0.9000779E+02  0.7816164E-02  0.1186339E+00
        -11   -1    0    0    0    0  0.00000000000E+00  0.00000000000E+00  0.45593999997E+02  0.45594000000E+02  0.51100000000E-03 0. -1.
         11   -1    0    0    0    0 -0.00000000000E+00 -0.00000000000E+00 -0.45593999997E+02  0.45594000000E+02  0.51100000000E-03 0.  1.
    9900012    2    1    2    0    0  0.34568641980E+00  0.72195741657E+00  0.86728263321E+00  0.90007787825E+02  0.90000049824E+02 0.  0.
        -12    1    1    2    0    0 -0.34568641980E+00 -0.72195741657E+00 -0.86728263321E+00  0.11802121750E+01  0.00000000000E+00 0.  1.
         11    1    3    3    0    0 -0.53912427502E+01  0.26579659025E+01  0.70407086820E+01  0.92575299155E+01  0.51100000000E-03 0. -1.
        -11    1    3    3    0    0  0.24136680685E+02  0.10583042893E+02 -0.35326059924E+02  0.44073922691E+02  0.51100000000E-03 0.  1.
         12    1    3    3    0    0 -0.18399751515E+02 -0.12519051378E+02  0.29152633875E+02  0.36676335219E+02  0.00000000000E+00 0. -1.
</event>
<event>
 7    1  0.1654239E-015  0.9000764E+02  0.7816164E-02  0.1186339E+00
        -11   -1    0    0    0    0  0.00000000000E+00  0.00000000000E+00  0.45593999997E+02  0.45594000000E+02  0.51100000000E-03 0.  1.
         11   -1    0    0    0    0 -0.00000000000E+00 -0.00000000000E+00 -0.45593999997E+02  0.45594000000E+02  0.51100000000E-03 0. -1.
    9900012    2    1    2    0    0  0.10937188728E+00 -0.93190629075E+00  0.71613316630E+00  0.90007636388E+02  0.89999896388E+02 0.  0.
        -12    1    1    2    0    0 -0.10937188728E+00  0.93190629075E+00 -0.71613316630E+00  0.11803636119E+01  0.00000000000E+00 0.  1.
         11    1    3    3    0    0 -0.40116370666E+01  0.81637306754E+01  0.11785996264E+01  0.91721768319E+01  0.51100000000E-03 0. -1.
        -11    1    3    3    0    0  0.57314484124E+01  0.32103323219E+02  0.16141738514E+02  0.36387203590E+02  0.51100000000E-03 0.  1.
         12    1    3    3    0    0 -0.16104394585E+01 -0.41198960185E+02 -0.16604204974E+02  0.44448255966E+02  0.00000000000E+00 0. -1.
</event>
<event>
 7    1  0.1654239E-015  0.9000751E+02  0.7816164E-02  0.1186339E+00
        -11   -1    0    0    0    0  0.00000000000E+00  0.00000000000E+00  0.45593999997E+02  0.45594000000E+02  0.51100000000E-03 0.  1.
         11   -1    0    0    0    0 -0.00000000000E+00 -0.00000000000E+00 -0.45593999997E+02  0.45594000000E+02  0.51100000000E-03 0. -1.
    9900012    2    1    2    0    0 -0.10186028291E+01 -0.11810062871E+00 -0.58485259418E+00  0.90007511949E+02  0.89999770306E+02 0.  0.
        -12    1    1    2    0    0  0.10186028291E+01  0.11810062871E+00  0.58485259418E+00  0.11804880511E+01  0.00000000000E+00 0.  1.
         11    1    3    3    0    0 -0.20679364292E+02  0.13228429830E+02 -0.30780715027E+02  0.39371053848E+02  0.51100000000E-03 0. -1.
        -11    1    3    3    0    0 -0.53338658145E+01  0.58275684088E+01  0.15356753193E+01  0.80479175589E+01  0.51100000000E-03 0.  1.
        -12    1    3    3    0    0  0.24994627278E+02 -0.19174098867E+02  0.28660187113E+02  0.42588540542E+02  0.00000000000E+00 0.  1.
</event>
<event>
 7    1  0.1654239E-015  0.9000774E+02  0.7816164E-02  0.1186339E+00
        -11   -1    0    0    0    0  0.00000000000E+00  0.00000000000E+00  0.45593999997E+02  0.45594000000E+02  0.51100000000E-03 0. -1.
         11   -1    0    0    0    0 -0.00000000000E+00 -0.00000000000E+00 -0.45593999997E+02  0.45594000000E+02  0.51100000000E-03 0.  1.
    9900012    2    1    2    0    0 -0.46669778246E+00 -0.50774490868E+00  0.95780747458E+00  0.90007742879E+02  0.90000004285E+02 0.  0.
        -12    1    1    2    0    0  0.46669778246E+00  0.50774490868E+00 -0.95780747458E+00  0.11802571206E+01  0.00000000000E+00 0.  1.
         11    1    3    3    0    0  0.43521357435E+02 -0.30401978097E+01 -0.20263378029E+01  0.43674447917E+02  0.51100000000E-03 0. -1.
        -11    1    3    3    0    0 -0.85292761065E+01  0.62616852964E+01  0.85319547018E+00  0.10615328371E+02  0.51100000000E-03 0.  1.
        -12    1    3    3    0    0 -0.35458779111E+02 -0.37292323953E+01  0.21309498073E+01  0.35717966591E+02  0.00000000000E+00 0.  1.
</event>
<event>
 7    1  0.1654239E-015  0.9000773E+02  0.7816164E-02  0.1186339E+00
        -11   -1    0    0    0    0  0.00000000000E+00  0.00000000000E+00  0.45593999997E+02  0.45594000000E+02  0.51100000000E-03 0.  1.
         11   -1    0    0    0    0 -0.00000000000E+00 -0.00000000000E+00 -0.45593999997E+02  0.45594000000E+02  0.51100000000E-03 0. -1.
    9900012    2    1    2    0    0  0.64406616298E+00  0.93758808619E+00 -0.31488703635E+00  0.90007726096E+02  0.89999987281E+02 0.  0.
        -12    1    1    2    0    0 -0.64406616298E+00 -0.93758808619E+00  0.31488703635E+00  0.11802739035E+01  0.00000000000E+00 0.  1.
         11    1    3    3    0    0 -0.17114498985E+01 -0.20232945849E+02 -0.27913516404E+02  0.34517612269E+02  0.51100000000E-03 0. -1.
        -11    1    3    3    0    0  0.28307641055E+01 -0.84437183144E+01 -0.59712508716E+01  0.10722193881E+02  0.51100000000E-03 0.  1.
        -12    1    3    3    0    0 -0.47524804407E+00  0.29614252250E+02  0.33569880239E+02  0.44767919946E+02  0.00000000000E+00 0.  1.
</event>
<event>
 7    1  0.1654239E-015  0.9000788E+02  0.7816164E-02  0.1186339E+00
        -11   -1    0    0    0    0  0.00000000000E+00  0.00000000000E+00  0.45593999997E+02  0.45594000000E+02  0.51100000000E-03 0. -1.
         11   -1    0    0    0    0 -0.00000000000E+00 -0.00000000000E+00 -0.45593999997E+02  0.45594000000E+02  0.51100000000E-03 0.  1.
    9900012    2    1    2    0    0 -0.57406374644E-01 -0.70364468866E+00 -0.94565462476E+00  0.90007883900E+02  0.90000147168E+02 0.  0.
        -12    1    1    2    0    0  0.57406374644E-01  0.70364468866E+00  0.94565462476E+00  0.11801160998E+01  0.00000000000E+00 0.  1.
         11    1    3    3    0    0 -0.17990993845E+01  0.36522766867E+02  0.66723685098E+01  0.37170818662E+02  0.51100000000E-03 0. -1.
        -11    1    3    3    0    0  0.22956172071E+01  0.27497410170E+01  0.88888361092E+01  0.95834410135E+01  0.51100000000E-03 0.  1.
        -12    1    3    3    0    0 -0.55392419727E+00 -0.39976152572E+02 -0.16506859244E+02  0.43253624225E+02  0.00000000000E+00 0.  1.
</event>
<event>
 7    1  0.1654239E-015  0.9000746E+02  0.7816164E-02  0.1186340E+00
        -11   -1    0    0    0    0  0.00000000000E+00  0.00000000000E+00  0.45593999997E+02  0.45594000000E+02  0.51100000000E-03 0.  1.
         11   -1    0    0    0    0 -0.00000000000E+00 -0.00000000000E+00 -0.45593999997E+02  0.45594000000E+02  0.51100000000E-03 0. -1.
    9900012    2    1    2    0    0  0.10653915569E+01 -0.12399483388E+00  0.49319049774E+00  0.90007461667E+02  0.89999719361E+02 0.  0.
        -12    1    1    2    0    0 -0.10653915569E+01  0.12399483388E+00 -0.49319049774E+00  0.11805383329E+01  0.00000000000E+00 0.  1.
         11    1    3    3    0    0  0.14236326105E+01 -0.10556352460E+02  0.30501881895E+00  0.10656281895E+02  0.51100000000E-03 0. -1.
        -11    1    3    3    0    0  0.28086798766E+01 -0.33197433198E+02 -0.92994298817E+01  0.34589559840E+02  0.51100000000E-03 0.  1.
         12    1    3    3    0    0 -0.31669209302E+01  0.43629790824E+02  0.94876015605E+01  0.44761619932E+02  0.00000000000E+00 0. -1.
</event>
<event>
 7    1  0.1654239E-015  0.9000805E+02  0.7816164E-02  0.1186338E+00
        -11   -1    0    0    0    0  0.00000000000E+00  0.00000000000E+00  0.45593999997E+02  0.45594000000E+02  0.51100000000E-03 0.  1.
         11   -1    0    0    0    0 -0.00000000000E+00 -0.00000000000E+00 -0.45593999997E+02  0.45594000000E+02  0.51100000000E-03 0. -1.
    9900012    2    1    2    0    0  0.95120938281E+00 -0.37603083158E+00 -0.58828244260E+00  0.90008053091E+02  0.90000318591E+02 0.  0.
        -12    1    1    2    0    0 -0.95120938281E+00  0.37603083158E+00  0.58828244260E+00  0.11799469092E+01  0.00000000000E+00 0.  1.
         11    1    3    3    0    0 -0.84699938791E+01  0.33040898305E+02 -0.66873185347E+01  0.34758624635E+02  0.51100000000E-03 0. -1.
        -11    1    3    3    0    0  0.14458276646E+01  0.90269582109E+01  0.78172952104E+01  0.12028570025E+02  0.51100000000E-03 0.  1.
        -12    1    3    3    0    0  0.79753755973E+01 -0.42443887347E+02 -0.17182591183E+01  0.43220858430E+02  0.00000000000E+00 0.  1.
</event>
<event>
 7    1  0.1654239E-015  0.9000776E+02  0.7816164E-02  0.1186339E+00
        -11   -1    0    0    0    0  0.00000000000E+00  0.00000000000E+00  0.45593999997E+02  0.45594000000E+02  0.51100000000E-03 0. -1.
         11   -1    0    0    0    0 -0.00000000000E+00 -0.00000000000E+00 -0.45593999997E+02  0.45594000000E+02  0.51100000000E-03 0.  1.
    9900012    2    1    2    0    0  0.38698371317E+00 -0.12283370350E+00  0.11082102820E+01  0.90007756575E+02  0.90000018162E+02 0.  0.
        -12    1    1    2    0    0 -0.38698371317E+00  0.12283370350E+00 -0.11082102820E+01  0.11802434250E+01  0.00000000000E+00 0.  1.
         11    1    3    3    0    0 -0.13390244561E+02  0.33575689589E+02  0.21136087053E+00  0.36147894191E+02  0.51100000000E-03 0. -1.
        -11    1    3    3    0    0 -0.76758474863E+01  0.47827523495E+01 -0.32445972256E+01  0.96083695852E+01  0.51100000000E-03 0.  1.
        -12    1    3    3    0    0  0.21453075760E+02 -0.38481275642E+02  0.41414466371E+01  0.44251492798E+02  0.00000000000E+00 0.  1.
</event>
<event>
 7    1  0.1654239E-015  0.9000776E+02  0.7816164E-02  0.1186339E+00
        -11   -1    0    0    0    0  0.00000000000E+00  0.00000000000E+00  0.45593999997E+02  0.45594000000E+02  0.51100000000E-03 0.  1.
         11   -1    0    0    0    0 -0.00000000000E+00 -0.00000000000E+00 -0.45593999997E+02  0.45594000000E+02  0.51100000000E-03 0. -1.
    9900012    2    1    2    0    0 -0.97887451978E+00  0.40069402969E+00 -0.52365226217E+00  0.90007761582E+02  0.90000023235E+02 0.  0.
        -12    1    1    2    0    0  0.97887451978E+00 -0.40069402969E+00  0.52365226217E+00  0.11802384177E+01  0.00000000000E+00 0.  1.
         11    1    3    3    0    0  0.12153581713E+02  0.19431397004E+01  0.82969237417E+00  0.12335871678E+02  0.51100000000E-03 0. -1.
        -11    1    3    3    0    0  0.21295141642E+02  0.20361016063E+02  0.15772599621E+02  0.33418990586E+02  0.51100000000E-03 0.  1.
         12    1    3    3    0    0 -0.34427597876E+02 -0.21903461734E+02 -0.17125944257E+02  0.44252899319E+02  0.00000000000E+00 0. -1.
</event>
<event>
 7    1  0.1654239E-015  0.9000767E+02  0.7816164E-02  0.1186339E+00
        -11   -1    0    0    0    0  0.00000000000E+00  0.00000000000E+00  0.45593999997E+02  0.45594000000E+02  0.51100000000E-03 0.  1.
         11   -1    0    0    0    0 -0.00000000000E+00 -0.00000000000E+00 -0.45593999997E+02  0.45594000000E+02  0.51100000000E-03 0. -1.
    9900012    2    1    2    0    0 -0.77763163723E-02 -0.10555763651E+01 -0.52808689418E+00  0.90007670511E+02  0.89999930962E+02 0.  0.
        -12    1    1    2    0    0  0.77763163723E-02  0.10555763651E+01  0.52808689418E+00  0.11803294886E+01  0.00000000000E+00 0.  1.
         11    1    3    3    0    0 -0.49716484330E+01  0.54788552630E+01 -0.43289354337E+01  0.85717457606E+01  0.51100000000E-03 0. -1.
        -11    1    3    3    0    0 -0.23914191429E+02  0.25196387072E+02 -0.10368009422E+02  0.36252477058E+02  0.51100000000E-03 0.  1.
         12    1    3    3    0    0  0.28878063546E+02 -0.31730818700E+02  0.14168857961E+02  0.45183447693E+02  0.00000000000E+00 0. -1.
</event>
<event>
 7    1  0.1654239E-015  0.9000774E+02  0.7816164E-02  0.1186339E+00
        -11   -1    0    0    0    0  0.00000000000E+00  0.00000000000E+00  0.45593999997E+02  0.45594000000E+02  0.51100000000E-03 0. -1.
         11   -1    0    0    0    0 -0.00000000000E+00 -0.00000000000E+00 -0.45593999997E+02  0.45594000000E+02  0.51100000000E-03 0.  1.
    9900012    2    1    2    0    0  0.33180827070E+00  0.11288612357E+01 -0.92648581442E-01  0.90007742326E+02  0.90000003724E+02 0.  0.
        -12    1    1    2    0    0 -0.33180827070E+00 -0.11288612357E+01  0.92648581442E-01  0.11802576742E+01  0.00000000000E+00 0.  1.
         11    1    3    3    0    0 -0.38454001956E+02  0.50283133212E+00 -0.79723129293E+01  0.39274939586E+02  0.51100000000E-03 0. -1.
        -11    1    3    3    0    0 -0.20838196593E+01  0.82665665456E+01  0.17975195545E+01  0.87126060186E+01  0.51100000000E-03 0.  1.
        -12    1    3    3    0    0  0.40869629886E+02 -0.76405366421E+01  0.60821447933E+01  0.42020196721E+02  0.00000000000E+00 0.  1.
</event>
<event>
 7    1  0.1654239E-015  0.9000772E+02  0.7816164E-02  0.1186339E+00
        -11   -1    0    0    0    0  0.00000000000E+00  0.00000000000E+00  0.45593999997E+02  0.45594000000E+02  0.51100000000E-03 0. -1.
         11   -1    0    0    0    0 -0.00000000000E+00 -0.00000000000E+00 -0.45593999997E+02  0.45594000000E+02  0.51100000000E-03 0.  1.
    9900012    2    1    2    0    0  0.16397187991E-01  0.10046589430E+01 -0.61923964229E+00  0.90007717748E+02  0.89999978822E+02 0.  0.
        -12    1    1    2    0    0 -0.16397187991E-01 -0.10046589430E+01  0.61923964229E+00  0.11802822519E+01  0.00000000000E+00 0.  1.
         11    1    3    3    0    0  0.30039931210E+02  0.19151161690E+02 -0.40685959179E+01  0.35856909155E+02  0.51100000000E-03 0. -1.
        -11    1    3    3    0    0  0.10298859163E+02 -0.15973656952E+01  0.14081029753E+01  0.10516692991E+02  0.51100000000E-03 0.  1.
        -12    1    3    3    0    0 -0.40322393185E+02 -0.16549137052E+02  0.20412533003E+01  0.43634115602E+02  0.00000000000E+00 0.  1.
</event>
<event>
 7    1  0.1654239E-015  0.9000779E+02  0.7816164E-02  0.1186339E+00
        -11   -1    0    0    0    0  0.00000000000E+00  0.00000000000E+00  0.45593999997E+02  0.45594000000E+02  0.51100000000E-03 0. -1.
         11   -1    0    0    0    0 -0.00000000000E+00 -0.00000000000E+00 -0.45593999997E+02  0.45594000000E+02  0.51100000000E-03 0.  1.
    9900012    2    1    2    0    0  0.48606878368E+00  0.18826560583E+00  0.10588570185E+01  0.90007794515E+02  0.90000056603E+02 0.  0.
        -12    1    1    2    0    0 -0.48606878368E+00 -0.18826560583E+00 -0.10588570185E+01  0.11802054848E+01  0.00000000000E+00 0.  1.
         11    1    3    3    0    0 -0.61898566940E+01  0.23667145024E+02  0.96227158598E+01  0.26287729842E+02  0.51100000000E-03 0. -1.
        -11    1    3    3    0    0 -0.94443762911E+01  0.14644755098E+02  0.79524252882E+01  0.19154794795E+02  0.51100000000E-03 0.  1.
        -12    1    3    3    0    0  0.16120301769E+02 -0.38123634516E+02 -0.16516284130E+02  0.44565269878E+02  0.00000000000E+00 0.  1.
</event>
<event>
 7    1  0.1654239E-015  0.9000778E+02  0.7816164E-02  0.1186339E+00
        -11   -1    0    0    0    0  0.00000000000E+00  0.00000000000E+00  0.45593999997E+02  0.45594000000E+02  0.51100000000E-03 0.  1.
         11   -1    0    0    0    0 -0.00000000000E+00 -0.00000000000E+00 -0.45593999997E+02  0.45594000000E+02  0.51100000000E-03 0. -1.
    9900012    2    1    2    0    0 -0.21908586067E+00  0.53191911846E+00 -0.10305268831E+01  0.90007778741E+02  0.90000040621E+02 0.  0.
        -12    1    1    2    0    0  0.21908586067E+00 -0.53191911846E+00  0.10305268831E+01  0.11802212588E+01  0.00000000000E+00 0.  1.
         11    1    3    3    0    0 -0.44142089775E+01  0.17635639160E+01 -0.10342271403E+02  0.11382353738E+02  0.51100000000E-03 0. -1.
        -11    1    3    3    0    0 -0.16236511451E+01  0.25471986103E+02  0.33509082490E+02  0.42122641520E+02  0.51100000000E-03 0.  1.
         12    1    3    3    0    0  0.58187742619E+01 -0.26703630900E+02 -0.24197337970E+02  0.36502783483E+02  0.00000000000E+00 0. -1.
</event>
<event>
 7    1  0.1654239E-015  0.9000837E+02  0.7816164E-02  0.1186338E+00
        -11   -1    0    0    0    0  0.00000000000E+00  0.00000000000E+00  0.45593999997E+02  0.45594000000E+02  0.51100000000E-03 0.  1.
         11   -1    0    0    0    0 -0.00000000000E+00 -0.00000000000E+00 -0.45593999997E+02  0.45594000000E+02  0.51100000000E-03 0. -1.
    9900012    2    1    2    0    0 -0.31654321078E+00 -0.64362602451E+00 -0.93651991158E+00  0.90008371411E+02  0.90000641111E+02 0.  0.
        -12    1    1    2    0    0  0.31654321078E+00  0.64362602451E+00  0.93651991158E+00  0.11796285892E+01  0.00000000000E+00 0.  1.
         11    1    3    3    0    0 -0.27210183046E+02  0.25405479490E+02 -0.86916450232E+01  0.38227962841E+02  0.51100000000E-03 0. -1.
        -11    1    3    3    0    0 -0.84492120359E+01 -0.68928543343E+01  0.39221663656E+00  0.10911207956E+02  0.51100000000E-03 0.  1.
        -12    1    3    3    0    0  0.35342851871E+02 -0.19156251180E+02  0.73629084751E+01  0.40869200614E+02  0.00000000000E+00 0.  1.
</event>
<event>
 7    1  0.1654239E-015  0.9000768E+02  0.7816164E-02  0.1186339E+00
        -11   -1    0    0    0    0  0.00000000000E+00  0.00000000000E+00  0.45593999997E+02  0.45594000000E+02  0.51100000000E-03 0.  1.
         11   -1    0    0    0    0 -0.00000000000E+00 -0.00000000000E+00 -0.45593999997E+02  0.45594000000E+02  0.51100000000E-03 0. -1.
    9900012    2    1    2    0    0 -0.47078531437E+00  0.22044832484E-01 -0.10821413088E+01  0.90007680298E+02  0.89999940878E+02 0.  0.
        -12    1    1    2    0    0  0.47078531437E+00 -0.22044832484E-01  0.10821413088E+01  0.11803197021E+01  0.00000000000E+00 0.  1.
         11    1    3    3    0    0 -0.28565104747E+02  0.13861041715E+02 -0.12083658132E+02  0.33972172152E+02  0.51100000000E-03 0. -1.
        -11    1    3    3    0    0 -0.71110038677E+01  0.96859986498E+01 -0.90875232656E+00  0.12050343435E+02  0.51100000000E-03 0.  1.
        -12    1    3    3    0    0  0.35205323300E+02 -0.23524995532E+02  0.11910269149E+02  0.43985164711E+02  0.00000000000E+00 0.  1.
</event>
<event>
 7    1  0.1654239E-015  0.9000775E+02  0.7816164E-02  0.1186339E+00
        -11   -1    0    0    0    0  0.00000000000E+00  0.00000000000E+00  0.45593999997E+02  0.45594000000E+02  0.51100000000E-03 0. -1.
         11   -1    0    0    0    0 -0.00000000000E+00 -0.00000000000E+00 -0.45593999997E+02  0.45594000000E+02  0.51100000000E-03 0.  1.
    9900012    2    1    2    0    0 -0.35605179387E+00 -0.91460862024E+00  0.65552531827E+00  0.90007747802E+02  0.90000009273E+02 0.  0.
        -12    1    1    2    0    0  0.35605179387E+00  0.91460862024E+00 -0.65552531827E+00  0.11802521981E+01  0.00000000000E+00 0.  1.
         11    1    3    3    0    0  0.17420631444E+02 -0.32645564112E+02  0.23729124467E+02  0.43957736570E+02  0.51100000000E-03 0. -1.
        -11    1    3    3    0    0 -0.13240411818E+01 -0.20793628336E+00 -0.62257377076E+01  0.63683697140E+01  0.51100000000E-03 0.  1.
        -12    1    3    3    0    0 -0.16452642056E+02  0.31938891775E+02 -0.16847861441E+02  0.39681641518E+02  0.00000000000E+00 0.  1.
</event>
<event>
 7    1  0.1654239E-015  0.9000776E+02  0.7816164E-02  0.1186339E+00
        -11   -1    0    0    0    0  0.00000000000E+00  0.00000000000E+00  0.45593999997E+02  0.45594000000E+02  0.51100000000E-03 0.  1.
         11   -1    0    0    0    0 -0.00000000000E+00 -0.00000000000E+00 -0.45593999997E+02  0.45594000000E+02  0.51100000000E-03 0. -1.
    9900012    2    1    2    0    0 -0.13913617535E+00  0.77360690986E+00 -0.88042019835E+00  0.90007760087E+02  0.90000021720E+02 0.  0.
        -12    1    1    2    0    0  0.13913617535E+00 -0.77360690986E+00  0.88042019835E+00  0.11802399129E+01  0.00000000000E+00 0.  1.
         11    1    3    3    0    0 -0.37977319498E+01 -0.24968004209E+01  0.89244713944E+01  0.10015137055E+02  0.51100000000E-03 0. -1.
        -11    1    3    3    0    0 -0.65200176553E+01 -0.86743255885E+00  0.34102658514E+02  0.34731173136E+02  0.51100000000E-03 0.  1.
         12    1    3    3    0    0  0.10178613430E+02  0.41378398896E+01 -0.43907550106E+02  0.45261449896E+02  0.00000000000E+00 0. -1.
</event>
<event>
 7    1  0.1654239E-015  0.9000763E+02  0.7816164E-02  0.1186339E+00
        -11   -1    0    0    0    0  0.00000000000E+00  0.00000000000E+00  0.45593999997E+02  0.45594000000E+02  0.51100000000E-03 0.  1.
         11   -1    0    0    0    0 -0.00000000000E+00 -0.00000000000E+00 -0.45593999997E+02  0.45594000000E+02  0.51100000000E-03 0. -1.
    9900012    2    1    2    0    0  0.92226470260E+00  0.13312086501E+00 -0.72455494180E+00  0.90007630054E+02  0.89999889970E+02 0.  0.
        -12    1    1    2    0    0 -0.92226470260E+00 -0.13312086501E+00  0.72455494180E+00  0.11803699463E+01  0.00000000000E+00 0.  1.
         11    1    3    3    0    0 -0.49513641367E-01  0.49577506517E+01 -0.91501917689E+01  0.10407101075E+02  0.51100000000E-03 0. -1.
        -11    1    3    3    0    0  0.19444779355E+02  0.24788650472E+02  0.25699103196E+02  0.40657355322E+02  0.51100000000E-03 0.  1.
         12    1    3    3    0    0 -0.18473001011E+02 -0.29613280259E+02 -0.17273466369E+02  0.38943173657E+02  0.00000000000E+00 0. -1.
</event>
<event>
 7    1  0.1654239E-015  0.9000772E+02  0.7816164E-02  0.1186339E+00
        -11   -1    0    0    0    0  0.00000000000E+00  0.00000000000E+00  0.45593999997E+02  0.45594000000E+02  0.51100000000E-03 0.  1.
         11   -1    0    0    0    0 -0.00000000000E+00 -0.00000000000E+00 -0.45593999997E+02  0.45594000000E+02  0.51100000000E-03 0. -1.
    9900012    2    1    2    0    0  0.90157056894E+00 -0.62028865753E+00  0.44213001145E+00  0.90007717637E+02  0.89999978710E+02 0.  0.
        -12    1    1    2    0    0 -0.90157056894E+00  0.62028865753E+00 -0.44213001145E+00  0.11802823630E+01  0.00000000000E+00 0.  1.
         11    1    3    3    0    0  0.13172248860E+02  0.37435415862E+02  0.46600481128E+01  0.39957909724E+02  0.51100000000E-03 0. -1.
        -11    1    3    3    0    0  0.83031371311E+00  0.25256671994E+01 -0.68269686526E+01  0.73263849823E+01  0.51100000000E-03 0.  1.
        -12    1    3    3    0    0 -0.13100992004E+02 -0.40581371719E+02  0.26090505512E+01  0.42723422931E+02  0.00000000000E+00 0.  1.
</event>
<event>
 7    1  0.1654239E-015  0.9000769E+02  0.7816164E-02  0.1186339E+00
        -11   -1    0    0    0    0  0.00000000000E+00  0.00000000000E+00  0.45593999997E+02  0.45594000000E+02  0.51100000000E-03 0. -1.
         11   -1    0    0    0    0 -0.00000000000E+00 -0.00000000000E+00 -0.45593999997E+02  0.45594000000E+02  0.51100000000E-03 0.  1.
    9900012    2    1    2    0    0  0.10208414646E+01 -0.39110480103E+00  0.44504162897E+00  0.90007685503E+02  0.89999946151E+02 0.  0.
        -12    1    1    2    0    0 -0.10208414646E+01  0.39110480103E+00 -0.44504162897E+00  0.11803144974E+01  0.00000000000E+00 0.  1.
         11    1    3    3    0    0 -0.13488030042E+01 -0.16852022489E+02  0.39184802667E+02  0.42676207562E+02  0.51100000000E-03 0. -1.
        -11    1    3    3    0    0  0.81424617701E+01  0.19820721467E+01 -0.40644652876E+01  0.93138698728E+01  0.51100000000E-03 0.  1.
        -12    1    3    3    0    0 -0.57728173013E+01  0.14478845541E+02 -0.34675295751E+02  0.38017608068E+02  0.00000000000E+00 0.  1.
</event>
<event>
 7    1  0.1654239E-015  0.9000771E+02  0.7816164E-02  0.1186339E+00
        -11   -1    0    0    0    0  0.00000000000E+00  0.00000000000E+00  0.45593999997E+02  0.45594000000E+02  0.51100000000E-03 0. -1.
         11   -1    0    0    0    0 -0.00000000000E+00 -0.00000000000E+00 -0.45593999997E+02  0.45594000000E+02  0.51100000000E-03 0.  1.
    9900012    2    1    2    0    0 -0.12351043193E+00 -0.11454960281E+01  0.25625423773E+00  0.90007710963E+02  0.89999971947E+02 0.  0.
        -12    1    1    2    0    0  0.12351043193E+00  0.11454960281E+01 -0.25625423773E+00  0.11802890373E+01  0.00000000000E+00 0.  1.
         11    1    3    3    0    0 -0.45920485952E+01 -0.34304875056E+01  0.43708379640E+02  0.44082622493E+02  0.51100000000E-03 0. -1.
        -11    1    3    3    0    0 -0.39636797748E+01 -0.24225189213E+01 -0.87801114471E+01  0.99332629365E+01  0.51100000000E-03 0.  1.
        -12    1    3    3    0    0  0.84322179381E+01  0.47075103988E+01 -0.34672013955E+02  0.35991825533E+02  0.00000000000E+00 0.  1.
</event>
<event>
 7    1  0.1654239E-015  0.9000779E+02  0.7816164E-02  0.1186339E+00
        -11   -1    0    0    0    0  0.00000000000E+00  0.00000000000E+00  0.45593999997E+02  0.45594000000E+02  0.51100000000E-03 0.  1.
         11   -1    0    0    0    0 -0.00000000000E+00 -0.00000000000E+00 -0.45593999997E+02  0.45594000000E+02  0.51100000000E-03 0. -1.
    9900012    2    1    2    0    0  0.68433331178E+00  0.70130905718E+00 -0.65784491642E+00  0.90007785439E+02  0.90000047407E+02 0.  0.
        -12    1    1    2    0    0 -0.68433331178E+00 -0.70130905718E+00  0.65784491642E+00  0.11802145607E+01  0.00000000000E+00 0.  1.
         11    1    3    3    0    0 -0.13577342485E+02 -0.68273946473E+01 -0.50946678586E+01  0.16028511705E+02  0.51100000000E-03 0. -1.
        -11    1    3    3    0    0  0.23671882266E+02 -0.79140942198E+01  0.32264335765E+02  0.40791889634E+02  0.51100000000E-03 0.  1.
         12    1    3    3    0    0 -0.94102064697E+01  0.15442797924E+02 -0.27827512822E+02  0.33187384100E+02  0.00000000000E+00 0. -1.
</event>
<event>
 7    1  0.1654239E-015  0.9000780E+02  0.7816164E-02  0.1186339E+00
        -11   -1    0    0    0    0  0.00000000000E+00  0.00000000000E+00  0.45593999997E+02  0.45594000000E+02  0.51100000000E-03 0.  1.
         11   -1    0    0    0    0 -0.00000000000E+00 -0.00000000000E+00 -0.45593999997E+02  0.45594000000E+02  0.51100000000E-03 0. -1.
    9900012    2    1    2    0    0 -0.10450246018E+01 -0.47672182759E+00  0.27118009593E+00  0.90007797151E+02  0.90000059274E+02 0.  0.
        -12    1    1    2    0    0  0.10450246018E+01  0.47672182759E+00 -0.27118009593E+00  0.11802028486E+01  0.00000000000E+00 0.  1.
         11    1    3    3    0    0 -0.88109234738E+01 -0.33118958224E+01 -0.39212176522E+01  0.10196910049E+02  0.51100000000E-03 0. -1.
        -11    1    3    3    0    0 -0.23630525820E+02 -0.26512898719E+02  0.87944089776E+01  0.36587937610E+02  0.51100000000E-03 0.  1.
         12    1    3    3    0    0  0.31396424692E+02  0.29348072714E+02 -0.46020112294E+01  0.43222949493E+02  0.00000000000E+00 0. -1.
</event>
<event>
 7    1  0.1654239E-015  0.9000772E+02  0.7816164E-02  0.1186339E+00
        -11   -1    0    0    0    0  0.00000000000E+00  0.00000000000E+00  0.45593999997E+02  0.45594000000E+02  0.51100000000E-03 0. -1.
         11   -1    0    0    0    0 -0.00000000000E+00 -0.00000000000E+00 -0.45593999997E+02  0.45594000000E+02  0.51100000000E-03 0.  1.
    9900012    2    1    2    0    0  0.91012465574E+00 -0.32761696966E+00  0.67630913394E+00  0.90007722993E+02  0.89999984137E+02 0.  0.
        -12    1    1    2    0    0 -0.91012465574E+00  0.32761696966E+00 -0.67630913394E+00  0.11802770067E+01  0.00000000000E+00 0.  1.
         11    1    3    3    0    0 -0.25371633587E+02  0.25177694890E+02 -0.15651534925E+02  0.39020592726E+02  0.51100000000E-03 0. -1.
        -11    1    3    3    0    0 -0.18480709853E+01  0.41646474682E+01  0.80833685982E+01  0.92790356749E+01  0.51100000000E-03 0.  1.
        -12    1    3    3    0    0  0.28129829228E+02 -0.29669959328E+02  0.82444754613E+01  0.41708094593E+02  0.00000000000E+00 0.  1.
</event>
<event>
 7    1  0.1654239E-015  0.9000772E+02  0.7816164E-02  0.1186339E+00
        -11   -1    0    0    0    0  0.00000000000E+00  0.00000000000E+00  0.45593999997E+02  0.45594000000E+02  0.51100000000E-03 0.  1.
         11   -1    0    0    0    0 -0.00000000000E+00 -0.00000000000E+00 -0.45593999997E+02  0.45594000000E+02  0.51100000000E-03 0. -1.
    9900012    2    1    2    0    0  0.57175978289E+00  0.83288665655E+00  0.61028089421E+00  0.90007723676E+02  0.89999984828E+02 0.  0.
        -12    1    1    2    0    0 -0.57175978289E+00 -0.83288665655E+00 -0.61028089421E+00  0.11802763244E+01  0.00000000000E+00 0.  1.
         11    1    3    3    0    0  0.98381298429E+01 -0.21529944680E+01  0.13216279747E+00  0.10071824624E+02  0.51100000000E-03 0. -1.
        -11    1    3    3    0    0  0.11642388366E+02  0.37103545946E+02  0.66377813488E+01  0.39449695437E+02  0.51100000000E-03 0.  1.
         12    1    3    3    0    0 -0.20908758426E+02 -0.34117664821E+02 -0.61596632521E+01  0.40486203615E+02  0.00000000000E+00 0. -1.
</event>
<event>
 7    1  0.1654239E-015  0.9000780E+02  0.7816164E-02  0.1186339E+00
        -11   -1    0    0    0    0  0.00000000000E+00  0.00000000000E+00  0.45593999997E+02  0.45594000000E+02  0.51100000000E-03 0. -1.
         11   -1    0    0    0    0 -0.00000000000E+00 -0.00000000000E+00 -0.45593999997E+02  0.45594000000E+02  0.51100000000E-03 0.  1.
    9900012    2    1    2    0    0 -0.48876927945E+00  0.48532560078E-01  0.10731415141E+01  0.90007795133E+02  0.90000057229E+02 0.  0.
        -12    1    1    2    0    0  0.48876927945E+00 -0.48532560078E-01 -0.10731415141E+01  0.11802048666E+01  0.00000000000E+00 0.  1.
         11    1    3    3    0    0  0.17519444703E+02 -0.15930175701E+02  0.30019940382E+02  0.38234778165E+02  0.51100000000E-03 0. -1.
        -11    1    3    3    0    0  0.16846758862E+01  0.86690849970E+01  0.62259026158E+01  0.10805231657E+02  0.51100000000E-03 0.  1.
        -12    1    3    3    0    0 -0.19692889868E+02  0.73096232641E+01 -0.35172701483E+02  0.40967785311E+02  0.00000000000E+00 0.  1.
</event>
<event>
 7    1  0.1654239E-015  0.9000736E+02  0.7816164E-02  0.1186340E+00
        -11   -1    0    0    0    0  0.00000000000E+00  0.00000000000E+00  0.45593999997E+02  0.45594000000E+02  0.51100000000E-03 0. -1.
         11   -1    0    0    0    0 -0.00000000000E+00 -0.00000000000E+00 -0.45593999997E+02  0.45594000000E+02  0.51100000000E-03 0.  1.
    9900012    2    1    2    0    0  0.50004830562E+00 -0.98489702967E+00  0.41692774650E+00  0.90007364911E+02  0.89999621327E+02 0.  0.
        -12    1    1    2    0    0 -0.50004830562E+00  0.98489702967E+00 -0.41692774650E+00  0.11806350888E+01  0.00000000000E+00 0.  1.
         11    1    3    3    0    0 -0.28147431991E+02  0.10756944265E+02  0.20642127445E+02  0.36525158499E+02  0.51100000000E-03 0. -1.
        -11    1    3    3    0    0 -0.96591985908E+01 -0.32790699538E+01 -0.54200319337E+01  0.11551154211E+02  0.51100000000E-03 0.  1.
        -12    1    3    3    0    0  0.38306678888E+02 -0.84627713408E+01 -0.14805167765E+02  0.41931052202E+02  0.00000000000E+00 0.  1.
</event>
<event>
 7    1  0.1654239E-015  0.9000777E+02  0.7816164E-02  0.1186339E+00
        -11   -1    0    0    0    0  0.00000000000E+00  0.00000000000E+00  0.45593999997E+02  0.45594000000E+02  0.51100000000E-03 0.  1.
         11   -1    0    0    0    0 -0.00000000000E+00 -0.00000000000E+00 -0.45593999997E+02  0.45594000000E+02  0.51100000000E-03 0. -1.
    9900012    2    1    2    0    0 -0.64084010162E-01  0.89573760331E+00 -0.76581902273E+00  0.90007774856E+02  0.90000036684E+02 0.  0.
        -12    1    1    2    0    0  0.64084010162E-01 -0.89573760331E+00  0.76581902273E+00  0.11802251437E+01  0.00000000000E+00 0.  1.
         11    1    3    3    0    0 -0.73955428398E+01 -0.49210764868E+01 -0.27844031162E+01  0.93093473810E+01  0.51100000000E-03 0. -1.
        -11    1    3    3    0    0 -0.27043403312E+02  0.26390595666E+02  0.11562698872E+02  0.39515885512E+02  0.51100000000E-03 0.  1.
         12    1    3    3    0    0  0.34374862142E+02 -0.20573781576E+02 -0.95441147790E+01  0.41182541963E+02  0.00000000000E+00 0. -1.
</event>
<event>
 7    1  0.1654239E-015  0.9000780E+02  0.7816164E-02  0.1186339E+00
        -11   -1    0    0    0    0  0.00000000000E+00  0.00000000000E+00  0.45593999997E+02  0.45594000000E+02  0.51100000000E-03 0.  1.
         11   -1    0    0    0    0 -0.00000000000E+00 -0.00000000000E+00 -0.45593999997E+02  0.45594000000E+02  0.51100000000E-03 0. -1.
    9900012    2    1    2    0    0 -0.58286771025E-01 -0.29218180539E+00 -0.11419718294E+01  0.90007802044E+02  0.90000064231E+02 0.  0.
        -12    1    1    2    0    0  0.58286771025E-01  0.29218180539E+00  0.11419718294E+01  0.11801979555E+01  0.00000000000E+00 0.  1.
         11    1    3    3    0    0 -0.90088896136E+00 -0.97540156249E+00  0.92086631238E+01  0.93038962762E+01  0.51100000000E-03 0. -1.
        -11    1    3    3    0    0  0.83376184286E+01 -0.25181960490E+02  0.24874321955E+02  0.36364528158E+02  0.51100000000E-03 0.  1.
         12    1    3    3    0    0 -0.74950162382E+01  0.25865180247E+02 -0.35224956909E+02  0.44339377610E+02  0.00000000000E+00 0. -1.
</event>
<event>
 7    1  0.1654239E-015  0.9000768E+02  0.7816164E-02  0.1186339E+00
        -11   -1    0    0    0    0  0.00000000000E+00  0.00000000000E+00  0.45593999997E+02  0.45594000000E+02  0.51100000000E-03 0. -1.
         11   -1    0    0    0    0 -0.00000000000E+00 -0.00000000000E+00 -0.45593999997E+02  0.45594000000E+02  0.51100000000E-03 0.  1.
    9900012    2    1    2    0    0 -0.36271065666E+00 -0.88556825825E+00 -0.69092425189E+00  0.90007675264E+02  0.89999935778E+02 0.  0.
        -12    1    1    2    0    0  0.36271065666E+00  0.88556825825E+00  0.69092425189E+00  0.11803247360E+01  0.00000000000E+00 0.  1.
         11    1    3    3    0    0 -0.26729308810E+01  0.12626881235E+02  0.15993570049E+01  0.13005407810E+02  0.51100000000E-03 0. -1.
        -11    1    3    3    0    0  0.25368360245E+02 -0.27508172431E+02 -0.22170221937E+02  0.43494505320E+02  0.51100000000E-03 0.  1.
         12    1    3    3    0    0 -0.23058140021E+02  0.13995722938E+02  0.19879940680E+02  0.33507762134E+02  0.00000000000E+00 0. -1.
</event>
<event>
 7    1  0.1670794E-015  0.9000775E+02  0.7816164E-02  0.1186339E+00
        -11   -1    0    0    0    0  0.00000000000E+00  0.00000000000E+00  0.45593999997E+02  0.45594000000E+02  0.51100000000E-03 0.  1.
         11   -1    0    0    0    0 -0.00000000000E+00 -0.00000000000E+00 -0.45593999997E+02  0.45594000000E+02  0.51100000000E-03 0. -1.
    9900012    2    1    2    0    0 -0.10970657842E+01  0.42921053468E+00  0.72203840688E-01  0.90007750699E+02  0.90000012208E+02 0.  0.
        -12    1    1    2    0    0  0.10970657842E+01 -0.42921053468E+00 -0.72203840688E-01  0.11802493010E+01  0.00000000000E+00 0.  1.
         11    1    3    3    0    0  0.49903972730E+01  0.30693330196E+01 -0.75468405826E+01  0.95540396256E+01  0.51100000000E-03 0. -1.
        -11    1    3    3    0    0  0.30843326586E+02  0.92946759248E+01  0.22059923943E+02  0.39042823157E+02  0.51100000000E-03 0.  1.
         12    1    3    3    0    0 -0.36930789643E+02 -0.11934798410E+02 -0.14440879520E+02  0.41410887917E+02  0.00000000000E+00 0. -1.
</event>
<event>
 7    1  0.1654239E-015  0.9000773E+02  0.7816164E-02  0.1186339E+00
        -11   -1    0    0    0    0  0.00000000000E+00  0.00000000000E+00  0.45593999997E+02  0.45594000000E+02  0.51100000000E-03 0. -1.
         11   -1    0    0    0    0 -0.00000000000E+00 -0.00000000000E+00 -0.45593999997E+02  0.45594000000E+02  0.51100000000E-03 0.  1.
    9900012    2    1    2    0    0 -0.10566304772E-01 -0.11552528897E+01 -0.24149137994E+00  0.90007729280E+02  0.89999990506E+02 0.  0.
        -12    1    1    2    0    0  0.10566304772E-01  0.11552528897E+01  0.24149137994E+00  0.11802707200E+01  0.00000000000E+00 0.  1.
         11    1    3    3    0    0 -0.27448373940E+02 -0.41980413130E+01  0.24998985359E+02  0.37362896730E+02  0.51100000000E-03 0. -1.
        -11    1    3    3    0    0 -0.86469831462E+01  0.51154601945E+01 -0.50768750218E+01  0.11256682939E+02  0.51100000000E-03 0.  1.
        -12    1    3    3    0    0  0.36084790782E+02 -0.20726717712E+01 -0.20163601717E+02  0.41388149611E+02  0.00000000000E+00 0.  1.
</event>
<event>
 7    1  0.1654239E-015  0.9000779E+02  0.7816164E-02  0.1186339E+00
        -11   -1    0    0    0    0  0.00000000000E+00  0.00000000000E+00  0.45593999997E+02  0.45594000000E+02  0.51100000000E-03 0. -1.
         11   -1    0    0    0    0 -0.00000000000E+00 -0.00000000000E+00 -0.45593999997E+02  0.45594000000E+02  0.51100000000E-03 0.  1.
    9900012    2    1    2    0    0  0.59166392612E+00  0.63591495461E+00  0.79902442821E+00  0.90007790668E+02  0.90000052705E+02 0.  0.
        -12    1    1    2    0    0 -0.59166392612E+00 -0.63591495461E+00 -0.79902442821E+00  0.11802093322E+01  0.00000000000E+00 0.  1.
         11    1    3    3    0    0 -0.39411793184E+02  0.94913222590E+01  0.90265393520E-01  0.40538657949E+02  0.51100000000E-03 0. -1.
        -11    1    3    3    0    0  0.39223619372E+01  0.80528366540E+01 -0.30102140825E+01  0.94495762036E+01  0.51100000000E-03 0.  1.
        -12    1    3    3    0    0  0.36081095173E+02 -0.16908243958E+02  0.37189731172E+01  0.40019556515E+02  0.00000000000E+00 0.  1.
</event>
<event>
 7    1  0.1654239E-015  0.9000774E+02  0.7816164E-02  0.1186339E+00
        -11   -1    0    0    0    0  0.00000000000E+00  0.00000000000E+00  0.45593999997E+02  0.45594000000E+02  0.51100000000E-03 0.  1.
         11   -1    0    0    0    0 -0.00000000000E+00 -0.00000000000E+00 -0.45593999997E+02  0.45594000000E+02  0.51100000000E-03 0. -1.
    9900012    2    1    2    0    0  0.31644682406E+00 -0.67793428849E+00 -0.91284007746E+00  0.90007741342E+02  0.90000002728E+02 0.  0.
        -12    1    1    2    0    0 -0.31644682406E+00  0.67793428849E+00  0.91284007746E+00  0.11802586577E+01  0.00000000000E+00 0.  1.
         11    1    3    3    0    0  0.17615720702E+02  0.17635808886E+02 -0.30026506938E+02  0.39024690774E+02  0.51100000000E-03 0. -1.
        -11    1    3    3    0    0  0.62166272316E+01 -0.18245190613E+01 -0.36312698477E+01  0.74270751248E+01  0.51100000000E-03 0.  1.
        -12    1    3    3    0    0 -0.23515901109E+02 -0.16489224113E+02  0.32744936708E+02  0.43555975443E+02  0.00000000000E+00 0.  1.
</event>
<event>
 7    1  0.1654239E-015  0.9000771E+02  0.7816164E-02  0.1186339E+00
        -11   -1    0    0    0    0  0.00000000000E+00  0.00000000000E+00  0.45593999997E+02  0.45594000000E+02  0.51100000000E-03 0.  1.
         11   -1    0    0    0    0 -0.00000000000E+00 -0.00000000000E+00 -0.45593999997E+02  0.45594000000E+02  0.51100000000E-03 0. -1.
    9900012    2    1    2    0    0 -0.87579834128E+00  0.57214776275E+00 -0.54654765942E+00  0.90007707604E+02  0.89999968544E+02 0.  0.
        -12    1    1    2    0    0  0.87579834128E+00 -0.57214776275E+00  0.54654765942E+00  0.11802923964E+01  0.00000000000E+00 0.  1.
         11    1    3    3    0    0 -0.18860699094E+02  0.99596202107E+01 -0.33702424031E+02  0.39884500635E+02  0.51100000000E-03 0. -1.
        -11    1    3    3    0    0  0.61673717707E+00 -0.71751367003E+01 -0.45722427962E+01  0.85304370265E+01  0.51100000000E-03 0.  1.
        -12    1    3    3    0    0  0.17368163576E+02 -0.22123357476E+01  0.37728119168E+02  0.41592769942E+02  0.00000000000E+00 0.  1.
</event>
<event>
 7    1  0.1654239E-015  0.9000778E+02  0.7816164E-02  0.1186339E+00
        -11   -1    0    0    0    0  0.00000000000E+00  0.00000000000E+00  0.45593999997E+02  0.45594000000E+02  0.51100000000E-03 0.  1.
         11   -1    0    0    0    0 -0.00000000000E+00 -0.00000000000E+00 -0.45593999997E+02  0.45594000000E+02  0.51100000000E-03 0. -1.
    9900012    2    1    2    0    0 -0.10391909464E+01  0.38950019826E+00 -0.40162420097E+00  0.90007775349E+02  0.90000037184E+02 0.  0.
        -12    1    1    2    0    0  0.10391909464E+01 -0.38950019826E+00  0.40162420097E+00  0.11802246508E+01  0.00000000000E+00 0.  1.
         11    1    3    3    0    0 -0.39475314393E+01 -0.65206546451E+01  0.46997043732E+01  0.89548401952E+01  0.51100000000E-03 0. -1.
        -11    1    3    3    0    0 -0.10011114843E+02  0.10308516676E+01  0.36099215682E+02  0.37475838199E+02  0.51100000000E-03 0.  1.
         12    1    3    3    0    0  0.12919455336E+02  0.58793031758E+01 -0.41200544256E+02  0.43577096955E+02  0.00000000000E+00 0. -1.
</event>
<event>
 7    1  0.1654239E-015  0.9000746E+02  0.7816164E-02  0.1186340E+00
        -11   -1    0    0    0    0  0.00000000000E+00  0.00000000000E+00  0.45593999997E+02  0.45594000000E+02  0.51100000000E-03 0.  1.
         11   -1    0    0    0    0 -0.00000000000E+00 -0.00000000000E+00 -0.45593999997E+02  0.45594000000E+02  0.51100000000E-03 0. -1.
    9900012    2    1    2    0    0 -0.90432985187E+00  0.67349562630E+00  0.34966668586E+00  0.90007459602E+02  0.89999717269E+02 0.  0.
        -12    1    1    2    0    0  0.90432985187E+00 -0.67349562630E+00 -0.34966668586E+00  0.11805403978E+01  0.00000000000E+00 0.  1.
         11    1    3    3    0    0  0.98429786134E+01  0.28078090557E+01  0.28046572620E+00  0.10239466830E+02  0.51100000000E-03 0. -1.
        -11    1    3    3    0    0 -0.65959001168E+01  0.37330180354E+02  0.92865235582E+01  0.39029319539E+02  0.51100000000E-03 0.  1.
         12    1    3    3    0    0 -0.41514083485E+01 -0.39464493784E+02 -0.92173225985E+01  0.40738673233E+02  0.00000000000E+00 0. -1.
</event>
<event>
 7    1  0.1654239E-015  0.9000771E+02  0.7816164E-02  0.1186339E+00
        -11   -1    0    0    0    0  0.00000000000E+00  0.00000000000E+00  0.45593999997E+02  0.45594000000E+02  0.51100000000E-03 0. -1.
         11   -1    0    0    0    0 -0.00000000000E+00 -0.00000000000E+00 -0.45593999997E+02  0.45594000000E+02  0.51100000000E-03 0.  1.
    9900012    2    1    2    0    0 -0.32748175081E+00  0.10320045997E+01  0.46991203029E+00  0.90007705500E+02  0.89999966412E+02 0.  0.
        -12    1    1    2    0    0  0.32748175081E+00 -0.10320045997E+01 -0.46991203029E+00  0.11802945002E+01  0.00000000000E+00 0.  1.
         11    1    3    3    0    0 -0.92021661444E+01  0.38587638648E+02  0.66101362566E+01  0.40216658486E+02  0.51100000000E-03 0. -1.
        -11    1    3    3    0    0 -0.60520810575E+01  0.12600742746E+00 -0.69963141861E+01  0.92515931304E+01  0.51100000000E-03 0.  1.
        -12    1    3    3    0    0  0.14926765451E+02 -0.37681641476E+02  0.85608995974E+00  0.40539453883E+02  0.00000000000E+00 0.  1.
</event>
<event>
 7    1  0.1654239E-015  0.9000764E+02  0.7816164E-02  0.1186339E+00
        -11   -1    0    0    0    0  0.00000000000E+00  0.00000000000E+00  0.45593999997E+02  0.45594000000E+02  0.51100000000E-03 0.  1.
         11   -1    0    0    0    0 -0.00000000000E+00 -0.00000000000E+00 -0.45593999997E+02  0.45594000000E+02  0.51100000000E-03 0. -1.
    9900012    2    1    2    0    0 -0.71347884325E+00  0.87241349335E+00 -0.35083184486E+00  0.90007643975E+02  0.89999904075E+02 0.  0.
        -12    1    1    2    0    0  0.71347884325E+00 -0.87241349335E+00  0.35083184486E+00  0.11803560253E+01  0.00000000000E+00 0.  1.
         11    1    3    3    0    0 -0.25383085873E+01  0.75402874948E+00 -0.10395928806E+02  0.10727856535E+02  0.51100000000E-03 0. -1.
        -11    1    3    3    0    0 -0.38099173262E+02  0.49684306221E+01  0.51562304804E+01  0.38766209759E+02  0.51100000000E-03 0.  1.
         12    1    3    3    0    0  0.39924003006E+02 -0.48500458782E+01  0.48888664806E+01  0.40513577681E+02  0.00000000000E+00 0. -1.
</event>
<event>
 7    1  0.1654239E-015  0.9000774E+02  0.7816164E-02  0.1186339E+00
        -11   -1    0    0    0    0  0.00000000000E+00  0.00000000000E+00  0.45593999997E+02  0.45594000000E+02  0.51100000000E-03 0.  1.
         11   -1    0    0    0    0 -0.00000000000E+00 -0.00000000000E+00 -0.45593999997E+02  0.45594000000E+02  0.51100000000E-03 0. -1.
    9900012    2    1    2    0    0 -0.58265256707E+00 -0.68702418408E+00 -0.76257704764E+00  0.90007741555E+02  0.90000002944E+02 0.  0.
        -12    1    1    2    0    0  0.58265256707E+00  0.68702418408E+00  0.76257704764E+00  0.11802584450E+01  0.00000000000E+00 0.  1.
         11    1    3    3    0    0 -0.32029590668E+01  0.86859345767E+01 -0.35441936929E+01  0.99129065086E+01  0.51100000000E-03 0. -1.
        -11    1    3    3    0    0  0.18178436695E+02  0.31145166463E+02 -0.35356640566E+01  0.36235036571E+02  0.51100000000E-03 0.  1.
         12    1    3    3    0    0 -0.15558130195E+02 -0.40518125224E+02  0.63172807019E+01  0.43859798476E+02  0.00000000000E+00 0. -1.
</event>
<event>
 7    1  0.1654239E-015  0.9000774E+02  0.7816164E-02  0.1186339E+00
        -11   -1    0    0    0    0  0.00000000000E+00  0.00000000000E+00  0.45593999997E+02  0.45594000000E+02  0.51100000000E-03 0.  1.
         11   -1    0    0    0    0 -0.00000000000E+00 -0.00000000000E+00 -0.45593999997E+02  0.45594000000E+02  0.51100000000E-03 0. -1.
    9900012    2    1    2    0    0 -0.36268159196E+00  0.26323943681E+00 -0.10918680907E+01  0.90007742034E+02  0.90000003429E+02 0.  0.
        -12    1    1    2    0    0  0.36268159196E+00 -0.26323943681E+00  0.10918680907E+01  0.11802579657E+01  0.00000000000E+00 0.  1.
         11    1    3    3    0    0 -0.19259633855E+02  0.26568590987E+02 -0.15569661462E+02  0.36321314426E+02  0.51100000000E-03 0. -1.
        -11    1    3    3    0    0 -0.42806048360E+00  0.96337628040E+01 -0.16984575541E+01  0.97916995392E+01  0.51100000000E-03 0.  1.
        -12    1    3    3    0    0  0.19325012747E+02 -0.35939114355E+02  0.16176250926E+02  0.43894728069E+02  0.00000000000E+00 0.  1.
</event>
<event>
 7    1  0.1654239E-015  0.9000809E+02  0.7816164E-02  0.1186338E+00
        -11   -1    0    0    0    0  0.00000000000E+00  0.00000000000E+00  0.45593999997E+02  0.45594000000E+02  0.51100000000E-03 0.  1.
         11   -1    0    0    0    0 -0.00000000000E+00 -0.00000000000E+00 -0.45593999997E+02  0.45594000000E+02  0.51100000000E-03 0. -1.
    9900012    2    1    2    0    0 -0.69749396766E+00 -0.83118823898E+00  0.46348279490E+00  0.90008089823E+02  0.90000355808E+02 0.  0.
        -12    1    1    2    0    0  0.69749396766E+00  0.83118823898E+00 -0.46348279490E+00  0.11799101765E+01  0.00000000000E+00 0.  1.
         11    1    3    3    0    0 -0.16922624593E+01  0.81948580664E+01  0.70427014875E+01  0.10937051498E+02  0.51100000000E-03 0. -1.
        -11    1    3    3    0    0  0.24682397316E+02 -0.49249807480E+01  0.27555872577E+02  0.37320266429E+02  0.51100000000E-03 0.  1.
         12    1    3    3    0    0 -0.23687628824E+02 -0.41010655574E+01 -0.34135091269E+02  0.41750771897E+02  0.00000000000E+00 0. -1.
</event>
<event>
 7    1  0.1654239E-015  0.9000775E+02  0.7816164E-02  0.1186339E+00
        -11   -1    0    0    0    0  0.00000000000E+00  0.00000000000E+00  0.45593999997E+02  0.45594000000E+02  0.51100000000E-03 0.  1.
         11   -1    0    0    0    0 -0.00000000000E+00 -0.00000000000E+00 -0.45593999997E+02  0.45594000000E+02  0.51100000000E-03 0. -1.
    9900012    2    1    2    0    0  0.10320669790E+00 -0.10911862069E+01 -0.43778690248E+00  0.90007747344E+02  0.90000008809E+02 0.  0.
        -12    1    1    2    0    0 -0.10320669790E+00  0.10911862069E+01  0.43778690248E+00  0.11802526562E+01  0.00000000000E+00 0.  1.
         11    1    3    3    0    0 -0.81869313905E+01 -0.48871969023E+01 -0.57456307301E+01  0.11132062338E+02  0.51100000000E-03 0. -1.
        -11    1    3    3    0    0 -0.10727401515E+02  0.37386582698E+01  0.38762790287E+02  0.40393175414E+02  0.51100000000E-03 0.  1.
         12    1    3    3    0    0  0.19017539603E+02  0.57352425596E-01 -0.33454946460E+02  0.38482509592E+02  0.00000000000E+00 0. -1.
</event>
<event>
 7    1  0.1654239E-015  0.9000774E+02  0.7816164E-02  0.1186339E+00
        -11   -1    0    0    0    0  0.00000000000E+00  0.00000000000E+00  0.45593999997E+02  0.45594000000E+02  0.51100000000E-03 0.  1.
         11   -1    0    0    0    0 -0.00000000000E+00 -0.00000000000E+00 -0.45593999997E+02  0.45594000000E+02  0.51100000000E-03 0. -1.
    9900012    2    1    2    0    0 -0.10141530948E+01  0.40722295722E+00 -0.44572002438E+00  0.90007744360E+02  0.90000005785E+02 0.  0.
        -12    1    1    2    0    0  0.10141530948E+01 -0.40722295722E+00  0.44572002438E+00  0.11802556404E+01  0.00000000000E+00 0.  1.
         11    1    3    3    0    0 -0.36406706892E+02  0.69049619747E+01 -0.19615603932E+02  0.41927302852E+02  0.51100000000E-03 0. -1.
        -11    1    3    3    0    0  0.36333021677E+01 -0.80882819249E+01 -0.29498164458E+01  0.93446565728E+01  0.51100000000E-03 0.  1.
        -12    1    3    3    0    0  0.31759251629E+02  0.15905429074E+01  0.22119700354E+02  0.38735784935E+02  0.00000000000E+00 0.  1.
</event>
<event>
 7    1  0.1654239E-015  0.9000771E+02  0.7816164E-02  0.1186339E+00
        -11   -1    0    0    0    0  0.00000000000E+00  0.00000000000E+00  0.45593999997E+02  0.45594000000E+02  0.51100000000E-03 0. -1.
         11   -1    0    0    0    0 -0.00000000000E+00 -0.00000000000E+00 -0.45593999997E+02  0.45594000000E+02  0.51100000000E-03 0.  1.
    9900012    2    1    2    0    0 -0.60007531948E+00 -0.98426588217E+00  0.25340607299E+00  0.90007710055E+02  0.89999971028E+02 0.  0.
        -12    1    1    2    0    0  0.60007531948E+00  0.98426588217E+00 -0.25340607299E+00  0.11802899447E+01  0.00000000000E+00 0.  1.
         11    1    3    3    0    0  0.29040832008E+02  0.67630530551E+01  0.21470671672E+02  0.36743687249E+02  0.51100000000E-03 0. -1.
        -11    1    3    3    0    0 -0.56013605203E+00  0.51604886582E+01  0.83486495668E+01  0.98307855962E+01  0.51100000000E-03 0.  1.
        -12    1    3    3    0    0 -0.29080771276E+02 -0.12907807595E+02 -0.29565915166E+02  0.43433237210E+02  0.00000000000E+00 0.  1.
</event>
<event>
 7    1  0.1654239E-015  0.9000773E+02  0.7816164E-02  0.1186339E+00
        -11   -1    0    0    0    0  0.00000000000E+00  0.00000000000E+00  0.45593999997E+02  0.45594000000E+02  0.51100000000E-03 0.  1.
         11   -1    0    0    0    0 -0.00000000000E+00 -0.00000000000E+00 -0.45593999997E+02  0.45594000000E+02  0.51100000000E-03 0. -1.
    9900012    2    1    2    0    0 -0.53154107872E+00  0.51115424963E+00 -0.92153264700E+00  0.90007730114E+02  0.89999991351E+02 0.  0.
        -12    1    1    2    0    0  0.53154107872E+00 -0.51115424963E+00  0.92153264700E+00  0.11802698864E+01  0.00000000000E+00 0.  1.
         11    1    3    3    0    0 -0.23929686588E+02  0.22171620050E+02 -0.13554416236E+02  0.35326092844E+02  0.51100000000E-03 0. -1.
        -11    1    3    3    0    0 -0.11333301395E+02 -0.43739593323E+01 -0.35349763645E+01  0.12651928664E+02  0.51100000000E-03 0.  1.
        -12    1    3    3    0    0  0.34731446905E+02 -0.17286506468E+02  0.16167859954E+02  0.42029708606E+02  0.00000000000E+00 0.  1.
</event>
<event>
 7    1  0.1654239E-015  0.9000756E+02  0.7816164E-02  0.1186339E+00
        -11   -1    0    0    0    0  0.00000000000E+00  0.00000000000E+00  0.45593999997E+02  0.45594000000E+02  0.51100000000E-03 0. -1.
         11   -1    0    0    0    0 -0.00000000000E+00 -0.00000000000E+00 -0.45593999997E+02  0.45594000000E+02  0.51100000000E-03 0.  1.
    9900012    2    1    2    0    0 -0.82422274419E+00 -0.23009191481E+00  0.81311164715E+00  0.90007561110E+02  0.89999820117E+02 0.  0.
        -12    1    1    2    0    0  0.82422274419E+00  0.23009191481E+00 -0.81311164715E+00  0.11804388896E+01  0.00000000000E+00 0.  1.
         11    1    3    3    0    0  0.20796158434E+02  0.40892350874E+01  0.39584107219E+02  0.44901042236E+02  0.51100000000E-03 0. -1.
        -11    1    3    3    0    0 -0.62186078561E+01  0.47738621555E+00 -0.63865710049E+01  0.89267726939E+01  0.51100000000E-03 0.  1.
        -12    1    3    3    0    0 -0.15401773322E+02 -0.47967132177E+01 -0.32384424567E+02  0.36179746181E+02  0.00000000000E+00 0.  1.
</event>
<event>
 7    1  0.1654239E-015  0.9000775E+02  0.7816164E-02  0.1186339E+00
        -11   -1    0    0    0    0  0.00000000000E+00  0.00000000000E+00  0.45593999997E+02  0.45594000000E+02  0.51100000000E-03 0. -1.
         11   -1    0    0    0    0 -0.00000000000E+00 -0.00000000000E+00 -0.45593999997E+02  0.45594000000E+02  0.51100000000E-03 0.  1.
    9900012    2    1    2    0    0 -0.39634042472E+00 -0.96534769980E+00  0.55137588330E+00  0.90007746943E+02  0.90000008403E+02 0.  0.
        -12    1    1    2    0    0  0.39634042472E+00  0.96534769980E+00 -0.55137588330E+00  0.11802530570E+01  0.00000000000E+00 0.  1.
         11    1    3    3    0    0 -0.16327956954E+02 -0.18608908528E+02 -0.15458489686E+02  0.29186616086E+02  0.51100000000E-03 0. -1.
        -11    1    3    3    0    0 -0.17006529265E+02 -0.60776294489E+01  0.41055346884E+01  0.18520665017E+02  0.51100000000E-03 0.  1.
        -12    1    3    3    0    0  0.32938145794E+02  0.23721190277E+02  0.11904330881E+02  0.42300465840E+02  0.00000000000E+00 0.  1.
</event>
<event>
 7    1  0.1654239E-015  0.9000772E+02  0.7816164E-02  0.1186339E+00
        -11   -1    0    0    0    0  0.00000000000E+00  0.00000000000E+00  0.45593999997E+02  0.45594000000E+02  0.51100000000E-03 0. -1.
         11   -1    0    0    0    0 -0.00000000000E+00 -0.00000000000E+00 -0.45593999997E+02  0.45594000000E+02  0.51100000000E-03 0.  1.
    9900012    2    1    2    0    0  0.71380248361E+00  0.88459239060E+00 -0.31786212943E+00  0.90007722907E+02  0.89999984049E+02 0.  0.
        -12    1    1    2    0    0 -0.71380248361E+00 -0.88459239060E+00  0.31786212943E+00  0.11802770931E+01  0.00000000000E+00 0.  1.
         11    1    3    3    0    0  0.40151152118E+00  0.11241906921E+02 -0.51058429159E+01  0.12353595220E+02  0.51100000000E-03 0. -1.
        -11    1    3    3    0    0  0.11612312652E+02 -0.11177339499E+02 -0.33795201421E+02  0.37441879797E+02  0.51100000000E-03 0.  1.
         12    1    3    3    0    0 -0.11300021690E+02  0.82002496872E+00  0.38583182207E+02  0.40212247890E+02  0.00000000000E+00 0. -1.
</event>
<event>
 7    1  0.1654239E-015  0.9000814E+02  0.7816164E-02  0.1186338E+00
        -11   -1    0    0    0    0  0.00000000000E+00  0.00000000000E+00  0.45593999997E+02  0.45594000000E+02  0.51100000000E-03 0.  1.
         11   -1    0    0    0    0 -0.00000000000E+00 -0.00000000000E+00 -0.45593999997E+02  0.45594000000E+02  0.51100000000E-03 0. -1.
    9900012    2    1    2    0    0  0.10971691511E+01 -0.41136085074E+00 -0.13808176102E+00  0.90008142183E+02  0.90000408859E+02 0.  0.
        -12    1    1    2    0    0 -0.10971691511E+01  0.41136085074E+00  0.13808176102E+00  0.11798578170E+01  0.00000000000E+00 0.  1.
         11    1    3    3    0    0  0.30999091827E+00  0.36111186131E+01 -0.80552996725E+01  0.88331265746E+01  0.51100000000E-03 0. -1.
        -11    1    3    3    0    0  0.31613009126E+02  0.22595562976E+02  0.10842532382E+02  0.40342314273E+02  0.51100000000E-03 0.  1.
         12    1    3    3    0    0 -0.30825830893E+02 -0.26618042440E+02 -0.29253144708E+01  0.40832701335E+02  0.00000000000E+00 0. -1.
</event>
<event>
 7    1  0.1654239E-015  0.9000767E+02  0.7816164E-02  0.1186339E+00
        -11   -1    0    0    0    0  0.00000000000E+00  0.00000000000E+00  0.45593999997E+02  0.45594000000E+02  0.51100000000E-03 0.  1.
         11   -1    0    0    0    0 -0.00000000000E+00 -0.00000000000E+00 -0.45593999997E+02  0.45594000000E+02  0.51100000000E-03 0. -1.
    9900012    2    1    2    0    0  0.89007065452E+00  0.51522615070E+00 -0.57921278746E+00  0.90007673262E+02  0.89999933749E+02 0.  0.
        -12    1    1    2    0    0 -0.89007065452E+00 -0.51522615070E+00  0.57921278746E+00  0.11803267385E+01  0.00000000000E+00 0.  1.
         11    1    3    3    0    0  0.11010453367E+02  0.29242677026E+02 -0.22469020467E+02  0.38486635655E+02  0.51100000000E-03 0. -1.
        -11    1    3    3    0    0 -0.88650566792E+01  0.50470870792E+01 -0.16496865147E+01  0.10333623942E+02  0.51100000000E-03 0.  1.
        -12    1    3    3    0    0 -0.12553260329E+01 -0.33774537955E+02  0.23539494194E+02  0.41187413665E+02  0.00000000000E+00 0.  1.
</event>
<event>
 7    1  0.1654239E-015  0.9000778E+02  0.7816164E-02  0.1186339E+00
        -11   -1    0    0    0    0  0.00000000000E+00  0.00000000000E+00  0.45593999997E+02  0.45594000000E+02  0.51100000000E-03 0.  1.
         11   -1    0    0    0    0 -0.00000000000E+00 -0.00000000000E+00 -0.45593999997E+02  0.45594000000E+02  0.51100000000E-03 0. -1.
    9900012    2    1    2    0    0  0.89494585996E+00 -0.36644284719E+00  0.67654209698E+00  0.90007780672E+02  0.90000042577E+02 0.  0.
        -12    1    1    2    0    0 -0.89494585996E+00  0.36644284719E+00 -0.67654209698E+00  0.11802193277E+01  0.00000000000E+00 0.  1.
         11    1    3    3    0    0 -0.90339423586E+00 -0.85962882831E+01  0.63332877736E+01  0.10715541408E+02  0.51100000000E-03 0. -1.
        -11    1    3    3    0    0 -0.36424028215E+02 -0.81743057652E+01 -0.52427675971E+01  0.37696362139E+02  0.51100000000E-03 0.  1.
         12    1    3    3    0    0  0.38222368311E+02  0.16404151201E+02 -0.41397807946E+00  0.41595877125E+02  0.00000000000E+00 0. -1.
</event>
<event>
 7    1  0.1654239E-015  0.9000776E+02  0.7816164E-02  0.1186339E+00
        -11   -1    0    0    0    0  0.00000000000E+00  0.00000000000E+00  0.45593999997E+02  0.45594000000E+02  0.51100000000E-03 0.  1.
         11   -1    0    0    0    0 -0.00000000000E+00 -0.00000000000E+00 -0.45593999997E+02  0.45594000000E+02  0.51100000000E-03 0. -1.
    9900012    2    1    2    0    0  0.11356529393E+01 -0.32132342269E+00  0.19192386180E-02  0.90007762726E+02  0.90000024394E+02 0.  0.
        -12    1    1    2    0    0 -0.11356529393E+01  0.32132342269E+00 -0.19192386180E-02  0.11802372744E+01  0.00000000000E+00 0.  1.
         11    1    3    3    0    0  0.36476583499E+01  0.32432056495E+02 -0.19722110972E+02  0.38132733463E+02  0.51100000000E-03 0. -1.
        -11    1    3    3    0    0 -0.66363086752E+01  0.19689448323E+01 -0.54325902606E+01  0.87994530390E+01  0.51100000000E-03 0.  1.
        -12    1    3    3    0    0  0.41243032646E+01 -0.34722324750E+02  0.25156620471E+02  0.43075576223E+02  0.00000000000E+00 0.  1.
</event>
<event>
 7    1  0.2121729E-015  0.9000747E+02  0.7816164E-02  0.1186340E+00
        -11   -1    0    0    0    0  0.00000000000E+00  0.00000000000E+00  0.45593999997E+02  0.45594000000E+02  0.51100000000E-03 0. -1.
         11   -1    0    0    0    0 -0.00000000000E+00 -0.00000000000E+00 -0.45593999997E+02  0.45594000000E+02  0.51100000000E-03 0.  1.
    9900012    2    1    2    0    0 -0.85020458895E+00 -0.23470985715E+00  0.78467244111E+00  0.90007471559E+02  0.89999729383E+02 0.  0.
        -12    1    1    2    0    0  0.85020458895E+00  0.23470985715E+00 -0.78467244111E+00  0.11805284410E+01  0.00000000000E+00 0.  1.
         11    1    3    3    0    0  0.29889092238E+01 -0.49287054623E+01 -0.83573329818E+01  0.10152375619E+02  0.51100000000E-03 0. -1.
        -11    1    3    3    0    0 -0.66703633479E+01 -0.20560430479E+01 -0.34705681001E+02  0.35400640590E+02  0.51100000000E-03 0.  1.
         12    1    3    3    0    0  0.28312495352E+01  0.67500386530E+01  0.43847686424E+02  0.44454455350E+02  0.00000000000E+00 0. -1.
</event>
<event>
 7    1  0.1654239E-015  0.9000754E+02  0.7816164E-02  0.1186339E+00
        -11   -1    0    0    0    0  0.00000000000E+00  0.00000000000E+00  0.45593999997E+02  0.45594000000E+02  0.51100000000E-03 0. -1.
         11   -1    0    0    0    0 -0.00000000000E+00 -0.00000000000E+00 -0.45593999997E+02  0.45594000000E+02  0.51100000000E-03 0.  1.
    9900012    2    1    2    0    0 -0.70512801572E+00  0.31862786730E+00  0.89149719590E+00  0.90007535478E+02  0.89999794147E+02 0.  0.
        -12    1    1    2    0    0  0.70512801572E+00 -0.31862786730E+00 -0.89149719590E+00  0.11804645216E+01  0.00000000000E+00 0.  1.
         11    1    3    3    0    0 -0.44103544710E+01  0.40515925058E+02  0.34842670109E+01  0.40903930455E+02  0.51100000000E-03 0. -1.
        -11    1    3    3    0    0  0.85071207402E+01 -0.13558783591E+01 -0.48781982474E+01  0.98998145344E+01  0.51100000000E-03 0.  1.
        -12    1    3    3    0    0 -0.48018942849E+01 -0.38841418831E+02  0.22854284324E+01  0.39203790489E+02  0.00000000000E+00 0.  1.
</event>
<event>
 7    1  0.1654239E-015  0.9000768E+02  0.7816164E-02  0.1186339E+00
        -11   -1    0    0    0    0  0.00000000000E+00  0.00000000000E+00  0.45593999997E+02  0.45594000000E+02  0.51100000000E-03 0. -1.
         11   -1    0    0    0    0 -0.00000000000E+00 -0.00000000000E+00 -0.45593999997E+02  0.45594000000E+02  0.51100000000E-03 0.  1.
    9900012    2    1    2    0    0  0.49048189901E+00 -0.10662509881E+01 -0.12527480394E+00  0.90007679095E+02  0.89999939659E+02 0.  0.
        -12    1    1    2    0    0 -0.49048189901E+00  0.10662509881E+01  0.12527480394E+00  0.11803209052E+01  0.00000000000E+00 0.  1.
         11    1    3    3    0    0 -0.43144036553E+01  0.72562201723E+01 -0.29965322680E+01  0.89580140647E+01  0.51100000000E-03 0. -1.
        -11    1    3    3    0    0 -0.85914672255E-01  0.26209808698E+02 -0.25139260928E+02  0.36317267155E+02  0.51100000000E-03 0.  1.
         12    1    3    3    0    0  0.48908002266E+01 -0.34532279858E+02  0.28010518392E+02  0.44732397875E+02  0.00000000000E+00 0. -1.
</event>
<event>
 7    1  0.1654239E-015  0.9000774E+02  0.7816164E-02  0.1186339E+00
        -11   -1    0    0    0    0  0.00000000000E+00  0.00000000000E+00  0.45593999997E+02  0.45594000000E+02  0.51100000000E-03 0.  1.
         11   -1    0    0    0    0 -0.00000000000E+00 -0.00000000000E+00 -0.45593999997E+02  0.45594000000E+02  0.51100000000E-03 0. -1.
    9900012    2    1    2    0    0  0.74793864396E+00 -0.39295656673E-01  0.91217774118E+00  0.90007735371E+02  0.89999996678E+02 0.  0.
        -12    1    1    2    0    0 -0.74793864396E+00  0.39295656673E-01 -0.91217774118E+00  0.11802646293E+01  0.00000000000E+00 0.  1.
         11    1    3    3    0    0  0.23727829577E+02  0.22737095632E+02 -0.26082435339E+02  0.41955677181E+02  0.51100000000E-03 0. -1.
        -11    1    3    3    0    0  0.40378774493E+01 -0.15844034656E+01  0.72335286706E+01  0.84343776253E+01  0.51100000000E-03 0.  1.
        -12    1    3    3    0    0 -0.27017768382E+02 -0.21191987823E+02  0.19761084410E+02  0.39617680565E+02  0.00000000000E+00 0.  1.
</event>
<event>
 7    1  0.1654239E-015  0.9000769E+02  0.7816164E-02  0.1186339E+00
        -11   -1    0    0    0    0  0.00000000000E+00  0.00000000000E+00  0.45593999997E+02  0.45594000000E+02  0.51100000000E-03 0.  1.
         11   -1    0    0    0    0 -0.00000000000E+00 -0.00000000000E+00 -0.45593999997E+02  0.45594000000E+02  0.51100000000E-03 0. -1.
    9900012    2    1    2    0    0  0.99007184943E+00 -0.62578957685E+00 -0.14582669481E+00  0.90007694833E+02  0.89999955605E+02 0.  0.
        -12    1    1    2    0    0 -0.99007184943E+00  0.62578957685E+00  0.14582669481E+00  0.11803051667E+01  0.00000000000E+00 0.  1.
         11    1    3    3    0    0 -0.54238517590E+01  0.96072119233E+01 -0.35421305008E+02  0.37099670316E+02  0.51100000000E-03 0. -1.
        -11    1    3    3    0    0 -0.49627902180E+00 -0.46427469258E+01 -0.77097817087E+01  0.90134414150E+01  0.51100000000E-03 0.  1.
        -12    1    3    3    0    0  0.69102026303E+01 -0.55902545744E+01  0.42985260022E+02  0.43894583102E+02  0.00000000000E+00 0.  1.
</event>
<event>
 7    1  0.1654239E-015  0.9000772E+02  0.7816164E-02  0.1186339E+00
        -11   -1    0    0    0    0  0.00000000000E+00  0.00000000000E+00  0.45593999997E+02  0.45594000000E+02  0.51100000000E-03 0. -1.
         11   -1    0    0    0    0 -0.00000000000E+00 -0.00000000000E+00 -0.45593999997E+02  0.45594000000E+02  0.51100000000E-03 0.  1.
    9900012    2    1    2    0    0  0.52795100826E+00 -0.55227482684E+00  0.89962574253E+00  0.90007717734E+02  0.89999978808E+02 0.  0.
        -12    1    1    2    0    0 -0.52795100826E+00  0.55227482684E+00 -0.89962574253E+00  0.11802822663E+01  0.00000000000E+00 0.  1.
         11    1    3    3    0    0 -0.43995488921E-01  0.51650781151E+01 -0.95218028590E+01  0.10832575755E+02  0.51100000000E-03 0. -1.
        -11    1    3    3    0    0  0.16011222487E+02 -0.33171237090E+02 -0.13912090122E+02  0.39373042394E+02  0.51100000000E-03 0.  1.
         12    1    3    3    0    0 -0.15439275990E+02  0.27453884148E+02  0.24333518723E+02  0.39802099584E+02  0.00000000000E+00 0. -1.
</event>
<event>
 7    1  0.1654239E-015  0.9000800E+02  0.7816164E-02  0.1186339E+00
        -11   -1    0    0    0    0  0.00000000000E+00  0.00000000000E+00  0.45593999997E+02  0.45594000000E+02  0.51100000000E-03 0. -1.
         11   -1    0    0    0    0 -0.00000000000E+00 -0.00000000000E+00 -0.45593999997E+02  0.45594000000E+02  0.51100000000E-03 0.  1.
    9900012    2    1    2    0    0 -0.10664539744E+01  0.45185632642E+00  0.22559343598E+00  0.90008003976E+02  0.90000268828E+02 0.  0.
        -12    1    1    2    0    0  0.10664539744E+01 -0.45185632642E+00 -0.22559343598E+00  0.11799960244E+01  0.00000000000E+00 0.  1.
         11    1    3    3    0    0 -0.14547764271E+02  0.26938421624E+01  0.18422881528E+01  0.14909334552E+02  0.51100000000E-03 0. -1.
        -11    1    3    3    0    0  0.33981289703E+02  0.25744749416E+01 -0.26012012535E+02  0.42871677918E+02  0.51100000000E-03 0.  1.
         12    1    3    3    0    0 -0.20499979407E+02 -0.48164607776E+01  0.24395317818E+02  0.32226991506E+02  0.00000000000E+00 0. -1.
</event>
<event>
 7    1  0.1654239E-015  0.9000777E+02  0.7816164E-02  0.1186339E+00
        -11   -1    0    0    0    0  0.00000000000E+00  0.00000000000E+00  0.45593999997E+02  0.45594000000E+02  0.51100000000E-03 0.  1.
         11   -1    0    0    0    0 -0.00000000000E+00 -0.00000000000E+00 -0.45593999997E+02  0.45594000000E+02  0.51100000000E-03 0. -1.
    9900012    2    1    2    0    0 -0.47655548055E+00 -0.80692872795E+00 -0.71743231300E+00  0.90007767726E+02  0.90000029459E+02 0.  0.
        -12    1    1    2    0    0  0.47655548055E+00  0.80692872795E+00  0.71743231300E+00  0.11802322745E+01  0.00000000000E+00 0.  1.
         11    1    3    3    0    0 -0.15616519774E+02 -0.45030934213E+01 -0.32801281969E+02  0.36607070892E+02  0.51100000000E-03 0. -1.
        -11    1    3    3    0    0  0.11310865590E+01 -0.58096450969E+01 -0.79634097767E+01  0.99220576741E+01  0.51100000000E-03 0.  1.
        -12    1    3    3    0    0  0.14008877735E+02  0.95058097902E+01  0.40047259432E+02  0.43478639160E+02  0.00000000000E+00 0.  1.
</event>
<event>
 7    1  0.2753971E-015  0.9000768E+02  0.7816164E-02  0.1186339E+00
        -11   -1    0    0    0    0  0.00000000000E+00  0.00000000000E+00  0.45593999997E+02  0.45594000000E+02  0.51100000000E-03 0.  1.
         11   -1    0    0    0    0 -0.00000000000E+00 -0.00000000000E+00 -0.45593999997E+02  0.45594000000E+02  0.51100000000E-03 0. -1.
    9900012    2    1    2    0    0  0.63214797281E+00 -0.74278380504E+00 -0.66469123028E+00  0.90007680860E+02  0.89999941447E+02 0.  0.
        -12    1    1    2    0    0 -0.63214797281E+00  0.74278380504E+00  0.66469123028E+00  0.11803191400E+01  0.00000000000E+00 0.  1.
         11    1    3    3    0    0  0.21778366579E+01  0.16441126398E+01  0.86948179370E+01  0.91129544112E+01  0.51100000000E-03 0. -1.
        -11    1    3    3    0    0 -0.33953116266E+02 -0.32361834642E+01  0.17917850046E+02  0.38527085772E+02  0.51100000000E-03 0.  1.
         12    1    3    3    0    0  0.32407427581E+02  0.84928701934E+00 -0.27277359213E+02  0.42367640677E+02  0.00000000000E+00 0. -1.
</event>
<event>
 7    1  0.1654239E-015  0.9000763E+02  0.7816164E-02  0.1186339E+00
        -11   -1    0    0    0    0  0.00000000000E+00  0.00000000000E+00  0.45593999997E+02  0.45594000000E+02  0.51100000000E-03 0.  1.
         11   -1    0    0    0    0 -0.00000000000E+00 -0.00000000000E+00 -0.45593999997E+02  0.45594000000E+02  0.51100000000E-03 0. -1.
    9900012    2    1    2    0    0  0.96443327196E+00 -0.67683683018E+00  0.70937650696E-01  0.90007630659E+02  0.89999890584E+02 0.  0.
        -12    1    1    2    0    0 -0.96443327196E+00  0.67683683018E+00 -0.70937650696E-01  0.11803693409E+01  0.00000000000E+00 0.  1.
         11    1    3    3    0    0 -0.52289128517E+00  0.19904714717E+02  0.77746926925E+00  0.19926754427E+02  0.51100000000E-03 0. -1.
        -11    1    3    3    0    0 -0.92866524954E+01  0.15477168111E+02  0.20151749166E+02  0.27053237182E+02  0.51100000000E-03 0.  1.
         12    1    3    3    0    0  0.10773977053E+02 -0.36058719658E+02 -0.20858280785E+02  0.43027639050E+02  0.00000000000E+00 0. -1.
</event>
<event>
 7    1  0.1989176E-015  0.9000811E+02  0.7816164E-02  0.1186338E+00
        -11   -1    0    0    0    0  0.00000000000E+00  0.00000000000E+00  0.45593999997E+02  0.45594000000E+02  0.51100000000E-03 0. -1.
         11   -1    0    0    0    0 -0.00000000000E+00 -0.00000000000E+00 -0.45593999997E+02  0.45594000000E+02  0.51100000000E-03 0.  1.
    9900012    2    1    2    0    0  0.31889440871E+00 -0.59640357178E+00  0.96682092618E+00  0.90008112900E+02  0.90000379190E+02 0.  0.
        -12    1    1    2    0    0 -0.31889440871E+00  0.59640357178E+00 -0.96682092618E+00  0.11798870995E+01  0.00000000000E+00 0.  1.
         11    1    3    3    0    0  0.13483650585E+00 -0.59880513576E+01  0.71327251417E+01  0.93140060207E+01  0.51100000000E-03 0. -1.
        -11    1    3    3    0    0  0.20953141274E+00 -0.28682272773E+02 -0.28113716528E+02  0.40163387956E+02  0.51100000000E-03 0.  1.
         12    1    3    3    0    0 -0.25473509887E-01  0.34073920559E+02  0.21947812313E+02  0.40530718924E+02  0.00000000000E+00 0. -1.
</event>
<event>
 7    1  0.1654239E-015  0.9000779E+02  0.7816164E-02  0.1186339E+00
        -11   -1    0    0    0    0  0.00000000000E+00  0.00000000000E+00  0.45593999997E+02  0.45594000000E+02  0.51100000000E-03 0.  1.
         11   -1    0    0    0    0 -0.00000000000E+00 -0.00000000000E+00 -0.45593999997E+02  0.45594000000E+02  0.51100000000E-03 0. -1.
    9900012    2    1    2    0    0  0.74617641423E+00 -0.35208253507E+00 -0.84389888255E+00  0.90007785326E+02  0.90000047292E+02 0.  0.
        -12    1    1    2    0    0 -0.74617641423E+00  0.35208253507E+00  0.84389888255E+00  0.11802146740E+01  0.00000000000E+00 0.  1.
         11    1    3    3    0    0  0.35331023734E+01 -0.73752692574E+01 -0.27090822852E+01  0.86149019779E+01  0.51100000000E-03 0. -1.
        -11    1    3    3    0    0  0.32206716210E+02  0.24436900414E+02 -0.76944772781E+01  0.41153853425E+02  0.51100000000E-03 0.  1.
         12    1    3    3    0    0 -0.34993642169E+02 -0.17413713692E+02  0.95596606807E+01  0.40239029923E+02  0.00000000000E+00 0. -1.
</event>
<event>
 7    1  0.1654239E-015  0.9000772E+02  0.7816164E-02  0.1186339E+00
        -11   -1    0    0    0    0  0.00000000000E+00  0.00000000000E+00  0.45593999997E+02  0.45594000000E+02  0.51100000000E-03 0. -1.
         11   -1    0    0    0    0 -0.00000000000E+00 -0.00000000000E+00 -0.45593999997E+02  0.45594000000E+02  0.51100000000E-03 0.  1.
    9900012    2    1    2    0    0 -0.55063034014E+00 -0.62482302686E-01  0.10420926917E+01  0.90007722495E+02  0.89999983632E+02 0.  0.
        -12    1    1    2    0    0  0.55063034014E+00  0.62482302686E-01 -0.10420926917E+01  0.11802775046E+01  0.00000000000E+00 0.  1.
         11    1    3    3    0    0  0.45419228488E+01 -0.59606888373E+01  0.34444308143E+01  0.82476044083E+01  0.51100000000E-03 0. -1.
        -11    1    3    3    0    0  0.31022429560E+00  0.43558338948E+02  0.92434587914E+00  0.43569250012E+02  0.51100000000E-03 0.  1.
         12    1    3    3    0    0 -0.54027774846E+01 -0.37660132413E+02 -0.33266840018E+01  0.38190868076E+02  0.00000000000E+00 0. -1.
</event>
<event>
 7    1  0.1654239E-015  0.9000773E+02  0.7816164E-02  0.1186339E+00
        -11   -1    0    0    0    0  0.00000000000E+00  0.00000000000E+00  0.45593999997E+02  0.45594000000E+02  0.51100000000E-03 0. -1.
         11   -1    0    0    0    0 -0.00000000000E+00 -0.00000000000E+00 -0.45593999997E+02  0.45594000000E+02  0.51100000000E-03 0.  1.
    9900012    2    1    2    0    0 -0.10668282121E+01  0.46290527060E+00 -0.20156260723E+00  0.90007732569E+02  0.89999993839E+02 0.  0.
        -12    1    1    2    0    0  0.10668282121E+01 -0.46290527060E+00  0.20156260723E+00  0.11802674308E+01  0.00000000000E+00 0.  1.
         11    1    3    3    0    0 -0.26551818656E+01 -0.47578039121E+01 -0.75221073928E+01  0.92880993048E+01  0.51100000000E-03 0. -1.
        -11    1    3    3    0    0 -0.21345967063E+02  0.76600287442E-01 -0.29876629190E+02  0.36718784695E+02  0.51100000000E-03 0.  1.
         12    1    3    3    0    0  0.22934320716E+02  0.51441088953E+01  0.37197173976E+02  0.44000848569E+02  0.00000000000E+00 0. -1.
</event>
<event>
 7    1  0.1654239E-015  0.9000777E+02  0.7816164E-02  0.1186339E+00
        -11   -1    0    0    0    0  0.00000000000E+00  0.00000000000E+00  0.45593999997E+02  0.45594000000E+02  0.51100000000E-03 0. -1.
         11   -1    0    0    0    0 -0.00000000000E+00 -0.00000000000E+00 -0.45593999997E+02  0.45594000000E+02  0.51100000000E-03 0.  1.
    9900012    2    1    2    0    0  0.71553833934E+00 -0.62743182841E+00  0.69804913250E+00  0.90007771884E+02  0.90000033673E+02 0.  0.
        -12    1    1    2    0    0 -0.71553833934E+00  0.62743182841E+00 -0.69804913250E+00  0.11802281160E+01  0.00000000000E+00 0.  1.
         11    1    3    3    0    0  0.30616457574E+02  0.16625173076E+02 -0.71979756281E+01  0.35574916831E+02  0.51100000000E-03 0. -1.
        -11    1    3    3    0    0  0.44302632998E+01  0.92389486310E+01 -0.52140407981E+00  0.10259496439E+02  0.51100000000E-03 0.  1.
        -12    1    3    3    0    0 -0.34331182534E+02 -0.26491553535E+02  0.84174288404E+01  0.44173358613E+02  0.00000000000E+00 0.  1.
</event>
<event>
 7    1  0.1654239E-015  0.9000769E+02  0.7816164E-02  0.1186339E+00
        -11   -1    0    0    0    0  0.00000000000E+00  0.00000000000E+00  0.45593999997E+02  0.45594000000E+02  0.51100000000E-03 0. -1.
         11   -1    0    0    0    0 -0.00000000000E+00 -0.00000000000E+00 -0.45593999997E+02  0.45594000000E+02  0.51100000000E-03 0.  1.
    9900012    2    1    2    0    0  0.86868852042E+00 -0.44039184959E+00  0.66676030441E+00  0.90007689011E+02  0.89999949706E+02 0.  0.
        -12    1    1    2    0    0 -0.86868852042E+00  0.44039184959E+00 -0.66676030441E+00  0.11803109888E+01  0.00000000000E+00 0.  1.
         11    1    3    3    0    0 -0.30806995251E+01 -0.19550416349E+01  0.78957253634E+01  0.86980099237E+01  0.51100000000E-03 0. -1.
        -11    1    3    3    0    0 -0.90060794127E+01  0.37373315258E+02 -0.16870882945E+02  0.41982149199E+02  0.51100000000E-03 0.  1.
         12    1    3    3    0    0  0.12955467458E+02 -0.35858665473E+02  0.96419178861E+01  0.39327529888E+02  0.00000000000E+00 0. -1.
</event>
<event>
 7    1  0.1654239E-015  0.9000773E+02  0.7816164E-02  0.1186339E+00
        -11   -1    0    0    0    0  0.00000000000E+00  0.00000000000E+00  0.45593999997E+02  0.45594000000E+02  0.51100000000E-03 0. -1.
         11   -1    0    0    0    0 -0.00000000000E+00 -0.00000000000E+00 -0.45593999997E+02  0.45594000000E+02  0.51100000000E-03 0.  1.
    9900012    2    1    2    0    0 -0.99030203859E+00 -0.45839164900E+00  0.44967589352E+00  0.90007733318E+02  0.89999994598E+02 0.  0.
        -12    1    1    2    0    0  0.99030203859E+00  0.45839164900E+00 -0.44967589352E+00  0.11802666820E+01  0.00000000000E+00 0.  1.
         11    1    3    3    0    0 -0.31936061085E+02 -0.19763144440E+02 -0.95399494122E+01  0.38749251746E+02  0.51100000000E-03 0. -1.
        -11    1    3    3    0    0  0.32829855392E+01 -0.50324011613E+01 -0.82021588597E+01  0.10167520136E+02  0.51100000000E-03 0.  1.
        -12    1    3    3    0    0  0.27662773507E+02  0.24337153953E+02  0.18191784165E+02  0.41090961436E+02  0.00000000000E+00 0.  1.
</event>
<event>
 7    1  0.1654239E-015  0.9000780E+02  0.7816164E-02  0.1186339E+00
        -11   -1    0    0    0    0  0.00000000000E+00  0.00000000000E+00  0.45593999997E+02  0.45594000000E+02  0.51100000000E-03 0.  1.
         11   -1    0    0    0    0 -0.00000000000E+00 -0.00000000000E+00 -0.45593999997E+02  0.45594000000E+02  0.51100000000E-03 0. -1.
    9900012    2    1    2    0    0 -0.41038581300E+00  0.15288502501E+00 -0.10959413647E+01  0.90007797551E+02  0.90000059678E+02 0.  0.
        -12    1    1    2    0    0  0.41038581300E+00 -0.15288502501E+00  0.10959413647E+01  0.11802024493E+01  0.00000000000E+00 0.  1.
         11    1    3    3    0    0 -0.48211258331E+01  0.26849282111E+02 -0.23216500495E+02  0.35820847278E+02  0.51100000000E-03 0. -1.
        -11    1    3    3    0    0  0.12551286100E+02 -0.39605830162E+00 -0.67807141024E+01  0.14271290374E+02  0.51100000000E-03 0.  1.
        -12    1    3    3    0    0 -0.81405460795E+01 -0.26300338785E+02  0.28901273233E+02  0.39915659899E+02  0.00000000000E+00 0.  1.
</event>
<event>
 7    1  0.1654239E-015  0.9000743E+02  0.7816164E-02  0.1186340E+00
        -11   -1    0    0    0    0  0.00000000000E+00  0.00000000000E+00  0.45593999997E+02  0.45594000000E+02  0.51100000000E-03 0. -1.
         11   -1    0    0    0    0 -0.00000000000E+00 -0.00000000000E+00 -0.45593999997E+02  0.45594000000E+02  0.51100000000E-03 0.  1.
    9900012    2    1    2    0    0  0.62926283479E+00 -0.92399476249E+00  0.37948032775E+00  0.90007430919E+02  0.89999688206E+02 0.  0.
        -12    1    1    2    0    0 -0.62926283479E+00  0.92399476249E+00 -0.37948032775E+00  0.11805690812E+01  0.00000000000E+00 0.  1.
         11    1    3    3    0    0  0.27593035499E+02 -0.12023458443E+02 -0.12291449997E+02  0.32511827144E+02  0.51100000000E-03 0. -1.
        -11    1    3    3    0    0  0.69912458076E+01 -0.12437136260E+02 -0.47263757499E-01  0.14267519421E+02  0.51100000000E-03 0.  1.
        -12    1    3    3    0    0 -0.33955018471E+02  0.23536599941E+02  0.12718194083E+02  0.43228084354E+02  0.00000000000E+00 0.  1.
</event>
<event>
 7    1  0.1654239E-015  0.9000773E+02  0.7816164E-02  0.1186339E+00
        -11   -1    0    0    0    0  0.00000000000E+00  0.00000000000E+00  0.45593999997E+02  0.45594000000E+02  0.51100000000E-03 0.  1.
         11   -1    0    0    0    0 -0.00000000000E+00 -0.00000000000E+00 -0.45593999997E+02  0.45594000000E+02  0.51100000000E-03 0. -1.
    9900012    2    1    2    0    0 -0.61744002955E+00  0.75327836505E-01 -0.10030628428E+01  0.90007728192E+02  0.89999989405E+02 0.  0.
        -12    1    1    2    0    0  0.61744002955E+00 -0.75327836505E-01  0.10030628428E+01  0.11802718075E+01  0.00000000000E+00 0.  1.
         11    1    3    3    0    0  0.37788659330E+01  0.41979010826E+01  0.82256613157E+01  0.99781614329E+01  0.51100000000E-03 0. -1.
        -11    1    3    3    0    0  0.22273548984E+02 -0.32796250629E+02  0.62404299910E+00  0.39649646525E+02  0.51100000000E-03 0.  1.
         12    1    3    3    0    0 -0.26669854946E+02  0.28673677382E+02 -0.98527671576E+01  0.40379920235E+02  0.00000000000E+00 0. -1.
</event>
<event>
 7    1  0.1654239E-015  0.9000777E+02  0.7816164E-02  0.1186339E+00
        -11   -1    0    0    0    0  0.00000000000E+00  0.00000000000E+00  0.45593999997E+02  0.45594000000E+02  0.51100000000E-03 0.  1.
         11   -1    0    0    0    0 -0.00000000000E+00 -0.00000000000E+00 -0.45593999997E+02  0.45594000000E+02  0.51100000000E-03 0. -1.
    9900012    2    1    2    0    0  0.58646228360E+00  0.95619608556E+00 -0.36701976573E+00  0.90007765925E+02  0.90000027635E+02 0.  0.
        -12    1    1    2    0    0 -0.58646228360E+00 -0.95619608556E+00  0.36701976573E+00  0.11802340753E+01  0.00000000000E+00 0.  1.
         11    1    3    3    0    0 -0.98417303100E+01 -0.22506996332E+01  0.18272360121E+00  0.10097459706E+02  0.51100000000E-03 0. -1.
        -11    1    3    3    0    0  0.18862235146E+02  0.11310312949E+02  0.35638718523E+02  0.41878698068E+02  0.51100000000E-03 0.  1.
         12    1    3    3    0    0 -0.84340425528E+01 -0.81034172300E+01 -0.36188461889E+02  0.38031608150E+02  0.00000000000E+00 0. -1.
</event>
<event>
 7    1  0.2247460E-015  0.9000775E+02  0.7816164E-02  0.1186339E+00
        -11   -1    0    0    0    0  0.00000000000E+00  0.00000000000E+00  0.45593999997E+02  0.45594000000E+02  0.51100000000E-03 0.  1.
         11   -1    0    0    0    0 -0.00000000000E+00 -0.00000000000E+00 -0.45593999997E+02  0.45594000000E+02  0.51100000000E-03 0. -1.
    9900012    2    1    2    0    0 -0.10539536746E+01 -0.14179238273E-01  0.53099913365E+00  0.90007754484E+02  0.90000016043E+02 0.  0.
        -12    1    1    2    0    0  0.10539536746E+01  0.14179238273E-01 -0.53099913365E+00  0.11802455164E+01  0.00000000000E+00 0.  1.
         11    1    3    3    0    0 -0.17724709908E+01 -0.92224735178E+01 -0.31392628900E+01  0.99020524616E+01  0.51100000000E-03 0. -1.
        -11    1    3    3    0    0 -0.33371899889E+02 -0.66406333834E+01  0.19608972538E+02  0.39272044996E+02  0.51100000000E-03 0.  1.
         12    1    3    3    0    0  0.34090417205E+02  0.15848927663E+02 -0.15938710514E+02  0.40833657026E+02  0.00000000000E+00 0. -1.
</event>
<event>
 7    1  0.1654239E-015  0.9000777E+02  0.7816164E-02  0.1186339E+00
        -11   -1    0    0    0    0  0.00000000000E+00  0.00000000000E+00  0.45593999997E+02  0.45594000000E+02  0.51100000000E-03 0.  1.
         11   -1    0    0    0    0 -0.00000000000E+00 -0.00000000000E+00 -0.45593999997E+02  0.45594000000E+02  0.51100000000E-03 0. -1.
    9900012    2    1    2    0    0  0.70109849611E+00  0.52772164914E+00  0.78924324612E+00  0.90007773690E+02  0.90000035503E+02 0.  0.
        -12    1    1    2    0    0 -0.70109849611E+00 -0.52772164914E+00 -0.78924324612E+00  0.11802263096E+01  0.00000000000E+00 0.  1.
         11    1    3    3    0    0  0.12264121108E+02 -0.13286172381E+02  0.30440673869E+02  0.35405729324E+02  0.51100000000E-03 0. -1.
        -11    1    3    3    0    0  0.47730598558E+01 -0.17844490787E+01  0.87064065551E+01  0.10088006456E+02  0.51100000000E-03 0.  1.
        -12    1    3    3    0    0 -0.16336082468E+02  0.15598343109E+02 -0.38357837178E+02  0.44514037910E+02  0.00000000000E+00 0.  1.
</event>
<event>
 7    1  0.1654239E-015  0.9000763E+02  0.7816164E-02  0.1186339E+00
        -11   -1    0    0    0    0  0.00000000000E+00  0.00000000000E+00  0.45593999997E+02  0.45594000000E+02  0.51100000000E-03 0. -1.
         11   -1    0    0    0    0 -0.00000000000E+00 -0.00000000000E+00 -0.45593999997E+02  0.45594000000E+02  0.51100000000E-03 0.  1.
    9900012    2    1    2    0    0 -0.19850746379E+00  0.43894514539E+00  0.10775928837E+01  0.90007625281E+02  0.89999885135E+02 0.  0.
        -12    1    1    2    0    0  0.19850746379E+00 -0.43894514539E+00 -0.10775928837E+01  0.11803747188E+01  0.00000000000E+00 0.  1.
         11    1    3    3    0    0  0.15216189746E+01  0.86211687795E+01 -0.43127727966E+01  0.97590924211E+01  0.51100000000E-03 0. -1.
        -11    1    3    3    0    0  0.21080935431E+02 -0.10496579759E+01 -0.30525736498E+02  0.37112372728E+02  0.51100000000E-03 0.  1.
         12    1    3    3    0    0 -0.22801061869E+02 -0.71325656581E+01  0.35916102179E+02  0.43136160132E+02  0.00000000000E+00 0. -1.
</event>
<event>
 7    1  0.1654239E-015  0.9000749E+02  0.7816164E-02  0.1186340E+00
        -11   -1    0    0    0    0  0.00000000000E+00  0.00000000000E+00  0.45593999997E+02  0.45594000000E+02  0.51100000000E-03 0.  1.
         11   -1    0    0    0    0 -0.00000000000E+00 -0.00000000000E+00 -0.45593999997E+02  0.45594000000E+02  0.51100000000E-03 0. -1.
    9900012    2    1    2    0    0 -0.11129323778E+01 -0.38004403451E+00  0.10269231088E+00  0.90007492628E+02  0.89999750730E+02 0.  0.
        -12    1    1    2    0    0  0.11129323778E+01  0.38004403451E+00 -0.10269231088E+00  0.11805073725E+01  0.00000000000E+00 0.  1.
         11    1    3    3    0    0 -0.76644631914E+01  0.32777393415E+01  0.38616109043E+01  0.91869260496E+01  0.51100000000E-03 0. -1.
        -11    1    3    3    0    0 -0.18359499896E+02  0.29828230725E+02  0.10744556137E+02  0.36636594703E+02  0.51100000000E-03 0.  1.
         12    1    3    3    0    0  0.24911030710E+02 -0.33486014101E+02 -0.14503474730E+02  0.44183971875E+02  0.00000000000E+00 0. -1.
</event>
<event>
 7    1  0.1654239E-015  0.9000768E+02  0.7816164E-02  0.1186339E+00
        -11   -1    0    0    0    0  0.00000000000E+00  0.00000000000E+00  0.45593999997E+02  0.45594000000E+02  0.51100000000E-03 0. -1.
         11   -1    0    0    0    0 -0.00000000000E+00 -0.00000000000E+00 -0.45593999997E+02  0.45594000000E+02  0.51100000000E-03 0.  1.
    9900012    2    1    2    0    0  0.98150166207E+00 -0.61353415031E+00 -0.23103504654E+00  0.90007683577E+02  0.89999944200E+02 0.  0.
        -12    1    1    2    0    0 -0.98150166207E+00  0.61353415031E+00  0.23103504654E+00  0.11803164232E+01  0.00000000000E+00 0.  1.
         11    1    3    3    0    0  0.30090759917E+02  0.14743538581E+02 -0.17172153622E+02  0.37652471666E+02  0.51100000000E-03 0. -1.
        -11    1    3    3    0    0 -0.19283894221E+01  0.11087508451E+02  0.12814573983E+01  0.11326679246E+02  0.51100000000E-03 0.  1.
        -12    1    3    3    0    0 -0.27180868833E+02 -0.26444581183E+02  0.15659661178E+02  0.41028532665E+02  0.00000000000E+00 0.  1.
</event>
<event>
 7    1  0.1654239E-015  0.9000759E+02  0.7816164E-02  0.1186339E+00
        -11   -1    0    0    0    0  0.00000000000E+00  0.00000000000E+00  0.45593999997E+02  0.45594000000E+02  0.51100000000E-03 0. -1.
         11   -1    0    0    0    0 -0.00000000000E+00 -0.00000000000E+00 -0.45593999997E+02  0.45594000000E+02  0.51100000000E-03 0.  1.
    9900012    2    1    2    0    0 -0.10135523701E+01 -0.56785002196E+00  0.20889076954E+00  0.90007585917E+02  0.89999845251E+02 0.  0.
        -12    1    1    2    0    0  0.10135523701E+01  0.56785002196E+00 -0.20889076954E+00  0.11804140833E+01  0.00000000000E+00 0.  1.
         11    1    3    3    0    0  0.19211030288E+02 -0.26920706763E+02 -0.24914050066E+02  0.41406497416E+02  0.51100000000E-03 0. -1.
        -11    1    3    3    0    0  0.27600992624E+00  0.10813080639E+02 -0.22383862334E+01  0.11045780533E+02  0.51100000000E-03 0.  1.
        -12    1    3    3    0    0 -0.20500592585E+02  0.15539776102E+02  0.27361327069E+02  0.37555307968E+02  0.00000000000E+00 0.  1.
</event>
<event>
 7    1  0.1654239E-015  0.9000725E+02  0.7816164E-02  0.1186340E+00
        -11   -1    0    0    0    0  0.00000000000E+00  0.00000000000E+00  0.45593999997E+02  0.45594000000E+02  0.51100000000E-03 0.  1.
         11   -1    0    0    0    0 -0.00000000000E+00 -0.00000000000E+00 -0.45593999997E+02  0.45594000000E+02  0.51100000000E-03 0. -1.
    9900012    2    1    2    0    0  0.54274472536E+00 -0.50045697313E+00  0.92148535576E+00  0.90007252660E+02  0.89999507594E+02 0.  0.
        -12    1    1    2    0    0 -0.54274472536E+00  0.50045697313E+00 -0.92148535576E+00  0.11807473395E+01  0.00000000000E+00 0.  1.
         11    1    3    3    0    0 -0.27566086190E+01 -0.89046060957E+01 -0.32256403180E+02  0.33576278043E+02  0.51100000000E-03 0. -1.
        -11    1    3    3    0    0 -0.27021063863E+01 -0.11035240645E+01 -0.10723027280E+02  0.11113166002E+02  0.51100000000E-03 0.  1.
        -12    1    3    3    0    0  0.60014597306E+01  0.95076731871E+01  0.43900915816E+02  0.45317808616E+02  0.00000000000E+00 0.  1.
</event>
<event>
 7    1  0.1654239E-015  0.9000757E+02  0.7816164E-02  0.1186339E+00
        -11   -1    0    0    0    0  0.00000000000E+00  0.00000000000E+00  0.45593999997E+02  0.45594000000E+02  0.51100000000E-03 0.  1.
         11   -1    0    0    0    0 -0.00000000000E+00 -0.00000000000E+00 -0.45593999997E+02  0.45594000000E+02  0.51100000000E-03 0. -1.
    9900012    2    1    2    0    0  0.92660598461E+00 -0.44399245206E+00  0.58111163312E+00  0.90007568436E+02  0.89999827539E+02 0.  0.
        -12    1    1    2    0    0 -0.92660598461E+00  0.44399245206E+00 -0.58111163312E+00  0.11804315645E+01  0.00000000000E+00 0.  1.
         11    1    3    3    0    0 -0.55311007739E+01  0.66492590695E+01 -0.37395415594E+01  0.94228389183E+01  0.51100000000E-03 0. -1.
        -11    1    3    3    0    0  0.24278880133E+02  0.23766636691E+02  0.22330062350E+02  0.40656472116E+02  0.51100000000E-03 0.  1.
         12    1    3    3    0    0 -0.17821173374E+02 -0.30859888212E+02 -0.18009409157E+02  0.39928257401E+02  0.00000000000E+00 0. -1.
</event>
<event>
 7    1  0.1654239E-015  0.9000772E+02  0.7816164E-02  0.1186339E+00
        -11   -1    0    0    0    0  0.00000000000E+00  0.00000000000E+00  0.45593999997E+02  0.45594000000E+02  0.51100000000E-03 0. -1.
         11   -1    0    0    0    0 -0.00000000000E+00 -0.00000000000E+00 -0.45593999997E+02  0.45594000000E+02  0.51100000000E-03 0.  1.
    9900012    2    1    2    0    0  0.56209716357E+00 -0.59081141110E+00  0.85326240825E+00  0.90007716948E+02  0.89999978012E+02 0.  0.
        -12    1    1    2    0    0 -0.56209716357E+00  0.59081141110E+00 -0.85326240825E+00  0.11802830517E+01  0.00000000000E+00 0.  1.
         11    1    3    3    0    0 -0.10211754071E+01 -0.64924011206E+01 -0.31093054271E+01  0.72706156563E+01  0.51100000000E-03 0. -1.
        -11    1    3    3    0    0  0.25397511715E+02 -0.26239749181E+01 -0.30634466442E+02  0.39879686309E+02  0.51100000000E-03 0.  1.
         12    1    3    3    0    0 -0.23814239144E+02  0.85255646276E+01  0.34597034277E+02  0.42857414983E+02  0.00000000000E+00 0. -1.
</event>
<event>
 7    1  0.1654239E-015  0.9000782E+02  0.7816164E-02  0.1186339E+00
        -11   -1    0    0    0    0  0.00000000000E+00  0.00000000000E+00  0.45593999997E+02  0.45594000000E+02  0.51100000000E-03 0. -1.
         11   -1    0    0    0    0 -0.00000000000E+00 -0.00000000000E+00 -0.45593999997E+02  0.45594000000E+02  0.51100000000E-03 0.  1.
    9900012    2    1    2    0    0  0.63929531942E+00  0.93579663052E+00  0.32926427866E+00  0.90007818317E+02  0.90000080719E+02 0.  0.
        -12    1    1    2    0    0 -0.63929531942E+00 -0.93579663052E+00 -0.32926427866E+00  0.11801816828E+01  0.00000000000E+00 0.  1.
         11    1    3    3    0    0  0.22546277728E+02 -0.31948058700E+02 -0.62820377400E+00  0.39107642915E+02  0.51100000000E-03 0. -1.
        -11    1    3    3    0    0  0.62643993088E+01  0.42222759413E+01 -0.65712713253E+01  0.10012588073E+02  0.51100000000E-03 0.  1.
        -12    1    3    3    0    0 -0.28171381718E+02  0.28661579390E+02  0.75287393780E+01  0.40887587329E+02  0.00000000000E+00 0.  1.
</event>
<event>
 7    1  0.1654239E-015  0.9000773E+02  0.7816164E-02  0.1186339E+00
        -11   -1    0    0    0    0  0.00000000000E+00  0.00000000000E+00  0.45593999997E+02  0.45594000000E+02  0.51100000000E-03 0.  1.
         11   -1    0    0    0    0 -0.00000000000E+00 -0.00000000000E+00 -0.45593999997E+02  0.45594000000E+02  0.51100000000E-03 0. -1.
    9900012    2    1    2    0    0 -0.23500484135E+00  0.88424391014E+00 -0.74559658057E+00  0.90007733577E+02  0.89999994860E+02 0.  0.
        -12    1    1    2    0    0  0.23500484135E+00 -0.88424391014E+00  0.74559658057E+00  0.11802664229E+01  0.00000000000E+00 0.  1.
         11    1    3    3    0    0 -0.34511543138E+01 -0.50558230644E+01  0.59028127291E+01  0.85038233362E+01  0.51100000000E-03 0. -1.
        -11    1    3    3    0    0  0.39756781098E+02  0.13179203750E+02 -0.12694161565E+02  0.43765680537E+02  0.51100000000E-03 0.  1.
         12    1    3    3    0    0 -0.36540631626E+02 -0.72391367753E+01  0.60457522554E+01  0.37738229704E+02  0.00000000000E+00 0. -1.
</event>
<event>
 7    1  0.1654239E-015  0.9000768E+02  0.7816164E-02  0.1186339E+00
        -11   -1    0    0    0    0  0.00000000000E+00  0.00000000000E+00  0.45593999997E+02  0.45594000000E+02  0.51100000000E-03 0. -1.
         11   -1    0    0    0    0 -0.00000000000E+00 -0.00000000000E+00 -0.45593999997E+02  0.45594000000E+02  0.51100000000E-03 0.  1.
    9900012    2    1    2    0    0  0.93510618644E+00  0.68294230638E+00 -0.22872105678E+00  0.90007683477E+02  0.89999944098E+02 0.  0.
        -12    1    1    2    0    0 -0.93510618644E+00 -0.68294230638E+00  0.22872105678E+00  0.11803165235E+01  0.00000000000E+00 0.  1.
         11    1    3    3    0    0 -0.10692140014E+01  0.76646332254E+01  0.34930983333E+02  0.35777973921E+02  0.51100000000E-03 0. -1.
        -11    1    3    3    0    0  0.56801283826E+01  0.55910471901E+00  0.82416553717E+01  0.10025035664E+02  0.51100000000E-03 0.  1.
        -12    1    3    3    0    0 -0.36758081947E+01 -0.75407956380E+01 -0.43401359761E+02  0.44204673892E+02  0.00000000000E+00 0.  1.
</event>
<event>
 7    1  0.1654239E-015  0.9000775E+02  0.7816164E-02  0.1186339E+00
        -11   -1    0    0    0    0  0.00000000000E+00  0.00000000000E+00  0.45593999997E+02  0.45594000000E+02  0.51100000000E-03 0. -1.
         11   -1    0    0    0    0 -0.00000000000E+00 -0.00000000000E+00 -0.45593999997E+02  0.45594000000E+02  0.51100000000E-03 0.  1.
    9900012    2    1    2    0    0  0.41206345067E+00  0.11057529282E+01 -0.22412485633E-01  0.90007750812E+02  0.90000012323E+02 0.  0.
        -12    1    1    2    0    0 -0.41206345067E+00 -0.11057529282E+01  0.22412485633E-01  0.11802491877E+01  0.00000000000E+00 0.  1.
         11    1    3    3    0    0 -0.12628387917E+02 -0.34294831330E+02  0.15570716724E+02  0.39724788947E+02  0.51100000000E-03 0. -1.
        -11    1    3    3    0    0  0.90763519719E+01 -0.17661038077E+00  0.34790748189E+01  0.97218988989E+01  0.51100000000E-03 0.  1.
        -12    1    3    3    0    0  0.39640993958E+01  0.35577194639E+02 -0.19072204028E+02  0.40561062966E+02  0.00000000000E+00 0.  1.
</event>
<event>
 7    1  0.1654239E-015  0.9000772E+02  0.7816164E-02  0.1186339E+00
        -11   -1    0    0    0    0  0.00000000000E+00  0.00000000000E+00  0.45593999997E+02  0.45594000000E+02  0.51100000000E-03 0.  1.
         11   -1    0    0    0    0 -0.00000000000E+00 -0.00000000000E+00 -0.45593999997E+02  0.45594000000E+02  0.51100000000E-03 0. -1.
    9900012    2    1    2    0    0 -0.98334090176E+00 -0.29972506568E+00 -0.57988706269E+00  0.90007718911E+02  0.89999980000E+02 0.  0.
        -12    1    1    2    0    0  0.98334090176E+00  0.29972506568E+00  0.57988706269E+00  0.11802810892E+01  0.00000000000E+00 0.  1.
         11    1    3    3    0    0 -0.92277673537E+01  0.83971025919E+01 -0.31921111002E+01  0.12878377064E+02  0.51100000000E-03 0. -1.
        -11    1    3    3    0    0 -0.76473604089E+01  0.30613603429E+02  0.11898619608E+02  0.33723166888E+02  0.51100000000E-03 0.  1.
         12    1    3    3    0    0  0.15891786861E+02 -0.39310431086E+02 -0.92863955703E+01  0.43406174958E+02  0.00000000000E+00 0. -1.
</event>
<event>
 7    1  0.1654239E-015  0.9000773E+02  0.7816164E-02  0.1186339E+00
        -11   -1    0    0    0    0  0.00000000000E+00  0.00000000000E+00  0.45593999997E+02  0.45594000000E+02  0.51100000000E-03 0. -1.
         11   -1    0    0    0    0 -0.00000000000E+00 -0.00000000000E+00 -0.45593999997E+02  0.45594000000E+02  0.51100000000E-03 0.  1.
    9900012    2    1    2    0    0 -0.10303427476E+01 -0.43039698270E+00 -0.38233369623E+00  0.90007734439E+02  0.89999995733E+02 0.  0.
        -12    1    1    2    0    0  0.10303427476E+01  0.43039698270E+00  0.38233369623E+00  0.11802655614E+01  0.00000000000E+00 0.  1.
         11    1    3    3    0    0 -0.11713959974E+02  0.68855756120E+01  0.14759358644E+02  0.20061572162E+02  0.51100000000E-03 0. -1.
        -11    1    3    3    0    0  0.80935862012E+01 -0.31500423805E+02  0.10910384909E+02  0.34304800489E+02  0.51100000000E-03 0.  1.
         12    1    3    3    0    0  0.25900310256E+01  0.24184451210E+02 -0.26052077249E+02  0.35641361787E+02  0.00000000000E+00 0. -1.
</event>
<event>
 7    1  0.1654239E-015  0.9000772E+02  0.7816164E-02  0.1186339E+00
        -11   -1    0    0    0    0  0.00000000000E+00  0.00000000000E+00  0.45593999997E+02  0.45594000000E+02  0.51100000000E-03 0. -1.
         11   -1    0    0    0    0 -0.00000000000E+00 -0.00000000000E+00 -0.45593999997E+02  0.45594000000E+02  0.51100000000E-03 0.  1.
    9900012    2    1    2    0    0  0.31007580258E+00  0.10060213363E+01  0.53369494774E+00  0.90007721969E+02  0.89999983099E+02 0.  0.
        -12    1    1    2    0    0 -0.31007580258E+00 -0.10060213363E+01 -0.53369494774E+00  0.11802780307E+01  0.00000000000E+00 0.  1.
         11    1    3    3    0    0 -0.33322761548E+02  0.14941040457E+02 -0.15418957172E+01  0.36551587787E+02  0.51100000000E-03 0. -1.
        -11    1    3    3    0    0 -0.80753181557E+01  0.26555362602E+01  0.96891368346E+00  0.85557834318E+01  0.51100000000E-03 0.  1.
        -12    1    3    3    0    0  0.41708155506E+02 -0.16590555380E+02  0.11066769814E+01  0.44900350750E+02  0.00000000000E+00 0.  1.
</event>
<event>
 7    1  0.1654239E-015  0.9000770E+02  0.7816164E-02  0.1186339E+00
        -11   -1    0    0    0    0  0.00000000000E+00  0.00000000000E+00  0.45593999997E+02  0.45594000000E+02  0.51100000000E-03 0. -1.
         11   -1    0    0    0    0 -0.00000000000E+00 -0.00000000000E+00 -0.45593999997E+02  0.45594000000E+02  0.51100000000E-03 0.  1.
    9900012    2    1    2    0    0 -0.42505995329E+00  0.95792026947E-01  0.10969278830E+01  0.90007702217E+02  0.89999963086E+02 0.  0.
        -12    1    1    2    0    0  0.42505995329E+00 -0.95792026947E-01 -0.10969278830E+01  0.11802977831E+01  0.00000000000E+00 0.  1.
         11    1    3    3    0    0  0.23371301249E+02  0.26682092496E+02  0.14280588331E+02  0.38237246049E+02  0.51100000000E-03 0. -1.
        -11    1    3    3    0    0 -0.47612238149E+01  0.76535256863E+01  0.28316736247E+01  0.94479671583E+01  0.51100000000E-03 0.  1.
        -12    1    3    3    0    0 -0.19035137387E+02 -0.34239826156E+02 -0.16015334073E+02  0.42322489010E+02  0.00000000000E+00 0.  1.
</event>
<event>
 7    1  0.1654239E-015  0.9000788E+02  0.7816164E-02  0.1186339E+00
        -11   -1    0    0    0    0  0.00000000000E+00  0.00000000000E+00  0.45593999997E+02  0.45594000000E+02  0.51100000000E-03 0.  1.
         11   -1    0    0    0    0 -0.00000000000E+00 -0.00000000000E+00 -0.45593999997E+02  0.45594000000E+02  0.51100000000E-03 0. -1.
    9900012    2    1    2    0    0  0.27812727424E+00  0.35834749421E+00 -0.10894554898E+01  0.90007880950E+02  0.90000144179E+02 0.  0.
        -12    1    1    2    0    0 -0.27812727424E+00 -0.35834749421E+00  0.10894554898E+01  0.11801190497E+01  0.00000000000E+00 0.  1.
         11    1    3    3    0    0 -0.70272997944E+01  0.34167805279E+01  0.72469897728E+01  0.10657213173E+02  0.51100000000E-03 0. -1.
        -11    1    3    3    0    0  0.59101771723E+01 -0.30870001714E+02  0.21851868777E+02  0.38280430631E+02  0.51100000000E-03 0.  1.
         12    1    3    3    0    0  0.13952498964E+01  0.27811568680E+02 -0.30188314039E+02  0.41070237146E+02  0.00000000000E+00 0. -1.
</event>
<event>
 7    1  0.1654239E-015  0.9000770E+02  0.7816164E-02  0.1186339E+00
        -11   -1    0    0    0    0  0.00000000000E+00  0.00000000000E+00  0.45593999997E+02  0.45594000000E+02  0.51100000000E-03 0.  1.
         11   -1    0    0    0    0 -0.00000000000E+00 -0.00000000000E+00 -0.45593999997E+02  0.45594000000E+02  0.51100000000E-03 0. -1.
    9900012    2    1    2    0    0  0.22297872545E+00 -0.22713187367E+00 -0.11365698759E+01  0.90007703646E+02  0.89999964534E+02 0.  0.
        -12    1    1    2    0    0 -0.22297872545E+00  0.22713187367E+00  0.11365698759E+01  0.11802963538E+01  0.00000000000E+00 0.  1.
         11    1    3    3    0    0  0.43255377630E+01 -0.23870581991E+02 -0.20747383369E+02  0.31921291930E+02  0.51100000000E-03 0. -1.
        -11    1    3    3    0    0  0.12992354566E+02 -0.89818620834E+01 -0.10949791696E+01  0.15832690968E+02  0.51100000000E-03 0.  1.
        -12    1    3    3    0    0 -0.17094913603E+02  0.32625312201E+02  0.20705792663E+02  0.42253720749E+02  0.00000000000E+00 0.  1.
</event>
<event>
 7    1  0.2488246E-015  0.9000803E+02  0.7816164E-02  0.1186338E+00
        -11   -1    0    0    0    0  0.00000000000E+00  0.00000000000E+00  0.45593999997E+02  0.45594000000E+02  0.51100000000E-03 0. -1.
         11   -1    0    0    0    0 -0.00000000000E+00 -0.00000000000E+00 -0.45593999997E+02  0.45594000000E+02  0.51100000000E-03 0.  1.
    9900012    2    1    2    0    0  0.46711830104E+00 -0.91302158194E+00  0.58354852746E+00  0.90008026780E+02  0.90000291933E+02 0.  0.
        -12    1    1    2    0    0 -0.46711830104E+00  0.91302158194E+00 -0.58354852746E+00  0.11799732201E+01  0.00000000000E+00 0.  1.
         11    1    3    3    0    0 -0.23917225021E+00 -0.62389307656E+01  0.72533215839E+01  0.95703779823E+01  0.51100000000E-03 0. -1.
        -11    1    3    3    0    0  0.24124568001E+01 -0.25295367644E+02 -0.31858400572E+02  0.40750868203E+02  0.51100000000E-03 0.  1.
         12    1    3    3    0    0 -0.17061662488E+01  0.30621276827E+02  0.25188627516E+02  0.39686780594E+02  0.00000000000E+00 0. -1.
</event>
<event>
 7    1  0.1654239E-015  0.9000778E+02  0.7816164E-02  0.1186339E+00
        -11   -1    0    0    0    0  0.00000000000E+00  0.00000000000E+00  0.45593999997E+02  0.45594000000E+02  0.51100000000E-03 0.  1.
         11   -1    0    0    0    0 -0.00000000000E+00 -0.00000000000E+00 -0.45593999997E+02  0.45594000000E+02  0.51100000000E-03 0. -1.
    9900012    2    1    2    0    0  0.99620712336E+00 -0.48468532188E+00 -0.40690026216E+00  0.90007781242E+02  0.90000043154E+02 0.  0.
        -12    1    1    2    0    0 -0.99620712336E+00  0.48468532188E+00  0.40690026216E+00  0.11802187582E+01  0.00000000000E+00 0.  1.
         11    1    3    3    0    0 -0.15307596401E+02 -0.30048494902E+02 -0.23804969879E+02  0.41278458603E+02  0.51100000000E-03 0. -1.
        -11    1    3    3    0    0  0.88659224962E+00 -0.47532727235E+01  0.45973862431E+01  0.66720017934E+01  0.51100000000E-03 0.  1.
        -12    1    3    3    0    0  0.15417211275E+02  0.34317082304E+02  0.18800683374E+02  0.42057320845E+02  0.00000000000E+00 0.  1.
</event>
<event>
 7    1  0.1654239E-015  0.9000776E+02  0.7816164E-02  0.1186339E+00
        -11   -1    0    0    0    0  0.00000000000E+00  0.00000000000E+00  0.45593999997E+02  0.45594000000E+02  0.51100000000E-03 0. -1.
         11   -1    0    0    0    0 -0.00000000000E+00 -0.00000000000E+00 -0.45593999997E+02  0.45594000000E+02  0.51100000000E-03 0.  1.
    9900012    2    1    2    0    0 -0.25396243475E+00  0.82454882183E+00  0.80535483126E+00  0.90007756770E+02  0.90000018359E+02 0.  0.
        -12    1    1    2    0    0  0.25396243475E+00 -0.82454882183E+00 -0.80535483126E+00  0.11802432300E+01  0.00000000000E+00 0.  1.
         11    1    3    3    0    0  0.88812521259E+01 -0.28249665659E-01 -0.11596768325E+02  0.14606932369E+02  0.51100000000E-03 0. -1.
        -11    1    3    3    0    0 -0.12940265959E+02  0.35036236205E+02 -0.34899777379E+01  0.37512241673E+02  0.51100000000E-03 0.  1.
         12    1    3    3    0    0  0.38050513980E+01 -0.34183437717E+02  0.15892100895E+02  0.37888582728E+02  0.00000000000E+00 0. -1.
</event>
<event>
 7    1  0.1654239E-015  0.9000774E+02  0.7816164E-02  0.1186339E+00
        -11   -1    0    0    0    0  0.00000000000E+00  0.00000000000E+00  0.45593999997E+02  0.45594000000E+02  0.51100000000E-03 0.  1.
         11   -1    0    0    0    0 -0.00000000000E+00 -0.00000000000E+00 -0.45593999997E+02  0.45594000000E+02  0.51100000000E-03 0. -1.
    9900012    2    1    2    0    0  0.11375150694E+01 -0.18797614139E+00 -0.25245884483E+00  0.90007741117E+02  0.90000002500E+02 0.  0.
        -12    1    1    2    0    0 -0.11375150694E+01  0.18797614139E+00  0.25245884483E+00  0.11802588831E+01  0.00000000000E+00 0.  1.
         11    1    3    3    0    0  0.85681014009E+01 -0.15923957977E+00 -0.43221500762E+01  0.95978487383E+01  0.51100000000E-03 0. -1.
        -11    1    3    3    0    0  0.27134526997E+02  0.13940244355E+02  0.23370376656E+02  0.38428992614E+02  0.51100000000E-03 0.  1.
         12    1    3    3    0    0 -0.34565113328E+02 -0.13968980916E+02 -0.19300685424E+02  0.41980899765E+02  0.00000000000E+00 0. -1.
</event>
<event>
 7    1  0.1654239E-015  0.9000776E+02  0.7816164E-02  0.1186339E+00
        -11   -1    0    0    0    0  0.00000000000E+00  0.00000000000E+00  0.45593999997E+02  0.45594000000E+02  0.51100000000E-03 0. -1.
         11   -1    0    0    0    0 -0.00000000000E+00 -0.00000000000E+00 -0.45593999997E+02  0.45594000000E+02  0.51100000000E-03 0.  1.
    9900012    2    1    2    0    0  0.78029363552E+00  0.62259770937E+00  0.62966722166E+00  0.90007759823E+02  0.90000021453E+02 0.  0.
        -12    1    1    2    0    0 -0.78029363552E+00 -0.62259770937E+00 -0.62966722166E+00  0.11802401770E+01  0.00000000000E+00 0.  1.
         11    1    3    3    0    0 -0.45445258217E+00 -0.38806538163E+02  0.86463065168E+01  0.39760690990E+02  0.51100000000E-03 0. -1.
        -11    1    3    3    0    0 -0.11600227541E+01  0.23722600750E+01  0.90146959230E+01  0.93935091153E+01  0.51100000000E-03 0.  1.
        -12    1    3    3    0    0  0.23947689718E+01  0.37056875798E+02 -0.17031335218E+02  0.40853559718E+02  0.00000000000E+00 0.  1.
</event>
<event>
 7    1  0.1654239E-015  0.9000781E+02  0.7816164E-02  0.1186339E+00
        -11   -1    0    0    0    0  0.00000000000E+00  0.00000000000E+00  0.45593999997E+02  0.45594000000E+02  0.51100000000E-03 0.  1.
         11   -1    0    0    0    0 -0.00000000000E+00 -0.00000000000E+00 -0.45593999997E+02  0.45594000000E+02  0.51100000000E-03 0. -1.
    9900012    2    1    2    0    0 -0.53716186231E+00  0.95892836014E+00 -0.42985030569E+00  0.90007806053E+02  0.90000068293E+02 0.  0.
        -12    1    1    2    0    0  0.53716186231E+00 -0.95892836014E+00  0.42985030569E+00  0.11801939466E+01  0.00000000000E+00 0.  1.
         11    1    3    3    0    0  0.36415940068E+02  0.46897870053E+01  0.12381138122E+02  0.38747998331E+02  0.51100000000E-03 0. -1.
        -11    1    3    3    0    0  0.55131246776E+01  0.33237907338E+01 -0.30271727378E+01  0.71137826505E+01  0.51100000000E-03 0.  1.
        -12    1    3    3    0    0 -0.42466226608E+02 -0.70546493789E+01 -0.97838156900E+01  0.44146025072E+02  0.00000000000E+00 0.  1.
</event>
<event>
 7    1  0.1654239E-015  0.9000826E+02  0.7816164E-02  0.1186338E+00
        -11   -1    0    0    0    0  0.00000000000E+00  0.00000000000E+00  0.45593999997E+02  0.45594000000E+02  0.51100000000E-03 0. -1.
         11   -1    0    0    0    0 -0.00000000000E+00 -0.00000000000E+00 -0.45593999997E+02  0.45594000000E+02  0.51100000000E-03 0.  1.
    9900012    2    1    2    0    0 -0.73680447344E+00  0.48632085973E+00  0.78256208116E+00  0.90008257561E+02  0.90000525760E+02 0.  0.
        -12    1    1    2    0    0  0.73680447344E+00 -0.48632085973E+00 -0.78256208116E+00  0.11797424387E+01  0.00000000000E+00 0.  1.
         11    1    3    3    0    0 -0.10886490806E+02  0.18999745513E+02 -0.29361539486E+02  0.36627940331E+02  0.51100000000E-03 0. -1.
        -11    1    3    3    0    0  0.11340518592E+01  0.89693240101E+01 -0.28727498587E+01  0.94861761964E+01  0.51100000000E-03 0.  1.
        -12    1    3    3    0    0  0.90156344730E+01 -0.27482748663E+02  0.33016851426E+02  0.43894141034E+02  0.00000000000E+00 0.  1.
</event>
<event>
 7    1  0.1795421E-015  0.9000772E+02  0.7816164E-02  0.1186339E+00
        -11   -1    0    0    0    0  0.00000000000E+00  0.00000000000E+00  0.45593999997E+02  0.45594000000E+02  0.51100000000E-03 0.  1.
         11   -1    0    0    0    0 -0.00000000000E+00 -0.00000000000E+00 -0.45593999997E+02  0.45594000000E+02  0.51100000000E-03 0. -1.
    9900012    2    1    2    0    0 -0.73402123937E+00 -0.80412248331E+00 -0.45568989514E+00  0.90007723156E+02  0.89999984302E+02 0.  0.
        -12    1    1    2    0    0  0.73402123937E+00  0.80412248331E+00  0.45568989514E+00  0.11802768440E+01  0.00000000000E+00 0.  1.
         11    1    3    3    0    0 -0.56588432797E+01  0.78262242279E+01  0.14185323492E+00  0.96587999012E+01  0.51100000000E-03 0. -1.
        -11    1    3    3    0    0 -0.22077300996E+02  0.17519420013E+02  0.22645236342E+02  0.36154446837E+02  0.51100000000E-03 0.  1.
         12    1    3    3    0    0  0.27002123037E+02 -0.26149766725E+02 -0.23242779472E+02  0.44194476417E+02  0.00000000000E+00 0. -1.
</event>
<event>
 7    1  0.1654239E-015  0.9000775E+02  0.7816164E-02  0.1186339E+00
        -11   -1    0    0    0    0  0.00000000000E+00  0.00000000000E+00  0.45593999997E+02  0.45594000000E+02  0.51100000000E-03 0.  1.
         11   -1    0    0    0    0 -0.00000000000E+00 -0.00000000000E+00 -0.45593999997E+02  0.45594000000E+02  0.51100000000E-03 0. -1.
    9900012    2    1    2    0    0 -0.15126243581E+00 -0.80483522763E+00 -0.84991105066E+00  0.90007750509E+02  0.90000012015E+02 0.  0.
        -12    1    1    2    0    0  0.15126243581E+00  0.80483522763E+00  0.84991105066E+00  0.11802494915E+01  0.00000000000E+00 0.  1.
         11    1    3    3    0    0  0.40051751218E+01  0.73577657815E+00 -0.14584369081E+02  0.15142213071E+02  0.51100000000E-03 0. -1.
        -11    1    3    3    0    0 -0.29226487788E+01 -0.22919202727E+02  0.36762022703E+02  0.43419788611E+02  0.51100000000E-03 0.  1.
         12    1    3    3    0    0 -0.12337887788E+01  0.21378590922E+02 -0.23027564672E+02  0.31445748827E+02  0.00000000000E+00 0. -1.
</event>
<event>
 7    1  0.1654239E-015  0.9000777E+02  0.7816164E-02  0.1186339E+00
        -11   -1    0    0    0    0  0.00000000000E+00  0.00000000000E+00  0.45593999997E+02  0.45594000000E+02  0.51100000000E-03 0.  1.
         11   -1    0    0    0    0 -0.00000000000E+00 -0.00000000000E+00 -0.45593999997E+02  0.45594000000E+02  0.51100000000E-03 0. -1.
    9900012    2    1    2    0    0 -0.17888810673E+00  0.48564816598E+00 -0.10607016397E+01  0.90007769910E+02  0.90000031673E+02 0.  0.
        -12    1    1    2    0    0  0.17888810673E+00 -0.48564816598E+00  0.10607016397E+01  0.11802300895E+01  0.00000000000E+00 0.  1.
         11    1    3    3    0    0  0.90531778393E+01 -0.15439579080E+01 -0.24486074477E+01  0.95047100800E+01  0.51100000000E-03 0. -1.
        -11    1    3    3    0    0  0.34917628014E+02 -0.26632976858E+01 -0.58935674307E+01  0.35511519793E+02  0.51100000000E-03 0.  1.
         12    1    3    3    0    0 -0.44149693960E+02  0.46929037598E+01  0.72814732387E+01  0.44991540038E+02  0.00000000000E+00 0. -1.
</event>
<event>
 7    1  0.1654239E-015  0.9000775E+02  0.7816164E-02  0.1186339E+00
        -11   -1    0    0    0    0  0.00000000000E+00  0.00000000000E+00  0.45593999997E+02  0.45594000000E+02  0.51100000000E-03 0.  1.
         11   -1    0    0    0    0 -0.00000000000E+00 -0.00000000000E+00 -0.45593999997E+02  0.45594000000E+02  0.51100000000E-03 0. -1.
    9900012    2    1    2    0    0  0.53578987063E+00 -0.51534655596E+00 -0.91669747615E+00  0.90007751246E+02  0.90000012763E+02 0.  0.
        -12    1    1    2    0    0 -0.53578987063E+00  0.51534655596E+00  0.91669747615E+00  0.11802487539E+01  0.00000000000E+00 0.  1.
         11    1    3    3    0    0 -0.16045026930E+02  0.30440044237E+02  0.44303637545E+01  0.34693908767E+02  0.51100000000E-03 0. -1.
        -11    1    3    3    0    0  0.96913493484E+00 -0.29909976457E+01  0.16336864263E+02  0.16636659029E+02  0.51100000000E-03 0.  1.
        -12    1    3    3    0    0  0.15611681866E+02 -0.27964393147E+02 -0.21683925494E+02  0.38677183449E+02  0.00000000000E+00 0.  1.
</event>
<event>
 7    1  0.1654239E-015  0.9000748E+02  0.7816164E-02  0.1186340E+00
        -11   -1    0    0    0    0  0.00000000000E+00  0.00000000000E+00  0.45593999997E+02  0.45594000000E+02  0.51100000000E-03 0. -1.
         11   -1    0    0    0    0 -0.00000000000E+00 -0.00000000000E+00 -0.45593999997E+02  0.45594000000E+02  0.51100000000E-03 0.  1.
    9900012    2    1    2    0    0 -0.81854512088E-01  0.94887689648E+00  0.69753785176E+00  0.90007480377E+02  0.89999738318E+02 0.  0.
        -12    1    1    2    0    0  0.81854512088E-01 -0.94887689648E+00 -0.69753785176E+00  0.11805196231E+01  0.00000000000E+00 0.  1.
         11    1    3    3    0    0  0.14702262507E+02  0.12792348365E+02  0.33537470798E+02  0.38788692261E+02  0.51100000000E-03 0. -1.
        -11    1    3    3    0    0  0.88090023072E+01  0.35461370764E+01 -0.25022770884E+01  0.98201324177E+01  0.51100000000E-03 0.  1.
        -12    1    3    3    0    0 -0.23593119326E+02 -0.15389608545E+02 -0.30337655858E+02  0.41398655699E+02  0.00000000000E+00 0.  1.
</event>
<event>
 7    1  0.1654239E-015  0.9000774E+02  0.7816164E-02  0.1186339E+00
        -11   -1    0    0    0    0  0.00000000000E+00  0.00000000000E+00  0.45593999997E+02  0.45594000000E+02  0.51100000000E-03 0.  1.
         11   -1    0    0    0    0 -0.00000000000E+00 -0.00000000000E+00 -0.45593999997E+02  0.45594000000E+02  0.51100000000E-03 0. -1.
    9900012    2    1    2    0    0  0.64824016943E+00  0.42278837602E+00 -0.89108965859E+00  0.90007743203E+02  0.90000004613E+02 0.  0.
        -12    1    1    2    0    0 -0.64824016943E+00 -0.42278837602E+00  0.89108965859E+00  0.11802567974E+01  0.00000000000E+00 0.  1.
         11    1    3    3    0    0  0.39051366205E+01  0.88780559711E+01  0.49202244158E+01  0.10875595543E+02  0.51100000000E-03 0. -1.
        -11    1    3    3    0    0  0.16971719355E+02  0.30041326461E+02 -0.85853930312E+01  0.35556005501E+02  0.51100000000E-03 0.  1.
         12    1    3    3    0    0 -0.20228615806E+02 -0.38496594056E+02  0.27740789568E+01  0.43576142159E+02  0.00000000000E+00 0. -1.
</event>
<event>
 7    1  0.1654239E-015  0.9000775E+02  0.7816164E-02  0.1186339E+00
        -11   -1    0    0    0    0  0.00000000000E+00  0.00000000000E+00  0.45593999997E+02  0.45594000000E+02  0.51100000000E-03 0. -1.
         11   -1    0    0    0    0 -0.00000000000E+00 -0.00000000000E+00 -0.45593999997E+02  0.45594000000E+02  0.51100000000E-03 0.  1.
    9900012    2    1    2    0    0 -0.52274259008E+00 -0.77378256608E+00  0.72180202548E+00  0.90007746875E+02  0.90000008334E+02 0.  0.
        -12    1    1    2    0    0  0.52274259008E+00  0.77378256608E+00 -0.72180202548E+00  0.11802531250E+01  0.00000000000E+00 0.  1.
         11    1    3    3    0    0  0.20247271213E+02 -0.12400858003E+02  0.27623549279E+02  0.36425180107E+02  0.51100000000E-03 0. -1.
        -11    1    3    3    0    0  0.90960081170E+01 -0.52891744385E+01 -0.97508221805E+00  0.10567095888E+02  0.51100000000E-03 0.  1.
        -12    1    3    3    0    0 -0.29866021920E+02  0.16916249875E+02 -0.25926665036E+02  0.43015470880E+02  0.00000000000E+00 0.  1.
</event>
<event>
 7    1  0.1654239E-015  0.9000761E+02  0.7816164E-02  0.1186339E+00
        -11   -1    0    0    0    0  0.00000000000E+00  0.00000000000E+00  0.45593999997E+02  0.45594000000E+02  0.51100000000E-03 0. -1.
         11   -1    0    0    0    0 -0.00000000000E+00 -0.00000000000E+00 -0.45593999997E+02  0.45594000000E+02  0.51100000000E-03 0.  1.
    9900012    2    1    2    0    0  0.10665123582E+01 -0.17287434545E+00  0.47539241628E+00  0.90007605109E+02  0.89999864696E+02 0.  0.
        -12    1    1    2    0    0 -0.10665123582E+01  0.17287434545E+00 -0.47539241628E+00  0.11803948911E+01  0.00000000000E+00 0.  1.
         11    1    3    3    0    0  0.92928588356E+01  0.32652292808E+01  0.19344945918E+01  0.10037988702E+02  0.51100000000E-03 0. -1.
        -11    1    3    3    0    0  0.26157042295E+02 -0.15470781755E+01 -0.26596180337E+02  0.37335520905E+02  0.51100000000E-03 0.  1.
         12    1    3    3    0    0 -0.34383388773E+02 -0.18910254507E+01  0.25137078161E+02  0.42634095501E+02  0.00000000000E+00 0. -1.
</event>
<event>
 7    1  0.1654239E-015  0.9000774E+02  0.7816164E-02  0.1186339E+00
        -11   -1    0    0    0    0  0.00000000000E+00  0.00000000000E+00  0.45593999997E+02  0.45594000000E+02  0.51100000000E-03 0.  1.
         11   -1    0    0    0    0 -0.00000000000E+00 -0.00000000000E+00 -0.45593999997E+02  0.45594000000E+02  0.51100000000E-03 0. -1.
    9900012    2    1    2    0    0  0.67435448369E+00  0.83134425023E+00 -0.49712075627E+00  0.90007738894E+02  0.90000000247E+02 0.  0.
        -12    1    1    2    0    0 -0.67435448369E+00 -0.83134425023E+00  0.49712075627E+00  0.11802611060E+01  0.00000000000E+00 0.  1.
         11    1    3    3    0    0 -0.21548156462E+02  0.81507297437E+01 -0.12393608365E+02  0.26160255557E+02  0.51100000000E-03 0. -1.
        -11    1    3    3    0    0  0.34510538133E+01  0.95261818572E+01  0.30738141587E+02  0.32364969669E+02  0.51100000000E-03 0.  1.
         12    1    3    3    0    0  0.18771457132E+02 -0.16845567351E+02 -0.18841653978E+02  0.31482513668E+02  0.00000000000E+00 0. -1.
</event>
<event>
 7    1  0.1654239E-015  0.9000769E+02  0.7816164E-02  0.1186339E+00
        -11   -1    0    0    0    0  0.00000000000E+00  0.00000000000E+00  0.45593999997E+02  0.45594000000E+02  0.51100000000E-03 0. -1.
         11   -1    0    0    0    0 -0.00000000000E+00 -0.00000000000E+00 -0.45593999997E+02  0.45594000000E+02  0.51100000000E-03 0.  1.
    9900012    2    1    2    0    0  0.74285572228E+00  0.76994528368E+00 -0.49846862346E+00  0.90007694390E+02  0.89999955156E+02 0.  0.
        -12    1    1    2    0    0 -0.74285572228E+00 -0.76994528368E+00  0.49846862346E+00  0.11803056098E+01  0.00000000000E+00 0.  1.
         11    1    3    3    0    0  0.61391854030E+01  0.23539211300E+02  0.34876504403E+02  0.42522401457E+02  0.51100000000E-03 0. -1.
        -11    1    3    3    0    0 -0.81685481592E+01 -0.82107388683E+01 -0.31296897140E+01  0.11997348447E+02  0.51100000000E-03 0.  1.
        -12    1    3    3    0    0  0.27722184784E+01 -0.14558527148E+02 -0.32245283312E+02  0.35487944487E+02  0.00000000000E+00 0.  1.
</event>
<event>
 7    1  0.1654239E-015  0.9000785E+02  0.7816164E-02  0.1186339E+00
        -11   -1    0    0    0    0  0.00000000000E+00  0.00000000000E+00  0.45593999997E+02  0.45594000000E+02  0.51100000000E-03 0.  1.
         11   -1    0    0    0    0 -0.00000000000E+00 -0.00000000000E+00 -0.45593999997E+02  0.45594000000E+02  0.51100000000E-03 0. -1.
    9900012    2    1    2    0    0  0.84400064647E+00  0.61662376078E+00 -0.54790577621E+00  0.90007846326E+02  0.90000109098E+02 0.  0.
        -12    1    1    2    0    0 -0.84400064647E+00 -0.61662376078E+00  0.54790577621E+00  0.11801536736E+01  0.00000000000E+00 0.  1.
         11    1    3    3    0    0 -0.33918435640E+01  0.93068018929E+01  0.41624300684E+01  0.10744626032E+02  0.51100000000E-03 0. -1.
        -11    1    3    3    0    0  0.88428311171E+01  0.33451534709E+02  0.69594396289E+01  0.35293549507E+02  0.51100000000E-03 0.  1.
         12    1    3    3    0    0 -0.46069869066E+01 -0.42141712841E+02 -0.11669775473E+02  0.43969670788E+02  0.00000000000E+00 0. -1.
</event>
<event>
 7    1  0.1654239E-015  0.9000764E+02  0.7816164E-02  0.1186339E+00
        -11   -1    0    0    0    0  0.00000000000E+00  0.00000000000E+00  0.45593999997E+02  0.45594000000E+02  0.51100000000E-03 0.  1.
         11   -1    0    0    0    0 -0.00000000000E+00 -0.00000000000E+00 -0.45593999997E+02  0.45594000000E+02  0.51100000000E-03 0. -1.
    9900012    2    1    2    0    0 -0.11064162355E+01 -0.39042243595E+00  0.12908480671E+00  0.90007640118E+02  0.89999900167E+02 0.  0.
        -12    1    1    2    0    0  0.11064162355E+01  0.39042243595E+00 -0.12908480671E+00  0.11803598824E+01  0.00000000000E+00 0.  1.
         11    1    3    3    0    0  0.96817398682E+01 -0.22070900295E+01  0.13963924331E+01  0.10027823561E+02  0.51100000000E-03 0. -1.
        -11    1    3    3    0    0  0.30254024042E+02  0.17775588218E+02 -0.63233088925E+01  0.35654757647E+02  0.51100000000E-03 0.  1.
         12    1    3    3    0    0 -0.41042180146E+02 -0.15958920624E+02  0.50560012662E+01  0.44325058910E+02  0.00000000000E+00 0. -1.
</event>
<event>
 7    1  0.1654239E-015  0.9000780E+02  0.7816164E-02  0.1186339E+00
        -11   -1    0    0    0    0  0.00000000000E+00  0.00000000000E+00  0.45593999997E+02  0.45594000000E+02  0.51100000000E-03 0.  1.
         11   -1    0    0    0    0 -0.00000000000E+00 -0.00000000000E+00 -0.45593999997E+02  0.45594000000E+02  0.51100000000E-03 0. -1.
    9900012    2    1    2    0    0 -0.10597765826E+01  0.22665787734E+00 -0.46729775709E+00  0.90007801969E+02  0.90000064155E+02 0.  0.
        -12    1    1    2    0    0  0.10597765826E+01 -0.22665787734E+00  0.46729775709E+00  0.11801980309E+01  0.00000000000E+00 0.  1.
         11    1    3    3    0    0 -0.11450203697E+02 -0.28119002169E+02  0.23249805534E+02  0.38240540077E+02  0.51100000000E-03 0. -1.
        -11    1    3    3    0    0  0.91503266311E+01 -0.44920914881E+01  0.15558218995E+01  0.10311544280E+02  0.51100000000E-03 0.  1.
        -12    1    3    3    0    0  0.12401004831E+01  0.32837751535E+02 -0.25272925191E+02  0.41455717613E+02  0.00000000000E+00 0.  1.
</event>
<event>
 7    1  0.1654239E-015  0.9000771E+02  0.7816164E-02  0.1186339E+00
        -11   -1    0    0    0    0  0.00000000000E+00  0.00000000000E+00  0.45593999997E+02  0.45594000000E+02  0.51100000000E-03 0.  1.
         11   -1    0    0    0    0 -0.00000000000E+00 -0.00000000000E+00 -0.45593999997E+02  0.45594000000E+02  0.51100000000E-03 0. -1.
    9900012    2    1    2    0    0 -0.47317748218E+00  0.39304969416E+00 -0.10073241749E+01  0.90007708941E+02  0.89999969899E+02 0.  0.
        -12    1    1    2    0    0  0.47317748218E+00 -0.39304969416E+00  0.10073241749E+01  0.11802910594E+01  0.00000000000E+00 0.  1.
         11    1    3    3    0    0  0.34939127546E+01 -0.27159364794E+01 -0.10273712150E+02  0.11186281728E+02  0.51100000000E-03 0. -1.
        -11    1    3    3    0    0  0.34412348401E+02 -0.12380717846E+02  0.78790069935E+01  0.37410835974E+02  0.51100000000E-03 0.  1.
         12    1    3    3    0    0 -0.38379438638E+02  0.15489704019E+02  0.13873809814E+01  0.41410591239E+02  0.00000000000E+00 0. -1.
</event>
<event>
 7    1  0.1654239E-015  0.9000783E+02  0.7816164E-02  0.1186339E+00
        -11   -1    0    0    0    0  0.00000000000E+00  0.00000000000E+00  0.45593999997E+02  0.45594000000E+02  0.51100000000E-03 0. -1.
         11   -1    0    0    0    0 -0.00000000000E+00 -0.00000000000E+00 -0.45593999997E+02  0.45594000000E+02  0.51100000000E-03 0.  1.
    9900012    2    1    2    0    0 -0.35602215594E-01 -0.88494007221E+00  0.78001629056E+00  0.90007825495E+02  0.90000087991E+02 0.  0.
        -12    1    1    2    0    0  0.35602215594E-01  0.88494007221E+00 -0.78001629056E+00  0.11801745052E+01  0.00000000000E+00 0.  1.
         11    1    3    3    0    0 -0.40523746135E+01  0.10192641640E+01  0.12609391659E+02  0.13283726801E+02  0.51100000000E-03 0. -1.
        -11    1    3    3    0    0 -0.32343747400E+02 -0.14042766800E+02 -0.14875550314E+02  0.38270083521E+02  0.51100000000E-03 0.  1.
         12    1    3    3    0    0  0.36360519798E+02  0.12138562564E+02  0.30461749456E+01  0.38454015173E+02  0.00000000000E+00 0. -1.
</event>
<event>
 7    1  0.1654239E-015  0.9000775E+02  0.7816164E-02  0.1186339E+00
        -11   -1    0    0    0    0  0.00000000000E+00  0.00000000000E+00  0.45593999997E+02  0.45594000000E+02  0.51100000000E-03 0.  1.
         11   -1    0    0    0    0 -0.00000000000E+00 -0.00000000000E+00 -0.45593999997E+02  0.45594000000E+02  0.51100000000E-03 0. -1.
    9900012    2    1    2    0    0  0.43859384291E+00  0.46676492601E-01 -0.10947355429E+01  0.90007750381E+02  0.90000011886E+02 0.  0.
        -12    1    1    2    0    0 -0.43859384291E+00 -0.46676492601E-01  0.10947355429E+01  0.11802496189E+01  0.00000000000E+00 0.  1.
         11    1    3    3    0    0 -0.21408866158E+00  0.33453604760E+01  0.82437171483E+01  0.88992215026E+01  0.51100000000E-03 0. -1.
        -11    1    3    3    0    0 -0.33375606783E+02 -0.86776793989E+00  0.17506104419E+02  0.37698114562E+02  0.51100000000E-03 0.  1.
         12    1    3    3    0    0  0.34028289288E+02 -0.24309160435E+01 -0.26844557110E+02  0.43410414316E+02  0.00000000000E+00 0. -1.
</event>
<event>
 7    1  0.1654239E-015  0.9000812E+02  0.7816164E-02  0.1186338E+00
        -11   -1    0    0    0    0  0.00000000000E+00  0.00000000000E+00  0.45593999997E+02  0.45594000000E+02  0.51100000000E-03 0.  1.
         11   -1    0    0    0    0 -0.00000000000E+00 -0.00000000000E+00 -0.45593999997E+02  0.45594000000E+02  0.51100000000E-03 0. -1.
    9900012    2    1    2    0    0  0.78778462862E+00  0.64110040545E+00 -0.60040932039E+00  0.90008124709E+02  0.90000391154E+02 0.  0.
        -12    1    1    2    0    0 -0.78778462862E+00 -0.64110040545E+00  0.60040932039E+00  0.11798752913E+01  0.00000000000E+00 0.  1.
         11    1    3    3    0    0  0.74073810944E+01 -0.46798053769E+01 -0.39872099569E+02  0.40823451561E+02  0.51100000000E-03 0. -1.
        -11    1    3    3    0    0 -0.84513876748E+01  0.93551951750E+01  0.34237809278E+01  0.13063992747E+02  0.51100000000E-03 0.  1.
        -12    1    3    3    0    0  0.18317912090E+01 -0.40342893927E+01  0.35847909321E+02  0.36120680401E+02  0.00000000000E+00 0.  1.
</event>
<event>
 7    1  0.1654239E-015  0.9000776E+02  0.7816164E-02  0.1186339E+00
        -11   -1    0    0    0    0  0.00000000000E+00  0.00000000000E+00  0.45593999997E+02  0.45594000000E+02  0.51100000000E-03 0. -1.
         11   -1    0    0    0    0 -0.00000000000E+00 -0.00000000000E+00 -0.45593999997E+02  0.45594000000E+02  0.51100000000E-03 0.  1.
    9900012    2    1    2    0    0  0.15217980380E+00 -0.11530720381E+01  0.20057460510E+00  0.90007761045E+02  0.90000022691E+02 0.  0.
        -12    1    1    2    0    0 -0.15217980380E+00  0.11530720381E+01 -0.20057460510E+00  0.11802389546E+01  0.00000000000E+00 0.  1.
         11    1    3    3    0    0  0.29285962171E+02 -0.13509596249E+02  0.19958439528E+02  0.37927774516E+02  0.51100000000E-03 0. -1.
        -11    1    3    3    0    0  0.77888276697E+01 -0.23641640076E+01 -0.56210694129E+01  0.98919932030E+01  0.51100000000E-03 0.  1.
        -12    1    3    3    0    0 -0.36922610037E+02  0.14720688219E+02 -0.14136795510E+02  0.42187993326E+02  0.00000000000E+00 0.  1.
</event>
<event>
 7    1  0.1654239E-015  0.9000764E+02  0.7816164E-02  0.1186339E+00
        -11   -1    0    0    0    0  0.00000000000E+00  0.00000000000E+00  0.45593999997E+02  0.45594000000E+02  0.51100000000E-03 0.  1.
         11   -1    0    0    0    0 -0.00000000000E+00 -0.00000000000E+00 -0.45593999997E+02  0.45594000000E+02  0.51100000000E-03 0. -1.
    9900012    2    1    2    0    0 -0.70806599903E+00  0.79376589160E-01  0.94105962177E+00  0.90007639329E+02  0.89999899368E+02 0.  0.
        -12    1    1    2    0    0  0.70806599903E+00 -0.79376589160E-01 -0.94105962177E+00  0.11803606710E+01  0.00000000000E+00 0.  1.
         11    1    3    3    0    0  0.59884352214E+01 -0.20897832035E+02 -0.33420614488E+02  0.39868762374E+02  0.51100000000E-03 0. -1.
        -11    1    3    3    0    0 -0.56952935513E+01  0.95449573914E+01 -0.26182595906E+01  0.11419188403E+02  0.51100000000E-03 0.  1.
        -12    1    3    3    0    0 -0.10012076691E+01  0.11432251233E+02  0.36979933701E+02  0.38719688552E+02  0.00000000000E+00 0.  1.
</event>
<event>
 7    1  0.1654239E-015  0.9000772E+02  0.7816164E-02  0.1186339E+00
        -11   -1    0    0    0    0  0.00000000000E+00  0.00000000000E+00  0.45593999997E+02  0.45594000000E+02  0.51100000000E-03 0.  1.
         11   -1    0    0    0    0 -0.00000000000E+00 -0.00000000000E+00 -0.45593999997E+02  0.45594000000E+02  0.51100000000E-03 0. -1.
    9900012    2    1    2    0    0  0.84119895917E+00  0.32646426978E+00 -0.76082699135E+00  0.90007723626E+02  0.89999984778E+02 0.  0.
        -12    1    1    2    0    0 -0.84119895917E+00 -0.32646426978E+00  0.76082699135E+00  0.11802763740E+01  0.00000000000E+00 0.  1.
         11    1    3    3    0    0 -0.12689252067E+02  0.27667302990E+02 -0.18291908843E+02  0.35511838901E+02  0.51100000000E-03 0. -1.
        -11    1    3    3    0    0 -0.59819779987E+01  0.25442224645E+01 -0.82237208370E+01  0.10482686363E+02  0.51100000000E-03 0.  1.
        -12    1    3    3    0    0  0.19512429024E+02 -0.29885061185E+02  0.25754802689E+02  0.44013198361E+02  0.00000000000E+00 0.  1.
</event>
<event>
 7    1  0.1654239E-015  0.9000777E+02  0.7816164E-02  0.1186339E+00
        -11   -1    0    0    0    0  0.00000000000E+00  0.00000000000E+00  0.45593999997E+02  0.45594000000E+02  0.51100000000E-03 0. -1.
         11   -1    0    0    0    0 -0.00000000000E+00 -0.00000000000E+00 -0.45593999997E+02  0.45594000000E+02  0.51100000000E-03 0.  1.
    9900012    2    1    2    0    0  0.10443452469E+01 -0.78455198472E-02  0.54974844831E+00  0.90007770402E+02  0.90000032172E+02 0.  0.
        -12    1    1    2    0    0 -0.10443452469E+01  0.78455198472E-02 -0.54974844831E+00  0.11802295977E+01  0.00000000000E+00 0.  1.
         11    1    3    3    0    0  0.16841725398E+02 -0.28549490406E+02  0.14479844562E+02  0.36171577456E+02  0.51100000000E-03 0. -1.
        -11    1    3    3    0    0  0.67735048379E+01 -0.44797881485E+01  0.50501159149E+01  0.95630821737E+01  0.51100000000E-03 0.  1.
        -12    1    3    3    0    0 -0.22570884989E+02  0.33021433034E+02 -0.18980212029E+02  0.44273110773E+02  0.00000000000E+00 0.  1.
</event>
<event>
 7    1  0.1654239E-015  0.9000765E+02  0.7816164E-02  0.1186339E+00
        -11   -1    0    0    0    0  0.00000000000E+00  0.00000000000E+00  0.45593999997E+02  0.45594000000E+02  0.51100000000E-03 0.  1.
         11   -1    0    0    0    0 -0.00000000000E+00 -0.00000000000E+00 -0.45593999997E+02  0.45594000000E+02  0.51100000000E-03 0. -1.
    9900012    2    1    2    0    0  0.10976898301E-01  0.28764300186E+00  0.11447111537E+01  0.90007651486E+02  0.89999911686E+02 0.  0.
        -12    1    1    2    0    0 -0.10976898301E-01 -0.28764300186E+00 -0.11447111537E+01  0.11803485139E+01  0.00000000000E+00 0.  1.
         11    1    3    3    0    0 -0.90908746544E+01 -0.34401037142E+02 -0.13567180371E+02  0.38080752906E+02  0.51100000000E-03 0. -1.
        -11    1    3    3    0    0  0.58134621632E+01 -0.22710397098E+01 -0.66429237841E+01  0.91149547639E+01  0.51100000000E-03 0.  1.
        -12    1    3    3    0    0  0.32883893896E+01  0.36959719854E+02  0.21354815308E+02  0.42811943816E+02  0.00000000000E+00 0.  1.
</event>
<event>
 7    1  0.1654239E-015  0.9000771E+02  0.7816164E-02  0.1186339E+00
        -11   -1    0    0    0    0  0.00000000000E+00  0.00000000000E+00  0.45593999997E+02  0.45594000000E+02  0.51100000000E-03 0. -1.
         11   -1    0    0    0    0 -0.00000000000E+00 -0.00000000000E+00 -0.45593999997E+02  0.45594000000E+02  0.51100000000E-03 0.  1.
    9900012    2    1    2    0    0  0.63226986666E+00 -0.92128408791E+00 -0.38019486073E+00  0.90007712879E+02  0.89999973889E+02 0.  0.
        -12    1    1    2    0    0 -0.63226986666E+00  0.92128408791E+00  0.38019486073E+00  0.11802871206E+01  0.00000000000E+00 0.  1.
         11    1    3    3    0    0 -0.14558749099E+01  0.38829511007E+01 -0.74355572210E+01  0.85137766269E+01  0.51100000000E-03 0. -1.
        -11    1    3    3    0    0  0.98692648014E+00  0.33284410436E+02 -0.16014510776E+02  0.36949838397E+02  0.51100000000E-03 0.  1.
         12    1    3    3    0    0  0.11012182964E+01 -0.38088645624E+02  0.23069873136E+02  0.44544097855E+02  0.00000000000E+00 0. -1.
</event>
<event>
 7    1  0.1857192E-015  0.9000773E+02  0.7816164E-02  0.1186339E+00
        -11   -1    0    0    0    0  0.00000000000E+00  0.00000000000E+00  0.45593999997E+02  0.45594000000E+02  0.51100000000E-03 0.  1.
         11   -1    0    0    0    0 -0.00000000000E+00 -0.00000000000E+00 -0.45593999997E+02  0.45594000000E+02  0.51100000000E-03 0. -1.
    9900012    2    1    2    0    0 -0.80659540112E+00  0.81118905687E+00  0.29052139589E+00  0.90007734560E+02  0.89999995856E+02 0.  0.
        -12    1    1    2    0    0  0.80659540112E+00 -0.81118905687E+00 -0.29052139589E+00  0.11802654399E+01  0.00000000000E+00 0.  1.
         11    1    3    3    0    0 -0.75006036109E+01  0.61124527447E+01 -0.19873976372E+01  0.98777974626E+01  0.51100000000E-03 0. -1.
        -11    1    3    3    0    0 -0.14212786299E+02  0.88902008937E+01  0.34987851372E+02  0.38796761594E+02  0.51100000000E-03 0.  1.
         12    1    3    3    0    0  0.20906794509E+02 -0.14191464582E+02 -0.32709932338E+02  0.41333175503E+02  0.00000000000E+00 0. -1.
</event>
<event>
 7    1  0.1654239E-015  0.9000756E+02  0.7816164E-02  0.1186339E+00
        -11   -1    0    0    0    0  0.00000000000E+00  0.00000000000E+00  0.45593999997E+02  0.45594000000E+02  0.51100000000E-03 0.  1.
         11   -1    0    0    0    0 -0.00000000000E+00 -0.00000000000E+00 -0.45593999997E+02  0.45594000000E+02  0.51100000000E-03 0. -1.
    9900012    2    1    2    0    0 -0.57871754134E+00 -0.70680096656E+00 -0.74763927259E+00  0.90007556829E+02  0.89999815779E+02 0.  0.
        -12    1    1    2    0    0  0.57871754134E+00  0.70680096656E+00  0.74763927259E+00  0.11804431714E+01  0.00000000000E+00 0.  1.
         11    1    3    3    0    0  0.28778672978E+02  0.49045251507E+00 -0.23638440511E+02  0.37245515597E+02  0.51100000000E-03 0. -1.
        -11    1    3    3    0    0  0.42402293485E+01 -0.83003155834E+01 -0.29598868114E+01  0.97793514054E+01  0.51100000000E-03 0.  1.
        -12    1    3    3    0    0 -0.33597619868E+02  0.71030621018E+01  0.25850688050E+02  0.42982689826E+02  0.00000000000E+00 0.  1.
</event>
<event>
 7    1  0.1654239E-015  0.9000776E+02  0.7816164E-02  0.1186339E+00
        -11   -1    0    0    0    0  0.00000000000E+00  0.00000000000E+00  0.45593999997E+02  0.45594000000E+02  0.51100000000E-03 0.  1.
         11   -1    0    0    0    0 -0.00000000000E+00 -0.00000000000E+00 -0.45593999997E+02  0.45594000000E+02  0.51100000000E-03 0. -1.
    9900012    2    1    2    0    0  0.21257125324E+00 -0.10986616737E+01  0.37512482171E+00  0.90007761616E+02  0.90000023269E+02 0.  0.
        -12    1    1    2    0    0 -0.21257125324E+00  0.10986616737E+01 -0.37512482171E+00  0.11802383839E+01  0.00000000000E+00 0.  1.
         11    1    3    3    0    0 -0.20486423219E+02  0.19940225035E+01 -0.29255948544E+02  0.35771220102E+02  0.51100000000E-03 0. -1.
        -11    1    3    3    0    0 -0.10960195126E+02  0.28087127378E+01  0.13828427607E+01  0.11398552487E+02  0.51100000000E-03 0.  1.
        -12    1    3    3    0    0  0.31659189598E+02 -0.59013969149E+01  0.28248230605E+02  0.42837989027E+02  0.00000000000E+00 0.  1.
</event>
<event>
 7    1  0.1654239E-015  0.9000774E+02  0.7816164E-02  0.1186339E+00
        -11   -1    0    0    0    0  0.00000000000E+00  0.00000000000E+00  0.45593999997E+02  0.45594000000E+02  0.51100000000E-03 0. -1.
         11   -1    0    0    0    0 -0.00000000000E+00 -0.00000000000E+00 -0.45593999997E+02  0.45594000000E+02  0.51100000000E-03 0.  1.
    9900012    2    1    2    0    0  0.87851291255E+00 -0.13760543838E+00 -0.77607131899E+00  0.90007742873E+02  0.90000004279E+02 0.  0.
        -12    1    1    2    0    0 -0.87851291255E+00  0.13760543838E+00  0.77607131899E+00  0.11802571272E+01  0.00000000000E+00 0.  1.
         11    1    3    3    0    0  0.26128538606E+02  0.32909208531E+02  0.97399220684E+01  0.43134471343E+02  0.51100000000E-03 0. -1.
        -11    1    3    3    0    0 -0.26479697100E+01 -0.83834375998E+01  0.48708957382E+01  0.10050840519E+02  0.51100000000E-03 0.  1.
        -12    1    3    3    0    0 -0.22602055984E+02 -0.24663376370E+02 -0.15386889126E+02  0.36822431012E+02  0.00000000000E+00 0.  1.
</event>
<event>
 7    1  0.1654239E-015  0.9000767E+02  0.7816164E-02  0.1186339E+00
        -11   -1    0    0    0    0  0.00000000000E+00  0.00000000000E+00  0.45593999997E+02  0.45594000000E+02  0.51100000000E-03 0. -1.
         11   -1    0    0    0    0 -0.00000000000E+00 -0.00000000000E+00 -0.45593999997E+02  0.45594000000E+02  0.51100000000E-03 0.  1.
    9900012    2    1    2    0    0  0.15659416279E+00 -0.11695251114E+01  0.29415815827E-01  0.90007671229E+02  0.89999931689E+02 0.  0.
        -12    1    1    2    0    0 -0.15659416279E+00  0.11695251114E+01 -0.29415815827E-01  0.11803287712E+01  0.00000000000E+00 0.  1.
         11    1    3    3    0    0  0.10524303170E+02 -0.36374437245E+02  0.94999307525E+01  0.39039842811E+02  0.51100000000E-03 0. -1.
        -11    1    3    3    0    0 -0.56170511209E+01 -0.25207383539E+01  0.71801567990E+01  0.94583316215E+01  0.51100000000E-03 0.  1.
        -12    1    3    3    0    0 -0.47506578863E+01  0.37725650488E+02 -0.16650671736E+02  0.41509496797E+02  0.00000000000E+00 0.  1.
</event>
<event>
 7    1  0.1654239E-015  0.9000776E+02  0.7816164E-02  0.1186339E+00
        -11   -1    0    0    0    0  0.00000000000E+00  0.00000000000E+00  0.45593999997E+02  0.45594000000E+02  0.51100000000E-03 0.  1.
         11   -1    0    0    0    0 -0.00000000000E+00 -0.00000000000E+00 -0.45593999997E+02  0.45594000000E+02  0.51100000000E-03 0. -1.
    9900012    2    1    2    0    0 -0.73167377816E+00  0.17476186328E+00 -0.90943803303E+00  0.90007760295E+02  0.90000021930E+02 0.  0.
        -12    1    1    2    0    0  0.73167377816E+00 -0.17476186328E+00  0.90943803303E+00  0.11802397055E+01  0.00000000000E+00 0.  1.
         11    1    3    3    0    0 -0.16406525916E+02  0.23568917991E+02 -0.19913073367E+02  0.34945650360E+02  0.51100000000E-03 0. -1.
        -11    1    3    3    0    0  0.15629200825E+02  0.61172350724E+01 -0.44527102781E+01  0.17364305700E+02  0.51100000000E-03 0.  1.
        -12    1    3    3    0    0  0.45651312797E-01 -0.29511391200E+02  0.23456345612E+02  0.37697804234E+02  0.00000000000E+00 0.  1.
</event>
<event>
 7    1  0.1654239E-015  0.9000780E+02  0.7816164E-02  0.1186339E+00
        -11   -1    0    0    0    0  0.00000000000E+00  0.00000000000E+00  0.45593999997E+02  0.45594000000E+02  0.51100000000E-03 0.  1.
         11   -1    0    0    0    0 -0.00000000000E+00 -0.00000000000E+00 -0.45593999997E+02  0.45594000000E+02  0.51100000000E-03 0. -1.
    9900012    2    1    2    0    0  0.55954054612E+00  0.83477711754E+00 -0.61880997440E+00  0.90007803303E+02  0.90000065507E+02 0.  0.
        -12    1    1    2    0    0 -0.55954054612E+00 -0.83477711754E+00  0.61880997440E+00  0.11801966968E+01  0.00000000000E+00 0.  1.
         11    1    3    3    0    0  0.24298927078E+02 -0.13091970384E+02 -0.30535097063E+02  0.41161021593E+02  0.51100000000E-03 0. -1.
        -11    1    3    3    0    0 -0.90494273533E-01  0.86328913719E+01 -0.19120422785E+01  0.88425623316E+01  0.51100000000E-03 0.  1.
        -12    1    3    3    0    0 -0.23648892258E+02  0.52938561300E+01  0.31828329367E+02  0.40004219378E+02  0.00000000000E+00 0.  1.
</event>
<event>
 7    1  0.1654239E-015  0.9000774E+02  0.7816164E-02  0.1186339E+00
        -11   -1    0    0    0    0  0.00000000000E+00  0.00000000000E+00  0.45593999997E+02  0.45594000000E+02  0.51100000000E-03 0.  1.
         11   -1    0    0    0    0 -0.00000000000E+00 -0.00000000000E+00 -0.45593999997E+02  0.45594000000E+02  0.51100000000E-03 0. -1.
    9900012    2    1    2    0    0  0.38984125373E+00  0.94176615477E+00 -0.59506775452E+00  0.90007743534E+02  0.90000004949E+02 0.  0.
        -12    1    1    2    0    0 -0.38984125373E+00 -0.94176615477E+00  0.59506775452E+00  0.11802564661E+01  0.00000000000E+00 0.  1.
         11    1    3    3    0    0 -0.38836180196E+02 -0.75849546501E+01 -0.31060898010E+01  0.39691664406E+02  0.51100000000E-03 0. -1.
        -11    1    3    3    0    0 -0.31665048414E+01 -0.98268648537E+00 -0.52236003278E+01  0.61869561405E+01  0.51100000000E-03 0.  1.
        -12    1    3    3    0    0  0.42392526291E+02  0.95094072903E+01  0.77346223743E+01  0.44129122987E+02  0.00000000000E+00 0.  1.
</event>
<event>
 7    1  0.1654239E-015  0.9000771E+02  0.7816164E-02  0.1186339E+00
        -11   -1    0    0    0    0  0.00000000000E+00  0.00000000000E+00  0.45593999997E+02  0.45594000000E+02  0.51100000000E-03 0.  1.
         11   -1    0    0    0    0 -0.00000000000E+00 -0.00000000000E+00 -0.45593999997E+02  0.45594000000E+02  0.51100000000E-03 0. -1.
    9900012    2    1    2    0    0 -0.41797726351E-01  0.11384188163E+01 -0.30877650153E+00  0.90007708774E+02  0.89999969729E+02 0.  0.
        -12    1    1    2    0    0  0.41797726351E-01 -0.11384188163E+01  0.30877650153E+00  0.11802912264E+01  0.00000000000E+00 0.  1.
         11    1    3    3    0    0 -0.51020787511E+01  0.19905518985E+02  0.31762084704E+01  0.20793008300E+02  0.51100000000E-03 0. -1.
        -11    1    3    3    0    0 -0.16577395307E+02  0.56335072013E+01  0.21791335456E+02  0.27953689198E+02  0.51100000000E-03 0.  1.
         12    1    3    3    0    0  0.21637676332E+02 -0.24400607370E+02 -0.25276320428E+02  0.41261011275E+02  0.00000000000E+00 0. -1.
</event>
<event>
 7    1  0.1654239E-015  0.9000778E+02  0.7816164E-02  0.1186339E+00
        -11   -1    0    0    0    0  0.00000000000E+00  0.00000000000E+00  0.45593999997E+02  0.45594000000E+02  0.51100000000E-03 0.  1.
         11   -1    0    0    0    0 -0.00000000000E+00 -0.00000000000E+00 -0.45593999997E+02  0.45594000000E+02  0.51100000000E-03 0. -1.
    9900012    2    1    2    0    0  0.65703538663E+00 -0.91194262872E+00 -0.35997221456E+00  0.90007781862E+02  0.90000043783E+02 0.  0.
        -12    1    1    2    0    0 -0.65703538663E+00  0.91194262872E+00  0.35997221456E+00  0.11802181377E+01  0.00000000000E+00 0.  1.
         11    1    3    3    0    0  0.58210972316E+01  0.41843855787E+01 -0.11841062284E+02  0.13842146218E+02  0.51100000000E-03 0. -1.
        -11    1    3    3    0    0  0.46437888951E+00 -0.25785977265E+02 -0.23660454659E+02  0.34999276938E+02  0.51100000000E-03 0.  1.
         12    1    3    3    0    0 -0.56284407344E+01  0.20689649058E+02  0.35141544728E+02  0.41166358706E+02  0.00000000000E+00 0. -1.
</event>
<event>
 7    1  0.1654239E-015  0.9000788E+02  0.7816164E-02  0.1186339E+00
        -11   -1    0    0    0    0  0.00000000000E+00  0.00000000000E+00  0.45593999997E+02  0.45594000000E+02  0.51100000000E-03 0.  1.
         11   -1    0    0    0    0 -0.00000000000E+00 -0.00000000000E+00 -0.45593999997E+02  0.45594000000E+02  0.51100000000E-03 0. -1.
    9900012    2    1    2    0    0  0.79210691148E+00 -0.52698080910E+00 -0.69824199434E+00  0.90007879661E+02  0.90000142872E+02 0.  0.
        -12    1    1    2    0    0 -0.79210691148E+00  0.52698080910E+00  0.69824199434E+00  0.11801203392E+01  0.00000000000E+00 0.  1.
         11    1    3    3    0    0  0.56870629441E+01  0.12608819950E+02 -0.13986256287E+01  0.13902560173E+02  0.51100000000E-03 0. -1.
        -11    1    3    3    0    0 -0.14764873017E+02  0.29005408169E+02  0.34912440973E+01  0.32733835154E+02  0.51100000000E-03 0.  1.
         12    1    3    3    0    0  0.98699169849E+01 -0.42141208928E+02 -0.27908604630E+01  0.43371484334E+02  0.00000000000E+00 0. -1.
</event>
<event>
 7    1  0.1654239E-015  0.9000772E+02  0.7816164E-02  0.1186339E+00
        -11   -1    0    0    0    0  0.00000000000E+00  0.00000000000E+00  0.45593999997E+02  0.45594000000E+02  0.51100000000E-03 0.  1.
         11   -1    0    0    0    0 -0.00000000000E+00 -0.00000000000E+00 -0.45593999997E+02  0.45594000000E+02  0.51100000000E-03 0. -1.
    9900012    2    1    2    0    0  0.90784586624E-01 -0.13405303677E+00 -0.11691269779E+01  0.90007716158E+02  0.89999977211E+02 0.  0.
        -12    1    1    2    0    0 -0.90784586624E-01  0.13405303677E+00  0.11691269779E+01  0.11802838422E+01  0.00000000000E+00 0.  1.
         11    1    3    3    0    0  0.20089999246E+02  0.14023907494E+01  0.18333234247E+02  0.27233843793E+02  0.51100000000E-03 0. -1.
        -11    1    3    3    0    0  0.12531424632E+02  0.64833474325E+00  0.12053836577E+02  0.17399767750E+02  0.51100000000E-03 0.  1.
        -12    1    3    3    0    0 -0.32530639292E+02 -0.21847785294E+01 -0.31556197802E+02  0.45374104615E+02  0.00000000000E+00 0.  1.
</event>
<event>
 7    1  0.1654239E-015  0.9000769E+02  0.7816164E-02  0.1186339E+00
        -11   -1    0    0    0    0  0.00000000000E+00  0.00000000000E+00  0.45593999997E+02  0.45594000000E+02  0.51100000000E-03 0. -1.
         11   -1    0    0    0    0 -0.00000000000E+00 -0.00000000000E+00 -0.45593999997E+02  0.45594000000E+02  0.51100000000E-03 0.  1.
    9900012    2    1    2    0    0  0.11578234440E+01 -0.24587951613E-01 -0.22798966850E+00  0.90007686913E+02  0.89999947580E+02 0.  0.
        -12    1    1    2    0    0 -0.11578234440E+01  0.24587951613E-01  0.22798966850E+00  0.11803130872E+01  0.00000000000E+00 0.  1.
         11    1    3    3    0    0 -0.76738692429E+01  0.27367154304E+00  0.32864184324E+01  0.83524673986E+01  0.51100000000E-03 0. -1.
        -11    1    3    3    0    0  0.17827560418E+02  0.22836833547E+02 -0.32470124216E+02  0.43516110164E+02  0.51100000000E-03 0.  1.
         12    1    3    3    0    0 -0.89958677315E+01 -0.23135093042E+02  0.28955716115E+02  0.38139109350E+02  0.00000000000E+00 0. -1.
</event>
<event>
 7    1  0.1654239E-015  0.9000780E+02  0.7816164E-02  0.1186339E+00
        -11   -1    0    0    0    0  0.00000000000E+00  0.00000000000E+00  0.45593999997E+02  0.45594000000E+02  0.51100000000E-03 0. -1.
         11   -1    0    0    0    0 -0.00000000000E+00 -0.00000000000E+00 -0.45593999997E+02  0.45594000000E+02  0.51100000000E-03 0.  1.
    9900012    2    1    2    0    0 -0.32601256487E+00  0.26993314589E+00  0.11016940674E+01  0.90007797511E+02  0.90000059639E+02 0.  0.
        -12    1    1    2    0    0  0.32601256487E+00 -0.26993314589E+00 -0.11016940674E+01  0.11802024885E+01  0.00000000000E+00 0.  1.
         11    1    3    3    0    0 -0.74110465753E+01 -0.61161700175E+01  0.50170114400E+01  0.10839813240E+02  0.51100000000E-03 0. -1.
        -11    1    3    3    0    0 -0.27504777675E+02 -0.19343440607E+02 -0.11210602838E+02  0.35445156308E+02  0.51100000000E-03 0.  1.
         12    1    3    3    0    0  0.34589811686E+02  0.25729543770E+02  0.72952854653E+01  0.43722827963E+02  0.00000000000E+00 0. -1.
</event>
<event>
 7    1  0.1654239E-015  0.9000772E+02  0.7816164E-02  0.1186339E+00
        -11   -1    0    0    0    0  0.00000000000E+00  0.00000000000E+00  0.45593999997E+02  0.45594000000E+02  0.51100000000E-03 0.  1.
         11   -1    0    0    0    0 -0.00000000000E+00 -0.00000000000E+00 -0.45593999997E+02  0.45594000000E+02  0.51100000000E-03 0. -1.
    9900012    2    1    2    0    0  0.96279388599E+00 -0.27068949764E+00 -0.62675706836E+00  0.90007716435E+02  0.89999977492E+02 0.  0.
        -12    1    1    2    0    0 -0.96279388599E+00  0.27068949764E+00  0.62675706836E+00  0.11802835650E+01  0.00000000000E+00 0.  1.
         11    1    3    3    0    0 -0.76613394231E+01 -0.56453771319E+01 -0.20017557101E+01  0.97248871922E+01  0.51100000000E-03 0. -1.
        -11    1    3    3    0    0  0.28032753210E+02 -0.28027582791E+02  0.95971795312E+01  0.40785861580E+02  0.51100000000E-03 0.  1.
         12    1    3    3    0    0 -0.19408619900E+02  0.33402270425E+02 -0.82221808895E+01  0.39496967663E+02  0.00000000000E+00 0. -1.
</event>
<event>
 7    1  0.1654239E-015  0.9000760E+02  0.7816164E-02  0.1186339E+00
        -11   -1    0    0    0    0  0.00000000000E+00  0.00000000000E+00  0.45593999997E+02  0.45594000000E+02  0.51100000000E-03 0. -1.
         11   -1    0    0    0    0 -0.00000000000E+00 -0.00000000000E+00 -0.45593999997E+02  0.45594000000E+02  0.51100000000E-03 0.  1.
    9900012    2    1    2    0    0  0.74931483491E+00 -0.76549209110E+00  0.49588284698E+00  0.90007597246E+02  0.89999856730E+02 0.  0.
        -12    1    1    2    0    0 -0.74931483491E+00  0.76549209110E+00 -0.49588284698E+00  0.11804027538E+01  0.00000000000E+00 0.  1.
         11    1    3    3    0    0  0.21040783462E+02  0.24389258668E+01  0.32141145381E+02  0.38493066320E+02  0.51100000000E-03 0. -1.
        -11    1    3    3    0    0 -0.19573562362E+02 -0.51836727979E+01 -0.45515598243E+00  0.20253443520E+02  0.51100000000E-03 0.  1.
        -12    1    3    3    0    0 -0.71790626531E+00  0.19792548401E+01 -0.31190106551E+02  0.31261087406E+02  0.00000000000E+00 0.  1.
</event>
<event>
 7    1  0.1654239E-015  0.9000774E+02  0.7816164E-02  0.1186339E+00
        -11   -1    0    0    0    0  0.00000000000E+00  0.00000000000E+00  0.45593999997E+02  0.45594000000E+02  0.51100000000E-03 0. -1.
         11   -1    0    0    0    0 -0.00000000000E+00 -0.00000000000E+00 -0.45593999997E+02  0.45594000000E+02  0.51100000000E-03 0.  1.
    9900012    2    1    2    0    0 -0.11042105029E+01 -0.18466664410E+00  0.37366473499E+00  0.90007742427E+02  0.90000003827E+02 0.  0.
        -12    1    1    2    0    0  0.11042105029E+01  0.18466664410E+00 -0.37366473499E+00  0.11802575729E+01  0.00000000000E+00 0.  1.
         11    1    3    3    0    0  0.78866500188E+01  0.90723162464E+00 -0.68026494942E+01  0.10454585508E+02  0.51100000000E-03 0. -1.
        -11    1    3    3    0    0 -0.42418793902E+02 -0.86535360040E+01 -0.40681367877E+01  0.43483186390E+02  0.51100000000E-03 0.  1.
         12    1    3    3    0    0  0.33427933380E+02  0.75616377353E+01  0.11244451017E+02  0.36069970529E+02  0.00000000000E+00 0. -1.
</event>
<event>
 7    1  0.1654239E-015  0.9000777E+02  0.7816164E-02  0.1186339E+00
        -11   -1    0    0    0    0  0.00000000000E+00  0.00000000000E+00  0.45593999997E+02  0.45594000000E+02  0.51100000000E-03 0. -1.
         11   -1    0    0    0    0 -0.00000000000E+00 -0.00000000000E+00 -0.45593999997E+02  0.45594000000E+02  0.51100000000E-03 0.  1.
    9900012    2    1    2    0    0 -0.99368780991E+00 -0.14158224200E+00  0.62086546853E+00  0.90007773359E+02  0.90000035167E+02 0.  0.
        -12    1    1    2    0    0  0.99368780991E+00  0.14158224200E+00 -0.62086546853E+00  0.11802266413E+01  0.00000000000E+00 0.  1.
         11    1    3    3    0    0  0.31667764953E+02  0.86917031916E+01  0.15424522964E+02  0.36280972291E+02  0.51100000000E-03 0. -1.
        -11    1    3    3    0    0  0.44601238055E+01  0.84146868752E+01  0.15481047971E+01  0.96486417848E+01  0.51100000000E-03 0.  1.
        -12    1    3    3    0    0 -0.37121576568E+02 -0.17247972309E+02 -0.16351762293E+02  0.44078159283E+02  0.00000000000E+00 0.  1.
</event>
<event>
 7    1  0.1654239E-015  0.9000773E+02  0.7816164E-02  0.1186339E+00
        -11   -1    0    0    0    0  0.00000000000E+00  0.00000000000E+00  0.45593999997E+02  0.45594000000E+02  0.51100000000E-03 0.  1.
         11   -1    0    0    0    0 -0.00000000000E+00 -0.00000000000E+00 -0.45593999997E+02  0.45594000000E+02  0.51100000000E-03 0. -1.
    9900012    2    1    2    0    0  0.91835220275E+00  0.73723871680E+00  0.78451681851E-01  0.90007726150E+02  0.89999987336E+02 0.  0.
        -12    1    1    2    0    0 -0.91835220275E+00 -0.73723871680E+00 -0.78451681851E-01  0.11802738497E+01  0.00000000000E+00 0.  1.
         11    1    3    3    0    0 -0.21749102865E+01 -0.15765031362E+01  0.86980798786E+01  0.91034164317E+01  0.51100000000E-03 0. -1.
        -11    1    3    3    0    0  0.82626104967E+01 -0.37708989586E+02 -0.11952723342E+02  0.40411708988E+02  0.51100000000E-03 0.  1.
         12    1    3    3    0    0 -0.51693480075E+01  0.40022731439E+02  0.33330951454E+01  0.40492600730E+02  0.00000000000E+00 0. -1.
</event>
<event>
 7    1  0.1654239E-015  0.9000774E+02  0.7816164E-02  0.1186339E+00
        -11   -1    0    0    0    0  0.00000000000E+00  0.00000000000E+00  0.45593999997E+02  0.45594000000E+02  0.51100000000E-03 0.  1.
         11   -1    0    0    0    0 -0.00000000000E+00 -0.00000000000E+00 -0.45593999997E+02  0.45594000000E+02  0.51100000000E-03 0. -1.
    9900012    2    1    2    0    0 -0.19679829927E+00 -0.11628499434E+01 -0.45307781991E-01  0.90007744792E+02  0.90000006223E+02 0.  0.
        -12    1    1    2    0    0  0.19679829927E+00  0.11628499434E+01  0.45307781991E-01  0.11802552082E+01  0.00000000000E+00 0.  1.
         11    1    3    3    0    0 -0.89663389036E+01 -0.23981776152E+02 -0.27239405808E+02  0.37383232201E+02  0.51100000000E-03 0. -1.
        -11    1    3    3    0    0  0.50359531632E+01 -0.53711910218E+01 -0.55765757890E+01  0.92362717070E+01  0.51100000000E-03 0.  1.
        -12    1    3    3    0    0  0.37335874411E+01  0.28190117231E+02  0.32770673815E+02  0.43388240884E+02  0.00000000000E+00 0.  1.
</event>
<event>
 7    1  0.2068889E-015  0.9000777E+02  0.7816164E-02  0.1186339E+00
        -11   -1    0    0    0    0  0.00000000000E+00  0.00000000000E+00  0.45593999997E+02  0.45594000000E+02  0.51100000000E-03 0. -1.
         11   -1    0    0    0    0 -0.00000000000E+00 -0.00000000000E+00 -0.45593999997E+02  0.45594000000E+02  0.51100000000E-03 0.  1.
    9900012    2    1    2    0    0  0.83285128002E-01  0.80069132178E+00  0.86307280412E+00  0.90007772195E+02  0.90000033988E+02 0.  0.
        -12    1    1    2    0    0 -0.83285128002E-01 -0.80069132178E+00 -0.86307280412E+00  0.11802278045E+01  0.00000000000E+00 0.  1.
         11    1    3    3    0    0 -0.41024453699E+01 -0.83291972497E+01 -0.23747530333E+00  0.92877327491E+01  0.51100000000E-03 0. -1.
        -11    1    3    3    0    0 -0.14733811895E+02 -0.10879833116E+02 -0.32482362819E+02  0.37290211532E+02  0.51100000000E-03 0.  1.
         12    1    3    3    0    0  0.18919542393E+02  0.20009721687E+02  0.33582910926E+02  0.43429827914E+02  0.00000000000E+00 0. -1.
</event>
<event>
 7    1  0.1654239E-015  0.9000677E+02  0.7816164E-02  0.1186341E+00
        -11   -1    0    0    0    0  0.00000000000E+00  0.00000000000E+00  0.45593999997E+02  0.45594000000E+02  0.51100000000E-03 0. -1.
         11   -1    0    0    0    0 -0.00000000000E+00 -0.00000000000E+00 -0.45593999997E+02  0.45594000000E+02  0.51100000000E-03 0.  1.
    9900012    2    1    2    0    0 -0.96001044694E+00  0.53176086387E+00  0.43693545086E+00  0.90006770868E+02  0.89999019438E+02 0.  0.
        -12    1    1    2    0    0  0.96001044694E+00 -0.53176086387E+00 -0.43693545086E+00  0.11812291322E+01  0.00000000000E+00 0.  1.
         11    1    3    3    0    0 -0.34756314865E+02  0.16999415140E+02 -0.12248544028E+02  0.40583350886E+02  0.51100000000E-03 0. -1.
        -11    1    3    3    0    0  0.45839816406E+01  0.69372568838E+01 -0.29976742945E+01  0.88388049073E+01  0.51100000000E-03 0.  1.
        -12    1    3    3    0    0  0.29212322777E+02 -0.23404911160E+02  0.15683153773E+02  0.40584615074E+02  0.00000000000E+00 0.  1.
</event>
<event>
 7    1  0.1654239E-015  0.9000784E+02  0.7816164E-02  0.1186339E+00
        -11   -1    0    0    0    0  0.00000000000E+00  0.00000000000E+00  0.45593999997E+02  0.45594000000E+02  0.51100000000E-03 0. -1.
         11   -1    0    0    0    0 -0.00000000000E+00 -0.00000000000E+00 -0.45593999997E+02  0.45594000000E+02  0.51100000000E-03 0.  1.
    9900012    2    1    2    0    0  0.31050094341E-01 -0.99423029441E+00 -0.63507550123E+00  0.90007839469E+02  0.90000102150E+02 0.  0.
        -12    1    1    2    0    0 -0.31050094341E-01  0.99423029441E+00  0.63507550123E+00  0.11801605310E+01  0.00000000000E+00 0.  1.
         11    1    3    3    0    0 -0.66188020556E+01  0.24587693029E+02  0.27827260974E+02  0.37718956013E+02  0.51100000000E-03 0. -1.
        -11    1    3    3    0    0 -0.10023494103E+02 -0.30101731321E+01  0.22309534868E+01  0.10700875200E+02  0.51100000000E-03 0.  1.
        -12    1    3    3    0    0  0.16673346253E+02 -0.22571750191E+02 -0.30693289962E+02  0.41588008256E+02  0.00000000000E+00 0.  1.
</event>
<event>
 7    1  0.1654239E-015  0.9000775E+02  0.7816164E-02  0.1186339E+00
        -11   -1    0    0    0    0  0.00000000000E+00  0.00000000000E+00  0.45593999997E+02  0.45594000000E+02  0.51100000000E-03 0.  1.
         11   -1    0    0    0    0 -0.00000000000E+00 -0.00000000000E+00 -0.45593999997E+02  0.45594000000E+02  0.51100000000E-03 0. -1.
    9900012    2    1    2    0    0  0.13956873718E+00  0.10904494307E+01 -0.42946201839E+00  0.90007747053E+02  0.90000008514E+02 0.  0.
        -12    1    1    2    0    0 -0.13956873718E+00 -0.10904494307E+01  0.42946201839E+00  0.11802529469E+01  0.00000000000E+00 0.  1.
         11    1    3    3    0    0 -0.86850600027E+01 -0.39310479070E+00  0.18978474029E+01  0.88986866251E+01  0.51100000000E-03 0. -1.
        -11    1    3    3    0    0  0.14675709910E+00 -0.26969725009E+02  0.27826426173E+02  0.38751743168E+02  0.51100000000E-03 0.  1.
         12    1    3    3    0    0  0.86778716407E+01  0.28453279230E+02 -0.30153735595E+02  0.42357317260E+02  0.00000000000E+00 0. -1.
</event>
<event>
 7    1  0.1654239E-015  0.9000771E+02  0.7816164E-02  0.1186339E+00
        -11   -1    0    0    0    0  0.00000000000E+00  0.00000000000E+00  0.45593999997E+02  0.45594000000E+02  0.51100000000E-03 0.  1.
         11   -1    0    0    0    0 -0.00000000000E+00 -0.00000000000E+00 -0.45593999997E+02  0.45594000000E+02  0.51100000000E-03 0. -1.
    9900012    2    1    2    0    0 -0.11041744320E+01 -0.41288250681E+00  0.58413398919E-01  0.90007709669E+02  0.89999970636E+02 0.  0.
        -12    1    1    2    0    0  0.11041744320E+01  0.41288250681E+00 -0.58413398919E-01  0.11802903312E+01  0.00000000000E+00 0.  1.
         11    1    3    3    0    0 -0.45774436952E+01 -0.24995261633E+01 -0.98705942773E+01  0.11163747286E+02  0.51100000000E-03 0. -1.
        -11    1    3    3    0    0  0.28161886785E+02  0.16723904884E+02 -0.19187221552E+02  0.37959588157E+02  0.51100000000E-03 0.  1.
         12    1    3    3    0    0 -0.24688617522E+02 -0.14637261228E+02  0.29116229228E+02  0.40884374226E+02  0.00000000000E+00 0. -1.
</event>
<event>
 7    1  0.1654239E-015  0.9000771E+02  0.7816164E-02  0.1186339E+00
        -11   -1    0    0    0    0  0.00000000000E+00  0.00000000000E+00  0.45593999997E+02  0.45594000000E+02  0.51100000000E-03 0. -1.
         11   -1    0    0    0    0 -0.00000000000E+00 -0.00000000000E+00 -0.45593999997E+02  0.45594000000E+02  0.51100000000E-03 0.  1.
    9900012    2    1    2    0    0 -0.57842723451E+00 -0.47536278719E+00  0.91243349576E+00  0.90007710743E+02  0.89999971725E+02 0.  0.
        -12    1    1    2    0    0  0.57842723451E+00  0.47536278719E+00 -0.91243349576E+00  0.11802892566E+01  0.00000000000E+00 0.  1.
         11    1    3    3    0    0 -0.37343330984E+02  0.13129781469E+02  0.15356178729E+02  0.42458541612E+02  0.51100000000E-03 0. -1.
        -11    1    3    3    0    0  0.64637475592E+01 -0.51460940445E+01  0.58396267402E+01  0.10117487690E+02  0.51100000000E-03 0.  1.
        -12    1    3    3    0    0  0.30301156190E+02 -0.84590502113E+01 -0.20283371973E+02  0.37431681442E+02  0.00000000000E+00 0.  1.
</event>
<event>
 7    1  0.1654239E-015  0.9000778E+02  0.7816164E-02  0.1186339E+00
        -11   -1    0    0    0    0  0.00000000000E+00  0.00000000000E+00  0.45593999997E+02  0.45594000000E+02  0.51100000000E-03 0. -1.
         11   -1    0    0    0    0 -0.00000000000E+00 -0.00000000000E+00 -0.45593999997E+02  0.45594000000E+02  0.51100000000E-03 0.  1.
    9900012    2    1    2    0    0 -0.10607303643E+01 -0.36927388230E+00  0.36250490669E+00  0.90007778871E+02  0.90000040752E+02 0.  0.
        -12    1    1    2    0    0  0.10607303643E+01  0.36927388230E+00 -0.36250490669E+00  0.11802211290E+01  0.00000000000E+00 0.  1.
         11    1    3    3    0    0 -0.16288563972E+02  0.30496921774E+02 -0.21016528166E+02  0.40460771253E+02  0.51100000000E-03 0. -1.
        -11    1    3    3    0    0 -0.34460780428E+01  0.19843148052E+01  0.89076683372E+01  0.97549738385E+01  0.51100000000E-03 0.  1.
        -12    1    3    3    0    0  0.18673911651E+02 -0.32850510462E+02  0.12471364735E+02  0.39792033779E+02  0.00000000000E+00 0.  1.
</event>
<event>
 7    1  0.2198306E-015  0.9000769E+02  0.7816164E-02  0.1186339E+00
        -11   -1    0    0    0    0  0.00000000000E+00  0.00000000000E+00  0.45593999997E+02  0.45594000000E+02  0.51100000000E-03 0. -1.
         11   -1    0    0    0    0 -0.00000000000E+00 -0.00000000000E+00 -0.45593999997E+02  0.45594000000E+02  0.51100000000E-03 0.  1.
    9900012    2    1    2    0    0 -0.10852465567E+01 -0.25430133330E+00  0.38819383419E+00  0.90007693383E+02  0.89999954136E+02 0.  0.
        -12    1    1    2    0    0  0.10852465567E+01  0.25430133330E+00 -0.38819383419E+00  0.11803066169E+01  0.00000000000E+00 0.  1.
         11    1    3    3    0    0  0.40951912720E+01  0.51537177607E+01 -0.68436144298E+01  0.94956019839E+01  0.51100000000E-03 0. -1.
        -11    1    3    3    0    0 -0.25166205392E+02  0.28735164484E+02  0.13383417988E+02  0.40474231914E+02  0.51100000000E-03 0.  1.
         12    1    3    3    0    0  0.19985767563E+02 -0.34143183578E+02 -0.61516097237E+01  0.40037859485E+02  0.00000000000E+00 0. -1.
</event>
<event>
 7    1  0.1654239E-015  0.9000774E+02  0.7816164E-02  0.1186339E+00
        -11   -1    0    0    0    0  0.00000000000E+00  0.00000000000E+00  0.45593999997E+02  0.45594000000E+02  0.51100000000E-03 0.  1.
         11   -1    0    0    0    0 -0.00000000000E+00 -0.00000000000E+00 -0.45593999997E+02  0.45594000000E+02  0.51100000000E-03 0. -1.
    9900012    2    1    2    0    0 -0.22403525016E+00  0.10645592248E+01 -0.45774635082E+00  0.90007741614E+02  0.90000003003E+02 0.  0.
        -12    1    1    2    0    0  0.22403525016E+00 -0.10645592248E+01  0.45774635082E+00  0.11802583862E+01  0.00000000000E+00 0.  1.
         11    1    3    3    0    0 -0.10450098980E+02  0.89745786171E+00 -0.18838333673E+01  0.10656398441E+02  0.51100000000E-03 0. -1.
        -11    1    3    3    0    0 -0.19798031681E+02 -0.49215130165E-01  0.31274529571E+02  0.37014330748E+02  0.51100000000E-03 0.  1.
         12    1    3    3    0    0  0.30024095412E+02  0.21631649324E+00 -0.29848442555E+02  0.42337012425E+02  0.00000000000E+00 0. -1.
</event>
<event>
 7    1  0.1654239E-015  0.9000776E+02  0.7816164E-02  0.1186339E+00
        -11   -1    0    0    0    0  0.00000000000E+00  0.00000000000E+00  0.45593999997E+02  0.45594000000E+02  0.51100000000E-03 0.  1.
         11   -1    0    0    0    0 -0.00000000000E+00 -0.00000000000E+00 -0.45593999997E+02  0.45594000000E+02  0.51100000000E-03 0. -1.
    9900012    2    1    2    0    0 -0.11431534892E+01  0.29341929726E+00 -0.82377633790E-02  0.90007761615E+02  0.90000023269E+02 0.  0.
        -12    1    1    2    0    0  0.11431534892E+01 -0.29341929726E+00  0.82377633790E-02  0.11802383846E+01  0.00000000000E+00 0.  1.
         11    1    3    3    0    0 -0.44216303488E+02 -0.66157222671E+01  0.51717804663E+01  0.45006628275E+02  0.51100000000E-03 0. -1.
        -11    1    3    3    0    0  0.11657741063E+02  0.60428593788E+01  0.11209411748E+00  0.13131322916E+02  0.51100000000E-03 0.  1.
        -12    1    3    3    0    0  0.31415408936E+02  0.86628218564E+00 -0.52921123471E+01  0.31869810425E+02  0.00000000000E+00 0.  1.
</event>
<event>
 7    1  0.1654239E-015  0.9000780E+02  0.7816164E-02  0.1186339E+00
        -11   -1    0    0    0    0  0.00000000000E+00  0.00000000000E+00  0.45593999997E+02  0.45594000000E+02  0.51100000000E-03 0.  1.
         11   -1    0    0    0    0 -0.00000000000E+00 -0.00000000000E+00 -0.45593999997E+02  0.45594000000E+02  0.51100000000E-03 0. -1.
    9900012    2    1    2    0    0  0.24374324476E+00  0.23818469093E+00 -0.11299288258E+01  0.90007795836E+02  0.90000057941E+02 0.  0.
        -12    1    1    2    0    0 -0.24374324476E+00 -0.23818469093E+00  0.11299288258E+01  0.11802041636E+01  0.00000000000E+00 0.  1.
         11    1    3    3    0    0  0.54486570587E+01 -0.21466964777E+02  0.23583392947E+02  0.32352663934E+02  0.51100000000E-03 0. -1.
        -11    1    3    3    0    0 -0.19140710550E+02  0.16556283481E+02  0.37149984894E+01  0.25578868957E+02  0.51100000000E-03 0.  1.
        -12    1    3    3    0    0  0.13935796736E+02  0.51488659872E+01 -0.28428320262E+02  0.32076262945E+02  0.00000000000E+00 0.  1.
</event>
<event>
 7    1  0.1654239E-015  0.9000771E+02  0.7816164E-02  0.1186339E+00
        -11   -1    0    0    0    0  0.00000000000E+00  0.00000000000E+00  0.45593999997E+02  0.45594000000E+02  0.51100000000E-03 0.  1.
         11   -1    0    0    0    0 -0.00000000000E+00 -0.00000000000E+00 -0.45593999997E+02  0.45594000000E+02  0.51100000000E-03 0. -1.
    9900012    2    1    2    0    0  0.11224116022E+01 -0.59668985919E-01 -0.36016734144E+00  0.90007708211E+02  0.89999969160E+02 0.  0.
        -12    1    1    2    0    0 -0.11224116022E+01  0.59668985919E-01  0.36016734144E+00  0.11802917887E+01  0.00000000000E+00 0.  1.
         11    1    3    3    0    0  0.83973884627E+01  0.56833412384E+01 -0.79682474167E+00  0.10171107637E+02  0.51100000000E-03 0. -1.
        -11    1    3    3    0    0  0.23687718147E+02 -0.35525875498E+01 -0.28618602011E+02  0.37319609465E+02  0.51100000000E-03 0.  1.
         12    1    3    3    0    0 -0.30962695007E+02 -0.21904226745E+01  0.29055259411E+02  0.42516991110E+02  0.00000000000E+00 0. -1.
</event>
<event>
 7    1  0.1654239E-015  0.9000768E+02  0.7816164E-02  0.1186339E+00
        -11   -1    0    0    0    0  0.00000000000E+00  0.00000000000E+00  0.45593999997E+02  0.45594000000E+02  0.51100000000E-03 0. -1.
         11   -1    0    0    0    0 -0.00000000000E+00 -0.00000000000E+00 -0.45593999997E+02  0.45594000000E+02  0.51100000000E-03 0.  1.
    9900012    2    1    2    0    0  0.11467059720E+01 -0.20854160638E+00 -0.18634069923E+00  0.90007683498E+02  0.89999944121E+02 0.  0.
        -12    1    1    2    0    0 -0.11467059720E+01  0.20854160638E+00  0.18634069923E+00  0.11803165016E+01  0.00000000000E+00 0.  1.
         11    1    3    3    0    0  0.98370590967E+01  0.56607092600E+01  0.44728813695E+01  0.12199099516E+02  0.51100000000E-03 0. -1.
        -11    1    3    3    0    0 -0.45824039769E+01  0.12820298736E+02 -0.37447066645E+02  0.39845216607E+02  0.51100000000E-03 0.  1.
         12    1    3    3    0    0 -0.41079491478E+01 -0.18689549602E+02  0.32787844576E+02  0.37963367375E+02  0.00000000000E+00 0. -1.
</event>
<event>
 7    1  0.1654239E-015  0.9000773E+02  0.7816164E-02  0.1186339E+00
        -11   -1    0    0    0    0  0.00000000000E+00  0.00000000000E+00  0.45593999997E+02  0.45594000000E+02  0.51100000000E-03 0. -1.
         11   -1    0    0    0    0 -0.00000000000E+00 -0.00000000000E+00 -0.45593999997E+02  0.45594000000E+02  0.51100000000E-03 0.  1.
    9900012    2    1    2    0    0 -0.30731449446E+00 -0.10895201463E+01 -0.33398361835E+00  0.90007728250E+02  0.89999989462E+02 0.  0.
        -12    1    1    2    0    0  0.30731449446E+00  0.10895201463E+01  0.33398361835E+00  0.11802717505E+01  0.00000000000E+00 0.  1.
         11    1    3    3    0    0 -0.14429823566E+02 -0.27323181006E+02  0.22797580572E+02  0.38399293075E+02  0.51100000000E-03 0. -1.
        -11    1    3    3    0    0  0.37834145672E+01 -0.23608208814E+01  0.73225394064E+01  0.85736389380E+01  0.51100000000E-03 0.  1.
        -12    1    3    3    0    0  0.10339094505E+02  0.28594481741E+02 -0.30454103597E+02  0.43034796237E+02  0.00000000000E+00 0.  1.
</event>
<event>
 7    1  0.1654239E-015  0.9000773E+02  0.7816164E-02  0.1186339E+00
        -11   -1    0    0    0    0  0.00000000000E+00  0.00000000000E+00  0.45593999997E+02  0.45594000000E+02  0.51100000000E-03 0.  1.
         11   -1    0    0    0    0 -0.00000000000E+00 -0.00000000000E+00 -0.45593999997E+02  0.45594000000E+02  0.51100000000E-03 0. -1.
    9900012    2    1    2    0    0 -0.70873668623E+00 -0.41059099530E+00 -0.84979302903E+00  0.90007728485E+02  0.89999989701E+02 0.  0.
        -12    1    1    2    0    0  0.70873668623E+00  0.41059099530E+00  0.84979302903E+00  0.11802715145E+01  0.00000000000E+00 0.  1.
         11    1    3    3    0    0  0.11842536273E+02  0.12964553617E+01 -0.10703408356E+01  0.11961274666E+02  0.51100000000E-03 0. -1.
        -11    1    3    3    0    0  0.16020352200E+01 -0.38547217015E+02  0.21598420686E+00  0.38581097780E+02  0.51100000000E-03 0.  1.
         12    1    3    3    0    0 -0.14153308179E+02  0.36840170658E+02  0.45635996761E-02  0.39465356040E+02  0.00000000000E+00 0. -1.
</event>
<event>
 7    1  0.1654239E-015  0.9000792E+02  0.7816164E-02  0.1186339E+00
        -11   -1    0    0    0    0  0.00000000000E+00  0.00000000000E+00  0.45593999997E+02  0.45594000000E+02  0.51100000000E-03 0. -1.
         11   -1    0    0    0    0 -0.00000000000E+00 -0.00000000000E+00 -0.45593999997E+02  0.45594000000E+02  0.51100000000E-03 0.  1.
    9900012    2    1    2    0    0  0.25868371452E+00  0.67740158205E+00  0.93101853344E+00  0.90007921326E+02  0.90000185087E+02 0.  0.
        -12    1    1    2    0    0 -0.25868371452E+00 -0.67740158205E+00 -0.93101853344E+00  0.11800786741E+01  0.00000000000E+00 0.  1.
         11    1    3    3    0    0 -0.33488115821E+01  0.40119390876E+01  0.75633203817E+01  0.91931501518E+01  0.51100000000E-03 0. -1.
        -11    1    3    3    0    0 -0.10052151388E+02  0.81047474407E+01 -0.40520586320E+02  0.42528232912E+02  0.51100000000E-03 0.  1.
         12    1    3    3    0    0  0.13659646685E+02 -0.11439284946E+02  0.33888284472E+02  0.38286538262E+02  0.00000000000E+00 0. -1.
</event>
<event>
 7    1  0.1654239E-015  0.9000768E+02  0.7816164E-02  0.1186339E+00
        -11   -1    0    0    0    0  0.00000000000E+00  0.00000000000E+00  0.45593999997E+02  0.45594000000E+02  0.51100000000E-03 0.  1.
         11   -1    0    0    0    0 -0.00000000000E+00 -0.00000000000E+00 -0.45593999997E+02  0.45594000000E+02  0.51100000000E-03 0. -1.
    9900012    2    1    2    0    0 -0.67921907325E-01  0.85250093531E+00 -0.81349854517E+00  0.90007681775E+02  0.89999942374E+02 0.  0.
        -12    1    1    2    0    0  0.67921907325E-01 -0.85250093531E+00  0.81349854517E+00  0.11803182254E+01  0.00000000000E+00 0.  1.
         11    1    3    3    0    0 -0.23659294446E+01  0.32300955891E+01  0.13110441907E+02  0.13708202906E+02  0.51100000000E-03 0. -1.
        -11    1    3    3    0    0 -0.25740577227E+02 -0.24271237164E+02  0.54434741629E+01  0.35795274558E+02  0.51100000000E-03 0.  1.
         12    1    3    3    0    0  0.28038584764E+02  0.21893642510E+02 -0.19367414616E+02  0.40504204310E+02  0.00000000000E+00 0. -1.
</event>
<event>
 7    1  0.1654239E-015  0.9000774E+02  0.7816164E-02  0.1186339E+00
        -11   -1    0    0    0    0  0.00000000000E+00  0.00000000000E+00  0.45593999997E+02  0.45594000000E+02  0.51100000000E-03 0.  1.
         11   -1    0    0    0    0 -0.00000000000E+00 -0.00000000000E+00 -0.45593999997E+02  0.45594000000E+02  0.51100000000E-03 0. -1.
    9900012    2    1    2    0    0  0.42288237938E+00  0.53892006328E+00 -0.96111659230E+00  0.90007741789E+02  0.90000003180E+02 0.  0.
        -12    1    1    2    0    0 -0.42288237938E+00 -0.53892006328E+00  0.96111659230E+00  0.11802582113E+01  0.00000000000E+00 0.  1.
         11    1    3    3    0    0 -0.13705235526E+01 -0.23849434730E+01 -0.11464542160E+02  0.11789911678E+02  0.51100000000E-03 0. -1.
        -11    1    3    3    0    0 -0.30113397727E+02  0.14547668561E+02 -0.14089163478E+02  0.36289887173E+02  0.51100000000E-03 0.  1.
         12    1    3    3    0    0  0.31906803659E+02 -0.11623805025E+02  0.24592589046E+02  0.41927942938E+02  0.00000000000E+00 0. -1.
</event>
<event>
 7    1  0.1654239E-015  0.9000774E+02  0.7816164E-02  0.1186339E+00
        -11   -1    0    0    0    0  0.00000000000E+00  0.00000000000E+00  0.45593999997E+02  0.45594000000E+02  0.51100000000E-03 0.  1.
         11   -1    0    0    0    0 -0.00000000000E+00 -0.00000000000E+00 -0.45593999997E+02  0.45594000000E+02  0.51100000000E-03 0. -1.
    9900012    2    1    2    0    0 -0.58705146576E+00 -0.87998785898E+00 -0.52345863605E+00  0.90007738589E+02  0.89999999938E+02 0.  0.
        -12    1    1    2    0    0  0.58705146576E+00  0.87998785898E+00  0.52345863605E+00  0.11802614113E+01  0.00000000000E+00 0.  1.
         11    1    3    3    0    0 -0.77602095917E+01  0.63889510601E+01  0.31974365299E+01  0.10548134867E+02  0.51100000000E-03 0. -1.
        -11    1    3    3    0    0  0.92212787304E+01  0.10715895080E+02  0.34437063157E+02  0.37225981625E+02  0.51100000000E-03 0.  1.
         12    1    3    3    0    0 -0.20481206045E+01 -0.17984833999E+02 -0.38157958323E+02  0.42233622096E+02  0.00000000000E+00 0. -1.
</event>
<event>
 7    1  0.1654239E-015  0.9000778E+02  0.7816164E-02  0.1186339E+00
        -11   -1    0    0    0    0  0.00000000000E+00  0.00000000000E+00  0.45593999997E+02  0.45594000000E+02  0.51100000000E-03 0.  1.
         11   -1    0    0    0    0 -0.00000000000E+00 -0.00000000000E+00 -0.45593999997E+02  0.45594000000E+02  0.51100000000E-03 0. -1.
    9900012    2    1    2    0    0  0.58174370693E+00 -0.44168705859E+00 -0.92703713923E+00  0.90007783471E+02  0.90000045413E+02 0.  0.
        -12    1    1    2    0    0 -0.58174370693E+00  0.44168705859E+00  0.92703713923E+00  0.11802165292E+01  0.00000000000E+00 0.  1.
         11    1    3    3    0    0  0.40847863376E+02  0.68848926505E+01  0.10942155326E+02  0.42844841611E+02  0.51100000000E-03 0. -1.
        -11    1    3    3    0    0 -0.74036365541E+01 -0.48864862766E+01  0.49578936171E+01  0.10162297562E+02  0.51100000000E-03 0.  1.
        -12    1    3    3    0    0 -0.32862483115E+02 -0.24400934325E+01 -0.16827086083E+02  0.37000644298E+02  0.00000000000E+00 0.  1.
</event>
<event>
 7    1  0.1654239E-015  0.9000775E+02  0.7816164E-02  0.1186339E+00
        -11   -1    0    0    0    0  0.00000000000E+00  0.00000000000E+00  0.45593999997E+02  0.45594000000E+02  0.51100000000E-03 0. -1.
         11   -1    0    0    0    0 -0.00000000000E+00 -0.00000000000E+00 -0.45593999997E+02  0.45594000000E+02  0.51100000000E-03 0.  1.
    9900012    2    1    2    0    0 -0.15685445139E-01 -0.43966559234E+00  0.10951851951E+01  0.90007753213E+02  0.90000014756E+02 0.  0.
        -12    1    1    2    0    0  0.15685445139E-01  0.43966559234E+00 -0.10951851951E+01  0.11802467868E+01  0.00000000000E+00 0.  1.
         11    1    3    3    0    0 -0.19534778187E+01  0.96017304956E+01  0.43888113167E+01  0.10736431862E+02  0.51100000000E-03 0. -1.
        -11    1    3    3    0    0 -0.34581217850E+02  0.67733957557E+01 -0.13592549630E+02  0.37768994212E+02  0.51100000000E-03 0.  1.
         12    1    3    3    0    0  0.36519010224E+02 -0.16814791844E+02  0.10298923509E+02  0.41502327139E+02  0.00000000000E+00 0. -1.
</event>
<event>
 7    1  0.1654239E-015  0.9000776E+02  0.7816164E-02  0.1186339E+00
        -11   -1    0    0    0    0  0.00000000000E+00  0.00000000000E+00  0.45593999997E+02  0.45594000000E+02  0.51100000000E-03 0. -1.
         11   -1    0    0    0    0 -0.00000000000E+00 -0.00000000000E+00 -0.45593999997E+02  0.45594000000E+02  0.51100000000E-03 0.  1.
    9900012    2    1    2    0    0 -0.71260753604E+00 -0.10333160273E+00  0.93513307800E+00  0.90007762399E+02  0.90000024063E+02 0.  0.
        -12    1    1    2    0    0  0.71260753604E+00  0.10333160273E+00 -0.93513307800E+00  0.11802376007E+01  0.00000000000E+00 0.  1.
         11    1    3    3    0    0 -0.25382125212E+02 -0.12525195609E+02  0.22456307424E+02  0.36130576369E+02  0.51100000000E-03 0. -1.
        -11    1    3    3    0    0  0.28863596899E+01 -0.50265443053E+01  0.10134434105E+02  0.11674929327E+02  0.51100000000E-03 0.  1.
        -12    1    3    3    0    0  0.21783157986E+02  0.17448408311E+02 -0.31655608451E+02  0.42202256703E+02  0.00000000000E+00 0.  1.
</event>
<event>
 7    1  0.1654239E-015  0.9000773E+02  0.7816164E-02  0.1186339E+00
        -11   -1    0    0    0    0  0.00000000000E+00  0.00000000000E+00  0.45593999997E+02  0.45594000000E+02  0.51100000000E-03 0.  1.
         11   -1    0    0    0    0 -0.00000000000E+00 -0.00000000000E+00 -0.45593999997E+02  0.45594000000E+02  0.51100000000E-03 0. -1.
    9900012    2    1    2    0    0  0.18441657978E+00 -0.59857683256E+00 -0.10003712577E+01  0.90007726154E+02  0.89999987339E+02 0.  0.
        -12    1    1    2    0    0 -0.18441657978E+00  0.59857683256E+00  0.10003712577E+01  0.11802738464E+01  0.00000000000E+00 0.  1.
         11    1    3    3    0    0 -0.27572264706E+02  0.24497987887E+01 -0.24142680955E+02  0.36730101267E+02  0.51100000000E-03 0. -1.
        -11    1    3    3    0    0  0.99468823010E+01 -0.15033059508E+02 -0.42064141025E+01  0.18510193558E+02  0.51100000000E-03 0.  1.
        -12    1    3    3    0    0  0.17809798985E+02  0.11984683887E+02  0.27348723800E+02  0.34767431329E+02  0.00000000000E+00 0.  1.
</event>
<event>
 7    1  0.1654239E-015  0.9000784E+02  0.7816164E-02  0.1186339E+00
        -11   -1    0    0    0    0  0.00000000000E+00  0.00000000000E+00  0.45593999997E+02  0.45594000000E+02  0.51100000000E-03 0.  1.
         11   -1    0    0    0    0 -0.00000000000E+00 -0.00000000000E+00 -0.45593999997E+02  0.45594000000E+02  0.51100000000E-03 0. -1.
    9900012    2    1    2    0    0 -0.45370294841E+00  0.95842077463E+00 -0.51803271039E+00  0.90007841267E+02  0.90000103971E+02 0.  0.
        -12    1    1    2    0    0  0.45370294841E+00 -0.95842077463E+00  0.51803271039E+00  0.11801587332E+01  0.00000000000E+00 0.  1.
         11    1    3    3    0    0 -0.84995336809E+01  0.24318296552E+01 -0.66663601564E+00  0.88656794496E+01  0.51100000000E-03 0. -1.
        -11    1    3    3    0    0 -0.17876295377E+02 -0.30120343550E+02  0.17071023733E+02  0.38964302683E+02  0.51100000000E-03 0.  1.
         12    1    3    3    0    0  0.25922126109E+02  0.28646934670E+02 -0.16922420428E+02  0.42177859134E+02  0.00000000000E+00 0. -1.
</event>
<event>
 7    1  0.1654239E-015  0.9000771E+02  0.7816164E-02  0.1186339E+00
        -11   -1    0    0    0    0  0.00000000000E+00  0.00000000000E+00  0.45593999997E+02  0.45594000000E+02  0.51100000000E-03 0. -1.
         11   -1    0    0    0    0 -0.00000000000E+00 -0.00000000000E+00 -0.45593999997E+02  0.45594000000E+02  0.51100000000E-03 0.  1.
    9900012    2    1    2    0    0 -0.97960322554E+00  0.94563129450E-01  0.65154475324E+00  0.90007713920E+02  0.89999974944E+02 0.  0.
        -12    1    1    2    0    0  0.97960322554E+00 -0.94563129450E-01 -0.65154475324E+00  0.11802860799E+01  0.00000000000E+00 0.  1.
         11    1    3    3    0    0  0.38030754350E+01 -0.26699536488E+02  0.17811201146E+02  0.32319769770E+02  0.51100000000E-03 0. -1.
        -11    1    3    3    0    0  0.10939498767E+01 -0.13378455762E+02  0.45626237598E+00  0.13430859262E+02  0.51100000000E-03 0.  1.
        -12    1    3    3    0    0 -0.58766285373E+01  0.40172555380E+02 -0.17615918769E+02  0.44257084888E+02  0.00000000000E+00 0.  1.
</event>
<event>
 7    1  0.1654239E-015  0.9000772E+02  0.7816164E-02  0.1186339E+00
        -11   -1    0    0    0    0  0.00000000000E+00  0.00000000000E+00  0.45593999997E+02  0.45594000000E+02  0.51100000000E-03 0. -1.
         11   -1    0    0    0    0 -0.00000000000E+00 -0.00000000000E+00 -0.45593999997E+02  0.45594000000E+02  0.51100000000E-03 0.  1.
    9900012    2    1    2    0    0 -0.51003397571E+00 -0.42288032834E+00  0.97678051239E+00  0.90007719272E+02  0.89999980366E+02 0.  0.
        -12    1    1    2    0    0  0.51003397571E+00  0.42288032834E+00 -0.97678051239E+00  0.11802807284E+01  0.00000000000E+00 0.  1.
         11    1    3    3    0    0  0.34228504723E+02 -0.37785006256E+01 -0.12358051982E+02  0.36586733273E+02  0.51100000000E-03 0. -1.
        -11    1    3    3    0    0  0.53376313525E+01  0.43562556332E+01  0.11357205562E+02  0.13283575951E+02  0.51100000000E-03 0.  1.
        -12    1    3    3    0    0 -0.40076170051E+02 -0.10006353359E+01  0.19776269322E+01  0.40137410048E+02  0.00000000000E+00 0.  1.
</event>
<event>
 7    1  0.1654239E-015  0.9000774E+02  0.7816164E-02  0.1186339E+00
        -11   -1    0    0    0    0  0.00000000000E+00  0.00000000000E+00  0.45593999997E+02  0.45594000000E+02  0.51100000000E-03 0.  1.
         11   -1    0    0    0    0 -0.00000000000E+00 -0.00000000000E+00 -0.45593999997E+02  0.45594000000E+02  0.51100000000E-03 0. -1.
    9900012    2    1    2    0    0  0.58727003879E-01  0.11731141653E+01 -0.11565418416E+00  0.90007736641E+02  0.89999997965E+02 0.  0.
        -12    1    1    2    0    0 -0.58727003879E-01 -0.11731141653E+01  0.11565418416E+00  0.11802633588E+01  0.00000000000E+00 0.  1.
         11    1    3    3    0    0  0.34592757371E+02  0.11160783776E+02  0.21090721432E+02  0.42024284500E+02  0.51100000000E-03 0. -1.
        -11    1    3    3    0    0 -0.18095711104E+01 -0.85249756268E+01  0.43048717367E+00  0.87255416169E+01  0.51100000000E-03 0.  1.
        -12    1    3    3    0    0 -0.32724459256E+02 -0.14626939839E+01 -0.21636862790E+02  0.39257910524E+02  0.00000000000E+00 0.  1.
</event>
<event>
 7    1  0.1654239E-015  0.9000776E+02  0.7816164E-02  0.1186339E+00
        -11   -1    0    0    0    0  0.00000000000E+00  0.00000000000E+00  0.45593999997E+02  0.45594000000E+02  0.51100000000E-03 0. -1.
         11   -1    0    0    0    0 -0.00000000000E+00 -0.00000000000E+00 -0.45593999997E+02  0.45594000000E+02  0.51100000000E-03 0.  1.
    9900012    2    1    2    0    0 -0.32513918128E+00 -0.43491446897E+00  0.10479065613E+01  0.90007756701E+02  0.90000018290E+02 0.  0.
        -12    1    1    2    0    0  0.32513918128E+00  0.43491446897E+00 -0.10479065613E+01  0.11802432986E+01  0.00000000000E+00 0.  1.
         11    1    3    3    0    0 -0.10199885927E+02 -0.68402528759E+00 -0.35831505570E+01  0.10832568103E+02  0.51100000000E-03 0. -1.
        -11    1    3    3    0    0 -0.28332402001E+02 -0.20427025185E+02  0.71756417678E+01  0.35657792922E+02  0.51100000000E-03 0.  1.
         12    1    3    3    0    0  0.38207148747E+02  0.20676136004E+02 -0.25445846495E+01  0.43517395676E+02  0.00000000000E+00 0. -1.
</event>
<event>
 7    1  0.1654239E-015  0.9000862E+02  0.7816164E-02  0.1186337E+00
        -11   -1    0    0    0    0  0.00000000000E+00  0.00000000000E+00  0.45593999997E+02  0.45594000000E+02  0.51100000000E-03 0. -1.
         11   -1    0    0    0    0 -0.00000000000E+00 -0.00000000000E+00 -0.45593999997E+02  0.45594000000E+02  0.51100000000E-03 0.  1.
    9900012    2    1    2    0    0 -0.80930695495E+00  0.51983842813E+00  0.68244822484E+00  0.90008616552E+02  0.90000889486E+02 0.  0.
        -12    1    1    2    0    0  0.80930695495E+00 -0.51983842813E+00 -0.68244822484E+00  0.11793834484E+01  0.00000000000E+00 0.  1.
         11    1    3    3    0    0 -0.65815758160E+01 -0.15738976558E+01 -0.61072235804E+01  0.91155073460E+01  0.51100000000E-03 0. -1.
        -11    1    3    3    0    0 -0.40551361892E+00  0.40883314484E+02 -0.77586972372E+00  0.40892686615E+02  0.51100000000E-03 0.  1.
         12    1    3    3    0    0  0.61777824800E+01 -0.38789578400E+02  0.75655415289E+01  0.40000422591E+02  0.00000000000E+00 0. -1.
</event>
<event>
 7    1  0.1654239E-015  0.9000794E+02  0.7816164E-02  0.1186339E+00
        -11   -1    0    0    0    0  0.00000000000E+00  0.00000000000E+00  0.45593999997E+02  0.45594000000E+02  0.51100000000E-03 0.  1.
         11   -1    0    0    0    0 -0.00000000000E+00 -0.00000000000E+00 -0.45593999997E+02  0.45594000000E+02  0.51100000000E-03 0. -1.
    9900012    2    1    2    0    0  0.61032550577E+00  0.21411300745E+00 -0.98701065345E+00  0.90007944225E+02  0.90000208288E+02 0.  0.
        -12    1    1    2    0    0 -0.61032550577E+00 -0.21411300745E+00  0.98701065345E+00  0.11800557754E+01  0.00000000000E+00 0.  1.
         11    1    3    3    0    0  0.78299869736E+01 -0.28143055793E+01 -0.51801279802E+01  0.98011600361E+01  0.51100000000E-03 0. -1.
        -11    1    3    3    0    0  0.13914780514E+01  0.41069490776E+02  0.22961245245E+01  0.41157155780E+02  0.51100000000E-03 0.  1.
         12    1    3    3    0    0 -0.86111395193E+01 -0.38041072190E+02  0.18969928022E+01  0.39049628409E+02  0.00000000000E+00 0. -1.
</event>
<event>
 7    1  0.1654239E-015  0.9000776E+02  0.7816164E-02  0.1186339E+00
        -11   -1    0    0    0    0  0.00000000000E+00  0.00000000000E+00  0.45593999997E+02  0.45594000000E+02  0.51100000000E-03 0. -1.
         11   -1    0    0    0    0 -0.00000000000E+00 -0.00000000000E+00 -0.45593999997E+02  0.45594000000E+02  0.51100000000E-03 0.  1.
    9900012    2    1    2    0    0  0.43598456996E+00 -0.66824291711E+00  0.86967272881E+00  0.90007761975E+02  0.90000023633E+02 0.  0.
        -12    1    1    2    0    0 -0.43598456996E+00  0.66824291711E+00 -0.86967272881E+00  0.11802380255E+01  0.00000000000E+00 0.  1.
         11    1    3    3    0    0 -0.60578306929E+01 -0.52424272775E+01  0.77697687229E+01  0.11160182021E+02  0.51100000000E-03 0. -1.
        -11    1    3    3    0    0 -0.27738098308E+02 -0.21242759216E+02  0.22352097512E+01  0.35009328467E+02  0.51100000000E-03 0.  1.
         12    1    3    3    0    0  0.34231913570E+02  0.25816943577E+02 -0.91353057452E+01  0.43838251487E+02  0.00000000000E+00 0. -1.
</event>
<event>
 7    1  0.1654239E-015  0.9000791E+02  0.7816164E-02  0.1186339E+00
        -11   -1    0    0    0    0  0.00000000000E+00  0.00000000000E+00  0.45593999997E+02  0.45594000000E+02  0.51100000000E-03 0.  1.
         11   -1    0    0    0    0 -0.00000000000E+00 -0.00000000000E+00 -0.45593999997E+02  0.45594000000E+02  0.51100000000E-03 0. -1.
    9900012    2    1    2    0    0 -0.80177567636E-01  0.50783454115E+00 -0.10622089713E+01  0.90007910062E+02  0.90000173674E+02 0.  0.
        -12    1    1    2    0    0  0.80177567636E-01 -0.50783454115E+00  0.10622089713E+01  0.11800899382E+01  0.00000000000E+00 0.  1.
         11    1    3    3    0    0  0.65900611221E+01 -0.18277406430E+01 -0.15714583297E+01  0.70170523009E+01  0.51100000000E-03 0. -1.
        -11    1    3    3    0    0  0.31684176576E+02  0.12752653118E+02  0.19079881467E+02  0.39122360408E+02  0.51100000000E-03 0.  1.
         12    1    3    3    0    0 -0.38354415266E+02 -0.10417077933E+02 -0.18570632109E+02  0.43868497353E+02  0.00000000000E+00 0. -1.
</event>
<event>
 7    1  0.1654239E-015  0.9000779E+02  0.7816164E-02  0.1186339E+00
        -11   -1    0    0    0    0  0.00000000000E+00  0.00000000000E+00  0.45593999997E+02  0.45594000000E+02  0.51100000000E-03 0.  1.
         11   -1    0    0    0    0 -0.00000000000E+00 -0.00000000000E+00 -0.45593999997E+02  0.45594000000E+02  0.51100000000E-03 0. -1.
    9900012    2    1    2    0    0  0.10312616252E+01 -0.11538709890E+00  0.56221525619E+00  0.90007787851E+02  0.90000049851E+02 0.  0.
        -12    1    1    2    0    0 -0.10312616252E+01  0.11538709890E+00 -0.56221525619E+00  0.11802121490E+01  0.00000000000E+00 0.  1.
         11    1    3    3    0    0  0.49215813679E+01 -0.79997117986E+01 -0.39596001621E+01  0.10192928221E+02  0.51100000000E-03 0. -1.
        -11    1    3    3    0    0 -0.40308223033E+02  0.11300562639E+02  0.94241362972E+01  0.42910021035E+02  0.51100000000E-03 0.  1.
         12    1    3    3    0    0  0.36417903290E+02 -0.34162379391E+01 -0.49023208789E+01  0.36904838595E+02  0.00000000000E+00 0. -1.
</event>
<event>
 7    1  0.1654239E-015  0.9000775E+02  0.7816164E-02  0.1186339E+00
        -11   -1    0    0    0    0  0.00000000000E+00  0.00000000000E+00  0.45593999997E+02  0.45594000000E+02  0.51100000000E-03 0.  1.
         11   -1    0    0    0    0 -0.00000000000E+00 -0.00000000000E+00 -0.45593999997E+02  0.45594000000E+02  0.51100000000E-03 0. -1.
    9900012    2    1    2    0    0  0.59927123607E+00  0.10125613216E+01 -0.92658343522E-01  0.90007749174E+02  0.90000010663E+02 0.  0.
        -12    1    1    2    0    0 -0.59927123607E+00 -0.10125613216E+01  0.92658343522E-01  0.11802508263E+01  0.00000000000E+00 0.  1.
         11    1    3    3    0    0  0.10097492099E+01  0.80316408257E+01 -0.69622596686E+01  0.10677073933E+02  0.51100000000E-03 0. -1.
        -11    1    3    3    0    0 -0.29138310096E+02  0.22061095023E+02  0.11198631983E+02  0.38224892248E+02  0.51100000000E-03 0.  1.
         12    1    3    3    0    0  0.28727832122E+02 -0.29080174527E+02 -0.43290306575E+01  0.41105782992E+02  0.00000000000E+00 0. -1.
</event>
<event>
 7    1  0.1654239E-015  0.9000773E+02  0.7816164E-02  0.1186339E+00
        -11   -1    0    0    0    0  0.00000000000E+00  0.00000000000E+00  0.45593999997E+02  0.45594000000E+02  0.51100000000E-03 0.  1.
         11   -1    0    0    0    0 -0.00000000000E+00 -0.00000000000E+00 -0.45593999997E+02  0.45594000000E+02  0.51100000000E-03 0. -1.
    9900012    2    1    2    0    0  0.28218142113E+00 -0.73045557460E+00 -0.88308600620E+00  0.90007731982E+02  0.89999993244E+02 0.  0.
        -12    1    1    2    0    0 -0.28218142113E+00  0.73045557460E+00  0.88308600620E+00  0.11802680184E+01  0.00000000000E+00 0.  1.
         11    1    3    3    0    0  0.15713997483E+02 -0.27930612419E+02  0.14327051141E+02  0.35104319131E+02  0.51100000000E-03 0. -1.
        -11    1    3    3    0    0  0.31989450803E+01 -0.84527689429E+01  0.45121330608E+01  0.10101578958E+02  0.51100000000E-03 0.  1.
        -12    1    3    3    0    0 -0.18630761142E+02  0.35652925788E+02 -0.19722270208E+02  0.44801833892E+02  0.00000000000E+00 0.  1.
</event>
<event>
 7    1  0.1654239E-015  0.9000781E+02  0.7816164E-02  0.1186339E+00
        -11   -1    0    0    0    0  0.00000000000E+00  0.00000000000E+00  0.45593999997E+02  0.45594000000E+02  0.51100000000E-03 0.  1.
         11   -1    0    0    0    0 -0.00000000000E+00 -0.00000000000E+00 -0.45593999997E+02  0.45594000000E+02  0.51100000000E-03 0. -1.
    9900012    2    1    2    0    0 -0.68099791323E+00 -0.96133306456E+00  0.70259111567E-01  0.90007806896E+02  0.90000069147E+02 0.  0.
        -12    1    1    2    0    0  0.68099791323E+00  0.96133306456E+00 -0.70259111567E-01  0.11801931035E+01  0.00000000000E+00 0.  1.
         11    1    3    3    0    0  0.31848802552E+01 -0.42549069067E+01  0.61336836916E+01  0.81160194008E+01  0.51100000000E-03 0. -1.
        -11    1    3    3    0    0 -0.62461204313E+01 -0.38172510774E+02  0.47557961380E+01  0.38971427949E+02  0.51100000000E-03 0.  1.
         12    1    3    3    0    0  0.23802422628E+01  0.41466084616E+02 -0.10819220718E+02  0.42920359546E+02  0.00000000000E+00 0. -1.
</event>
<event>
 7    1  0.1654239E-015  0.9000776E+02  0.7816164E-02  0.1186339E+00
        -11   -1    0    0    0    0  0.00000000000E+00  0.00000000000E+00  0.45593999997E+02  0.45594000000E+02  0.51100000000E-03 0. -1.
         11   -1    0    0    0    0 -0.00000000000E+00 -0.00000000000E+00 -0.45593999997E+02  0.45594000000E+02  0.51100000000E-03 0.  1.
    9900012    2    1    2    0    0  0.29545294442E+00 -0.10969260146E+01  0.32005252453E+00  0.90007757337E+02  0.90000018934E+02 0.  0.
        -12    1    1    2    0    0 -0.29545294442E+00  0.10969260146E+01 -0.32005252453E+00  0.11802426625E+01  0.00000000000E+00 0.  1.
         11    1    3    3    0    0  0.21944564281E+01  0.24645814267E+01  0.51497746059E+01  0.61163697874E+01  0.51100000000E-03 0. -1.
        -11    1    3    3    0    0 -0.31307544939E+02  0.26698610968E+02  0.17604277885E+01  0.41183459106E+02  0.51100000000E-03 0.  1.
         12    1    3    3    0    0  0.29408541455E+02 -0.30260118409E+02 -0.65901498698E+01  0.42707928444E+02  0.00000000000E+00 0. -1.
</event>
<event>
 7    1  0.1654239E-015  0.9000774E+02  0.7816164E-02  0.1186339E+00
        -11   -1    0    0    0    0  0.00000000000E+00  0.00000000000E+00  0.45593999997E+02  0.45594000000E+02  0.51100000000E-03 0.  1.
         11   -1    0    0    0    0 -0.00000000000E+00 -0.00000000000E+00 -0.45593999997E+02  0.45594000000E+02  0.51100000000E-03 0. -1.
    9900012    2    1    2    0    0  0.67411440907E+00  0.95873996424E+00 -0.13926487518E+00  0.90007742714E+02  0.90000004118E+02 0.  0.
        -12    1    1    2    0    0 -0.67411440907E+00 -0.95873996424E+00  0.13926487518E+00  0.11802572859E+01  0.00000000000E+00 0.  1.
         11    1    3    3    0    0 -0.11008357600E+01 -0.43926262774E+01 -0.13330324447E+02  0.14078513953E+02  0.51100000000E-03 0. -1.
        -11    1    3    3    0    0 -0.27197140336E+02  0.25384941599E+02  0.16199324271E+02  0.40577060139E+02  0.51100000000E-03 0.  1.
         12    1    3    3    0    0  0.28972090505E+02 -0.20033575357E+02 -0.30082646986E+01  0.35352168623E+02  0.00000000000E+00 0. -1.
</event>
<event>
 7    1  0.1654239E-015  0.9000777E+02  0.7816164E-02  0.1186339E+00
        -11   -1    0    0    0    0  0.00000000000E+00  0.00000000000E+00  0.45593999997E+02  0.45594000000E+02  0.51100000000E-03 0.  1.
         11   -1    0    0    0    0 -0.00000000000E+00 -0.00000000000E+00 -0.45593999997E+02  0.45594000000E+02  0.51100000000E-03 0. -1.
    9900012    2    1    2    0    0 -0.11269537978E+01 -0.34892030013E+00  0.34407674095E-01  0.90007765224E+02  0.90000026925E+02 0.  0.
        -12    1    1    2    0    0  0.11269537978E+01  0.34892030013E+00 -0.34407674095E-01  0.11802347759E+01  0.00000000000E+00 0.  1.
         11    1    3    3    0    0  0.55238708250E+01 -0.19364144648E+01  0.42681859551E+01  0.72443261577E+01  0.51100000000E-03 0. -1.
        -11    1    3    3    0    0  0.51009913525E+01  0.12053491521E+02  0.36670617823E+02  0.38936370946E+02  0.51100000000E-03 0.  1.
         12    1    3    3    0    0 -0.11751815975E+02 -0.10465997357E+02 -0.40904396104E+02  0.43827068121E+02  0.00000000000E+00 0. -1.
</event>
<event>
 7    1  0.1654239E-015  0.9000773E+02  0.7816164E-02  0.1186339E+00
        -11   -1    0    0    0    0  0.00000000000E+00  0.00000000000E+00  0.45593999997E+02  0.45594000000E+02  0.51100000000E-03 0. -1.
         11   -1    0    0    0    0 -0.00000000000E+00 -0.00000000000E+00 -0.45593999997E+02  0.45594000000E+02  0.51100000000E-03 0.  1.
    9900012    2    1    2    0    0 -0.13338373156E+00  0.11483967678E+01  0.23753757602E+00  0.90007732888E+02  0.89999994162E+02 0.  0.
        -12    1    1    2    0    0  0.13338373156E+00 -0.11483967678E+01 -0.23753757602E+00  0.11802671122E+01  0.00000000000E+00 0.  1.
         11    1    3    3    0    0  0.28312612792E+00  0.89646013924E+00 -0.94180765085E+01  0.94648806948E+01  0.51100000000E-03 0. -1.
        -11    1    3    3    0    0 -0.29128849892E+02 -0.27478070707E+02  0.50396285462E+01  0.40360031243E+02  0.51100000000E-03 0.  1.
         12    1    3    3    0    0  0.28712340032E+02  0.27730007336E+02  0.46159855384E+01  0.40182820950E+02  0.00000000000E+00 0. -1.
</event>
<event>
 7    1  0.1654239E-015  0.9000772E+02  0.7816164E-02  0.1186339E+00
        -11   -1    0    0    0    0  0.00000000000E+00  0.00000000000E+00  0.45593999997E+02  0.45594000000E+02  0.51100000000E-03 0.  1.
         11   -1    0    0    0    0 -0.00000000000E+00 -0.00000000000E+00 -0.45593999997E+02  0.45594000000E+02  0.51100000000E-03 0. -1.
    9900012    2    1    2    0    0 -0.85762862062E+00 -0.32667926174E+00 -0.74216864316E+00  0.90007720166E+02  0.89999981272E+02 0.  0.
        -12    1    1    2    0    0  0.85762862062E+00  0.32667926174E+00  0.74216864316E+00  0.11802798337E+01  0.00000000000E+00 0.  1.
         11    1    3    3    0    0  0.10861052516E+02  0.35250841424E+02 -0.30956329059E+01  0.37015769967E+02  0.51100000000E-03 0. -1.
        -11    1    3    3    0    0  0.81091922483E+01  0.36849401408E+01  0.12375634079E+01  0.89927385267E+01  0.51100000000E-03 0.  1.
        -12    1    3    3    0    0 -0.19827873384E+02 -0.39262460827E+02  0.11159008549E+01  0.43999211673E+02  0.00000000000E+00 0.  1.
</event>
<event>
 7    1  0.1654239E-015  0.9000793E+02  0.7816164E-02  0.1186339E+00
        -11   -1    0    0    0    0  0.00000000000E+00  0.00000000000E+00  0.45593999997E+02  0.45594000000E+02  0.51100000000E-03 0. -1.
         11   -1    0    0    0    0 -0.00000000000E+00 -0.00000000000E+00 -0.45593999997E+02  0.45594000000E+02  0.51100000000E-03 0.  1.
    9900012    2    1    2    0    0  0.82407228752E-02 -0.72592135396E+00  0.93033722259E+00  0.90007933447E+02  0.90000197368E+02 0.  0.
        -12    1    1    2    0    0 -0.82407228752E-02  0.72592135396E+00 -0.93033722259E+00  0.11800665529E+01  0.00000000000E+00 0.  1.
         11    1    3    3    0    0  0.23657623103E+01  0.10113486894E+01 -0.84089296104E+01  0.87937338449E+01  0.51100000000E-03 0. -1.
        -11    1    3    3    0    0  0.25375228640E+02  0.19056036623E+02 -0.18521089103E+02  0.36743237502E+02  0.51100000000E-03 0.  1.
         12    1    3    3    0    0 -0.27732750227E+02 -0.20793306666E+02  0.27860355936E+02  0.44470962101E+02  0.00000000000E+00 0. -1.
</event>
<event>
 7    1  0.1654239E-015  0.9000813E+02  0.7816164E-02  0.1186338E+00
        -11   -1    0    0    0    0  0.00000000000E+00  0.00000000000E+00  0.45593999997E+02  0.45594000000E+02  0.51100000000E-03 0.  1.
         11   -1    0    0    0    0 -0.00000000000E+00 -0.00000000000E+00 -0.45593999997E+02  0.45594000000E+02  0.51100000000E-03 0. -1.
    9900012    2    1    2    0    0  0.27342080473E+00  0.79132196271E+00 -0.83135704727E+00  0.90008125462E+02  0.90000391917E+02 0.  0.
        -12    1    1    2    0    0 -0.27342080473E+00 -0.79132196271E+00  0.83135704727E+00  0.11798745379E+01  0.00000000000E+00 0.  1.
         11    1    3    3    0    0  0.28610729188E+02 -0.54690039046E-01 -0.22333698216E+02  0.36295604306E+02  0.51100000000E-03 0. -1.
        -11    1    3    3    0    0  0.26537633897E+01  0.48400208900E+01 -0.86684233941E+01  0.10276664184E+02  0.51100000000E-03 0.  1.
        -12    1    3    3    0    0 -0.30991071773E+02 -0.39940088882E+01  0.30170764563E+02  0.43435856973E+02  0.00000000000E+00 0.  1.
</event>
<event>
 7    1  0.1654239E-015  0.9000769E+02  0.7816164E-02  0.1186339E+00
        -11   -1    0    0    0    0  0.00000000000E+00  0.00000000000E+00  0.45593999997E+02  0.45594000000E+02  0.51100000000E-03 0.  1.
         11   -1    0    0    0    0 -0.00000000000E+00 -0.00000000000E+00 -0.45593999997E+02  0.45594000000E+02  0.51100000000E-03 0. -1.
    9900012    2    1    2    0    0 -0.16520364224E+00  0.97521776024E+00 -0.64403707962E+00  0.90007692547E+02  0.89999953289E+02 0.  0.
        -12    1    1    2    0    0  0.16520364224E+00 -0.97521776024E+00  0.64403707962E+00  0.11803074528E+01  0.00000000000E+00 0.  1.
         11    1    3    3    0    0  0.15677310916E+02  0.16823118471E+02 -0.28559390572E+02  0.36666526734E+02  0.51100000000E-03 0. -1.
        -11    1    3    3    0    0  0.32999111474E+01  0.67628138265E+01 -0.50171319434E+01  0.90441515706E+01  0.51100000000E-03 0.  1.
        -12    1    3    3    0    0 -0.19142425706E+02 -0.22610714537E+02  0.32932485436E+02  0.44297014242E+02  0.00000000000E+00 0.  1.
</event>
<event>
 7    1  0.1654239E-015  0.9000773E+02  0.7816164E-02  0.1186339E+00
        -11   -1    0    0    0    0  0.00000000000E+00  0.00000000000E+00  0.45593999997E+02  0.45594000000E+02  0.51100000000E-03 0. -1.
         11   -1    0    0    0    0 -0.00000000000E+00 -0.00000000000E+00 -0.45593999997E+02  0.45594000000E+02  0.51100000000E-03 0.  1.
    9900012    2    1    2    0    0  0.96976503737E+00 -0.13433985370E+00  0.65919387958E+00  0.90007733930E+02  0.89999995218E+02 0.  0.
        -12    1    1    2    0    0 -0.96976503737E+00  0.13433985370E+00 -0.65919387958E+00  0.11802660695E+01  0.00000000000E+00 0.  1.
         11    1    3    3    0    0 -0.76900496906E+01 -0.69027128162E+01  0.18110865225E+01  0.10491155471E+02  0.51100000000E-03 0. -1.
        -11    1    3    3    0    0 -0.59185230224E+01 -0.29741314327E+02  0.18544902053E+02  0.35545577574E+02  0.51100000000E-03 0.  1.
         12    1    3    3    0    0  0.14578337750E+02  0.36509687290E+02 -0.19696794696E+02  0.43971000885E+02  0.00000000000E+00 0. -1.
</event>
<event>
 7    1  0.1654239E-015  0.9000776E+02  0.7816164E-02  0.1186339E+00
        -11   -1    0    0    0    0  0.00000000000E+00  0.00000000000E+00  0.45593999997E+02  0.45594000000E+02  0.51100000000E-03 0. -1.
         11   -1    0    0    0    0 -0.00000000000E+00 -0.00000000000E+00 -0.45593999997E+02  0.45594000000E+02  0.51100000000E-03 0.  1.
    9900012    2    1    2    0    0 -0.24312575754E+00 -0.19936566170E+00  0.11375888153E+01  0.90007760569E+02  0.90000022209E+02 0.  0.
        -12    1    1    2    0    0  0.24312575754E+00  0.19936566170E+00 -0.11375888153E+01  0.11802394307E+01  0.00000000000E+00 0.  1.
         11    1    3    3    0    0  0.21546588369E+01 -0.13279680896E+02  0.41145201584E+02  0.43288798702E+02  0.51100000000E-03 0. -1.
        -11    1    3    3    0    0  0.68656037770E+01  0.77955672583E+00 -0.51696924209E+01  0.86295969721E+01  0.51100000000E-03 0.  1.
        -12    1    3    3    0    0 -0.92633883715E+01  0.12300758509E+02 -0.34837920347E+02  0.38089364896E+02  0.00000000000E+00 0.  1.
</event>
<event>
 7    1  0.1728962E-015  0.9000771E+02  0.7816164E-02  0.1186339E+00
        -11   -1    0    0    0    0  0.00000000000E+00  0.00000000000E+00  0.45593999997E+02  0.45594000000E+02  0.51100000000E-03 0.  1.
         11   -1    0    0    0    0 -0.00000000000E+00 -0.00000000000E+00 -0.45593999997E+02  0.45594000000E+02  0.51100000000E-03 0. -1.
    9900012    2    1    2    0    0 -0.38467309990E+00  0.14854065665E+00 -0.11059141500E+01  0.90007710278E+02  0.89999971254E+02 0.  0.
        -12    1    1    2    0    0  0.38467309990E+00 -0.14854065665E+00  0.11059141500E+01  0.11802897219E+01  0.00000000000E+00 0.  1.
         11    1    3    3    0    0 -0.40235874354E+00 -0.10934600954E+01  0.91375969789E+01  0.92115810993E+01  0.51100000000E-03 0. -1.
        -11    1    3    3    0    0  0.25603526812E+02 -0.15100633522E+01  0.25885084926E+02  0.36439792788E+02  0.51100000000E-03 0.  1.
         12    1    3    3    0    0 -0.25585841168E+02  0.27520641043E+01 -0.36128596055E+02  0.44356336391E+02  0.00000000000E+00 0. -1.
</event>
<event>
 7    1  0.1654239E-015  0.9000790E+02  0.7816164E-02  0.1186339E+00
        -11   -1    0    0    0    0  0.00000000000E+00  0.00000000000E+00  0.45593999997E+02  0.45594000000E+02  0.51100000000E-03 0.  1.
         11   -1    0    0    0    0 -0.00000000000E+00 -0.00000000000E+00 -0.45593999997E+02  0.45594000000E+02  0.51100000000E-03 0. -1.
    9900012    2    1    2    0    0 -0.88867521553E+00 -0.77443113542E+00 -0.56064579218E-01  0.90007902352E+02  0.90000165863E+02 0.  0.
        -12    1    1    2    0    0  0.88867521553E+00  0.77443113542E+00  0.56064579218E-01  0.11800976482E+01  0.00000000000E+00 0.  1.
         11    1    3    3    0    0  0.11124587102E+02  0.31314021485E+02 -0.58166608858E+01  0.33736596211E+02  0.51100000000E-03 0. -1.
        -11    1    3    3    0    0  0.52539393443E+01  0.88038717205E+01 -0.36747477247E+01  0.10891088422E+02  0.51100000000E-03 0.  1.
        -12    1    3    3    0    0 -0.17267201662E+02 -0.40892324341E+02  0.94353440313E+01  0.45380217719E+02  0.00000000000E+00 0.  1.
</event>
<event>
 7    1  0.1654239E-015  0.9000765E+02  0.7816164E-02  0.1186339E+00
        -11   -1    0    0    0    0  0.00000000000E+00  0.00000000000E+00  0.45593999997E+02  0.45594000000E+02  0.51100000000E-03 0.  1.
         11   -1    0    0    0    0 -0.00000000000E+00 -0.00000000000E+00 -0.45593999997E+02  0.45594000000E+02  0.51100000000E-03 0. -1.
    9900012    2    1    2    0    0  0.60021793244E+00 -0.49952626299E+00  0.88511467482E+00  0.90007654270E+02  0.89999914507E+02 0.  0.
        -12    1    1    2    0    0 -0.60021793244E+00  0.49952626299E+00 -0.88511467482E+00  0.11803457296E+01  0.00000000000E+00 0.  1.
         11    1    3    3    0    0  0.30847049629E+02 -0.17394479372E+02 -0.22552449902E+02  0.41984775577E+02  0.51100000000E-03 0. -1.
        -11    1    3    3    0    0 -0.15582314757E+02  0.75873186070E+00 -0.54473412397E+00  0.15610283237E+02  0.51100000000E-03 0.  1.
        -12    1    3    3    0    0 -0.14664516940E+02  0.16136221248E+02  0.23982298700E+02  0.32412595456E+02  0.00000000000E+00 0.  1.
</event>
<event>
 7    1  0.1744225E-015  0.9000780E+02  0.7816164E-02  0.1186339E+00
        -11   -1    0    0    0    0  0.00000000000E+00  0.00000000000E+00  0.45593999997E+02  0.45594000000E+02  0.51100000000E-03 0.  1.
         11   -1    0    0    0    0 -0.00000000000E+00 -0.00000000000E+00 -0.45593999997E+02  0.45594000000E+02  0.51100000000E-03 0. -1.
    9900012    2    1    2    0    0 -0.15514637067E+00  0.10348599137E+01 -0.54576587790E+00  0.90007802631E+02  0.90000064825E+02 0.  0.
        -12    1    1    2    0    0  0.15514637067E+00 -0.10348599137E+01  0.54576587790E+00  0.11801973694E+01  0.00000000000E+00 0.  1.
         11    1    3    3    0    0 -0.36273855747E+01  0.93068142881E+01 -0.18223828539E+01  0.10153610088E+02  0.51100000000E-03 0. -1.
        -11    1    3    3    0    0 -0.13068412875E+02  0.27038415213E+02  0.20519647572E+02  0.36371901916E+02  0.51100000000E-03 0.  1.
         12    1    3    3    0    0  0.16540652079E+02 -0.35310369587E+02 -0.19243030596E+02  0.43482290626E+02  0.00000000000E+00 0. -1.
</event>
<event>
 7    1  0.1654239E-015  0.9000781E+02  0.7816164E-02  0.1186339E+00
        -11   -1    0    0    0    0  0.00000000000E+00  0.00000000000E+00  0.45593999997E+02  0.45594000000E+02  0.51100000000E-03 0.  1.
         11   -1    0    0    0    0 -0.00000000000E+00 -0.00000000000E+00 -0.45593999997E+02  0.45594000000E+02  0.51100000000E-03 0. -1.
    9900012    2    1    2    0    0  0.11592074591E+01 -0.13224866961E-01  0.22114586883E+00  0.90007812589E+02  0.90000074915E+02 0.  0.
        -12    1    1    2    0    0 -0.11592074591E+01  0.13224866961E-01 -0.22114586883E+00  0.11801874112E+01  0.00000000000E+00 0.  1.
         11    1    3    3    0    0 -0.84154887825E+00  0.17499438768E+02 -0.33152208767E+02  0.37496766635E+02  0.51100000000E-03 0. -1.
        -11    1    3    3    0    0 -0.94978956637E+01  0.28899844799E+01 -0.19612961060E+01  0.10119719117E+02  0.51100000000E-03 0.  1.
        -12    1    3    3    0    0  0.11498652001E+02 -0.20402648115E+02  0.35334650742E+02  0.42391326837E+02  0.00000000000E+00 0.  1.
</event>
<event>
 7    1  0.1654239E-015  0.9000774E+02  0.7816164E-02  0.1186339E+00
        -11   -1    0    0    0    0  0.00000000000E+00  0.00000000000E+00  0.45593999997E+02  0.45594000000E+02  0.51100000000E-03 0. -1.
         11   -1    0    0    0    0 -0.00000000000E+00 -0.00000000000E+00 -0.45593999997E+02  0.45594000000E+02  0.51100000000E-03 0.  1.
    9900012    2    1    2    0    0  0.51886806437E+00 -0.10596625056E+01  0.30097048490E-01  0.90007739636E+02  0.90000000999E+02 0.  0.
        -12    1    1    2    0    0 -0.51886806437E+00  0.10596625056E+01 -0.30097048490E-01  0.11802603638E+01  0.00000000000E+00 0.  1.
         11    1    3    3    0    0  0.47849258312E+01  0.63794969121E+01  0.68288631848E+01  0.10498898453E+02  0.51100000000E-03 0. -1.
        -11    1    3    3    0    0  0.23080921471E+02  0.26479486420E+02  0.14864216147E+01  0.35158236396E+02  0.51100000000E-03 0.  1.
         12    1    3    3    0    0 -0.27346979238E+02 -0.33918645838E+02 -0.82851877510E+01  0.44350604787E+02  0.00000000000E+00 0. -1.
</event>
<event>
 7    1  0.1654239E-015  0.9000781E+02  0.7816164E-02  0.1186339E+00
        -11   -1    0    0    0    0  0.00000000000E+00  0.00000000000E+00  0.45593999997E+02  0.45594000000E+02  0.51100000000E-03 0.  1.
         11   -1    0    0    0    0 -0.00000000000E+00 -0.00000000000E+00 -0.45593999997E+02  0.45594000000E+02  0.51100000000E-03 0. -1.
    9900012    2    1    2    0    0  0.39155424187E+00  0.75147636290E+00 -0.82147369867E+00  0.90007809132E+02  0.90000071412E+02 0.  0.
        -12    1    1    2    0    0 -0.39155424187E+00 -0.75147636290E+00  0.82147369867E+00  0.11801908684E+01  0.00000000000E+00 0.  1.
         11    1    3    3    0    0 -0.10904759423E+02 -0.44612341405E+01 -0.10655454868E+01  0.11830121536E+02  0.51100000000E-03 0. -1.
        -11    1    3    3    0    0 -0.28639159767E+02 -0.10291278073E+01  0.18200038308E+02  0.33948519421E+02  0.51100000000E-03 0.  1.
         12    1    3    3    0    0  0.39935473432E+02  0.62418383107E+01 -0.17955966520E+02  0.44229168174E+02  0.00000000000E+00 0. -1.
</event>
<event>
 7    1  0.1654239E-015  0.9000776E+02  0.7816164E-02  0.1186339E+00
        -11   -1    0    0    0    0  0.00000000000E+00  0.00000000000E+00  0.45593999997E+02  0.45594000000E+02  0.51100000000E-03 0. -1.
         11   -1    0    0    0    0 -0.00000000000E+00 -0.00000000000E+00 -0.45593999997E+02  0.45594000000E+02  0.51100000000E-03 0.  1.
    9900012    2    1    2    0    0 -0.28201304828E-01  0.54169497086E+00  0.10482036181E+01  0.90007762914E+02  0.90000024584E+02 0.  0.
        -12    1    1    2    0    0  0.28201304828E-01 -0.54169497086E+00 -0.10482036181E+01  0.11802370864E+01  0.00000000000E+00 0.  1.
         11    1    3    3    0    0 -0.41385494857E+01  0.31660866804E+01 -0.68066458225E+01  0.85721715059E+01  0.51100000000E-03 0. -1.
        -11    1    3    3    0    0  0.13268812314E+02 -0.29548567730E+02  0.30949563359E+02  0.44800164146E+02  0.51100000000E-03 0.  1.
         12    1    3    3    0    0 -0.91584641328E+01  0.26924176021E+02 -0.23094713918E+02  0.36635427262E+02  0.00000000000E+00 0. -1.
</event>
<event>
 7    1  0.1654239E-015  0.9000789E+02  0.7816164E-02  0.1186339E+00
        -11   -1    0    0    0    0  0.00000000000E+00  0.00000000000E+00  0.45593999997E+02  0.45594000000E+02  0.51100000000E-03 0.  1.
         11   -1    0    0    0    0 -0.00000000000E+00 -0.00000000000E+00 -0.45593999997E+02  0.45594000000E+02  0.51100000000E-03 0. -1.
    9900012    2    1    2    0    0  0.46237811105E+00  0.96051032833E+00 -0.50625753357E+00  0.90007885472E+02  0.90000148760E+02 0.  0.
        -12    1    1    2    0    0 -0.46237811105E+00 -0.96051032833E+00  0.50625753357E+00  0.11801145278E+01  0.00000000000E+00 0.  1.
         11    1    3    3    0    0  0.15217719141E+02  0.15830524739E+02 -0.30268136436E+02  0.37394445750E+02  0.51100000000E-03 0. -1.
        -11    1    3    3    0    0 -0.68154191714E+01  0.89074130103E+01 -0.27611811646E+01  0.11550587288E+02  0.51100000000E-03 0.  1.
        -12    1    3    3    0    0 -0.79399218583E+01 -0.23777427421E+02  0.32523060067E+02  0.41062852434E+02  0.00000000000E+00 0.  1.
</event>
<event>
 7    1  0.1654239E-015  0.9000755E+02  0.7816164E-02  0.1186339E+00
        -11   -1    0    0    0    0  0.00000000000E+00  0.00000000000E+00  0.45593999997E+02  0.45594000000E+02  0.51100000000E-03 0. -1.
         11   -1    0    0    0    0 -0.00000000000E+00 -0.00000000000E+00 -0.45593999997E+02  0.45594000000E+02  0.51100000000E-03 0.  1.
    9900012    2    1    2    0    0 -0.10212936755E+01 -0.83392903662E-01  0.58606823056E+00  0.90007546223E+02  0.89999805033E+02 0.  0.
        -12    1    1    2    0    0  0.10212936755E+01  0.83392903662E-01 -0.58606823056E+00  0.11804537767E+01  0.00000000000E+00 0.  1.
         11    1    3    3    0    0 -0.17094298048E+02 -0.18055354507E+02  0.24736645707E+02  0.35072959573E+02  0.51100000000E-03 0. -1.
        -11    1    3    3    0    0 -0.91165767988E+01  0.50476406918E+01  0.72199551445E+01  0.12677476154E+02  0.51100000000E-03 0.  1.
        -12    1    3    3    0    0  0.25189581171E+02  0.12924320912E+02 -0.31370532621E+02  0.42257110496E+02  0.00000000000E+00 0.  1.
</event>
<event>
 7    1  0.1654239E-015  0.9000784E+02  0.7816164E-02  0.1186339E+00
        -11   -1    0    0    0    0  0.00000000000E+00  0.00000000000E+00  0.45593999997E+02  0.45594000000E+02  0.51100000000E-03 0.  1.
         11   -1    0    0    0    0 -0.00000000000E+00 -0.00000000000E+00 -0.45593999997E+02  0.45594000000E+02  0.51100000000E-03 0. -1.
    9900012    2    1    2    0    0  0.22678047276E+00  0.30659286005E+00 -0.11168528700E+01  0.90007835224E+02  0.90000097849E+02 0.  0.
        -12    1    1    2    0    0 -0.22678047276E+00 -0.30659286005E+00  0.11168528700E+01  0.11801647757E+01  0.00000000000E+00 0.  1.
         11    1    3    3    0    0  0.87493914643E+01 -0.44243072315E+01  0.90645656602E+00  0.98462180172E+01  0.51100000000E-03 0. -1.
        -11    1    3    3    0    0  0.14364105075E+02  0.15076776308E+02  0.31812840902E+02  0.38022276957E+02  0.51100000000E-03 0.  1.
         12    1    3    3    0    0 -0.22886716066E+02 -0.10345876217E+02 -0.33836150338E+02  0.42139340250E+02  0.00000000000E+00 0. -1.
</event>
<event>
 7    1  0.1654239E-015  0.9000719E+02  0.7816164E-02  0.1186340E+00
        -11   -1    0    0    0    0  0.00000000000E+00  0.00000000000E+00  0.45593999997E+02  0.45594000000E+02  0.51100000000E-03 0.  1.
         11   -1    0    0    0    0 -0.00000000000E+00 -0.00000000000E+00 -0.45593999997E+02  0.45594000000E+02  0.51100000000E-03 0. -1.
    9900012    2    1    2    0    0 -0.12502271526E+00 -0.11711269274E+01 -0.84511154272E-01  0.90007190492E+02  0.89999444605E+02 0.  0.
        -12    1    1    2    0    0  0.12502271526E+00  0.11711269274E+01  0.84511154272E-01  0.11808095082E+01  0.00000000000E+00 0.  1.
         11    1    3    3    0    0 -0.52526208437E+01  0.70216639470E+01  0.63580553317E+01  0.10831373790E+02  0.51100000000E-03 0. -1.
        -11    1    3    3    0    0  0.90587584605E+01  0.22701715215E+02 -0.31026986385E+02  0.39498137462E+02  0.51100000000E-03 0.  1.
         12    1    3    3    0    0 -0.39311603320E+01 -0.30894506090E+02  0.24584419899E+02  0.39677679240E+02  0.00000000000E+00 0. -1.
</event>
<event>
 7    1  0.1654239E-015  0.9000781E+02  0.7816164E-02  0.1186339E+00
        -11   -1    0    0    0    0  0.00000000000E+00  0.00000000000E+00  0.45593999997E+02  0.45594000000E+02  0.51100000000E-03 0.  1.
         11   -1    0    0    0    0 -0.00000000000E+00 -0.00000000000E+00 -0.45593999997E+02  0.45594000000E+02  0.51100000000E-03 0. -1.
    9900012    2    1    2    0    0  0.12046771688E+00 -0.10723529607E+01  0.47791117707E+00  0.90007808305E+02  0.90000070575E+02 0.  0.
        -12    1    1    2    0    0 -0.12046771688E+00  0.10723529607E+01 -0.47791117707E+00  0.11801916948E+01  0.00000000000E+00 0.  1.
         11    1    3    3    0    0  0.13468456151E+01 -0.92239102542E+01  0.34508856837E+01  0.99399761444E+01  0.51100000000E-03 0. -1.
        -11    1    3    3    0    0  0.16620726876E+01 -0.35847310331E+02 -0.18662624134E+00  0.35886306207E+02  0.51100000000E-03 0.  1.
         12    1    3    3    0    0 -0.28884505858E+01  0.43998867624E+02 -0.27863482653E+01  0.44181525954E+02  0.00000000000E+00 0. -1.
</event>
<event>
 7    1  0.1654239E-015  0.9000783E+02  0.7816164E-02  0.1186339E+00
        -11   -1    0    0    0    0  0.00000000000E+00  0.00000000000E+00  0.45593999997E+02  0.45594000000E+02  0.51100000000E-03 0.  1.
         11   -1    0    0    0    0 -0.00000000000E+00 -0.00000000000E+00 -0.45593999997E+02  0.45594000000E+02  0.51100000000E-03 0. -1.
    9900012    2    1    2    0    0 -0.32419929545E+00  0.27651798776E+00 -0.11005656436E+01  0.90007825387E+02  0.90000087882E+02 0.  0.
        -12    1    1    2    0    0  0.32419929545E+00 -0.27651798776E+00  0.11005656436E+01  0.11801746127E+01  0.00000000000E+00 0.  1.
         11    1    3    3    0    0  0.78068438731E+01 -0.10705838793E+01  0.18749301045E+01  0.80998965586E+01  0.51100000000E-03 0. -1.
        -11    1    3    3    0    0 -0.12774326084E+02  0.25737904001E+02  0.29398989370E+02  0.41108681389E+02  0.51100000000E-03 0.  1.
         12    1    3    3    0    0  0.46432829157E+01 -0.24390802134E+02 -0.32374485118E+02  0.40799247440E+02  0.00000000000E+00 0. -1.
</event>
<event>
 7    1  0.1654239E-015  0.9000768E+02  0.7816164E-02  0.1186339E+00
        -11   -1    0    0    0    0  0.00000000000E+00  0.00000000000E+00  0.45593999997E+02  0.45594000000E+02  0.51100000000E-03 0. -1.
         11   -1    0    0    0    0 -0.00000000000E+00 -0.00000000000E+00 -0.45593999997E+02  0.45594000000E+02  0.51100000000E-03 0.  1.
    9900012    2    1    2    0    0 -0.11716815240E+01 -0.13812551437E+00  0.35049361948E-01  0.90007684487E+02  0.89999945123E+02 0.  0.
        -12    1    1    2    0    0  0.11716815240E+01  0.13812551437E+00 -0.35049361948E-01  0.11803155126E+01  0.00000000000E+00 0.  1.
         11    1    3    3    0    0 -0.30210051096E+01  0.63003423853E+01 -0.75400540345E+01  0.10279747134E+02  0.51100000000E-03 0. -1.
        -11    1    3    3    0    0 -0.35870676594E+02  0.11355579571E+02  0.47858202621E+01  0.37928336406E+02  0.51100000000E-03 0.  1.
         12    1    3    3    0    0  0.37720000179E+02 -0.17794047471E+02  0.27892831344E+01  0.41799600947E+02  0.00000000000E+00 0. -1.
</event>
<event>
 7    1  0.2316360E-015  0.9000780E+02  0.7816164E-02  0.1186339E+00
        -11   -1    0    0    0    0  0.00000000000E+00  0.00000000000E+00  0.45593999997E+02  0.45594000000E+02  0.51100000000E-03 0. -1.
         11   -1    0    0    0    0 -0.00000000000E+00 -0.00000000000E+00 -0.45593999997E+02  0.45594000000E+02  0.51100000000E-03 0.  1.
    9900012    2    1    2    0    0  0.21007993900E+00 -0.61630380540E+00  0.98432723932E+00  0.90007803374E+02  0.90000065579E+02 0.  0.
        -12    1    1    2    0    0 -0.21007993900E+00  0.61630380540E+00 -0.98432723932E+00  0.11801966257E+01  0.00000000000E+00 0.  1.
         11    1    3    3    0    0 -0.41121824444E+01  0.54806275023E+01  0.71626218695E+01  0.99121377402E+01  0.51100000000E-03 0. -1.
        -11    1    3    3    0    0 -0.26132423618E+02  0.14539561514E+02 -0.24811823804E+02  0.38857805058E+02  0.51100000000E-03 0.  1.
         12    1    3    3    0    0  0.30454686001E+02 -0.20636492821E+02  0.18633529174E+02  0.41237860576E+02  0.00000000000E+00 0. -1.
</event>
<event>
 7    1  0.1654239E-015  0.9000779E+02  0.7816164E-02  0.1186339E+00
        -11   -1    0    0    0    0  0.00000000000E+00  0.00000000000E+00  0.45593999997E+02  0.45594000000E+02  0.51100000000E-03 0.  1.
         11   -1    0    0    0    0 -0.00000000000E+00 -0.00000000000E+00 -0.45593999997E+02  0.45594000000E+02  0.51100000000E-03 0. -1.
    9900012    2    1    2    0    0 -0.19710715530E+00  0.11606307128E+01 -0.83613385295E-01  0.90007785579E+02  0.90000047548E+02 0.  0.
        -12    1    1    2    0    0  0.19710715530E+00 -0.11606307128E+01  0.83613385295E-01  0.11802144213E+01  0.00000000000E+00 0.  1.
         11    1    3    3    0    0  0.63728493889E+01  0.74181286084E+01 -0.47216326283E+01  0.10859818429E+02  0.51100000000E-03 0. -1.
        -11    1    3    3    0    0 -0.23992512126E+02  0.25187678457E+02 -0.15342744254E+02  0.38019200224E+02  0.51100000000E-03 0.  1.
         12    1    3    3    0    0  0.17422555582E+02 -0.31445176352E+02  0.19980763497E+02  0.41128766925E+02  0.00000000000E+00 0. -1.
</event>
<event>
 7    1  0.1654239E-015  0.9000788E+02  0.7816164E-02  0.1186339E+00
        -11   -1    0    0    0    0  0.00000000000E+00  0.00000000000E+00  0.45593999997E+02  0.45594000000E+02  0.51100000000E-03 0. -1.
         11   -1    0    0    0    0 -0.00000000000E+00 -0.00000000000E+00 -0.45593999997E+02  0.45594000000E+02  0.51100000000E-03 0.  1.
    9900012    2    1    2    0    0  0.78033354269E+00  0.88499648420E+00 -0.23530272643E-01  0.90007875901E+02  0.90000139063E+02 0.  0.
        -12    1    1    2    0    0 -0.78033354269E+00 -0.88499648420E+00  0.23530272643E-01  0.11801240988E+01  0.00000000000E+00 0.  1.
         11    1    3    3    0    0 -0.11816110738E+02 -0.17707264979E+01  0.19464197724E+01  0.12105556389E+02  0.51100000000E-03 0. -1.
        -11    1    3    3    0    0  0.28233474265E+02 -0.11321090431E+02 -0.30113656863E+02  0.42803370049E+02  0.51100000000E-03 0.  1.
         12    1    3    3    0    0 -0.15637029985E+02  0.13976813413E+02  0.28143706818E+02  0.35098949463E+02  0.00000000000E+00 0. -1.
</event>
<event>
 7    1  0.1654239E-015  0.9000774E+02  0.7816164E-02  0.1186339E+00
        -11   -1    0    0    0    0  0.00000000000E+00  0.00000000000E+00  0.45593999997E+02  0.45594000000E+02  0.51100000000E-03 0. -1.
         11   -1    0    0    0    0 -0.00000000000E+00 -0.00000000000E+00 -0.45593999997E+02  0.45594000000E+02  0.51100000000E-03 0.  1.
    9900012    2    1    2    0    0 -0.14645895558E+00  0.11600809311E+01 -0.16052103463E+00  0.90007743674E+02  0.90000005091E+02 0.  0.
        -12    1    1    2    0    0  0.14645895558E+00 -0.11600809311E+01  0.16052103463E+00  0.11802563260E+01  0.00000000000E+00 0.  1.
         11    1    3    3    0    0  0.36547374988E+02  0.21224685405E+00 -0.25096952980E+02  0.44335231096E+02  0.51100000000E-03 0. -1.
        -11    1    3    3    0    0 -0.88686704501E+01  0.24779529495E+01  0.16463687964E+01  0.93543624500E+01  0.51100000000E-03 0.  1.
        -12    1    3    3    0    0 -0.27825163493E+02 -0.15301188724E+01  0.23290063149E+02  0.36318150128E+02  0.00000000000E+00 0.  1.
</event>
<event>
 7    1  0.1654239E-015  0.9000762E+02  0.7816164E-02  0.1186339E+00
        -11   -1    0    0    0    0  0.00000000000E+00  0.00000000000E+00  0.45593999997E+02  0.45594000000E+02  0.51100000000E-03 0.  1.
         11   -1    0    0    0    0 -0.00000000000E+00 -0.00000000000E+00 -0.45593999997E+02  0.45594000000E+02  0.51100000000E-03 0. -1.
    9900012    2    1    2    0    0 -0.72677356200E-01  0.97108519353E+00 -0.66708995557E+00  0.90007619782E+02  0.89999879563E+02 0.  0.
        -12    1    1    2    0    0  0.72677356200E-01 -0.97108519353E+00  0.66708995557E+00  0.11803802184E+01  0.00000000000E+00 0.  1.
         11    1    3    3    0    0  0.35481358640E+02 -0.11522561491E+02  0.14561545278E+02  0.40046658230E+02  0.51100000000E-03 0. -1.
        -11    1    3    3    0    0  0.10912434902E+00 -0.37821932452E+01 -0.96489045971E+01  0.10364277787E+02  0.51100000000E-03 0.  1.
        -12    1    3    3    0    0 -0.35663160345E+02  0.16275839929E+02 -0.55797306366E+01  0.39596683765E+02  0.00000000000E+00 0.  1.
</event>
<event>
 7    1  0.1654239E-015  0.9000773E+02  0.7816164E-02  0.1186339E+00
        -11   -1    0    0    0    0  0.00000000000E+00  0.00000000000E+00  0.45593999997E+02  0.45594000000E+02  0.51100000000E-03 0.  1.
         11   -1    0    0    0    0 -0.00000000000E+00 -0.00000000000E+00 -0.45593999997E+02  0.45594000000E+02  0.51100000000E-03 0. -1.
    9900012    2    1    2    0    0 -0.94213481171E+00  0.69153480552E+00 -0.16493730487E+00  0.90007727699E+02  0.89999988904E+02 0.  0.
        -12    1    1    2    0    0  0.94213481171E+00 -0.69153480552E+00  0.16493730487E+00  0.11802723013E+01  0.00000000000E+00 0.  1.
         11    1    3    3    0    0  0.60882920918E+01 -0.10591375432E+01  0.83673807293E+01  0.10402025450E+02  0.51100000000E-03 0. -1.
        -11    1    3    3    0    0  0.24040314243E+02 -0.15562107625E+01  0.24344449649E+02  0.34249244223E+02  0.51100000000E-03 0.  1.
         12    1    3    3    0    0 -0.31070741147E+02  0.33068831112E+01 -0.32876767683E+02  0.45356458026E+02  0.00000000000E+00 0. -1.
</event>
<event>
 7    1  0.1654239E-015  0.9000722E+02  0.7816164E-02  0.1186340E+00
        -11   -1    0    0    0    0  0.00000000000E+00  0.00000000000E+00  0.45593999997E+02  0.45594000000E+02  0.51100000000E-03 0.  1.
         11   -1    0    0    0    0 -0.00000000000E+00 -0.00000000000E+00 -0.45593999997E+02  0.45594000000E+02  0.51100000000E-03 0. -1.
    9900012    2    1    2    0    0  0.29074989534E+00 -0.10855229207E+01  0.36242150805E+00  0.90007218537E+02  0.89999473020E+02 0.  0.
        -12    1    1    2    0    0 -0.29074989534E+00  0.10855229207E+01 -0.36242150805E+00  0.11807814627E+01  0.00000000000E+00 0.  1.
         11    1    3    3    0    0  0.54860363049E+01  0.15528917596E+02  0.45795198412E+01  0.17094322984E+02  0.51100000000E-03 0. -1.
        -11    1    3    3    0    0  0.61520272635E+01 -0.30901239354E+02  0.23794810590E+02  0.39483250175E+02  0.51100000000E-03 0.  1.
         12    1    3    3    0    0 -0.11347313673E+02  0.14286798837E+02 -0.28011908924E+02  0.33429645379E+02  0.00000000000E+00 0. -1.
</event>
<event>
 7    1  0.1654239E-015  0.9000773E+02  0.7816164E-02  0.1186339E+00
        -11   -1    0    0    0    0  0.00000000000E+00  0.00000000000E+00  0.45593999997E+02  0.45594000000E+02  0.51100000000E-03 0.  1.
         11   -1    0    0    0    0 -0.00000000000E+00 -0.00000000000E+00 -0.45593999997E+02  0.45594000000E+02  0.51100000000E-03 0. -1.
    9900012    2    1    2    0    0 -0.32594876849E+00 -0.94785768113E+00 -0.62318118217E+00  0.90007732416E+02  0.89999993684E+02 0.  0.
        -12    1    1    2    0    0  0.32594876849E+00  0.94785768113E+00  0.62318118217E+00  0.11802675837E+01  0.00000000000E+00 0.  1.
         11    1    3    3    0    0  0.58499712811E+01 -0.66338406238E+00  0.11444303150E+02  0.12869899660E+02  0.51100000000E-03 0. -1.
        -11    1    3    3    0    0 -0.86292420616E+01 -0.24423606892E+02  0.22901644079E+02  0.34575449295E+02  0.51100000000E-03 0.  1.
         12    1    3    3    0    0  0.24533220120E+01  0.24139133273E+02 -0.34969128411E+02  0.42562383461E+02  0.00000000000E+00 0. -1.
</event>
<event>
 7    1  0.1654239E-015  0.9000775E+02  0.7816164E-02  0.1186339E+00
        -11   -1    0    0    0    0  0.00000000000E+00  0.00000000000E+00  0.45593999997E+02  0.45594000000E+02  0.51100000000E-03 0.  1.
         11   -1    0    0    0    0 -0.00000000000E+00 -0.00000000000E+00 -0.45593999997E+02  0.45594000000E+02  0.51100000000E-03 0. -1.
    9900012    2    1    2    0    0  0.11536223584E+00  0.11495361696E+01 -0.24132908025E+00  0.90007753595E+02  0.90000015143E+02 0.  0.
        -12    1    1    2    0    0 -0.11536223584E+00 -0.11495361696E+01  0.24132908025E+00  0.11802464046E+01  0.00000000000E+00 0.  1.
         11    1    3    3    0    0 -0.67616420054E+01 -0.82256470309E+00 -0.26466325761E+02  0.27328790951E+02  0.51100000000E-03 0. -1.
        -11    1    3    3    0    0 -0.15863145161E+02  0.21408855262E+02  0.88097142458E+01  0.28064025431E+02  0.51100000000E-03 0.  1.
         12    1    3    3    0    0  0.22740149402E+02 -0.19436754390E+02  0.17415282435E+02  0.34614937214E+02  0.00000000000E+00 0. -1.
</event>
<event>
 7    1  0.1654239E-015  0.9000760E+02  0.7816164E-02  0.1186339E+00
        -11   -1    0    0    0    0  0.00000000000E+00  0.00000000000E+00  0.45593999997E+02  0.45594000000E+02  0.51100000000E-03 0.  1.
         11   -1    0    0    0    0 -0.00000000000E+00 -0.00000000000E+00 -0.45593999997E+02  0.45594000000E+02  0.51100000000E-03 0. -1.
    9900012    2    1    2    0    0  0.10287607288E+01  0.55595147853E+00  0.16094327717E+00  0.90007604548E+02  0.89999864128E+02 0.  0.
        -12    1    1    2    0    0 -0.10287607288E+01 -0.55595147853E+00 -0.16094327717E+00  0.11803954515E+01  0.00000000000E+00 0.  1.
         11    1    3    3    0    0  0.17920582539E+02  0.12892376232E+02  0.23162613027E+02  0.31997926275E+02  0.51100000000E-03 0. -1.
        -11    1    3    3    0    0 -0.57391725622E+01  0.11222011844E+02  0.99050948543E+01  0.16030675465E+02  0.51100000000E-03 0.  1.
        -12    1    3    3    0    0 -0.11152649248E+02 -0.23558436597E+02 -0.32906764604E+02  0.41979002809E+02  0.00000000000E+00 0.  1.
</event>
<event>
 7    1  0.1654239E-015  0.9000734E+02  0.7816164E-02  0.1186340E+00
        -11   -1    0    0    0    0  0.00000000000E+00  0.00000000000E+00  0.45593999997E+02  0.45594000000E+02  0.51100000000E-03 0. -1.
         11   -1    0    0    0    0 -0.00000000000E+00 -0.00000000000E+00 -0.45593999997E+02  0.45594000000E+02  0.51100000000E-03 0.  1.
    9900012    2    1    2    0    0  0.24474772904E-01  0.22618514757E+00  0.11585286716E+01  0.90007344496E+02  0.89999600643E+02 0.  0.
        -12    1    1    2    0    0 -0.24474772904E-01 -0.22618514757E+00 -0.11585286716E+01  0.11806555037E+01  0.00000000000E+00 0.  1.
         11    1    3    3    0    0 -0.32513044417E+02  0.18445696586E+02  0.98457549184E+01  0.38655926713E+02  0.51100000000E-03 0. -1.
        -11    1    3    3    0    0  0.20006811545E+01  0.92705482027E+01 -0.84066474484E+00  0.95211609867E+01  0.51100000000E-03 0.  1.
        -12    1    3    3    0    0  0.30536838036E+02 -0.27490059641E+02 -0.78465615019E+01  0.41830256797E+02  0.00000000000E+00 0.  1.
</event>
<event>
 7    1  0.1654239E-015  0.9000779E+02  0.7816164E-02  0.1186339E+00
        -11   -1    0    0    0    0  0.00000000000E+00  0.00000000000E+00  0.45593999997E+02  0.45594000000E+02  0.51100000000E-03 0.  1.
         11   -1    0    0    0    0 -0.00000000000E+00 -0.00000000000E+00 -0.45593999997E+02  0.45594000000E+02  0.51100000000E-03 0. -1.
    9900012    2    1    2    0    0  0.43803297662E+00  0.14646285850E+00 -0.10860850536E+01  0.90007786036E+02  0.90000048011E+02 0.  0.
        -12    1    1    2    0    0 -0.43803297662E+00 -0.14646285850E+00  0.10860850536E+01  0.11802139642E+01  0.00000000000E+00 0.  1.
         11    1    3    3    0    0  0.93624340557E+01  0.50015081500E+01 -0.35417744735E+02  0.36974138226E+02  0.51100000000E-03 0. -1.
        -11    1    3    3    0    0  0.30843384909E+01  0.57957601984E+01 -0.64519493231E+01  0.92049785732E+01  0.51100000000E-03 0.  1.
        -12    1    3    3    0    0 -0.12008739570E+02 -0.10650805490E+02  0.40783609004E+02  0.43828669236E+02  0.00000000000E+00 0.  1.
</event>
<event>
 7    1  0.1654239E-015  0.9000776E+02  0.7816164E-02  0.1186339E+00
        -11   -1    0    0    0    0  0.00000000000E+00  0.00000000000E+00  0.45593999997E+02  0.45594000000E+02  0.51100000000E-03 0. -1.
         11   -1    0    0    0    0 -0.00000000000E+00 -0.00000000000E+00 -0.45593999997E+02  0.45594000000E+02  0.51100000000E-03 0.  1.
    9900012    2    1    2    0    0  0.60675337046E+00  0.83721213885E+00 -0.56911941625E+00  0.90007758191E+02  0.90000019799E+02 0.  0.
        -12    1    1    2    0    0 -0.60675337046E+00 -0.83721213885E+00  0.56911941625E+00  0.11802418091E+01  0.00000000000E+00 0.  1.
         11    1    3    3    0    0  0.68746589177E+01  0.17420957056E+00  0.82864984650E+01  0.10768349051E+02  0.51100000000E-03 0. -1.
        -11    1    3    3    0    0 -0.11011197817E+01 -0.36124146078E+02 -0.18862270899E+02  0.40767041325E+02  0.51100000000E-03 0.  1.
         12    1    3    3    0    0 -0.51667857656E+01  0.36787148646E+02  0.10006653018E+02  0.38472367815E+02  0.00000000000E+00 0. -1.
</event>
<event>
 7    1  0.1654239E-015  0.9000805E+02  0.7816164E-02  0.1186338E+00
        -11   -1    0    0    0    0  0.00000000000E+00  0.00000000000E+00  0.45593999997E+02  0.45594000000E+02  0.51100000000E-03 0.  1.
         11   -1    0    0    0    0 -0.00000000000E+00 -0.00000000000E+00 -0.45593999997E+02  0.45594000000E+02  0.51100000000E-03 0. -1.
    9900012    2    1    2    0    0  0.97627100741E+00 -0.61234736813E+00 -0.25337609323E+00  0.90008053466E+02  0.90000318971E+02 0.  0.
        -12    1    1    2    0    0 -0.97627100741E+00  0.61234736813E+00  0.25337609323E+00  0.11799465343E+01  0.00000000000E+00 0.  1.
         11    1    3    3    0    0 -0.66076441617E+01  0.64084257938E+01  0.12463504090E+02  0.15494122014E+02  0.51100000000E-03 0. -1.
        -11    1    3    3    0    0  0.30824994566E+01  0.23218709700E+02  0.19222687437E+02  0.30300527975E+02  0.51100000000E-03 0.  1.
         12    1    3    3    0    0  0.45014157124E+01 -0.30239482862E+02 -0.31939567620E+02  0.44213403476E+02  0.00000000000E+00 0. -1.
</event>
<event>
 7    1  0.1654239E-015  0.9000789E+02  0.7816164E-02  0.1186339E+00
        -11   -1    0    0    0    0  0.00000000000E+00  0.00000000000E+00  0.45593999997E+02  0.45594000000E+02  0.51100000000E-03 0. -1.
         11   -1    0    0    0    0 -0.00000000000E+00 -0.00000000000E+00 -0.45593999997E+02  0.45594000000E+02  0.51100000000E-03 0.  1.
    9900012    2    1    2    0    0  0.36801256385E+00 -0.10287862574E+01  0.44589707771E+00  0.90007890423E+02  0.90000153776E+02 0.  0.
        -12    1    1    2    0    0 -0.36801256385E+00  0.10287862574E+01 -0.44589707771E+00  0.11801095774E+01  0.00000000000E+00 0.  1.
         11    1    3    3    0    0 -0.15357306377E+02  0.27614109671E+02 -0.23669296762E+02  0.39479380967E+02  0.51100000000E-03 0. -1.
        -11    1    3    3    0    0 -0.83518083955E+01 -0.90483055003E+01  0.21483544569E+01  0.12499598515E+02  0.51100000000E-03 0.  1.
        -12    1    3    3    0    0  0.24077127336E+02 -0.19594590428E+02  0.21966839383E+02  0.38028910940E+02  0.00000000000E+00 0.  1.
</event>
<event>
 7    1  0.1654239E-015  0.9000773E+02  0.7816164E-02  0.1186339E+00
        -11   -1    0    0    0    0  0.00000000000E+00  0.00000000000E+00  0.45593999997E+02  0.45594000000E+02  0.51100000000E-03 0.  1.
         11   -1    0    0    0    0 -0.00000000000E+00 -0.00000000000E+00 -0.45593999997E+02  0.45594000000E+02  0.51100000000E-03 0. -1.
    9900012    2    1    2    0    0 -0.72359717835E+00  0.88980866001E+00 -0.27873847247E+00  0.90007725683E+02  0.89999986862E+02 0.  0.
        -12    1    1    2    0    0  0.72359717835E+00 -0.88980866001E+00  0.27873847247E+00  0.11802743173E+01  0.00000000000E+00 0.  1.
         11    1    3    3    0    0  0.31724193356E+02 -0.13957103939E+02 -0.76706409135E+01  0.35497379153E+02  0.51100000000E-03 0. -1.
        -11    1    3    3    0    0  0.84067510526E+01  0.74031345692E+01 -0.32073099281E+01  0.11651896925E+02  0.51100000000E-03 0.  1.
        -12    1    3    3    0    0 -0.40854541587E+02  0.74437780293E+01  0.10599212369E+02  0.42858449605E+02  0.00000000000E+00 0.  1.
</event>
<event>
 7    1  0.1654239E-015  0.9000774E+02  0.7816164E-02  0.1186339E+00
        -11   -1    0    0    0    0  0.00000000000E+00  0.00000000000E+00  0.45593999997E+02  0.45594000000E+02  0.51100000000E-03 0. -1.
         11   -1    0    0    0    0 -0.00000000000E+00 -0.00000000000E+00 -0.45593999997E+02  0.45594000000E+02  0.51100000000E-03 0.  1.
    9900012    2    1    2    0    0 -0.79754460310E+00 -0.55922184478E+00  0.66649165527E+00  0.90007738337E+02  0.89999999683E+02 0.  0.
        -12    1    1    2    0    0  0.79754460310E+00  0.55922184478E+00 -0.66649165527E+00  0.11802616626E+01  0.00000000000E+00 0.  1.
         11    1    3    3    0    0 -0.71228722842E+01  0.55322312966E+01  0.33295254297E+00  0.90250623462E+01  0.51100000000E-03 0. -1.
        -11    1    3    3    0    0 -0.35806961055E+02 -0.38972154819E+00  0.10404193302E+02  0.37289912596E+02  0.51100000000E-03 0.  1.
         12    1    3    3    0    0  0.42132288736E+02 -0.57017315932E+01 -0.10070654190E+02  0.43692763395E+02  0.00000000000E+00 0. -1.
</event>
<event>
 7    1  0.1654239E-015  0.9000793E+02  0.7816164E-02  0.1186339E+00
        -11   -1    0    0    0    0  0.00000000000E+00  0.00000000000E+00  0.45593999997E+02  0.45594000000E+02  0.51100000000E-03 0.  1.
         11   -1    0    0    0    0 -0.00000000000E+00 -0.00000000000E+00 -0.45593999997E+02  0.45594000000E+02  0.51100000000E-03 0. -1.
    9900012    2    1    2    0    0 -0.18687837463E+00  0.52873697377E+00 -0.10383079751E+01  0.90007928068E+02  0.90000191918E+02 0.  0.
        -12    1    1    2    0    0  0.18687837463E+00 -0.52873697377E+00  0.10383079751E+01  0.11800719324E+01  0.00000000000E+00 0.  1.
         11    1    3    3    0    0 -0.33616888651E+02 -0.22381632691E+02  0.33146483399E+01  0.40521840758E+02  0.51100000000E-03 0. -1.
        -11    1    3    3    0    0  0.48386724527E+01 -0.65167448207E+01 -0.21543040067E+01  0.83977223207E+01  0.51100000000E-03 0.  1.
        -12    1    3    3    0    0  0.28591337824E+02  0.29427114486E+02 -0.21986523084E+01  0.41088364989E+02  0.00000000000E+00 0.  1.
</event>
<event>
 7    1  0.1654239E-015  0.9000776E+02  0.7816164E-02  0.1186339E+00
        -11   -1    0    0    0    0  0.00000000000E+00  0.00000000000E+00  0.45593999997E+02  0.45594000000E+02  0.51100000000E-03 0.  1.
         11   -1    0    0    0    0 -0.00000000000E+00 -0.00000000000E+00 -0.45593999997E+02  0.45594000000E+02  0.51100000000E-03 0. -1.
    9900012    2    1    2    0    0 -0.11607558680E+00 -0.35832401026E+00 -0.11185199375E+01  0.90007764223E+02  0.90000025911E+02 0.  0.
        -12    1    1    2    0    0  0.11607558680E+00  0.35832401026E+00  0.11185199375E+01  0.11802357768E+01  0.00000000000E+00 0.  1.
         11    1    3    3    0    0 -0.40255058555E+02  0.86612383330E+01 -0.68016455488E+01  0.41734268547E+02  0.51100000000E-03 0. -1.
        -11    1    3    3    0    0  0.57970583486E+01  0.75746602441E+01 -0.85310321010E+00  0.95764893702E+01  0.51100000000E-03 0.  1.
        -12    1    3    3    0    0  0.34341924619E+02 -0.16594222587E+02  0.65362288214E+01  0.38697006306E+02  0.00000000000E+00 0.  1.
</event>
<event>
 7    1  0.1654239E-015  0.9000773E+02  0.7816164E-02  0.1186339E+00
        -11   -1    0    0    0    0  0.00000000000E+00  0.00000000000E+00  0.45593999997E+02  0.45594000000E+02  0.51100000000E-03 0. -1.
         11   -1    0    0    0    0 -0.00000000000E+00 -0.00000000000E+00 -0.45593999997E+02  0.45594000000E+02  0.51100000000E-03 0.  1.
    9900012    2    1    2    0    0 -0.38933289677E+00 -0.82279465917E+00  0.75131311934E+00  0.90007727761E+02  0.89999988967E+02 0.  0.
        -12    1    1    2    0    0  0.38933289677E+00  0.82279465917E+00 -0.75131311934E+00  0.11802722393E+01  0.00000000000E+00 0.  1.
         11    1    3    3    0    0  0.91176099855E+00  0.64449933758E+01 -0.77630367158E+01  0.10130843353E+02  0.51100000000E-03 0. -1.
        -11    1    3    3    0    0  0.29739313044E+02  0.18039388063E+02 -0.93592326014E+01  0.36020015230E+02  0.51100000000E-03 0.  1.
         12    1    3    3    0    0 -0.31040406939E+02 -0.25307176098E+02  0.17873582437E+02  0.43856869178E+02  0.00000000000E+00 0. -1.
</event>
<event>
 7    1  0.1654239E-015  0.9000779E+02  0.7816164E-02  0.1186339E+00
        -11   -1    0    0    0    0  0.00000000000E+00  0.00000000000E+00  0.45593999997E+02  0.45594000000E+02  0.51100000000E-03 0.  1.
         11   -1    0    0    0    0 -0.00000000000E+00 -0.00000000000E+00 -0.45593999997E+02  0.45594000000E+02  0.51100000000E-03 0. -1.
    9900012    2    1    2    0    0  0.10827966966E+01  0.41050634328E-01 -0.46771520403E+00  0.90007791818E+02  0.90000053870E+02 0.  0.
        -12    1    1    2    0    0 -0.10827966966E+01 -0.41050634328E-01  0.46771520403E+00  0.11802081820E+01  0.00000000000E+00 0.  1.
         11    1    3    3    0    0  0.78340678253E+01  0.28368085046E+02 -0.23926371488E+02  0.37928776947E+02  0.51100000000E-03 0. -1.
        -11    1    3    3    0    0  0.32818513573E+01 -0.45497731023E+00 -0.81266182192E+01  0.87760741010E+01  0.51100000000E-03 0.  1.
        -12    1    3    3    0    0 -0.10033122486E+02 -0.27872057101E+02  0.31585274503E+02  0.43302940770E+02  0.00000000000E+00 0.  1.
</event>
<event>
 7    1  0.1654239E-015  0.9000776E+02  0.7816164E-02  0.1186339E+00
        -11   -1    0    0    0    0  0.00000000000E+00  0.00000000000E+00  0.45593999997E+02  0.45594000000E+02  0.51100000000E-03 0.  1.
         11   -1    0    0    0    0 -0.00000000000E+00 -0.00000000000E+00 -0.45593999997E+02  0.45594000000E+02  0.51100000000E-03 0. -1.
    9900012    2    1    2    0    0  0.62640692675E+00  0.77460741897E+00 -0.63290740048E+00  0.90007756775E+02  0.90000018365E+02 0.  0.
        -12    1    1    2    0    0 -0.62640692675E+00 -0.77460741897E+00  0.63290740048E+00  0.11802432245E+01  0.00000000000E+00 0.  1.
         11    1    3    3    0    0 -0.58826032909E+01 -0.41149875800E+01  0.19230631354E+01  0.74321138544E+01  0.51100000000E-03 0. -1.
        -11    1    3    3    0    0  0.14207747041E+02 -0.36588641342E+02  0.54781267833E+01  0.39630778753E+02  0.51100000000E-03 0.  1.
         12    1    3    3    0    0 -0.76987368232E+01  0.41478236341E+02 -0.80340973192E+01  0.42944864168E+02  0.00000000000E+00 0. -1.
</event>
<event>
 7    1  0.1654239E-015  0.9000778E+02  0.7816164E-02  0.1186339E+00
        -11   -1    0    0    0    0  0.00000000000E+00  0.00000000000E+00  0.45593999997E+02  0.45594000000E+02  0.51100000000E-03 0.  1.
         11   -1    0    0    0    0 -0.00000000000E+00 -0.00000000000E+00 -0.45593999997E+02  0.45594000000E+02  0.51100000000E-03 0. -1.
    9900012    2    1    2    0    0  0.15961366414E+00 -0.88545123088E+00  0.76382507853E+00  0.90007775803E+02  0.90000037644E+02 0.  0.
        -12    1    1    2    0    0 -0.15961366414E+00  0.88545123088E+00 -0.76382507853E+00  0.11802241968E+01  0.00000000000E+00 0.  1.
         11    1    3    3    0    0  0.72384139711E+01 -0.13891610157E+01  0.45527337713E+01  0.86632436303E+01  0.51100000000E-03 0. -1.
        -11    1    3    3    0    0  0.10030202523E+02 -0.20077394727E+02  0.30487104841E+02  0.37857235815E+02  0.51100000000E-03 0.  1.
         12    1    3    3    0    0 -0.17109002830E+02  0.20581104512E+02 -0.34276013534E+02  0.43487296358E+02  0.00000000000E+00 0. -1.
</event>
<event>
 7    1  0.1654239E-015  0.9000781E+02  0.7816164E-02  0.1186339E+00
        -11   -1    0    0    0    0  0.00000000000E+00  0.00000000000E+00  0.45593999997E+02  0.45594000000E+02  0.51100000000E-03 0.  1.
         11   -1    0    0    0    0 -0.00000000000E+00 -0.00000000000E+00 -0.45593999997E+02  0.45594000000E+02  0.51100000000E-03 0. -1.
    9900012    2    1    2    0    0 -0.37266348318E+00  0.55613843779E+00 -0.97194613172E+00  0.90007810474E+02  0.90000072772E+02 0.  0.
        -12    1    1    2    0    0  0.37266348318E+00 -0.55613843779E+00  0.97194613172E+00  0.11801895257E+01  0.00000000000E+00 0.  1.
         11    1    3    3    0    0  0.75517308060E+01 -0.35247391064E+01  0.13159801349E+01  0.84370746063E+01  0.51100000000E-03 0. -1.
        -11    1    3    3    0    0  0.32717209118E+02 -0.10346593819E+02  0.11665813683E+02  0.36243054304E+02  0.51100000000E-03 0.  1.
         12    1    3    3    0    0 -0.40641603407E+02  0.14427471363E+02 -0.13953739949E+02  0.45327681564E+02  0.00000000000E+00 0. -1.
</event>
<event>
 7    1  0.1654239E-015  0.9000770E+02  0.7816164E-02  0.1186339E+00
        -11   -1    0    0    0    0  0.00000000000E+00  0.00000000000E+00  0.45593999997E+02  0.45594000000E+02  0.51100000000E-03 0.  1.
         11   -1    0    0    0    0 -0.00000000000E+00 -0.00000000000E+00 -0.45593999997E+02  0.45594000000E+02  0.51100000000E-03 0. -1.
    9900012    2    1    2    0    0 -0.47114070222E+00 -0.91690728123E+00  0.57481300300E+00  0.90007702363E+02  0.89999963234E+02 0.  0.
        -12    1    1    2    0    0  0.47114070222E+00  0.91690728123E+00 -0.57481300300E+00  0.11802976371E+01  0.00000000000E+00 0.  1.
         11    1    3    3    0    0 -0.34668276284E+02  0.12168446666E+02  0.82629236774E+01  0.37659479321E+02  0.51100000000E-03 0. -1.
        -11    1    3    3    0    0  0.48567367169E+00  0.90129882254E+01 -0.79658535004E+01  0.12038465763E+02  0.51100000000E-03 0.  1.
        -12    1    3    3    0    0  0.33711461910E+02 -0.22098342173E+02  0.27774282596E+00  0.40309757280E+02  0.00000000000E+00 0.  1.
</event>
<event>
 7    1  0.1654239E-015  0.9000771E+02  0.7816164E-02  0.1186339E+00
        -11   -1    0    0    0    0  0.00000000000E+00  0.00000000000E+00  0.45593999997E+02  0.45594000000E+02  0.51100000000E-03 0.  1.
         11   -1    0    0    0    0 -0.00000000000E+00 -0.00000000000E+00 -0.45593999997E+02  0.45594000000E+02  0.51100000000E-03 0. -1.
    9900012    2    1    2    0    0  0.32676085213E+00 -0.40136097523E+00 -0.10607593195E+01  0.90007714602E+02  0.89999975635E+02 0.  0.
        -12    1    1    2    0    0 -0.32676085213E+00  0.40136097523E+00  0.10607593195E+01  0.11802853980E+01  0.00000000000E+00 0.  1.
         11    1    3    3    0    0 -0.36498528428E+02  0.51303106921E+00 -0.15094810458E+01  0.36533331515E+02  0.51100000000E-03 0. -1.
        -11    1    3    3    0    0 -0.69742592977E+01  0.14253599093E+01  0.59383803580E+01  0.92701836638E+01  0.51100000000E-03 0.  1.
        -12    1    3    3    0    0  0.43799548577E+02 -0.23397519537E+01 -0.54896586317E+01  0.44204199424E+02  0.00000000000E+00 0.  1.
</event>
<event>
 7    1  0.1654239E-015  0.9000773E+02  0.7816164E-02  0.1186339E+00
        -11   -1    0    0    0    0  0.00000000000E+00  0.00000000000E+00  0.45593999997E+02  0.45594000000E+02  0.51100000000E-03 0. -1.
         11   -1    0    0    0    0 -0.00000000000E+00 -0.00000000000E+00 -0.45593999997E+02  0.45594000000E+02  0.51100000000E-03 0.  1.
    9900012    2    1    2    0    0 -0.53323802143E+00  0.17374331442E+00  0.10385077299E+01  0.90007734000E+02  0.89999995288E+02 0.  0.
        -12    1    1    2    0    0  0.53323802143E+00 -0.17374331442E+00 -0.10385077299E+01  0.11802660004E+01  0.00000000000E+00 0.  1.
         11    1    3    3    0    0  0.31182188417E+02  0.13498178841E+02  0.12945226029E+02  0.36360811098E+02  0.51100000000E-03 0. -1.
        -11    1    3    3    0    0  0.19116696820E+00  0.11403858722E+02  0.49894316202E+00  0.11416369086E+02  0.51100000000E-03 0.  1.
        -12    1    3    3    0    0 -0.31906593407E+02 -0.24728294249E+02 -0.12405661461E+02  0.42230553816E+02  0.00000000000E+00 0.  1.
</event>
<event>
 7    1  0.2362755E-015  0.9000778E+02  0.7816164E-02  0.1186339E+00
        -11   -1    0    0    0    0  0.00000000000E+00  0.00000000000E+00  0.45593999997E+02  0.45594000000E+02  0.51100000000E-03 0.  1.
         11   -1    0    0    0    0 -0.00000000000E+00 -0.00000000000E+00 -0.45593999997E+02  0.45594000000E+02  0.51100000000E-03 0. -1.
    9900012    2    1    2    0    0 -0.27581102441E+00 -0.69251073758E+00 -0.91502390228E+00  0.90007783247E+02  0.90000045186E+02 0.  0.
        -12    1    1    2    0    0  0.27581102441E+00  0.69251073758E+00  0.91502390228E+00  0.11802167532E+01  0.00000000000E+00 0.  1.
         11    1    3    3    0    0  0.71359480666E+01  0.49696561279E+01  0.33456323916E+01  0.93173222119E+01  0.51100000000E-03 0. -1.
        -11    1    3    3    0    0 -0.52139062730E+01  0.20390417926E+01  0.37628449424E+02  0.38042643393E+02  0.51100000000E-03 0.  1.
         12    1    3    3    0    0 -0.21978528180E+01 -0.77012086581E+01 -0.41889105717E+02  0.42647817642E+02  0.00000000000E+00 0. -1.
</event>
<event>
 7    1  0.1654239E-015  0.9000778E+02  0.7816164E-02  0.1186339E+00
        -11   -1    0    0    0    0  0.00000000000E+00  0.00000000000E+00  0.45593999997E+02  0.45594000000E+02  0.51100000000E-03 0. -1.
         11   -1    0    0    0    0 -0.00000000000E+00 -0.00000000000E+00 -0.45593999997E+02  0.45594000000E+02  0.51100000000E-03 0.  1.
    9900012    2    1    2    0    0 -0.33605682346E+00 -0.26652847582E+00  0.10995178851E+01  0.90007783411E+02  0.90000045352E+02 0.  0.
        -12    1    1    2    0    0  0.33605682346E+00  0.26652847582E+00 -0.10995178851E+01  0.11802165889E+01  0.00000000000E+00 0.  1.
         11    1    3    3    0    0 -0.17696630575E+00 -0.67767324913E+01  0.82576372330E+01  0.10683819227E+02  0.51100000000E-03 0. -1.
        -11    1    3    3    0    0 -0.23377297839E+02 -0.28415701566E+02 -0.10794210377E+00  0.36796219934E+02  0.51100000000E-03 0.  1.
         12    1    3    3    0    0  0.23218207321E+02  0.34925905581E+02 -0.70501772442E+01  0.42527744250E+02  0.00000000000E+00 0. -1.
</event>
<event>
 7    1  0.1654239E-015  0.9000827E+02  0.7816164E-02  0.1186338E+00
        -11   -1    0    0    0    0  0.00000000000E+00  0.00000000000E+00  0.45593999997E+02  0.45594000000E+02  0.51100000000E-03 0.  1.
         11   -1    0    0    0    0 -0.00000000000E+00 -0.00000000000E+00 -0.45593999997E+02  0.45594000000E+02  0.51100000000E-03 0. -1.
    9900012    2    1    2    0    0  0.10971879058E+01  0.36118985408E+00 -0.23977852971E+00  0.90008265642E+02  0.90000533947E+02 0.  0.
        -12    1    1    2    0    0 -0.10971879058E+01 -0.36118985408E+00  0.23977852971E+00  0.11797343577E+01  0.00000000000E+00 0.  1.
         11    1    3    3    0    0 -0.16593212696E+02 -0.57030430911E+01 -0.33386717504E+02  0.37716472715E+02  0.51100000000E-03 0. -1.
        -11    1    3    3    0    0 -0.10009380291E+02 -0.21770985931E+01  0.33382058081E+01  0.10773628469E+02  0.51100000000E-03 0.  1.
        -12    1    3    3    0    0  0.27699780893E+02  0.82413315383E+01  0.29808733166E+02  0.41518164459E+02  0.00000000000E+00 0.  1.
</event>
<event>
 7    1  0.1654239E-015  0.9000785E+02  0.7816164E-02  0.1186339E+00
        -11   -1    0    0    0    0  0.00000000000E+00  0.00000000000E+00  0.45593999997E+02  0.45594000000E+02  0.51100000000E-03 0.  1.
         11   -1    0    0    0    0 -0.00000000000E+00 -0.00000000000E+00 -0.45593999997E+02  0.45594000000E+02  0.51100000000E-03 0. -1.
    9900012    2    1    2    0    0 -0.77700379890E+00  0.68431857899E-01 -0.88562801610E+00  0.90007849668E+02  0.90000112484E+02 0.  0.
        -12    1    1    2    0    0  0.77700379890E+00 -0.68431857899E-01  0.88562801610E+00  0.11801503318E+01  0.00000000000E+00 0.  1.
         11    1    3    3    0    0 -0.37339999598E+02  0.44279063836E+01  0.20461254685E+01  0.37657251023E+02  0.51100000000E-03 0. -1.
        -11    1    3    3    0    0 -0.77298813236E+01  0.11776476693E+00 -0.93684816085E+00  0.77873370644E+01  0.51100000000E-03 0.  1.
        -12    1    3    3    0    0  0.44292877123E+02 -0.44772392926E+01 -0.19949053237E+01  0.44563261581E+02  0.00000000000E+00 0.  1.
</event>
<event>
 7    1  0.1654239E-015  0.9000782E+02  0.7816164E-02  0.1186339E+00
        -11   -1    0    0    0    0  0.00000000000E+00  0.00000000000E+00  0.45593999997E+02  0.45594000000E+02  0.51100000000E-03 0.  1.
         11   -1    0    0    0    0 -0.00000000000E+00 -0.00000000000E+00 -0.45593999997E+02  0.45594000000E+02  0.51100000000E-03 0. -1.
    9900012    2    1    2    0    0  0.74374608797E-01 -0.93592003634E+00 -0.71508562059E+00  0.90007819784E+02  0.90000082205E+02 0.  0.
        -12    1    1    2    0    0 -0.74374608797E-01  0.93592003634E+00  0.71508562059E+00  0.11801802157E+01  0.00000000000E+00 0.  1.
         11    1    3    3    0    0 -0.10445854307E+01 -0.28412593089E+01  0.10631887553E+02  0.11054453690E+02  0.51100000000E-03 0. -1.
        -11    1    3    3    0    0  0.24219030574E+02 -0.22270968755E+01  0.25518802510E+02  0.35252385511E+02  0.51100000000E-03 0.  1.
         12    1    3    3    0    0 -0.23100070534E+02  0.41324361481E+01 -0.36865775683E+02  0.43700980583E+02  0.00000000000E+00 0. -1.
</event>
<event>
 7    1  0.1654239E-015  0.9000770E+02  0.7816164E-02  0.1186339E+00
        -11   -1    0    0    0    0  0.00000000000E+00  0.00000000000E+00  0.45593999997E+02  0.45594000000E+02  0.51100000000E-03 0.  1.
         11   -1    0    0    0    0 -0.00000000000E+00 -0.00000000000E+00 -0.45593999997E+02  0.45594000000E+02  0.51100000000E-03 0. -1.
    9900012    2    1    2    0    0 -0.61355112944E+00  0.58951310281E+00 -0.81800400236E+00  0.90007702904E+02  0.89999963782E+02 0.  0.
        -12    1    1    2    0    0  0.61355112944E+00 -0.58951310281E+00  0.81800400236E+00  0.11802970959E+01  0.00000000000E+00 0.  1.
         11    1    3    3    0    0 -0.73900651482E+01  0.73137310391E+01 -0.36763392455E+02  0.38205375926E+02  0.51100000000E-03 0. -1.
        -11    1    3    3    0    0  0.53159291266E+01  0.11692866397E+01 -0.65722510808E+01  0.85335114845E+01  0.51100000000E-03 0.  1.
        -12    1    3    3    0    0  0.14605848922E+01 -0.78935045760E+01  0.42517639533E+02  0.43268815493E+02  0.00000000000E+00 0.  1.
</event>
<event>
 7    1  0.1654239E-015  0.9000756E+02  0.7816164E-02  0.1186339E+00
        -11   -1    0    0    0    0  0.00000000000E+00  0.00000000000E+00  0.45593999997E+02  0.45594000000E+02  0.51100000000E-03 0.  1.
         11   -1    0    0    0    0 -0.00000000000E+00 -0.00000000000E+00 -0.45593999997E+02  0.45594000000E+02  0.51100000000E-03 0. -1.
    9900012    2    1    2    0    0 -0.24065853317E+00 -0.29140617854E+00 -0.11183071831E+01  0.90007557267E+02  0.89999816223E+02 0.  0.
        -12    1    1    2    0    0  0.24065853317E+00  0.29140617854E+00  0.11183071831E+01  0.11804427332E+01  0.00000000000E+00 0.  1.
         11    1    3    3    0    0 -0.11320392070E+01 -0.58765437540E+01  0.92385494394E+01  0.11007546287E+02  0.51100000000E-03 0. -1.
        -11    1    3    3    0    0  0.20039298556E+02 -0.10559035449E+02  0.26233302430E+02  0.34659095096E+02  0.51100000000E-03 0.  1.
         12    1    3    3    0    0 -0.19147917882E+02  0.16144173025E+02 -0.36590159053E+02  0.44340915883E+02  0.00000000000E+00 0. -1.
</event>
<event>
 7    1  0.1654239E-015  0.9000767E+02  0.7816164E-02  0.1186339E+00
        -11   -1    0    0    0    0  0.00000000000E+00  0.00000000000E+00  0.45593999997E+02  0.45594000000E+02  0.51100000000E-03 0.  1.
         11   -1    0    0    0    0 -0.00000000000E+00 -0.00000000000E+00 -0.45593999997E+02  0.45594000000E+02  0.51100000000E-03 0. -1.
    9900012    2    1    2    0    0 -0.92532919292E+00  0.68227869638E+00  0.26727392739E+00  0.90007672212E+02  0.89999932685E+02 0.  0.
        -12    1    1    2    0    0  0.92532919292E+00 -0.68227869638E+00 -0.26727392739E+00  0.11803277880E+01  0.00000000000E+00 0.  1.
         11    1    3    3    0    0  0.21909255138E+02  0.29182987903E+02 -0.28018352799E+01  0.36599351427E+02  0.51100000000E-03 0. -1.
        -11    1    3    3    0    0  0.92544266915E+01  0.69226728101E+00  0.37816414151E+01  0.10021200498E+02  0.51100000000E-03 0.  1.
        -12    1    3    3    0    0 -0.32089011023E+02 -0.29192976488E+02 -0.71253220775E+00  0.43387120287E+02  0.00000000000E+00 0.  1.
</event>
<event>
 7    1  0.1654239E-015  0.9000771E+02  0.7816164E-02  0.1186339E+00
        -11   -1    0    0    0    0  0.00000000000E+00  0.00000000000E+00  0.45593999997E+02  0.45594000000E+02  0.51100000000E-03 0. -1.
         11   -1    0    0    0    0 -0.00000000000E+00 -0.00000000000E+00 -0.45593999997E+02  0.45594000000E+02  0.51100000000E-03 0.  1.
    9900012    2    1    2    0    0  0.96655294334E+00  0.12596409223E+00  0.66557800109E+00  0.90007709519E+02  0.89999970484E+02 0.  0.
        -12    1    1    2    0    0 -0.96655294334E+00 -0.12596409223E+00 -0.66557800109E+00  0.11802904813E+01  0.00000000000E+00 0.  1.
         11    1    3    3    0    0 -0.11876887538E+02  0.51362082673E+00  0.33484724613E+02  0.35532394327E+02  0.51100000000E-03 0. -1.
        -11    1    3    3    0    0 -0.14011563756E+01  0.17149862039E+02 -0.36680587993E+01  0.17593625628E+02  0.51100000000E-03 0.  1.
        -12    1    3    3    0    0  0.14244596857E+02 -0.17537518773E+02 -0.29151087813E+02  0.36881689563E+02  0.00000000000E+00 0.  1.
</event>
<event>
 7    1  0.1654239E-015  0.9000774E+02  0.7816164E-02  0.1186339E+00
        -11   -1    0    0    0    0  0.00000000000E+00  0.00000000000E+00  0.45593999997E+02  0.45594000000E+02  0.51100000000E-03 0. -1.
         11   -1    0    0    0    0 -0.00000000000E+00 -0.00000000000E+00 -0.45593999997E+02  0.45594000000E+02  0.51100000000E-03 0.  1.
    9900012    2    1    2    0    0  0.28978058518E+00 -0.95484870092E+00  0.63031330803E+00  0.90007744225E+02  0.90000005648E+02 0.  0.
        -12    1    1    2    0    0 -0.28978058518E+00  0.95484870092E+00 -0.63031330803E+00  0.11802557754E+01  0.00000000000E+00 0.  1.
         11    1    3    3    0    0  0.50020859861E+01  0.43432901520E+01 -0.18982052195E+02  0.20104808862E+02  0.51100000000E-03 0. -1.
        -11    1    3    3    0    0 -0.23587451568E+02 -0.72973296697E+01 -0.16088785444E+02  0.29469779590E+02  0.51100000000E-03 0.  1.
         12    1    3    3    0    0  0.18875146167E+02  0.19991908168E+01  0.35701150948E+02  0.40433155773E+02  0.00000000000E+00 0. -1.
</event>
<event>
 7    1  0.1856231E-015  0.9000776E+02  0.7816164E-02  0.1186339E+00
        -11   -1    0    0    0    0  0.00000000000E+00  0.00000000000E+00  0.45593999997E+02  0.45594000000E+02  0.51100000000E-03 0. -1.
         11   -1    0    0    0    0 -0.00000000000E+00 -0.00000000000E+00 -0.45593999997E+02  0.45594000000E+02  0.51100000000E-03 0.  1.
    9900012    2    1    2    0    0 -0.16868830498E+00 -0.96838140616E+00  0.65325566565E+00  0.90007762203E+02  0.90000023864E+02 0.  0.
        -12    1    1    2    0    0  0.16868830498E+00  0.96838140616E+00 -0.65325566565E+00  0.11802377967E+01  0.00000000000E+00 0.  1.
         11    1    3    3    0    0  0.36292415322E+00 -0.65465043935E+01 -0.69608270215E+01  0.95625073490E+01  0.51100000000E-03 0. -1.
        -11    1    3    3    0    0  0.28794045567E+02  0.30858029505E+01 -0.23736988990E+02  0.37444143554E+02  0.51100000000E-03 0.  1.
         12    1    3    3    0    0 -0.29325658025E+02  0.24923200368E+01  0.31351071677E+02  0.43001111300E+02  0.00000000000E+00 0. -1.
</event>
<event>
 7    1  0.1654239E-015  0.9000778E+02  0.7816164E-02  0.1186339E+00
        -11   -1    0    0    0    0  0.00000000000E+00  0.00000000000E+00  0.45593999997E+02  0.45594000000E+02  0.51100000000E-03 0.  1.
         11   -1    0    0    0    0 -0.00000000000E+00 -0.00000000000E+00 -0.45593999997E+02  0.45594000000E+02  0.51100000000E-03 0. -1.
    9900012    2    1    2    0    0 -0.91386226836E+00 -0.28187565615E+00 -0.69161198000E+00  0.90007777452E+02  0.90000039315E+02 0.  0.
        -12    1    1    2    0    0  0.91386226836E+00  0.28187565615E+00  0.69161198000E+00  0.11802225476E+01  0.00000000000E+00 0.  1.
         11    1    3    3    0    0 -0.25945740699E+01  0.11231461960E+02 -0.32790321146E+00  0.11531915415E+02  0.51100000000E-03 0. -1.
        -11    1    3    3    0    0 -0.16111899830E+01  0.18975392454E+02  0.29862213028E+02  0.35417696412E+02  0.51100000000E-03 0.  1.
         12    1    3    3    0    0  0.32919017845E+01 -0.30488730070E+02 -0.30225921796E+02  0.43058165626E+02  0.00000000000E+00 0. -1.
</event>
<event>
 7    1  0.1654239E-015  0.9000773E+02  0.7816164E-02  0.1186339E+00
        -11   -1    0    0    0    0  0.00000000000E+00  0.00000000000E+00  0.45593999997E+02  0.45594000000E+02  0.51100000000E-03 0. -1.
         11   -1    0    0    0    0 -0.00000000000E+00 -0.00000000000E+00 -0.45593999997E+02  0.45594000000E+02  0.51100000000E-03 0.  1.
    9900012    2    1    2    0    0 -0.46362086141E+00 -0.87632800122E+00 -0.64042484581E+00  0.90007729246E+02  0.89999990472E+02 0.  0.
        -12    1    1    2    0    0  0.46362086141E+00  0.87632800122E+00  0.64042484581E+00  0.11802707537E+01  0.00000000000E+00 0.  1.
         11    1    3    3    0    0 -0.15014619162E+02 -0.22227483442E+02 -0.24278295428E+02  0.36179212787E+02  0.51100000000E-03 0. -1.
        -11    1    3    3    0    0 -0.52030510948E+01 -0.99891540772E+01  0.65730761866E+01  0.13040715881E+02  0.51100000000E-03 0.  1.
        -12    1    3    3    0    0  0.19754049396E+02  0.31340309518E+02  0.17064794396E+02  0.40787800578E+02  0.00000000000E+00 0.  1.
</event>
<event>
 7    1  0.1654239E-015  0.9000757E+02  0.7816164E-02  0.1186339E+00
        -11   -1    0    0    0    0  0.00000000000E+00  0.00000000000E+00  0.45593999997E+02  0.45594000000E+02  0.51100000000E-03 0. -1.
         11   -1    0    0    0    0 -0.00000000000E+00 -0.00000000000E+00 -0.45593999997E+02  0.45594000000E+02  0.51100000000E-03 0.  1.
    9900012    2    1    2    0    0  0.62067222875E+00 -0.25764431233E+00  0.97046457110E+00  0.90007569531E+02  0.89999828649E+02 0.  0.
        -12    1    1    2    0    0 -0.62067222875E+00  0.25764431233E+00 -0.97046457110E+00  0.11804304685E+01  0.00000000000E+00 0.  1.
         11    1    3    3    0    0  0.82388060142E+01 -0.20236707214E+01  0.72135659441E+01  0.11135919433E+02  0.51100000000E-03 0. -1.
        -11    1    3    3    0    0 -0.16307908166E+02 -0.36124902298E+02 -0.10263331147E+01  0.39648578723E+02  0.51100000000E-03 0.  1.
         12    1    3    3    0    0  0.86897743807E+01  0.37890928707E+02 -0.52167682583E+01  0.39223071376E+02  0.00000000000E+00 0. -1.
</event>
<event>
 7    1  0.1654239E-015  0.9000769E+02  0.7816164E-02  0.1186339E+00
        -11   -1    0    0    0    0  0.00000000000E+00  0.00000000000E+00  0.45593999997E+02  0.45594000000E+02  0.51100000000E-03 0.  1.
         11   -1    0    0    0    0 -0.00000000000E+00 -0.00000000000E+00 -0.45593999997E+02  0.45594000000E+02  0.51100000000E-03 0. -1.
    9900012    2    1    2    0    0  0.97284988346E+00 -0.57329649381E-01  0.66588684141E+00  0.90007691197E+02  0.89999951921E+02 0.  0.
        -12    1    1    2    0    0 -0.97284988346E+00  0.57329649381E-01 -0.66588684141E+00  0.11803088028E+01  0.00000000000E+00 0.  1.
         11    1    3    3    0    0  0.28502845199E+02  0.26321485009E+02 -0.20352618380E+02  0.43811663204E+02  0.51100000000E-03 0. -1.
        -11    1    3    3    0    0 -0.39014633705E+00 -0.70106461134E+01  0.73387441523E+01  0.10156699222E+02  0.51100000000E-03 0.  1.
        -12    1    3    3    0    0 -0.27139848979E+02 -0.19368168545E+02  0.13679761070E+02  0.36039328771E+02  0.00000000000E+00 0.  1.
</event>
<event>
 7    1  0.1654239E-015  0.9000776E+02  0.7816164E-02  0.1186339E+00
        -11   -1    0    0    0    0  0.00000000000E+00  0.00000000000E+00  0.45593999997E+02  0.45594000000E+02  0.51100000000E-03 0.  1.
         11   -1    0    0    0    0 -0.00000000000E+00 -0.00000000000E+00 -0.45593999997E+02  0.45594000000E+02  0.51100000000E-03 0. -1.
    9900012    2    1    2    0    0 -0.17048317451E+00 -0.20900611173E+00 -0.11490114164E+01  0.90007756253E+02  0.90000017835E+02 0.  0.
        -12    1    1    2    0    0  0.17048317451E+00  0.20900611173E+00  0.11490114164E+01  0.11802437471E+01  0.00000000000E+00 0.  1.
         11    1    3    3    0    0 -0.78728214501E+01 -0.32728978037E+01 -0.10572446907E+01  0.85913295953E+01  0.51100000000E-03 0. -1.
        -11    1    3    3    0    0 -0.26325530908E+02  0.10196915117E+02  0.25660249216E+02  0.38150478969E+02  0.51100000000E-03 0.  1.
         12    1    3    3    0    0  0.34027869184E+02 -0.71330234251E+01 -0.25752015941E+02  0.43265947689E+02  0.00000000000E+00 0. -1.
</event>
<event>
 7    1  0.1654239E-015  0.9000773E+02  0.7816164E-02  0.1186339E+00
        -11   -1    0    0    0    0  0.00000000000E+00  0.00000000000E+00  0.45593999997E+02  0.45594000000E+02  0.51100000000E-03 0.  1.
         11   -1    0    0    0    0 -0.00000000000E+00 -0.00000000000E+00 -0.45593999997E+02  0.45594000000E+02  0.51100000000E-03 0. -1.
    9900012    2    1    2    0    0  0.11494838967E+01 -0.19954810929E+00 -0.17862996163E+00  0.90007728277E+02  0.89999989490E+02 0.  0.
        -12    1    1    2    0    0 -0.11494838967E+01  0.19954810929E+00  0.17862996163E+00  0.11802717229E+01  0.00000000000E+00 0.  1.
         11    1    3    3    0    0  0.25291827840E+02  0.20273392607E+02 -0.18766418877E+02  0.37454845895E+02  0.51100000000E-03 0. -1.
        -11    1    3    3    0    0  0.44126202966E+01  0.73857727837E+01  0.15045195481E+00  0.86048529067E+01  0.51100000000E-03 0.  1.
        -12    1    3    3    0    0 -0.28554964239E+02 -0.27858713500E+02  0.18437336961E+02  0.43948029476E+02  0.00000000000E+00 0.  1.
</event>
<event>
 7    1  0.1654239E-015  0.9000777E+02  0.7816164E-02  0.1186339E+00
        -11   -1    0    0    0    0  0.00000000000E+00  0.00000000000E+00  0.45593999997E+02  0.45594000000E+02  0.51100000000E-03 0.  1.
         11   -1    0    0    0    0 -0.00000000000E+00 -0.00000000000E+00 -0.45593999997E+02  0.45594000000E+02  0.51100000000E-03 0. -1.
    9900012    2    1    2    0    0 -0.59960355110E+00  0.52591029877E+00  0.86996145425E+00  0.90007771635E+02  0.90000033421E+02 0.  0.
        -12    1    1    2    0    0  0.59960355110E+00 -0.52591029877E+00 -0.86996145425E+00  0.11802283647E+01  0.00000000000E+00 0.  1.
         11    1    3    3    0    0  0.30149607640E+02 -0.75105946758E+01  0.17820499353E-01  0.31071018507E+02  0.51100000000E-03 0. -1.
        -11    1    3    3    0    0  0.13174954605E+02  0.53730251132E+01 -0.36870677745E+01  0.14698411368E+02  0.51100000000E-03 0.  1.
        -12    1    3    3    0    0 -0.43924165796E+02  0.26634798614E+01  0.45392087294E+01  0.44238341761E+02  0.00000000000E+00 0.  1.
</event>
<event>
 7    1  0.1654239E-015  0.9000757E+02  0.7816164E-02  0.1186339E+00
        -11   -1    0    0    0    0  0.00000000000E+00  0.00000000000E+00  0.45593999997E+02  0.45594000000E+02  0.51100000000E-03 0. -1.
         11   -1    0    0    0    0 -0.00000000000E+00 -0.00000000000E+00 -0.45593999997E+02  0.45594000000E+02  0.51100000000E-03 0.  1.
    9900012    2    1    2    0    0  0.18378443492E+00  0.35052425145E+00  0.11121045699E+01  0.90007567645E+02  0.89999826738E+02 0.  0.
        -12    1    1    2    0    0 -0.18378443492E+00 -0.35052425145E+00 -0.11121045699E+01  0.11804323546E+01  0.00000000000E+00 0.  1.
         11    1    3    3    0    0  0.20206255987E+02  0.96447052804E+01 -0.17234645948E+01  0.22456256398E+02  0.51100000000E-03 0. -1.
        -11    1    3    3    0    0  0.19209331945E+01 -0.27171569605E+01 -0.28523117196E+02  0.28716565622E+02  0.51100000000E-03 0.  1.
         12    1    3    3    0    0 -0.21943404746E+02 -0.65770240684E+01  0.31358686361E+02  0.38834745625E+02  0.00000000000E+00 0. -1.
</event>
<event>
 7    1  0.1654239E-015  0.9000758E+02  0.7816164E-02  0.1186339E+00
        -11   -1    0    0    0    0  0.00000000000E+00  0.00000000000E+00  0.45593999997E+02  0.45594000000E+02  0.51100000000E-03 0.  1.
         11   -1    0    0    0    0 -0.00000000000E+00 -0.00000000000E+00 -0.45593999997E+02  0.45594000000E+02  0.51100000000E-03 0. -1.
    9900012    2    1    2    0    0  0.22543697330E+00  0.34513989931E-01 -0.11581818360E+01  0.90007577106E+02  0.89999836323E+02 0.  0.
        -12    1    1    2    0    0 -0.22543697330E+00 -0.34513989931E-01  0.11581818360E+01  0.11804228944E+01  0.00000000000E+00 0.  1.
         11    1    3    3    0    0 -0.32914260715E+02  0.13702582779E+02 -0.12486384271E+02  0.37775906682E+02  0.51100000000E-03 0. -1.
        -11    1    3    3    0    0 -0.25582290302E+01 -0.92515206376E+00 -0.88728137781E+01  0.92804777201E+01  0.51100000000E-03 0.  1.
        -12    1    3    3    0    0  0.35697926718E+02 -0.12742916725E+02  0.20201016213E+02  0.42951192704E+02  0.00000000000E+00 0.  1.
</event>
<event>
 7    1  0.1654239E-015  0.9000777E+02  0.7816164E-02  0.1186339E+00
        -11   -1    0    0    0    0  0.00000000000E+00  0.00000000000E+00  0.45593999997E+02  0.45594000000E+02  0.51100000000E-03 0.  1.
         11   -1    0    0    0    0 -0.00000000000E+00 -0.00000000000E+00 -0.45593999997E+02  0.45594000000E+02  0.51100000000E-03 0. -1.
    9900012    2    1    2    0    0  0.11780209621E+01  0.71793250159E-01 -0.74585236459E-02  0.90007769816E+02  0.90000031577E+02 0.  0.
        -12    1    1    2    0    0 -0.11780209621E+01 -0.71793250159E-01  0.74585236459E-02  0.11802301841E+01  0.00000000000E+00 0.  1.
         11    1    3    3    0    0  0.20167326026E+02 -0.25034123390E+02 -0.73377411877E+01  0.32973789878E+02  0.51100000000E-03 0. -1.
        -11    1    3    3    0    0  0.39990399892E+01 -0.10540572257E+02  0.92375128747E+01  0.14574897211E+02  0.51100000000E-03 0.  1.
        -12    1    3    3    0    0 -0.22988345053E+02  0.35646488897E+02 -0.19072302107E+01  0.42459082727E+02  0.00000000000E+00 0.  1.
</event>
<event>
 7    1  0.1654239E-015  0.9000725E+02  0.7816164E-02  0.1186340E+00
        -11   -1    0    0    0    0  0.00000000000E+00  0.00000000000E+00  0.45593999997E+02  0.45594000000E+02  0.51100000000E-03 0. -1.
         11   -1    0    0    0    0 -0.00000000000E+00 -0.00000000000E+00 -0.45593999997E+02  0.45594000000E+02  0.51100000000E-03 0.  1.
    9900012    2    1    2    0    0  0.91266834104E+00  0.25382856624E+00  0.70483177948E+00  0.90007245885E+02  0.89999500730E+02 0.  0.
        -12    1    1    2    0    0 -0.91266834104E+00 -0.25382856624E+00 -0.70483177948E+00  0.11807541146E+01  0.00000000000E+00 0.  1.
         11    1    3    3    0    0  0.31636342542E+02 -0.22715394515E+02  0.14126245061E+02  0.41429435395E+02  0.51100000000E-03 0. -1.
        -11    1    3    3    0    0  0.32932929086E+01  0.52477831218E+01 -0.75630256253E+01  0.97767255635E+01  0.51100000000E-03 0.  1.
        -12    1    3    3    0    0 -0.34016967109E+02  0.17721439959E+02 -0.58583876561E+01  0.38801084927E+02  0.00000000000E+00 0.  1.
</event>
<event>
 7    1  0.1654239E-015  0.9000806E+02  0.7816164E-02  0.1186338E+00
        -11   -1    0    0    0    0  0.00000000000E+00  0.00000000000E+00  0.45593999997E+02  0.45594000000E+02  0.51100000000E-03 0.  1.
         11   -1    0    0    0    0 -0.00000000000E+00 -0.00000000000E+00 -0.45593999997E+02  0.45594000000E+02  0.51100000000E-03 0. -1.
    9900012    2    1    2    0    0  0.48178469741E+00  0.10621199717E+01 -0.17900871431E+00  0.90008059557E+02  0.90000325143E+02 0.  0.
        -12    1    1    2    0    0 -0.48178469741E+00 -0.10621199717E+01  0.17900871431E+00  0.11799404428E+01  0.00000000000E+00 0.  1.
         11    1    3    3    0    0  0.85636297887E+01  0.56063384491E+01  0.14020927417E+01  0.10331149514E+02  0.51100000000E-03 0. -1.
        -11    1    3    3    0    0 -0.15275474667E+02 -0.39706193499E+02  0.60874932845E+01  0.42976499430E+02  0.51100000000E-03 0.  1.
         12    1    3    3    0    0  0.71936295761E+01  0.35161975022E+02 -0.76685947405E+01  0.36700410613E+02  0.00000000000E+00 0. -1.
</event>
<event>
 7    1  0.1654239E-015  0.9000778E+02  0.7816164E-02  0.1186339E+00
        -11   -1    0    0    0    0  0.00000000000E+00  0.00000000000E+00  0.45593999997E+02  0.45594000000E+02  0.51100000000E-03 0.  1.
         11   -1    0    0    0    0 -0.00000000000E+00 -0.00000000000E+00 -0.45593999997E+02  0.45594000000E+02  0.51100000000E-03 0. -1.
    9900012    2    1    2    0    0  0.47209508217E+00  0.99603322529E+00 -0.42185493073E+00  0.90007780726E+02  0.90000042631E+02 0.  0.
        -12    1    1    2    0    0 -0.47209508217E+00 -0.99603322529E+00  0.42185493073E+00  0.11802192741E+01  0.00000000000E+00 0.  1.
         11    1    3    3    0    0  0.54798554922E+01 -0.71521097192E+01 -0.33024577529E+01  0.95962345283E+01  0.51100000000E-03 0. -1.
        -11    1    3    3    0    0 -0.14831986690E+01 -0.35988846734E+02 -0.29143634291E+00  0.36020576105E+02  0.51100000000E-03 0.  1.
         12    1    3    3    0    0 -0.35245617411E+01  0.44136989678E+02  0.31720391651E+01  0.44390970093E+02  0.00000000000E+00 0. -1.
</event>
<event>
 7    1  0.1654239E-015  0.9000778E+02  0.7816164E-02  0.1186339E+00
        -11   -1    0    0    0    0  0.00000000000E+00  0.00000000000E+00  0.45593999997E+02  0.45594000000E+02  0.51100000000E-03 0.  1.
         11   -1    0    0    0    0 -0.00000000000E+00 -0.00000000000E+00 -0.45593999997E+02  0.45594000000E+02  0.51100000000E-03 0. -1.
    9900012    2    1    2    0    0  0.82671123453E-01  0.71426114807E+00 -0.93590101355E+00  0.90007782135E+02  0.90000044059E+02 0.  0.
        -12    1    1    2    0    0 -0.82671123453E-01 -0.71426114807E+00  0.93590101355E+00  0.11802178652E+01  0.00000000000E+00 0.  1.
         11    1    3    3    0    0 -0.98026728693E+01  0.15099084729E+02 -0.53991427667E+01  0.18794294291E+02  0.51100000000E-03 0. -1.
        -11    1    3    3    0    0 -0.20569955978E+02 -0.11308841829E+02  0.25046062987E+02  0.34326640730E+02  0.51100000000E-03 0.  1.
         12    1    3    3    0    0  0.30455299971E+02 -0.30759817514E+01 -0.20582821233E+02  0.36886847113E+02  0.00000000000E+00 0. -1.
</event>
<event>
 7    1  0.1654239E-015  0.9000739E+02  0.7816164E-02  0.1186340E+00
        -11   -1    0    0    0    0  0.00000000000E+00  0.00000000000E+00  0.45593999997E+02  0.45594000000E+02  0.51100000000E-03 0.  1.
         11   -1    0    0    0    0 -0.00000000000E+00 -0.00000000000E+00 -0.45593999997E+02  0.45594000000E+02  0.51100000000E-03 0. -1.
    9900012    2    1    2    0    0  0.84973495073E+00 -0.28922220047E+00 -0.76690924779E+00  0.90007386277E+02  0.89999642976E+02 0.  0.
        -12    1    1    2    0    0 -0.84973495073E+00  0.28922220047E+00  0.76690924779E+00  0.11806137226E+01  0.00000000000E+00 0.  1.
         11    1    3    3    0    0  0.43067700527E+01 -0.44110653602E+01  0.70574768626E+01  0.93708988804E+01  0.51100000000E-03 0. -1.
        -11    1    3    3    0    0 -0.27432609096E+01 -0.23909489404E+01  0.36071375904E+02  0.36254465616E+02  0.51100000000E-03 0.  1.
         12    1    3    3    0    0 -0.71377419238E+00  0.65127921001E+01 -0.43895762014E+02  0.44382021781E+02  0.00000000000E+00 0. -1.
</event>
<event>
 7    1  0.1654239E-015  0.9000760E+02  0.7816164E-02  0.1186339E+00
        -11   -1    0    0    0    0  0.00000000000E+00  0.00000000000E+00  0.45593999997E+02  0.45594000000E+02  0.51100000000E-03 0. -1.
         11   -1    0    0    0    0 -0.00000000000E+00 -0.00000000000E+00 -0.45593999997E+02  0.45594000000E+02  0.51100000000E-03 0.  1.
    9900012    2    1    2    0    0 -0.11199897006E+01  0.13291217866E+00  0.34826946990E+00  0.90007604219E+02  0.89999863794E+02 0.  0.
        -12    1    1    2    0    0  0.11199897006E+01 -0.13291217866E+00 -0.34826946990E+00  0.11803957812E+01  0.00000000000E+00 0.  1.
         11    1    3    3    0    0 -0.39572056654E+01 -0.76343451509E+01 -0.41570773670E+01  0.95511253294E+01  0.51100000000E-03 0. -1.
        -11    1    3    3    0    0 -0.23520146424E+02 -0.10452892655E+02 -0.25735520819E+02  0.36397490089E+02  0.51100000000E-03 0.  1.
         12    1    3    3    0    0  0.26357362388E+02  0.18220149985E+02  0.30240867656E+02  0.44058988801E+02  0.00000000000E+00 0. -1.
</event>
<event>
 7    1  0.1654239E-015  0.9000772E+02  0.7816164E-02  0.1186339E+00
        -11   -1    0    0    0    0  0.00000000000E+00  0.00000000000E+00  0.45593999997E+02  0.45594000000E+02  0.51100000000E-03 0. -1.
         11   -1    0    0    0    0 -0.00000000000E+00 -0.00000000000E+00 -0.45593999997E+02  0.45594000000E+02  0.51100000000E-03 0.  1.
    9900012    2    1    2    0    0 -0.85661109775E+00  0.81123027896E+00  0.34305572492E-01  0.90007722909E+02  0.89999984052E+02 0.  0.
        -12    1    1    2    0    0  0.85661109775E+00 -0.81123027896E+00 -0.34305572492E-01  0.11802770906E+01  0.00000000000E+00 0.  1.
         11    1    3    3    0    0  0.11763326343E+01  0.97072444100E+01 -0.10000108279E+01  0.98292611329E+01  0.51100000000E-03 0. -1.
        -11    1    3    3    0    0  0.19002812330E+02  0.18329501747E+02 -0.25518122214E+02  0.36718552155E+02  0.51100000000E-03 0.  1.
         12    1    3    3    0    0 -0.21035756062E+02 -0.27225515878E+02  0.26552438615E+02  0.43459909622E+02  0.00000000000E+00 0. -1.
</event>
<event>
 7    1  0.1654239E-015  0.9000772E+02  0.7816164E-02  0.1186339E+00
        -11   -1    0    0    0    0  0.00000000000E+00  0.00000000000E+00  0.45593999997E+02  0.45594000000E+02  0.51100000000E-03 0. -1.
         11   -1    0    0    0    0 -0.00000000000E+00 -0.00000000000E+00 -0.45593999997E+02  0.45594000000E+02  0.51100000000E-03 0.  1.
    9900012    2    1    2    0    0  0.85890933652E+00 -0.50273882951E+00  0.63450471197E+00  0.90007717064E+02  0.89999978129E+02 0.  0.
        -12    1    1    2    0    0 -0.85890933652E+00  0.50273882951E+00 -0.63450471197E+00  0.11802829358E+01  0.00000000000E+00 0.  1.
         11    1    3    3    0    0  0.29040377391E+02  0.19739503062E+02 -0.55119586631E+01  0.35543961353E+02  0.51100000000E-03 0. -1.
        -11    1    3    3    0    0  0.65249618388E+01  0.70764375596E+01  0.34061783050E+01  0.10210443009E+02  0.51100000000E-03 0.  1.
        -12    1    3    3    0    0 -0.34706429893E+02 -0.27318679451E+02  0.27402850700E+01  0.44253312702E+02  0.00000000000E+00 0.  1.
</event>
<event>
 7    1  0.1654239E-015  0.9000777E+02  0.7816164E-02  0.1186339E+00
        -11   -1    0    0    0    0  0.00000000000E+00  0.00000000000E+00  0.45593999997E+02  0.45594000000E+02  0.51100000000E-03 0.  1.
         11   -1    0    0    0    0 -0.00000000000E+00 -0.00000000000E+00 -0.45593999997E+02  0.45594000000E+02  0.51100000000E-03 0. -1.
    9900012    2    1    2    0    0 -0.74487763381E+00  0.27242160807E+00  0.87400733018E+00  0.90007769076E+02  0.90000030827E+02 0.  0.
        -12    1    1    2    0    0  0.74487763381E+00 -0.27242160807E+00 -0.87400733018E+00  0.11802309245E+01  0.00000000000E+00 0.  1.
         11    1    3    3    0    0  0.14684565122E+02  0.66229199697E+01 -0.32673563927E+02  0.36428852599E+02  0.51100000000E-03 0. -1.
        -11    1    3    3    0    0  0.18569427729E+01  0.75849701758E+01 -0.48723227220E+01  0.92043217022E+01  0.51100000000E-03 0.  1.
        -12    1    3    3    0    0 -0.17286385529E+02 -0.13935468537E+02  0.38419893979E+02  0.44374594774E+02  0.00000000000E+00 0.  1.
</event>
<event>
 7    1  0.1654239E-015  0.9000784E+02  0.7816164E-02  0.1186339E+00
        -11   -1    0    0    0    0  0.00000000000E+00  0.00000000000E+00  0.45593999997E+02  0.45594000000E+02  0.51100000000E-03 0. -1.
         11   -1    0    0    0    0 -0.00000000000E+00 -0.00000000000E+00 -0.45593999997E+02  0.45594000000E+02  0.51100000000E-03 0.  1.
    9900012    2    1    2    0    0  0.59159967826E+00  0.53960070957E+00 -0.86695645823E+00  0.90007842127E+02  0.90000104843E+02 0.  0.
        -12    1    1    2    0    0 -0.59159967826E+00 -0.53960070957E+00  0.86695645823E+00  0.11801578731E+01  0.00000000000E+00 0.  1.
         11    1    3    3    0    0  0.82066444074E+01  0.33750437332E+00  0.17199665034E+01  0.83917344253E+01  0.51100000000E-03 0. -1.
        -11    1    3    3    0    0 -0.93084102037E+00 -0.18266714090E+02  0.34839569941E+02  0.39348887438E+02  0.51100000000E-03 0.  1.
         12    1    3    3    0    0 -0.66842037088E+01  0.18468810426E+02 -0.37426492903E+02  0.42267220263E+02  0.00000000000E+00 0. -1.
</event>
<event>
 7    1  0.1654239E-015  0.9000781E+02  0.7816164E-02  0.1186339E+00
        -11   -1    0    0    0    0  0.00000000000E+00  0.00000000000E+00  0.45593999997E+02  0.45594000000E+02  0.51100000000E-03 0.  1.
         11   -1    0    0    0    0 -0.00000000000E+00 -0.00000000000E+00 -0.45593999997E+02  0.45594000000E+02  0.51100000000E-03 0. -1.
    9900012    2    1    2    0    0  0.46499651436E+00 -0.17655626634E+00 -0.10702642390E+01  0.90007805349E+02  0.90000067579E+02 0.  0.
        -12    1    1    2    0    0 -0.46499651436E+00  0.17655626634E+00  0.10702642390E+01  0.11801946513E+01  0.00000000000E+00 0.  1.
         11    1    3    3    0    0  0.17145571525E+02 -0.10876009806E+02 -0.37660432188E+02  0.42785118500E+02  0.51100000000E-03 0. -1.
        -11    1    3    3    0    0  0.40344819461E+01 -0.28198572147E+01  0.82376596955E+01  0.95962324276E+01  0.51100000000E-03 0.  1.
        -12    1    3    3    0    0 -0.20715056957E+02  0.13519310755E+02  0.28352508254E+02  0.37626454421E+02  0.00000000000E+00 0.  1.
</event>
<event>
 7    1  0.1654239E-015  0.9000772E+02  0.7816164E-02  0.1186339E+00
        -11   -1    0    0    0    0  0.00000000000E+00  0.00000000000E+00  0.45593999997E+02  0.45594000000E+02  0.51100000000E-03 0.  1.
         11   -1    0    0    0    0 -0.00000000000E+00 -0.00000000000E+00 -0.45593999997E+02  0.45594000000E+02  0.51100000000E-03 0. -1.
    9900012    2    1    2    0    0  0.81720403960E+00  0.25309762279E+00 -0.81313537024E+00  0.90007716145E+02  0.89999977198E+02 0.  0.
        -12    1    1    2    0    0 -0.81720403960E+00 -0.25309762279E+00  0.81313537024E+00  0.11802838554E+01  0.00000000000E+00 0.  1.
         11    1    3    3    0    0 -0.82426827540E+01 -0.35796509832E+02 -0.19806708862E+02  0.41732932456E+02  0.51100000000E-03 0. -1.
        -11    1    3    3    0    0 -0.23010228452E+01  0.72950391029E+01 -0.50006733522E+01  0.91388749791E+01  0.51100000000E-03 0.  1.
        -12    1    3    3    0    0  0.11360909639E+02  0.28754568352E+02  0.23994246844E+02  0.39135908710E+02  0.00000000000E+00 0.  1.
</event>
<event>
 7    1  0.1654239E-015  0.9000784E+02  0.7816164E-02  0.1186339E+00
        -11   -1    0    0    0    0  0.00000000000E+00  0.00000000000E+00  0.45593999997E+02  0.45594000000E+02  0.51100000000E-03 0.  1.
         11   -1    0    0    0    0 -0.00000000000E+00 -0.00000000000E+00 -0.45593999997E+02  0.45594000000E+02  0.51100000000E-03 0. -1.
    9900012    2    1    2    0    0 -0.39173587521E+00 -0.10800295777E+01  0.26990128682E+00  0.90007844252E+02  0.90000106996E+02 0.  0.
        -12    1    1    2    0    0  0.39173587521E+00  0.10800295777E+01 -0.26990128682E+00  0.11801557479E+01  0.00000000000E+00 0.  1.
         11    1    3    3    0    0 -0.89471389265E+01 -0.28766160672E+01  0.50939510842E+01  0.10689927637E+02  0.51100000000E-03 0. -1.
        -11    1    3    3    0    0 -0.16156326736E+01 -0.18710004770E+02  0.31329667374E+02  0.36527011997E+02  0.51100000000E-03 0.  1.
         12    1    3    3    0    0  0.10171035725E+02  0.20506591259E+02 -0.36153717171E+02  0.42790904619E+02  0.00000000000E+00 0. -1.
</event>
<event>
 7    1  0.1654239E-015  0.9000784E+02  0.7816164E-02  0.1186339E+00
        -11   -1    0    0    0    0  0.00000000000E+00  0.00000000000E+00  0.45593999997E+02  0.45594000000E+02  0.51100000000E-03 0.  1.
         11   -1    0    0    0    0 -0.00000000000E+00 -0.00000000000E+00 -0.45593999997E+02  0.45594000000E+02  0.51100000000E-03 0. -1.
    9900012    2    1    2    0    0  0.35360223232E+00 -0.11078275773E+01 -0.20112757095E+00  0.90007843748E+02  0.90000106485E+02 0.  0.
        -12    1    1    2    0    0 -0.35360223232E+00  0.11078275773E+01  0.20112757095E+00  0.11801562522E+01  0.00000000000E+00 0.  1.
         11    1    3    3    0    0  0.68285653699E+01  0.35298518573E+02 -0.17348668382E+02  0.39919807281E+02  0.51100000000E-03 0. -1.
        -11    1    3    3    0    0 -0.89480566497E+01 -0.40221000881E+00 -0.20816346238E+01  0.91957976090E+01  0.51100000000E-03 0.  1.
        -12    1    3    3    0    0  0.24730935121E+01 -0.36004136142E+02  0.19229175435E+02  0.40892238857E+02  0.00000000000E+00 0.  1.
</event>
<event>
 7    1  0.1654239E-015  0.9000765E+02  0.7816164E-02  0.1186339E+00
        -11   -1    0    0    0    0  0.00000000000E+00  0.00000000000E+00  0.45593999997E+02  0.45594000000E+02  0.51100000000E-03 0. -1.
         11   -1    0    0    0    0 -0.00000000000E+00 -0.00000000000E+00 -0.45593999997E+02  0.45594000000E+02  0.51100000000E-03 0.  1.
    9900012    2    1    2    0    0  0.85435500771E+00  0.45307041372E+00  0.67677314499E+00  0.90007653793E+02  0.89999914023E+02 0.  0.
        -12    1    1    2    0    0 -0.85435500771E+00 -0.45307041372E+00 -0.67677314499E+00  0.11803462072E+01  0.00000000000E+00 0.  1.
         11    1    3    3    0    0 -0.45405236386E+01 -0.89104278133E+00  0.75446378797E+01  0.88505295405E+01  0.51100000000E-03 0. -1.
        -11    1    3    3    0    0 -0.14074335870E+02 -0.32278502290E+02 -0.19563272974E+02  0.40282878372E+02  0.51100000000E-03 0.  1.
         12    1    3    3    0    0  0.19469214516E+02  0.33622615485E+02  0.12695408239E+02  0.40874245880E+02  0.00000000000E+00 0. -1.
</event>
<event>
 7    1  0.1654239E-015  0.9000773E+02  0.7816164E-02  0.1186339E+00
        -11   -1    0    0    0    0  0.00000000000E+00  0.00000000000E+00  0.45593999997E+02  0.45594000000E+02  0.51100000000E-03 0. -1.
         11   -1    0    0    0    0 -0.00000000000E+00 -0.00000000000E+00 -0.45593999997E+02  0.45594000000E+02  0.51100000000E-03 0.  1.
    9900012    2    1    2    0    0 -0.22848580710E+00 -0.37611276164E+00  0.10951602101E+01  0.90007727803E+02  0.89999989010E+02 0.  0.
        -12    1    1    2    0    0  0.22848580710E+00  0.37611276164E+00 -0.10951602101E+01  0.11802721971E+01  0.00000000000E+00 0.  1.
         11    1    3    3    0    0  0.16907052764E+02  0.30200788494E+02  0.17562523817E+02  0.38812089636E+02  0.51100000000E-03 0. -1.
        -11    1    3    3    0    0 -0.78515260259E+01  0.30044971832E+01  0.54642027460E+01  0.10026513660E+02  0.51100000000E-03 0.  1.
        -12    1    3    3    0    0 -0.92840125448E+01 -0.33581398439E+02 -0.21931566353E+02  0.41169124508E+02  0.00000000000E+00 0.  1.
</event>
<event>
 7    1  0.1654239E-015  0.9000773E+02  0.7816164E-02  0.1186339E+00
        -11   -1    0    0    0    0  0.00000000000E+00  0.00000000000E+00  0.45593999997E+02  0.45594000000E+02  0.51100000000E-03 0.  1.
         11   -1    0    0    0    0 -0.00000000000E+00 -0.00000000000E+00 -0.45593999997E+02  0.45594000000E+02  0.51100000000E-03 0. -1.
    9900012    2    1    2    0    0 -0.92477950428E+00 -0.69782198042E+00 -0.22554421984E+00  0.90007727640E+02  0.89999988845E+02 0.  0.
        -12    1    1    2    0    0  0.92477950428E+00  0.69782198042E+00  0.22554421984E+00  0.11802723597E+01  0.00000000000E+00 0.  1.
         11    1    3    3    0    0 -0.21470893116E+02  0.21918030774E+02 -0.18463141288E+02  0.35809033926E+02  0.51100000000E-03 0. -1.
        -11    1    3    3    0    0 -0.29340571970E+00  0.29702616252E+01 -0.10205676101E+02  0.10633172903E+02  0.51100000000E-03 0.  1.
        -12    1    3    3    0    0  0.20839519331E+02 -0.25586114379E+02  0.28443273170E+02  0.43565520812E+02  0.00000000000E+00 0.  1.
</event>
<event>
 7    1  0.1654239E-015  0.9000775E+02  0.7816164E-02  0.1186339E+00
        -11   -1    0    0    0    0  0.00000000000E+00  0.00000000000E+00  0.45593999997E+02  0.45594000000E+02  0.51100000000E-03 0.  1.
         11   -1    0    0    0    0 -0.00000000000E+00 -0.00000000000E+00 -0.45593999997E+02  0.45594000000E+02  0.51100000000E-03 0. -1.
    9900012    2    1    2    0    0 -0.64153480094E+00 -0.72597742803E+00 -0.67408278636E+00  0.90007746752E+02  0.90000008209E+02 0.  0.
        -12    1    1    2    0    0  0.64153480094E+00  0.72597742803E+00  0.67408278636E+00  0.11802532481E+01  0.00000000000E+00 0.  1.
         11    1    3    3    0    0  0.57408996846E+01  0.42864389902E+01  0.74828526791E+01  0.10359757376E+02  0.51100000000E-03 0. -1.
        -11    1    3    3    0    0 -0.22071547603E+02  0.12760717122E+02  0.27070597849E+02  0.37186104706E+02  0.51100000000E-03 0.  1.
         12    1    3    3    0    0  0.15689113117E+02 -0.17773133541E+02 -0.35227533315E+02  0.42461884670E+02  0.00000000000E+00 0. -1.
</event>
<event>
 7    1  0.1654239E-015  0.9000776E+02  0.7816164E-02  0.1186339E+00
        -11   -1    0    0    0    0  0.00000000000E+00  0.00000000000E+00  0.45593999997E+02  0.45594000000E+02  0.51100000000E-03 0.  1.
         11   -1    0    0    0    0 -0.00000000000E+00 -0.00000000000E+00 -0.45593999997E+02  0.45594000000E+02  0.51100000000E-03 0. -1.
    9900012    2    1    2    0    0 -0.91521051629E+00 -0.34711618651E+00 -0.65944983893E+00  0.90007756794E+02  0.90000018383E+02 0.  0.
        -12    1    1    2    0    0  0.91521051629E+00  0.34711618651E+00  0.65944983893E+00  0.11802432063E+01  0.00000000000E+00 0.  1.
         11    1    3    3    0    0  0.27109005891E+02 -0.32793014418E+01 -0.23558161307E+02  0.36064372763E+02  0.51100000000E-03 0. -1.
        -11    1    3    3    0    0 -0.44628775791E+01  0.10021866670E+02 -0.86242499198E+01  0.13954668565E+02  0.51100000000E-03 0.  1.
        -12    1    3    3    0    0 -0.23561338828E+02 -0.70896814144E+01  0.31522961387E+02  0.39988715466E+02  0.00000000000E+00 0.  1.
</event>
<event>
 7    1  0.1654239E-015  0.9000763E+02  0.7816164E-02  0.1186339E+00
        -11   -1    0    0    0    0  0.00000000000E+00  0.00000000000E+00  0.45593999997E+02  0.45594000000E+02  0.51100000000E-03 0.  1.
         11   -1    0    0    0    0 -0.00000000000E+00 -0.00000000000E+00 -0.45593999997E+02  0.45594000000E+02  0.51100000000E-03 0. -1.
    9900012    2    1    2    0    0 -0.10116241821E+01  0.52347552680E+00  0.30961883161E+00  0.90007629747E+02  0.89999889660E+02 0.  0.
        -12    1    1    2    0    0  0.10116241821E+01 -0.52347552680E+00 -0.30961883161E+00  0.11803702529E+01  0.00000000000E+00 0.  1.
         11    1    3    3    0    0  0.58763156110E+01  0.38178289019E+01 -0.64583415307E+01  0.95297994875E+01  0.51100000000E-03 0. -1.
        -11    1    3    3    0    0 -0.39985696855E+02  0.12601692862E+02  0.11459049011E+02  0.43462264328E+02  0.51100000000E-03 0.  1.
         12    1    3    3    0    0  0.33097757062E+02 -0.15896046238E+02 -0.46910886490E+01  0.37015565932E+02  0.00000000000E+00 0. -1.
</event>
<event>
 7    1  0.1654239E-015  0.9000721E+02  0.7816164E-02  0.1186340E+00
        -11   -1    0    0    0    0  0.00000000000E+00  0.00000000000E+00  0.45593999997E+02  0.45594000000E+02  0.51100000000E-03 0.  1.
         11   -1    0    0    0    0 -0.00000000000E+00 -0.00000000000E+00 -0.45593999997E+02  0.45594000000E+02  0.51100000000E-03 0. -1.
    9900012    2    1    2    0    0  0.11498144814E+01  0.99972710639E-01  0.24941519128E+00  0.90007205428E+02  0.89999459738E+02 0.  0.
        -12    1    1    2    0    0 -0.11498144814E+01 -0.99972710639E-01 -0.24941519128E+00  0.11807945724E+01  0.00000000000E+00 0.  1.
         11    1    3    3    0    0  0.59991434455E+00 -0.63148333162E+01  0.28173344128E+01  0.69407773691E+01  0.51100000000E-03 0. -1.
        -11    1    3    3    0    0 -0.35401239044E+02 -0.12266709359E+02  0.13008197845E+02  0.39660220572E+02  0.51100000000E-03 0.  1.
         12    1    3    3    0    0  0.35951139181E+02  0.18681515386E+02 -0.15576117066E+02  0.43406207487E+02  0.00000000000E+00 0. -1.
</event>
<event>
 7    1  0.1654239E-015  0.9000771E+02  0.7816164E-02  0.1186339E+00
        -11   -1    0    0    0    0  0.00000000000E+00  0.00000000000E+00  0.45593999997E+02  0.45594000000E+02  0.51100000000E-03 0. -1.
         11   -1    0    0    0    0 -0.00000000000E+00 -0.00000000000E+00 -0.45593999997E+02  0.45594000000E+02  0.51100000000E-03 0.  1.
    9900012    2    1    2    0    0 -0.88204444369E+00 -0.62867188249E+00  0.46887642876E+00  0.90007713661E+02  0.89999974681E+02 0.  0.
        -12    1    1    2    0    0  0.88204444369E+00  0.62867188249E+00 -0.46887642876E+00  0.11802863390E+01  0.00000000000E+00 0.  1.
         11    1    3    3    0    0  0.34554010807E+01  0.19074075399E+02  0.36711611156E+02  0.41515088135E+02  0.51100000000E-03 0. -1.
        -11    1    3    3    0    0  0.13070283634E+01 -0.10310421398E+02  0.24413998389E+00  0.10395802861E+02  0.51100000000E-03 0.  1.
        -12    1    3    3    0    0 -0.56444738878E+01 -0.93923258835E+01 -0.36486874711E+02  0.38096822665E+02  0.00000000000E+00 0.  1.
</event>
<event>
 7    1  0.1654239E-015  0.9000777E+02  0.7816164E-02  0.1186339E+00
        -11   -1    0    0    0    0  0.00000000000E+00  0.00000000000E+00  0.45593999997E+02  0.45594000000E+02  0.51100000000E-03 0. -1.
         11   -1    0    0    0    0 -0.00000000000E+00 -0.00000000000E+00 -0.45593999997E+02  0.45594000000E+02  0.51100000000E-03 0.  1.
    9900012    2    1    2    0    0 -0.29833841842E+00  0.52465063112E+00  0.10142348889E+01  0.90007772689E+02  0.90000034488E+02 0.  0.
        -12    1    1    2    0    0  0.29833841842E+00 -0.52465063112E+00 -0.10142348889E+01  0.11802273114E+01  0.00000000000E+00 0.  1.
         11    1    3    3    0    0  0.19708967641E+02 -0.30247301171E+02 -0.16394737716E+02  0.39650095317E+02  0.51100000000E-03 0. -1.
        -11    1    3    3    0    0 -0.51340995613E+01 -0.54551596537E+01  0.59134102211E+01  0.95439072636E+01  0.51100000000E-03 0.  1.
        -12    1    3    3    0    0 -0.14873206498E+02  0.36227111455E+02  0.11495562384E+02  0.40813770108E+02  0.00000000000E+00 0.  1.
</event>
<event>
 7    1  0.1654239E-015  0.9000788E+02  0.7816164E-02  0.1186339E+00
        -11   -1    0    0    0    0  0.00000000000E+00  0.00000000000E+00  0.45593999997E+02  0.45594000000E+02  0.51100000000E-03 0.  1.
         11   -1    0    0    0    0 -0.00000000000E+00 -0.00000000000E+00 -0.45593999997E+02  0.45594000000E+02  0.51100000000E-03 0. -1.
    9900012    2    1    2    0    0  0.43430455260E+00  0.45484732595E+00 -0.99858962038E+00  0.90007878072E+02  0.90000141263E+02 0.  0.
        -12    1    1    2    0    0 -0.43430455260E+00 -0.45484732595E+00  0.99858962038E+00  0.11801219277E+01  0.00000000000E+00 0.  1.
         11    1    3    3    0    0 -0.22812014215E+02  0.19369388914E+02 -0.29232217069E+02  0.41834002133E+02  0.51100000000E-03 0. -1.
        -11    1    3    3    0    0 -0.26466944469E+01  0.22629057287E+01  0.88561701494E+01  0.95161695975E+01  0.51100000000E-03 0.  1.
        -12    1    3    3    0    0  0.25893013215E+02 -0.21177447317E+02  0.19377457300E+02  0.38657706341E+02  0.00000000000E+00 0.  1.
</event>
<event>
 7    1  0.1654239E-015  0.9000769E+02  0.7816164E-02  0.1186339E+00
        -11   -1    0    0    0    0  0.00000000000E+00  0.00000000000E+00  0.45593999997E+02  0.45594000000E+02  0.51100000000E-03 0.  1.
         11   -1    0    0    0    0 -0.00000000000E+00 -0.00000000000E+00 -0.45593999997E+02  0.45594000000E+02  0.51100000000E-03 0. -1.
    9900012    2    1    2    0    0 -0.22670825739E+00  0.77101746228E+00 -0.86444113939E+00  0.90007693665E+02  0.89999954421E+02 0.  0.
        -12    1    1    2    0    0  0.22670825739E+00 -0.77101746228E+00  0.86444113939E+00  0.11803063351E+01  0.00000000000E+00 0.  1.
         11    1    3    3    0    0 -0.61859865249E+01  0.52149871881E+01  0.35053778707E+01  0.88176070980E+01  0.51100000000E-03 0. -1.
        -11    1    3    3    0    0  0.23816021510E+02 -0.84482788707E+01  0.31821681989E+02  0.40634907915E+02  0.51100000000E-03 0.  1.
         12    1    3    3    0    0 -0.17856743242E+02  0.40043091449E+01 -0.36191500999E+02  0.40555178652E+02  0.00000000000E+00 0. -1.
</event>
<event>
 7    1  0.1654239E-015  0.9000777E+02  0.7816164E-02  0.1186339E+00
        -11   -1    0    0    0    0  0.00000000000E+00  0.00000000000E+00  0.45593999997E+02  0.45594000000E+02  0.51100000000E-03 0.  1.
         11   -1    0    0    0    0 -0.00000000000E+00 -0.00000000000E+00 -0.45593999997E+02  0.45594000000E+02  0.51100000000E-03 0. -1.
    9900012    2    1    2    0    0 -0.88408218063E+00 -0.47065071485E+00 -0.62436606330E+00  0.90007768506E+02  0.90000030251E+02 0.  0.
        -12    1    1    2    0    0  0.88408218063E+00  0.47065071485E+00  0.62436606330E+00  0.11802314936E+01  0.00000000000E+00 0.  1.
         11    1    3    3    0    0 -0.20818878919E+01 -0.70689566016E+01  0.82384441816E+01  0.11053341912E+02  0.51100000000E-03 0. -1.
        -11    1    3    3    0    0 -0.15461347832E+02 -0.40619890337E+01  0.30762087734E+02  0.34667839184E+02  0.51100000000E-03 0.  1.
         12    1    3    3    0    0  0.16659153543E+02  0.10660294920E+02 -0.39624897979E+02  0.44286587410E+02  0.00000000000E+00 0. -1.
</event>
<event>
 7    1  0.1654239E-015  0.9000766E+02  0.7816164E-02  0.1186339E+00
        -11   -1    0    0    0    0  0.00000000000E+00  0.00000000000E+00  0.45593999997E+02  0.45594000000E+02  0.51100000000E-03 0.  1.
         11   -1    0    0    0    0 -0.00000000000E+00 -0.00000000000E+00 -0.45593999997E+02  0.45594000000E+02  0.51100000000E-03 0. -1.
    9900012    2    1    2    0    0  0.69771790992E+00 -0.84211254594E+00 -0.44412624010E+00  0.90007656008E+02  0.89999916267E+02 0.  0.
        -12    1    1    2    0    0 -0.69771790992E+00  0.84211254594E+00  0.44412624010E+00  0.11803439918E+01  0.00000000000E+00 0.  1.
         11    1    3    3    0    0  0.93451191203E+01  0.32967699184E+01 -0.36071323591E+02  0.37407757606E+02  0.51100000000E-03 0. -1.
        -11    1    3    3    0    0 -0.57161345965E+01 -0.14920165347E+01 -0.73566028490E+01  0.94350365025E+01  0.51100000000E-03 0.  1.
        -12    1    3    3    0    0 -0.29312666139E+01 -0.26468659297E+01  0.42983800200E+02  0.43164861900E+02  0.00000000000E+00 0.  1.
</event>
<event>
 7    1  0.1654239E-015  0.9000812E+02  0.7816164E-02  0.1186338E+00
        -11   -1    0    0    0    0  0.00000000000E+00  0.00000000000E+00  0.45593999997E+02  0.45594000000E+02  0.51100000000E-03 0.  1.
         11   -1    0    0    0    0 -0.00000000000E+00 -0.00000000000E+00 -0.45593999997E+02  0.45594000000E+02  0.51100000000E-03 0. -1.
    9900012    2    1    2    0    0 -0.76232052402E-02 -0.11719725042E+01 -0.13616137495E+00  0.90008119674E+02  0.90000386053E+02 0.  0.
        -12    1    1    2    0    0  0.76232052402E-02  0.11719725042E+01  0.13616137495E+00  0.11798803261E+01  0.00000000000E+00 0.  1.
         11    1    3    3    0    0 -0.18276849882E+01  0.75928282466E+01 -0.27745169869E+01  0.82879079369E+01  0.51100000000E-03 0. -1.
        -11    1    3    3    0    0 -0.28955368061E+02 -0.48134742778E+01  0.28809516163E+02  0.41128713765E+02  0.51100000000E-03 0.  1.
         12    1    3    3    0    0  0.30775429844E+02 -0.39513264730E+01 -0.26171160551E+02  0.40591497972E+02  0.00000000000E+00 0. -1.
</event>
<event>
 7    1  0.1654239E-015  0.9000698E+02  0.7816164E-02  0.1186341E+00
        -11   -1    0    0    0    0  0.00000000000E+00  0.00000000000E+00  0.45593999997E+02  0.45594000000E+02  0.51100000000E-03 0.  1.
         11   -1    0    0    0    0 -0.00000000000E+00 -0.00000000000E+00 -0.45593999997E+02  0.45594000000E+02  0.51100000000E-03 0. -1.
    9900012    2    1    2    0    0 -0.68021886753E+00  0.18831807368E+00 -0.94691269785E+00  0.90006981346E+02  0.89999232696E+02 0.  0.
        -12    1    1    2    0    0  0.68021886753E+00 -0.18831807368E+00  0.94691269785E+00  0.11810186544E+01  0.00000000000E+00 0.  1.
         11    1    3    3    0    0  0.33889145140E+02 -0.40462056660E+01 -0.61957556963E+01  0.34687653819E+02  0.51100000000E-03 0. -1.
        -11    1    3    3    0    0  0.57351148866E+01 -0.80496592390E+00 -0.10308252670E+02  0.11823687508E+02  0.51100000000E-03 0.  1.
        -12    1    3    3    0    0 -0.40304478894E+02  0.50394896636E+01  0.15557095669E+02  0.43495640018E+02  0.00000000000E+00 0.  1.
</event>
<event>
 7    1  0.1654239E-015  0.9000775E+02  0.7816164E-02  0.1186339E+00
        -11   -1    0    0    0    0  0.00000000000E+00  0.00000000000E+00  0.45593999997E+02  0.45594000000E+02  0.51100000000E-03 0. -1.
         11   -1    0    0    0    0 -0.00000000000E+00 -0.00000000000E+00 -0.45593999997E+02  0.45594000000E+02  0.51100000000E-03 0.  1.
    9900012    2    1    2    0    0 -0.50286652740E+00  0.74296008857E+00  0.76689511800E+00  0.90007748942E+02  0.90000010428E+02 0.  0.
        -12    1    1    2    0    0  0.50286652740E+00 -0.74296008857E+00 -0.76689511800E+00  0.11802510579E+01  0.00000000000E+00 0.  1.
         11    1    3    3    0    0 -0.68269178774E+01  0.26555993350E+02  0.25388135872E+02  0.37368235626E+02  0.51100000000E-03 0. -1.
        -11    1    3    3    0    0  0.25796432098E+01  0.86642483624E+01  0.15765567817E+01  0.91765620100E+01  0.51100000000E-03 0.  1.
        -12    1    3    3    0    0  0.37444081402E+01 -0.34477281624E+02 -0.26197797536E+02  0.43462951306E+02  0.00000000000E+00 0.  1.
</event>
<event>
 7    1  0.1654239E-015  0.9000774E+02  0.7816164E-02  0.1186339E+00
        -11   -1    0    0    0    0  0.00000000000E+00  0.00000000000E+00  0.45593999997E+02  0.45594000000E+02  0.51100000000E-03 0. -1.
         11   -1    0    0    0    0 -0.00000000000E+00 -0.00000000000E+00 -0.45593999997E+02  0.45594000000E+02  0.51100000000E-03 0.  1.
    9900012    2    1    2    0    0  0.36658036875E+00  0.10080877004E+01  0.49233938249E+00  0.90007737298E+02  0.89999998630E+02 0.  0.
        -12    1    1    2    0    0 -0.36658036875E+00 -0.10080877004E+01 -0.49233938249E+00  0.11802627021E+01  0.00000000000E+00 0.  1.
         11    1    3    3    0    0  0.67060856009E+01 -0.26675224446E+01 -0.44144500367E+01  0.84601790446E+01  0.51100000000E-03 0. -1.
        -11    1    3    3    0    0  0.31057900171E+02  0.23572643626E+02  0.94992281328E+00  0.39002115894E+02  0.51100000000E-03 0.  1.
         12    1    3    3    0    0 -0.37397405404E+02 -0.19897033481E+02  0.39568666059E+01  0.42545442360E+02  0.00000000000E+00 0. -1.
</event>
<event>
 7    1  0.1654239E-015  0.9000775E+02  0.7816164E-02  0.1186339E+00
        -11   -1    0    0    0    0  0.00000000000E+00  0.00000000000E+00  0.45593999997E+02  0.45594000000E+02  0.51100000000E-03 0. -1.
         11   -1    0    0    0    0 -0.00000000000E+00 -0.00000000000E+00 -0.45593999997E+02  0.45594000000E+02  0.51100000000E-03 0.  1.
    9900012    2    1    2    0    0  0.91580791607E+00 -0.63040960071E+00  0.39607359588E+00  0.90007748037E+02  0.90000009511E+02 0.  0.
        -12    1    1    2    0    0 -0.91580791607E+00  0.63040960071E+00 -0.39607359588E+00  0.11802519634E+01  0.00000000000E+00 0.  1.
         11    1    3    3    0    0  0.31860656243E+02  0.56062110614E+01  0.19141084212E+02  0.37588723359E+02  0.51100000000E-03 0. -1.
        -11    1    3    3    0    0  0.55919812555E+01 -0.78140649515E+01  0.27555249780E+01  0.99961384341E+01  0.51100000000E-03 0.  1.
        -12    1    3    3    0    0 -0.36536829582E+02  0.15774442894E+01 -0.21500535594E+02  0.42422886244E+02  0.00000000000E+00 0.  1.
</event>
<event>
 7    1  0.1654239E-015  0.9000761E+02  0.7816164E-02  0.1186339E+00
        -11   -1    0    0    0    0  0.00000000000E+00  0.00000000000E+00  0.45593999997E+02  0.45594000000E+02  0.51100000000E-03 0.  1.
         11   -1    0    0    0    0 -0.00000000000E+00 -0.00000000000E+00 -0.45593999997E+02  0.45594000000E+02  0.51100000000E-03 0. -1.
    9900012    2    1    2    0    0 -0.11967096119E+00  0.10754195771E+01 -0.47166917115E+00  0.90007610144E+02  0.89999869798E+02 0.  0.
        -12    1    1    2    0    0  0.11967096119E+00 -0.10754195771E+01  0.47166917115E+00  0.11803898563E+01  0.00000000000E+00 0.  1.
         11    1    3    3    0    0  0.27807490382E+02 -0.17196898300E+02  0.13908016200E+02  0.35530588897E+02  0.51100000000E-03 0. -1.
        -11    1    3    3    0    0  0.21915858885E+01 -0.83526747024E+01  0.48613007124E+01  0.99097158520E+01  0.51100000000E-03 0.  1.
        -12    1    3    3    0    0 -0.30118747231E+02  0.26624992580E+02 -0.19240986084E+02  0.44567305395E+02  0.00000000000E+00 0.  1.
</event>
<event>
 7    1  0.1654239E-015  0.9000766E+02  0.7816164E-02  0.1186339E+00
        -11   -1    0    0    0    0  0.00000000000E+00  0.00000000000E+00  0.45593999997E+02  0.45594000000E+02  0.51100000000E-03 0. -1.
         11   -1    0    0    0    0 -0.00000000000E+00 -0.00000000000E+00 -0.45593999997E+02  0.45594000000E+02  0.51100000000E-03 0.  1.
    9900012    2    1    2    0    0 -0.16976908786E+00  0.11489246467E+01  0.21062667013E+00  0.90007655567E+02  0.89999915820E+02 0.  0.
        -12    1    1    2    0    0  0.16976908786E+00 -0.11489246467E+01 -0.21062667013E+00  0.11803444332E+01  0.00000000000E+00 0.  1.
         11    1    3    3    0    0 -0.27402433761E+01  0.16044897584E+01  0.29758613327E+01  0.43519044197E+01  0.51100000000E-03 0. -1.
        -11    1    3    3    0    0  0.39736152564E+02 -0.13860468674E+02  0.11538043393E+02  0.43637149976E+02  0.51100000000E-03 0.  1.
         12    1    3    3    0    0 -0.37165678276E+02  0.13404903562E+02 -0.14303278056E+02  0.42018601171E+02  0.00000000000E+00 0. -1.
</event>
<event>
 7    1  0.1654239E-015  0.9000764E+02  0.7816164E-02  0.1186339E+00
        -11   -1    0    0    0    0  0.00000000000E+00  0.00000000000E+00  0.45593999997E+02  0.45594000000E+02  0.51100000000E-03 0. -1.
         11   -1    0    0    0    0 -0.00000000000E+00 -0.00000000000E+00 -0.45593999997E+02  0.45594000000E+02  0.51100000000E-03 0.  1.
    9900012    2    1    2    0    0  0.59209669673E-01  0.10746591525E+01  0.48462487237E+00  0.90007635927E+02  0.89999895921E+02 0.  0.
        -12    1    1    2    0    0 -0.59209669673E-01 -0.10746591525E+01 -0.48462487237E+00  0.11803640734E+01  0.00000000000E+00 0.  1.
         11    1    3    3    0    0  0.26121319452E+02 -0.22883430734E+02  0.14334130919E+02  0.37569163439E+02  0.51100000000E-03 0. -1.
        -11    1    3    3    0    0 -0.32173950745E+01 -0.38632957015E+01  0.86370296742E+01  0.99937463745E+01  0.51100000000E-03 0.  1.
        -12    1    3    3    0    0 -0.22844714708E+02  0.27821385588E+02 -0.22486535721E+02  0.42444726113E+02  0.00000000000E+00 0.  1.
</event>
<event>
 7    1  0.1654239E-015  0.9000785E+02  0.7816164E-02  0.1186339E+00
        -11   -1    0    0    0    0  0.00000000000E+00  0.00000000000E+00  0.45593999997E+02  0.45594000000E+02  0.51100000000E-03 0. -1.
         11   -1    0    0    0    0 -0.00000000000E+00 -0.00000000000E+00 -0.45593999997E+02  0.45594000000E+02  0.51100000000E-03 0.  1.
    9900012    2    1    2    0    0 -0.73950646794E+00  0.60977097652E+00  0.68852981139E+00  0.90007845874E+02  0.90000108639E+02 0.  0.
        -12    1    1    2    0    0  0.73950646794E+00 -0.60977097652E+00 -0.68852981139E+00  0.11801541260E+01  0.00000000000E+00 0.  1.
         11    1    3    3    0    0 -0.51999041267E+01  0.11988959866E+01  0.74875121561E+01  0.91945197299E+01  0.51100000000E-03 0. -1.
        -11    1    3    3    0    0 -0.96044794185E+01  0.21997898402E+02 -0.34742509657E+02  0.42227899978E+02  0.51100000000E-03 0.  1.
         12    1    3    3    0    0  0.14064877077E+02 -0.22587023412E+02  0.27943527312E+02  0.38585426167E+02  0.00000000000E+00 0. -1.
</event>
<event>
 7    1  0.1654239E-015  0.9000779E+02  0.7816164E-02  0.1186339E+00
        -11   -1    0    0    0    0  0.00000000000E+00  0.00000000000E+00  0.45593999997E+02  0.45594000000E+02  0.51100000000E-03 0. -1.
         11   -1    0    0    0    0 -0.00000000000E+00 -0.00000000000E+00 -0.45593999997E+02  0.45594000000E+02  0.51100000000E-03 0.  1.
    9900012    2    1    2    0    0 -0.57469230546E+00  0.10105815493E+01  0.20336785071E+00  0.90007786123E+02  0.90000048099E+02 0.  0.
        -12    1    1    2    0    0  0.57469230546E+00 -0.10105815493E+01 -0.20336785071E+00  0.11802138774E+01  0.00000000000E+00 0.  1.
         11    1    3    3    0    0 -0.80707315912E+01  0.13493872351E+02  0.25645182374E+02  0.30081500606E+02  0.51100000000E-03 0. -1.
        -11    1    3    3    0    0 -0.25208412312E+01 -0.18048570678E+02  0.11297405502E+02  0.21441476520E+02  0.51100000000E-03 0.  1.
        -12    1    3    3    0    0  0.10016880517E+02  0.55652798762E+01 -0.36739220025E+02  0.38484808996E+02  0.00000000000E+00 0.  1.
</event>
<event>
 7    1  0.1654239E-015  0.9000793E+02  0.7816164E-02  0.1186339E+00
        -11   -1    0    0    0    0  0.00000000000E+00  0.00000000000E+00  0.45593999997E+02  0.45594000000E+02  0.51100000000E-03 0. -1.
         11   -1    0    0    0    0 -0.00000000000E+00 -0.00000000000E+00 -0.45593999997E+02  0.45594000000E+02  0.51100000000E-03 0.  1.
    9900012    2    1    2    0    0  0.15856019343E+00  0.28233938341E+00  0.11347745109E+01  0.90007927946E+02  0.90000191795E+02 0.  0.
        -12    1    1    2    0    0 -0.15856019343E+00 -0.28233938341E+00 -0.11347745109E+01  0.11800720542E+01  0.00000000000E+00 0.  1.
         11    1    3    3    0    0 -0.11840591315E+01 -0.60736747808E+01 -0.72931131284E+01  0.95645711213E+01  0.51100000000E-03 0. -1.
        -11    1    3    3    0    0 -0.11323494259E+02 -0.32344243550E+02 -0.10070708443E+02  0.35718213588E+02  0.51100000000E-03 0.  1.
         12    1    3    3    0    0  0.12666113584E+02  0.38700257715E+02  0.18498596083E+02  0.44725143237E+02  0.00000000000E+00 0. -1.
</event>
<event>
 7    1  0.1654239E-015  0.9000777E+02  0.7816164E-02  0.1186339E+00
        -11   -1    0    0    0    0  0.00000000000E+00  0.00000000000E+00  0.45593999997E+02  0.45594000000E+02  0.51100000000E-03 0. -1.
         11   -1    0    0    0    0 -0.00000000000E+00 -0.00000000000E+00 -0.45593999997E+02  0.45594000000E+02  0.51100000000E-03 0.  1.
    9900012    2    1    2    0    0  0.21971247817E-01 -0.10728971415E+01  0.49127841404E+00  0.90007768882E+02  0.90000030631E+02 0.  0.
        -12    1    1    2    0    0 -0.21971247817E-01  0.10728971415E+01 -0.49127841404E+00  0.11802311181E+01  0.00000000000E+00 0.  1.
         11    1    3    3    0    0  0.80360437774E+00 -0.60464581596E+01 -0.43771444734E+01  0.75076514487E+01  0.51100000000E-03 0. -1.
        -11    1    3    3    0    0 -0.18000756679E+02 -0.23045248331E+02 -0.24697912555E+02  0.38276593324E+02  0.51100000000E-03 0.  1.
         12    1    3    3    0    0  0.17219123549E+02  0.28018809349E+02  0.29566335442E+02  0.44223524109E+02  0.00000000000E+00 0. -1.
</event>
<event>
 7    1  0.1654239E-015  0.9000771E+02  0.7816164E-02  0.1186339E+00
        -11   -1    0    0    0    0  0.00000000000E+00  0.00000000000E+00  0.45593999997E+02  0.45594000000E+02  0.51100000000E-03 0.  1.
         11   -1    0    0    0    0 -0.00000000000E+00 -0.00000000000E+00 -0.45593999997E+02  0.45594000000E+02  0.51100000000E-03 0. -1.
    9900012    2    1    2    0    0 -0.79072699440E+00 -0.41225384268E+00 -0.77322741983E+00  0.90007710606E+02  0.89999971586E+02 0.  0.
        -12    1    1    2    0    0  0.79072699440E+00  0.41225384268E+00  0.77322741983E+00  0.11802893939E+01  0.00000000000E+00 0.  1.
         11    1    3    3    0    0  0.28427259966E+02 -0.10651427090E+01 -0.27764842752E+02  0.39750850701E+02  0.51100000000E-03 0. -1.
        -11    1    3    3    0    0  0.55508465835E+01 -0.45548627489E+01  0.55744474342E+01  0.90902770536E+01  0.51100000000E-03 0.  1.
        -12    1    3    3    0    0 -0.34768833544E+02  0.52077516152E+01  0.21417167898E+02  0.41166582851E+02  0.00000000000E+00 0.  1.
</event>
<event>
 7    1  0.1654239E-015  0.9000767E+02  0.7816164E-02  0.1186339E+00
        -11   -1    0    0    0    0  0.00000000000E+00  0.00000000000E+00  0.45593999997E+02  0.45594000000E+02  0.51100000000E-03 0.  1.
         11   -1    0    0    0    0 -0.00000000000E+00 -0.00000000000E+00 -0.45593999997E+02  0.45594000000E+02  0.51100000000E-03 0. -1.
    9900012    2    1    2    0    0  0.74945538960E+00 -0.19938802716E+00 -0.88979658775E+00  0.90007670837E+02  0.89999931292E+02 0.  0.
        -12    1    1    2    0    0 -0.74945538960E+00  0.19938802716E+00  0.88979658775E+00  0.11803291634E+01  0.00000000000E+00 0.  1.
         11    1    3    3    0    0 -0.22012744593E+02 -0.16093162993E+02 -0.25737686265E+02  0.37496390682E+02  0.51100000000E-03 0. -1.
        -11    1    3    3    0    0  0.54909360761E+00 -0.10256928912E+02  0.21629488603E+00  0.10273893042E+02  0.51100000000E-03 0.  1.
        -12    1    3    3    0    0  0.22213106375E+02  0.26150703877E+02  0.24631594791E+02  0.42237387113E+02  0.00000000000E+00 0.  1.
</event>
<event>
 7    1  0.1654239E-015  0.9000806E+02  0.7816164E-02  0.1186338E+00
        -11   -1    0    0    0    0  0.00000000000E+00  0.00000000000E+00  0.45593999997E+02  0.45594000000E+02  0.51100000000E-03 0.  1.
         11   -1    0    0    0    0 -0.00000000000E+00 -0.00000000000E+00 -0.45593999997E+02  0.45594000000E+02  0.51100000000E-03 0. -1.
    9900012    2    1    2    0    0  0.99088916084E+00 -0.30477909618E+00 -0.56347481695E+00  0.90008061232E+02  0.90000326840E+02 0.  0.
        -12    1    1    2    0    0 -0.99088916084E+00  0.30477909618E+00  0.56347481695E+00  0.11799387678E+01  0.00000000000E+00 0.  1.
         11    1    3    3    0    0  0.36427339064E+01  0.31700485323E+02 -0.25639551807E+02  0.40933811173E+02  0.51100000000E-03 0. -1.
        -11    1    3    3    0    0 -0.19511897198E+01  0.31919759845E+01  0.10184661135E+02  0.10850031092E+02  0.51100000000E-03 0.  1.
        -12    1    3    3    0    0 -0.70065502569E+00 -0.35197240403E+02  0.14891415855E+02  0.38224218967E+02  0.00000000000E+00 0.  1.
</event>
<event>
 7    1  0.1654239E-015  0.9000773E+02  0.7816164E-02  0.1186339E+00
        -11   -1    0    0    0    0  0.00000000000E+00  0.00000000000E+00  0.45593999997E+02  0.45594000000E+02  0.51100000000E-03 0. -1.
         11   -1    0    0    0    0 -0.00000000000E+00 -0.00000000000E+00 -0.45593999997E+02  0.45594000000E+02  0.51100000000E-03 0.  1.
    9900012    2    1    2    0    0 -0.29402935658E+00  0.11427555347E+01  0.26453854724E-01  0.90007727455E+02  0.89999988657E+02 0.  0.
        -12    1    1    2    0    0  0.29402935658E+00 -0.11427555347E+01 -0.26453854724E-01  0.11802725453E+01  0.00000000000E+00 0.  1.
         11    1    3    3    0    0  0.25108330572E+01 -0.13666352032E+02 -0.35217258325E+02  0.37859328371E+02  0.51100000000E-03 0. -1.
        -11    1    3    3    0    0 -0.79453181379E+01 -0.35804777930E+01 -0.31515855552E+01  0.92671674912E+01  0.51100000000E-03 0.  1.
        -12    1    3    3    0    0  0.51404557241E+01  0.18389585359E+02  0.38395297735E+02  0.42881231593E+02  0.00000000000E+00 0.  1.
</event>
<event>
 7    1  0.1654239E-015  0.9000772E+02  0.7816164E-02  0.1186339E+00
        -11   -1    0    0    0    0  0.00000000000E+00  0.00000000000E+00  0.45593999997E+02  0.45594000000E+02  0.51100000000E-03 0.  1.
         11   -1    0    0    0    0 -0.00000000000E+00 -0.00000000000E+00 -0.45593999997E+02  0.45594000000E+02  0.51100000000E-03 0. -1.
    9900012    2    1    2    0    0 -0.11548825254E+01  0.21543874560E+00  0.11356780136E+00  0.90007718192E+02  0.89999979272E+02 0.  0.
        -12    1    1    2    0    0  0.11548825254E+01 -0.21543874560E+00 -0.11356780136E+00  0.11802818079E+01  0.00000000000E+00 0.  1.
         11    1    3    3    0    0  0.38224253547E+01 -0.56574065150E+01  0.16134360777E+01  0.70157223652E+01  0.51100000000E-03 0. -1.
        -11    1    3    3    0    0  0.27004285106E+02 -0.96295760562E+01  0.25491497323E+02  0.38363740500E+02  0.51100000000E-03 0.  1.
         12    1    3    3    0    0 -0.31981592986E+02  0.15502421317E+02 -0.26991365600E+02  0.44628255327E+02  0.00000000000E+00 0. -1.
</event>
<event>
 7    1  0.1654239E-015  0.9000772E+02  0.7816164E-02  0.1186339E+00
        -11   -1    0    0    0    0  0.00000000000E+00  0.00000000000E+00  0.45593999997E+02  0.45594000000E+02  0.51100000000E-03 0. -1.
         11   -1    0    0    0    0 -0.00000000000E+00 -0.00000000000E+00 -0.45593999997E+02  0.45594000000E+02  0.51100000000E-03 0.  1.
    9900012    2    1    2    0    0 -0.32672133643E+00  0.98831732616E+00  0.55636533401E+00  0.90007720222E+02  0.89999981329E+02 0.  0.
        -12    1    1    2    0    0  0.32672133643E+00 -0.98831732616E+00 -0.55636533401E+00  0.11802797777E+01  0.00000000000E+00 0.  1.
         11    1    3    3    0    0  0.72122314689E+00  0.42939368005E+01 -0.99651738140E+01  0.10874867607E+02  0.51100000000E-03 0. -1.
        -11    1    3    3    0    0  0.17647670304E+01  0.29102290004E+02 -0.19330387429E+02  0.34981731869E+02  0.51100000000E-03 0.  1.
         12    1    3    3    0    0 -0.28127115138E+01 -0.32407909478E+02  0.29851926577E+02  0.44151120746E+02  0.00000000000E+00 0. -1.
</event>
<event>
 7    1  0.1654239E-015  0.9000775E+02  0.7816164E-02  0.1186339E+00
        -11   -1    0    0    0    0  0.00000000000E+00  0.00000000000E+00  0.45593999997E+02  0.45594000000E+02  0.51100000000E-03 0.  1.
         11   -1    0    0    0    0 -0.00000000000E+00 -0.00000000000E+00 -0.45593999997E+02  0.45594000000E+02  0.51100000000E-03 0. -1.
    9900012    2    1    2    0    0  0.43381542048E+00 -0.61055755935E+00 -0.91214510228E+00  0.90007752128E+02  0.90000013656E+02 0.  0.
        -12    1    1    2    0    0 -0.43381542048E+00  0.61055755935E+00  0.91214510228E+00  0.11802478722E+01  0.00000000000E+00 0.  1.
         11    1    3    3    0    0  0.18397156407E+02  0.29143961729E+02  0.38576695723E+01  0.34680073298E+02  0.51100000000E-03 0. -1.
        -11    1    3    3    0    0 -0.15428137181E+01 -0.19133726104E+01 -0.19608216211E+02  0.19761665217E+02  0.51100000000E-03 0.  1.
        -12    1    3    3    0    0 -0.16420527268E+02 -0.27841146678E+02  0.14838401537E+02  0.35566013613E+02  0.00000000000E+00 0.  1.
</event>
<event>
 7    1  0.1654239E-015  0.9000787E+02  0.7816164E-02  0.1186339E+00
        -11   -1    0    0    0    0  0.00000000000E+00  0.00000000000E+00  0.45593999997E+02  0.45594000000E+02  0.51100000000E-03 0.  1.
         11   -1    0    0    0    0 -0.00000000000E+00 -0.00000000000E+00 -0.45593999997E+02  0.45594000000E+02  0.51100000000E-03 0. -1.
    9900012    2    1    2    0    0 -0.68703425787E+00 -0.21604357796E+00 -0.93488432139E+00  0.90007873060E+02  0.90000136185E+02 0.  0.
        -12    1    1    2    0    0  0.68703425787E+00  0.21604357796E+00  0.93488432139E+00  0.11801269395E+01  0.00000000000E+00 0.  1.
         11    1    3    3    0    0 -0.28078258384E+02 -0.10391727903E+02  0.26369914851E+02  0.39896729342E+02  0.51100000000E-03 0. -1.
        -11    1    3    3    0    0  0.16655679189E+01  0.45711341397E+01  0.59560943460E+01  0.76905424994E+01  0.51100000000E-03 0.  1.
        -12    1    3    3    0    0  0.25725656207E+02  0.56045501857E+01 -0.33260893519E+02  0.42420601219E+02  0.00000000000E+00 0.  1.
</event>
<event>
 7    1  0.1654239E-015  0.9000783E+02  0.7816164E-02  0.1186339E+00
        -11   -1    0    0    0    0  0.00000000000E+00  0.00000000000E+00  0.45593999997E+02  0.45594000000E+02  0.51100000000E-03 0.  1.
         11   -1    0    0    0    0 -0.00000000000E+00 -0.00000000000E+00 -0.45593999997E+02  0.45594000000E+02  0.51100000000E-03 0. -1.
    9900012    2    1    2    0    0  0.55716752996E+00  0.86736025962E+00 -0.57449523603E+00  0.90007832956E+02  0.90000095551E+02 0.  0.
        -12    1    1    2    0    0 -0.55716752996E+00 -0.86736025962E+00  0.57449523603E+00  0.11801670444E+01  0.00000000000E+00 0.  1.
         11    1    3    3    0    0 -0.85586544283E+01 -0.16112820444E+02 -0.32390820102E+01  0.18530116050E+02  0.51100000000E-03 0. -1.
        -11    1    3    3    0    0  0.18271577831E+02  0.73212327369E+01  0.32958672394E+02  0.38389127256E+02  0.51100000000E-03 0.  1.
         12    1    3    3    0    0 -0.91557558728E+01  0.96589479669E+01 -0.30294085620E+02  0.33088589650E+02  0.00000000000E+00 0. -1.
</event>
<event>
 7    1  0.1654239E-015  0.9000752E+02  0.7816164E-02  0.1186339E+00
        -11   -1    0    0    0    0  0.00000000000E+00  0.00000000000E+00  0.45593999997E+02  0.45594000000E+02  0.51100000000E-03 0. -1.
         11   -1    0    0    0    0 -0.00000000000E+00 -0.00000000000E+00 -0.45593999997E+02  0.45594000000E+02  0.51100000000E-03 0.  1.
    9900012    2    1    2    0    0 -0.31200093930E+00  0.93571153805E+00  0.64856076921E+00  0.90007520547E+02  0.89999779018E+02 0.  0.
        -12    1    1    2    0    0  0.31200093930E+00 -0.93571153805E+00 -0.64856076921E+00  0.11804794534E+01  0.00000000000E+00 0.  1.
         11    1    3    3    0    0  0.57224423370E+01  0.62099455465E+01 -0.19788565581E+01  0.86732717892E+01  0.51100000000E-03 0. -1.
        -11    1    3    3    0    0 -0.44386813220E+01 -0.69109862326E+01 -0.38893058592E+02  0.39750894700E+02  0.51100000000E-03 0.  1.
         12    1    3    3    0    0 -0.15957619542E+01  0.16367522242E+01  0.41520475919E+02  0.41583354057E+02  0.00000000000E+00 0. -1.
</event>
<event>
 7    1  0.1654239E-015  0.9000773E+02  0.7816164E-02  0.1186339E+00
        -11   -1    0    0    0    0  0.00000000000E+00  0.00000000000E+00  0.45593999997E+02  0.45594000000E+02  0.51100000000E-03 0.  1.
         11   -1    0    0    0    0 -0.00000000000E+00 -0.00000000000E+00 -0.45593999997E+02  0.45594000000E+02  0.51100000000E-03 0. -1.
    9900012    2    1    2    0    0 -0.66941059066E+00 -0.45534948588E+00 -0.85882444892E+00  0.90007731756E+02  0.89999993015E+02 0.  0.
        -12    1    1    2    0    0  0.66941059066E+00  0.45534948588E+00  0.85882444892E+00  0.11802682438E+01  0.00000000000E+00 0.  1.
         11    1    3    3    0    0  0.40950464887E+02  0.90407204988E+01  0.33248918446E+01  0.42068160259E+02  0.51100000000E-03 0. -1.
        -11    1    3    3    0    0 -0.52957094189E+01  0.21810473445E+01  0.61562471943E+01  0.84083818626E+01  0.51100000000E-03 0.  1.
        -12    1    3    3    0    0 -0.36324166059E+02 -0.11677117329E+02 -0.10339963488E+02  0.39531189634E+02  0.00000000000E+00 0.  1.
</event>
<event>
 7    1  0.1654239E-015  0.9000755E+02  0.7816164E-02  0.1186339E+00
        -11   -1    0    0    0    0  0.00000000000E+00  0.00000000000E+00  0.45593999997E+02  0.45594000000E+02  0.51100000000E-03 0.  1.
         11   -1    0    0    0    0 -0.00000000000E+00 -0.00000000000E+00 -0.45593999997E+02  0.45594000000E+02  0.51100000000E-03 0. -1.
    9900012    2    1    2    0    0 -0.49159530579E+00 -0.86504400116E+00 -0.63521016861E+00  0.90007551345E+02  0.89999810223E+02 0.  0.
        -12    1    1    2    0    0  0.49159530579E+00  0.86504400116E+00  0.63521016861E+00  0.11804486549E+01  0.00000000000E+00 0.  1.
         11    1    3    3    0    0 -0.70343414307E+01  0.41042168268E+01  0.20312469314E+01  0.83935999120E+01  0.51100000000E-03 0. -1.
        -11    1    3    3    0    0  0.22209072935E+02 -0.25074582763E+02  0.26622727728E+02  0.42787232363E+02  0.51100000000E-03 0.  1.
         12    1    3    3    0    0 -0.15666326810E+02  0.20105321935E+02 -0.29289184828E+02  0.38826719070E+02  0.00000000000E+00 0. -1.
</event>
<event>
 7    1  0.1654239E-015  0.9000790E+02  0.7816164E-02  0.1186339E+00
        -11   -1    0    0    0    0  0.00000000000E+00  0.00000000000E+00  0.45593999997E+02  0.45594000000E+02  0.51100000000E-03 0.  1.
         11   -1    0    0    0    0 -0.00000000000E+00 -0.00000000000E+00 -0.45593999997E+02  0.45594000000E+02  0.51100000000E-03 0. -1.
    9900012    2    1    2    0    0 -0.27517389492E+00 -0.13588511733E-01 -0.11474885867E+01  0.90007900268E+02  0.90000163752E+02 0.  0.
        -12    1    1    2    0    0  0.27517389492E+00  0.13588511733E-01  0.11474885867E+01  0.11800997317E+01  0.00000000000E+00 0.  1.
         11    1    3    3    0    0  0.24448732701E+02 -0.48526361527E+00 -0.27152009541E+02  0.36540493070E+02  0.51100000000E-03 0. -1.
        -11    1    3    3    0    0  0.79695423495E+01 -0.62690417383E+01 -0.14545924834E+01  0.10243550612E+02  0.51100000000E-03 0.  1.
        -12    1    3    3    0    0 -0.32693448945E+02  0.67407168418E+01  0.27459113437E+02  0.43223856587E+02  0.00000000000E+00 0.  1.
</event>
<event>
 7    1  0.1654239E-015  0.9000768E+02  0.7816164E-02  0.1186339E+00
        -11   -1    0    0    0    0  0.00000000000E+00  0.00000000000E+00  0.45593999997E+02  0.45594000000E+02  0.51100000000E-03 0.  1.
         11   -1    0    0    0    0 -0.00000000000E+00 -0.00000000000E+00 -0.45593999997E+02  0.45594000000E+02  0.51100000000E-03 0. -1.
    9900012    2    1    2    0    0  0.47268224748E+00  0.58969476290E+00  0.90663496607E+00  0.90007679966E+02  0.89999940542E+02 0.  0.
        -12    1    1    2    0    0 -0.47268224748E+00 -0.58969476290E+00 -0.90663496607E+00  0.11803200338E+01  0.00000000000E+00 0.  1.
         11    1    3    3    0    0 -0.58507989013E+01 -0.90207745555E+01 -0.15445012479E+01  0.10862398710E+02  0.51100000000E-03 0. -1.
        -11    1    3    3    0    0  0.30898342785E+02 -0.14957717433E+02 -0.18064890022E+02  0.38791508729E+02  0.51100000000E-03 0.  1.
         12    1    3    3    0    0 -0.24574861636E+02  0.24568186752E+02  0.20516026236E+02  0.40353772528E+02  0.00000000000E+00 0. -1.
</event>
<event>
 7    1  0.1654239E-015  0.9000769E+02  0.7816164E-02  0.1186339E+00
        -11   -1    0    0    0    0  0.00000000000E+00  0.00000000000E+00  0.45593999997E+02  0.45594000000E+02  0.51100000000E-03 0. -1.
         11   -1    0    0    0    0 -0.00000000000E+00 -0.00000000000E+00 -0.45593999997E+02  0.45594000000E+02  0.51100000000E-03 0.  1.
    9900012    2    1    2    0    0  0.53533918938E+00 -0.90828728250E+00  0.53061196700E+00  0.90007693728E+02  0.89999954486E+02 0.  0.
        -12    1    1    2    0    0 -0.53533918938E+00  0.90828728250E+00 -0.53061196700E+00  0.11803062716E+01  0.00000000000E+00 0.  1.
         11    1    3    3    0    0 -0.18370604138E+01 -0.25343977384E+02  0.30992870632E+02  0.40078048990E+02  0.51100000000E-03 0. -1.
        -11    1    3    3    0    0 -0.78653434415E+01 -0.34412672443E+01 -0.20428603642E+01  0.88249207604E+01  0.51100000000E-03 0.  1.
        -12    1    3    3    0    0  0.10237743045E+02  0.27876957346E+02 -0.28419398300E+02  0.41104723978E+02  0.00000000000E+00 0.  1.
</event>
<event>
 7    1  0.1654239E-015  0.9000775E+02  0.7816164E-02  0.1186339E+00
        -11   -1    0    0    0    0  0.00000000000E+00  0.00000000000E+00  0.45593999997E+02  0.45594000000E+02  0.51100000000E-03 0.  1.
         11   -1    0    0    0    0 -0.00000000000E+00 -0.00000000000E+00 -0.45593999997E+02  0.45594000000E+02  0.51100000000E-03 0. -1.
    9900012    2    1    2    0    0 -0.67892817301E+00 -0.37333977592E+00 -0.89032114891E+00  0.90007746722E+02  0.90000008179E+02 0.  0.
        -12    1    1    2    0    0  0.67892817301E+00  0.37333977592E+00  0.89032114891E+00  0.11802532781E+01  0.00000000000E+00 0.  1.
         11    1    3    3    0    0 -0.82290352993E+01 -0.83533797852E+01  0.52295767077E+01  0.12839176321E+02  0.51100000000E-03 0. -1.
        -11    1    3    3    0    0  0.59568231389E+01 -0.17773969984E+02  0.28425596176E+02  0.34050143452E+02  0.51100000000E-03 0.  1.
         12    1    3    3    0    0  0.15932839874E+01  0.25754009994E+02 -0.34545494032E+02  0.43118426949E+02  0.00000000000E+00 0. -1.
</event>
<event>
 7    1  0.1654239E-015  0.9000770E+02  0.7816164E-02  0.1186339E+00
        -11   -1    0    0    0    0  0.00000000000E+00  0.00000000000E+00  0.45593999997E+02  0.45594000000E+02  0.51100000000E-03 0.  1.
         11   -1    0    0    0    0 -0.00000000000E+00 -0.00000000000E+00 -0.45593999997E+02  0.45594000000E+02  0.51100000000E-03 0. -1.
    9900012    2    1    2    0    0 -0.44323249414E+00 -0.47550143737E+00 -0.98516113762E+00  0.90007703797E+02  0.89999964687E+02 0.  0.
        -12    1    1    2    0    0  0.44323249414E+00  0.47550143737E+00  0.98516113762E+00  0.11802962035E+01  0.00000000000E+00 0.  1.
         11    1    3    3    0    0  0.78675089299E+01  0.39657970168E+01  0.46866155355E+01  0.99794593129E+01  0.51100000000E-03 0. -1.
        -11    1    3    3    0    0  0.81572551973E+01  0.13389177514E+02  0.31758206928E+02  0.35417433481E+02  0.51100000000E-03 0.  1.
         12    1    3    3    0    0 -0.16467996621E+02 -0.17830475968E+02 -0.37429983601E+02  0.44610811003E+02  0.00000000000E+00 0. -1.
</event>
<event>
 7    1  0.1654239E-015  0.9000779E+02  0.7816164E-02  0.1186339E+00
        -11   -1    0    0    0    0  0.00000000000E+00  0.00000000000E+00  0.45593999997E+02  0.45594000000E+02  0.51100000000E-03 0.  1.
         11   -1    0    0    0    0 -0.00000000000E+00 -0.00000000000E+00 -0.45593999997E+02  0.45594000000E+02  0.51100000000E-03 0. -1.
    9900012    2    1    2    0    0  0.76063452595E+00 -0.81163014827E+00 -0.39445931828E+00  0.90007785387E+02  0.90000047354E+02 0.  0.
        -12    1    1    2    0    0 -0.76063452595E+00  0.81163014827E+00  0.39445931828E+00  0.11802146133E+01  0.00000000000E+00 0.  1.
         11    1    3    3    0    0  0.97943037837E+01  0.55586665640E+00 -0.55085081451E+01  0.11250823818E+02  0.51100000000E-03 0. -1.
        -11    1    3    3    0    0  0.11240821770E+02  0.35029720432E+02  0.47316282780E+01  0.37092124421E+02  0.51100000000E-03 0.  1.
         12    1    3    3    0    0 -0.20274491028E+02 -0.36397217237E+02  0.38242054880E+00  0.41664837147E+02  0.00000000000E+00 0. -1.
</event>
<event>
 7    1  0.1654239E-015  0.9000779E+02  0.7816164E-02  0.1186339E+00
        -11   -1    0    0    0    0  0.00000000000E+00  0.00000000000E+00  0.45593999997E+02  0.45594000000E+02  0.51100000000E-03 0. -1.
         11   -1    0    0    0    0 -0.00000000000E+00 -0.00000000000E+00 -0.45593999997E+02  0.45594000000E+02  0.51100000000E-03 0.  1.
    9900012    2    1    2    0    0  0.11581237150E+01 -0.18210497598E+00  0.13594454671E+00  0.90007790832E+02  0.90000052870E+02 0.  0.
        -12    1    1    2    0    0 -0.11581237150E+01  0.18210497598E+00 -0.13594454671E+00  0.11802091685E+01  0.00000000000E+00 0.  1.
         11    1    3    3    0    0 -0.10886478087E+02  0.35909522404E+02 -0.16046752002E+01  0.37557744703E+02  0.51100000000E-03 0. -1.
        -11    1    3    3    0    0 -0.80287442201E+01  0.16517110257E+01 -0.43327128471E+01  0.92715308305E+01  0.51100000000E-03 0.  1.
        -12    1    3    3    0    0  0.20073346022E+02 -0.37743338406E+02  0.60733325941E+01  0.43178515298E+02  0.00000000000E+00 0.  1.
</event>
<event>
 7    1  0.1654239E-015  0.9000775E+02  0.7816164E-02  0.1186339E+00
        -11   -1    0    0    0    0  0.00000000000E+00  0.00000000000E+00  0.45593999997E+02  0.45594000000E+02  0.51100000000E-03 0. -1.
         11   -1    0    0    0    0 -0.00000000000E+00 -0.00000000000E+00 -0.45593999997E+02  0.45594000000E+02  0.51100000000E-03 0.  1.
    9900012    2    1    2    0    0  0.77156771138E+00 -0.89299540508E+00 -0.15481613381E-01  0.90007746973E+02  0.90000008433E+02 0.  0.
        -12    1    1    2    0    0 -0.77156771138E+00  0.89299540508E+00  0.15481613381E-01  0.11802530267E+01  0.00000000000E+00 0.  1.
         11    1    3    3    0    0 -0.37031760123E+02 -0.11354200962E+02  0.56266094899E+01  0.39139850177E+02  0.51100000000E-03 0. -1.
        -11    1    3    3    0    0  0.27498056682E+01  0.44488839983E+01  0.10561263100E+02  0.11785341683E+02  0.51100000000E-03 0.  1.
        -12    1    3    3    0    0  0.35053522166E+02  0.60123215587E+01 -0.16203354204E+02  0.39082555114E+02  0.00000000000E+00 0.  1.
</event>
<event>
 7    1  0.1654239E-015  0.9000769E+02  0.7816164E-02  0.1186339E+00
        -11   -1    0    0    0    0  0.00000000000E+00  0.00000000000E+00  0.45593999997E+02  0.45594000000E+02  0.51100000000E-03 0. -1.
         11   -1    0    0    0    0 -0.00000000000E+00 -0.00000000000E+00 -0.45593999997E+02  0.45594000000E+02  0.51100000000E-03 0.  1.
    9900012    2    1    2    0    0 -0.55717192485E+00  0.73792606123E+00 -0.73359094036E+00  0.90007690255E+02  0.89999950967E+02 0.  0.
        -12    1    1    2    0    0  0.55717192485E+00 -0.73792606123E+00  0.73359094036E+00  0.11803097447E+01  0.00000000000E+00 0.  1.
         11    1    3    3    0    0 -0.31409935427E+01  0.34807304214E+02  0.80526527923E+01  0.35864459906E+02  0.51100000000E-03 0. -1.
        -11    1    3    3    0    0 -0.16146491877E+01  0.79924664849E+01 -0.86289934685E+01  0.11872074000E+02  0.51100000000E-03 0.  1.
        -12    1    3    3    0    0  0.41984708055E+01 -0.42061844638E+02 -0.15725026415E+00  0.42271156349E+02  0.00000000000E+00 0.  1.
</event>
<event>
 7    1  0.1654239E-015  0.9000777E+02  0.7816164E-02  0.1186339E+00
        -11   -1    0    0    0    0  0.00000000000E+00  0.00000000000E+00  0.45593999997E+02  0.45594000000E+02  0.51100000000E-03 0. -1.
         11   -1    0    0    0    0 -0.00000000000E+00 -0.00000000000E+00 -0.45593999997E+02  0.45594000000E+02  0.51100000000E-03 0.  1.
    9900012    2    1    2    0    0 -0.78242393956E+00 -0.86131184540E+00  0.19723046981E+00  0.90007769016E+02  0.90000030768E+02 0.  0.
        -12    1    1    2    0    0  0.78242393956E+00  0.86131184540E+00 -0.19723046981E+00  0.11802309835E+01  0.00000000000E+00 0.  1.
         11    1    3    3    0    0 -0.47199784526E+01  0.27926411184E+01  0.72150714089E+01  0.90627973996E+01  0.51100000000E-03 0. -1.
        -11    1    3    3    0    0 -0.18448419379E+02  0.29589315730E+02  0.11607397679E+02  0.36750557330E+02  0.51100000000E-03 0.  1.
         12    1    3    3    0    0  0.22385973892E+02 -0.33243268694E+02 -0.18625238618E+02  0.44194414286E+02  0.00000000000E+00 0. -1.
</event>
<event>
 7    1  0.1654239E-015  0.9000767E+02  0.7816164E-02  0.1186339E+00
        -11   -1    0    0    0    0  0.00000000000E+00  0.00000000000E+00  0.45593999997E+02  0.45594000000E+02  0.51100000000E-03 0.  1.
         11   -1    0    0    0    0 -0.00000000000E+00 -0.00000000000E+00 -0.45593999997E+02  0.45594000000E+02  0.51100000000E-03 0. -1.
    9900012    2    1    2    0    0 -0.11287260509E+01 -0.29283579198E+00  0.18274172689E+00  0.90007673843E+02  0.89999934337E+02 0.  0.
        -12    1    1    2    0    0  0.11287260509E+01  0.29283579198E+00 -0.18274172689E+00  0.11803261574E+01  0.00000000000E+00 0.  1.
         11    1    3    3    0    0  0.62636270667E+01 -0.31814414221E+02 -0.20294686736E+02  0.38252637638E+02  0.51100000000E-03 0. -1.
        -11    1    3    3    0    0 -0.55404495323E+01 -0.43869955228E+01 -0.41293641126E+01  0.81849837491E+01  0.51100000000E-03 0.  1.
        -12    1    3    3    0    0 -0.18519035853E+01  0.35908573952E+02  0.24606792575E+02  0.43570052456E+02  0.00000000000E+00 0.  1.
</event>
<event>
 7    1  0.1654239E-015  0.9000781E+02  0.7816164E-02  0.1186339E+00
        -11   -1    0    0    0    0  0.00000000000E+00  0.00000000000E+00  0.45593999997E+02  0.45594000000E+02  0.51100000000E-03 0.  1.
         11   -1    0    0    0    0 -0.00000000000E+00 -0.00000000000E+00 -0.45593999997E+02  0.45594000000E+02  0.51100000000E-03 0. -1.
    9900012    2    1    2    0    0  0.74945937934E+00 -0.31035481459E-02 -0.91167297369E+00  0.90007810776E+02  0.90000073078E+02 0.  0.
        -12    1    1    2    0    0 -0.74945937934E+00  0.31035481459E-02  0.91167297369E+00  0.11801892239E+01  0.00000000000E+00 0.  1.
         11    1    3    3    0    0 -0.57474920685E+01  0.68646700037E+01 -0.40100029816E+02  0.41087342952E+02  0.51100000000E-03 0. -1.
        -11    1    3    3    0    0 -0.71016565698E+00 -0.95405244610E+01  0.61280944967E+00  0.95865258532E+01  0.51100000000E-03 0.  1.
        -12    1    3    3    0    0  0.72071171048E+01  0.26727509092E+01  0.38575547392E+02  0.39333941971E+02  0.00000000000E+00 0.  1.
</event>
<event>
 7    1  0.1654239E-015  0.9000783E+02  0.7816164E-02  0.1186339E+00
        -11   -1    0    0    0    0  0.00000000000E+00  0.00000000000E+00  0.45593999997E+02  0.45594000000E+02  0.51100000000E-03 0. -1.
         11   -1    0    0    0    0 -0.00000000000E+00 -0.00000000000E+00 -0.45593999997E+02  0.45594000000E+02  0.51100000000E-03 0.  1.
    9900012    2    1    2    0    0 -0.11725139207E+01 -0.13420972049E+00 -0.55608588274E-03  0.90007829905E+02  0.90000092460E+02 0.  0.
        -12    1    1    2    0    0  0.11725139207E+01  0.13420972049E+00  0.55608588274E-03  0.11801700947E+01  0.00000000000E+00 0.  1.
         11    1    3    3    0    0 -0.16207277034E+01 -0.90154395731E+01  0.21804782692E+01  0.94159117842E+01  0.51100000000E-03 0. -1.
        -11    1    3    3    0    0  0.27076361294E+02 -0.22959790300E+02  0.10790861331E+02  0.37104231566E+02  0.51100000000E-03 0.  1.
         12    1    3    3    0    0 -0.26628147512E+02  0.31841020152E+02 -0.12971895686E+02  0.43487686555E+02  0.00000000000E+00 0. -1.
</event>
<event>
 7    1  0.1654239E-015  0.9000775E+02  0.7816164E-02  0.1186339E+00
        -11   -1    0    0    0    0  0.00000000000E+00  0.00000000000E+00  0.45593999997E+02  0.45594000000E+02  0.51100000000E-03 0. -1.
         11   -1    0    0    0    0 -0.00000000000E+00 -0.00000000000E+00 -0.45593999997E+02  0.45594000000E+02  0.51100000000E-03 0.  1.
    9900012    2    1    2    0    0  0.87385639915E-01  0.46721734208E+00  0.10803029338E+01  0.90007753109E+02  0.90000014650E+02 0.  0.
        -12    1    1    2    0    0 -0.87385639915E-01 -0.46721734208E+00 -0.10803029338E+01  0.11802468909E+01  0.00000000000E+00 0.  1.
         11    1    3    3    0    0 -0.10503491792E+02  0.30275502864E+01  0.35713426722E+02  0.37348872125E+02  0.51100000000E-03 0. -1.
        -11    1    3    3    0    0  0.18830247999E+01 -0.30181423344E+01  0.82046285295E+01  0.89426447495E+01  0.51100000000E-03 0.  1.
        -12    1    3    3    0    0  0.87078526318E+01  0.45780939009E+00 -0.42837752317E+02  0.43716236234E+02  0.00000000000E+00 0.  1.
</event>
<event>
 7    1  0.1654239E-015  0.9000770E+02  0.7816164E-02  0.1186339E+00
        -11   -1    0    0    0    0  0.00000000000E+00  0.00000000000E+00  0.45593999997E+02  0.45594000000E+02  0.51100000000E-03 0.  1.
         11   -1    0    0    0    0 -0.00000000000E+00 -0.00000000000E+00 -0.45593999997E+02  0.45594000000E+02  0.51100000000E-03 0. -1.
    9900012    2    1    2    0    0  0.26225117759E+00 -0.15886896829E+00 -0.11397737480E+01  0.90007703755E+02  0.89999964645E+02 0.  0.
        -12    1    1    2    0    0 -0.26225117759E+00  0.15886896829E+00  0.11397737480E+01  0.11802962450E+01  0.00000000000E+00 0.  1.
         11    1    3    3    0    0 -0.94383276666E+01  0.25587094484E+02 -0.11261798314E+02  0.29506093181E+02  0.51100000000E-03 0. -1.
        -11    1    3    3    0    0 -0.13237282775E+02  0.82075911055E+01 -0.56885948759E+01  0.16581625944E+02  0.51100000000E-03 0.  1.
        -12    1    3    3    0    0  0.22937861619E+02 -0.33953554558E+02  0.15810619442E+02  0.43919984630E+02  0.00000000000E+00 0.  1.
</event>
<event>
 7    1  0.1654239E-015  0.9000771E+02  0.7816164E-02  0.1186339E+00
        -11   -1    0    0    0    0  0.00000000000E+00  0.00000000000E+00  0.45593999997E+02  0.45594000000E+02  0.51100000000E-03 0.  1.
         11   -1    0    0    0    0 -0.00000000000E+00 -0.00000000000E+00 -0.45593999997E+02  0.45594000000E+02  0.51100000000E-03 0. -1.
    9900012    2    1    2    0    0  0.55761044052E+00 -0.97346411525E+00 -0.36676827186E+00  0.90007711581E+02  0.89999972574E+02 0.  0.
        -12    1    1    2    0    0 -0.55761044052E+00  0.97346411525E+00  0.36676827186E+00  0.11802884191E+01  0.00000000000E+00 0.  1.
         11    1    3    3    0    0  0.16256462195E+01 -0.46555390840E+00 -0.85496122852E+01  0.87152358867E+01  0.51100000000E-03 0. -1.
        -11    1    3    3    0    0  0.36067280862E+02 -0.59634421747E+01  0.20345412592E+02  0.41837151016E+02  0.51100000000E-03 0.  1.
         12    1    3    3    0    0 -0.37135316641E+02  0.54555319679E+01 -0.12162568578E+02  0.39455324678E+02  0.00000000000E+00 0. -1.
</event>
<event>
 7    1  0.1654239E-015  0.9000774E+02  0.7816164E-02  0.1186339E+00
        -11   -1    0    0    0    0  0.00000000000E+00  0.00000000000E+00  0.45593999997E+02  0.45594000000E+02  0.51100000000E-03 0. -1.
         11   -1    0    0    0    0 -0.00000000000E+00 -0.00000000000E+00 -0.45593999997E+02  0.45594000000E+02  0.51100000000E-03 0.  1.
    9900012    2    1    2    0    0  0.62621954849E+00  0.83698121128E+00 -0.54802999813E+00  0.90007735051E+02  0.89999996354E+02 0.  0.
        -12    1    1    2    0    0 -0.62621954849E+00 -0.83698121128E+00  0.54802999813E+00  0.11802649490E+01  0.00000000000E+00 0.  1.
         11    1    3    3    0    0 -0.38601460850E+02 -0.49028072046E+01 -0.14962799483E+01  0.38940328095E+02  0.51100000000E-03 0. -1.
        -11    1    3    3    0    0 -0.35749063085E+00 -0.87366662389E+01 -0.13883404648E+01  0.88535092494E+01  0.51100000000E-03 0.  1.
        -12    1    3    3    0    0  0.39585171029E+02  0.14476454655E+02  0.23365904150E+01  0.42213897706E+02  0.00000000000E+00 0.  1.
</event>
<event>
 7    1  0.1654239E-015  0.9000778E+02  0.7816164E-02  0.1186339E+00
        -11   -1    0    0    0    0  0.00000000000E+00  0.00000000000E+00  0.45593999997E+02  0.45594000000E+02  0.51100000000E-03 0.  1.
         11   -1    0    0    0    0 -0.00000000000E+00 -0.00000000000E+00 -0.45593999997E+02  0.45594000000E+02  0.51100000000E-03 0. -1.
    9900012    2    1    2    0    0  0.49617092246E+00 -0.95906433301E+00  0.47637903504E+00  0.90007776731E+02  0.90000038584E+02 0.  0.
        -12    1    1    2    0    0 -0.49617092246E+00  0.95906433301E+00 -0.47637903504E+00  0.11802232688E+01  0.00000000000E+00 0.  1.
         11    1    3    3    0    0  0.63320939489E+01  0.11355751057E+01 -0.97501315153E+01  0.11681181851E+02  0.51100000000E-03 0. -1.
        -11    1    3    3    0    0 -0.62853812374E+01 -0.26743198832E+02 -0.23773030847E+02  0.36329900867E+02  0.51100000000E-03 0.  1.
         12    1    3    3    0    0  0.44945821104E+00  0.24648559393E+02  0.33999541398E+02  0.41996694014E+02  0.00000000000E+00 0. -1.
</event>
<event>
 7    1  0.1654239E-015  0.9000781E+02  0.7816164E-02  0.1186339E+00
        -11   -1    0    0    0    0  0.00000000000E+00  0.00000000000E+00  0.45593999997E+02  0.45594000000E+02  0.51100000000E-03 0. -1.
         11   -1    0    0    0    0 -0.00000000000E+00 -0.00000000000E+00 -0.45593999997E+02  0.45594000000E+02  0.51100000000E-03 0.  1.
    9900012    2    1    2    0    0 -0.41678835659E-01 -0.67293399230E+00  0.96864669810E+00  0.90007807766E+02  0.90000070029E+02 0.  0.
        -12    1    1    2    0    0  0.41678835659E-01  0.67293399230E+00 -0.96864669810E+00  0.11801922339E+01  0.00000000000E+00 0.  1.
         11    1    3    3    0    0  0.30448111995E+02 -0.43508510190E+01 -0.58148751004E+01  0.31302239558E+02  0.51100000000E-03 0. -1.
        -11    1    3    3    0    0  0.53117420764E+01 -0.14578178387E+02  0.98874922139E+01  0.18398380133E+02  0.51100000000E-03 0.  1.
        -12    1    3    3    0    0 -0.35801532907E+02  0.18256095414E+02 -0.31039704154E+01  0.40307188076E+02  0.00000000000E+00 0.  1.
</event>
<event>
 7    1  0.1654239E-015  0.9000709E+02  0.7816164E-02  0.1186340E+00
        -11   -1    0    0    0    0  0.00000000000E+00  0.00000000000E+00  0.45593999997E+02  0.45594000000E+02  0.51100000000E-03 0. -1.
         11   -1    0    0    0    0 -0.00000000000E+00 -0.00000000000E+00 -0.45593999997E+02  0.45594000000E+02  0.51100000000E-03 0.  1.
    9900012    2    1    2    0    0 -0.99000772166E+00  0.60418225579E+00 -0.22227703789E+00  0.90007085706E+02  0.89999338435E+02 0.  0.
        -12    1    1    2    0    0  0.99000772166E+00 -0.60418225579E+00  0.22227703789E+00  0.11809142936E+01  0.00000000000E+00 0.  1.
         11    1    3    3    0    0  0.18084915180E+02 -0.32109110967E+02  0.85084280269E+01  0.37821323508E+02  0.51100000000E-03 0. -1.
        -11    1    3    3    0    0  0.89602672924E+01  0.85642921884E+00 -0.19740431478E+01  0.92150261838E+01  0.51100000000E-03 0.  1.
        -12    1    3    3    0    0 -0.28035190194E+02  0.31856864004E+02 -0.67566619169E+01  0.42970736015E+02  0.00000000000E+00 0.  1.
</event>
<event>
 7    1  0.1654239E-015  0.9000778E+02  0.7816164E-02  0.1186339E+00
        -11   -1    0    0    0    0  0.00000000000E+00  0.00000000000E+00  0.45593999997E+02  0.45594000000E+02  0.51100000000E-03 0. -1.
         11   -1    0    0    0    0 -0.00000000000E+00 -0.00000000000E+00 -0.45593999997E+02  0.45594000000E+02  0.51100000000E-03 0.  1.
    9900012    2    1    2    0    0 -0.11285595428E+01 -0.32543557196E+00  0.11560637593E+00  0.90007779772E+02  0.90000041665E+02 0.  0.
        -12    1    1    2    0    0  0.11285595428E+01  0.32543557196E+00 -0.11560637593E+00  0.11802202283E+01  0.00000000000E+00 0.  1.
         11    1    3    3    0    0 -0.78867808719E+01 -0.40858400947E+01 -0.33497119283E+01  0.94929432772E+01  0.51100000000E-03 0. -1.
        -11    1    3    3    0    0 -0.14154884602E+00 -0.37882053485E+02 -0.20938054363E+01  0.37940137504E+02  0.51100000000E-03 0.  1.
         12    1    3    3    0    0  0.68997701751E+01  0.41642458008E+02  0.55591237405E+01  0.42574698991E+02  0.00000000000E+00 0. -1.
</event>
<event>
 7    1  0.1654239E-015  0.9000777E+02  0.7816164E-02  0.1186339E+00
        -11   -1    0    0    0    0  0.00000000000E+00  0.00000000000E+00  0.45593999997E+02  0.45594000000E+02  0.51100000000E-03 0. -1.
         11   -1    0    0    0    0 -0.00000000000E+00 -0.00000000000E+00 -0.45593999997E+02  0.45594000000E+02  0.51100000000E-03 0.  1.
    9900012    2    1    2    0    0 -0.35480879986E+00  0.10695612664E+00  0.11205368930E+01  0.90007774672E+02  0.90000036497E+02 0.  0.
        -12    1    1    2    0    0  0.35480879986E+00 -0.10695612664E+00 -0.11205368930E+01  0.11802253285E+01  0.00000000000E+00 0.  1.
         11    1    3    3    0    0 -0.67000466364E+01  0.33901300047E+01 -0.83783393641E+01  0.11250785623E+02  0.51100000000E-03 0. -1.
        -11    1    3    3    0    0  0.15367019767E+02  0.10530671375E+02 -0.30359167735E+02  0.35619087607E+02  0.51100000000E-03 0.  1.
         12    1    3    3    0    0 -0.90217819307E+01 -0.13813845253E+02  0.39858043992E+02  0.43137901441E+02  0.00000000000E+00 0. -1.
</event>
<event>
 7    1  0.1654239E-015  0.9000775E+02  0.7816164E-02  0.1186339E+00
        -11   -1    0    0    0    0  0.00000000000E+00  0.00000000000E+00  0.45593999997E+02  0.45594000000E+02  0.51100000000E-03 0.  1.
         11   -1    0    0    0    0 -0.00000000000E+00 -0.00000000000E+00 -0.45593999997E+02  0.45594000000E+02  0.51100000000E-03 0. -1.
    9900012    2    1    2    0    0 -0.15966761030E+00  0.59952437567E+00 -0.10040267684E+01  0.90007748766E+02  0.90000010250E+02 0.  0.
        -12    1    1    2    0    0  0.15966761030E+00 -0.59952437567E+00  0.10040267684E+01  0.11802512337E+01  0.00000000000E+00 0.  1.
         11    1    3    3    0    0  0.10992408964E+01  0.81280390762E+01  0.53013166757E+01  0.97661306837E+01  0.51100000000E-03 0. -1.
        -11    1    3    3    0    0 -0.99338664489E+01 -0.58258970360E+01  0.35598744796E+02  0.37415149475E+02  0.51100000000E-03 0.  1.
         12    1    3    3    0    0  0.86749579422E+01 -0.17026176646E+01 -0.41904088240E+02  0.42826468608E+02  0.00000000000E+00 0. -1.
</event>
<event>
 7    1  0.1654239E-015  0.9000786E+02  0.7816164E-02  0.1186339E+00
        -11   -1    0    0    0    0  0.00000000000E+00  0.00000000000E+00  0.45593999997E+02  0.45594000000E+02  0.51100000000E-03 0. -1.
         11   -1    0    0    0    0 -0.00000000000E+00 -0.00000000000E+00 -0.45593999997E+02  0.45594000000E+02  0.51100000000E-03 0.  1.
    9900012    2    1    2    0    0  0.89912197090E+00 -0.53249895855E+00  0.54840781903E+00  0.90007861620E+02  0.90000124594E+02 0.  0.
        -12    1    1    2    0    0 -0.89912197090E+00  0.53249895855E+00 -0.54840781903E+00  0.11801383798E+01  0.00000000000E+00 0.  1.
         11    1    3    3    0    0  0.52843452195E+01 -0.10920573684E+02  0.19401299962E+02  0.22882169357E+02  0.51100000000E-03 0. -1.
        -11    1    3    3    0    0  0.12239525644E+02  0.24912583464E+02  0.11119152211E+02  0.29901142937E+02  0.51100000000E-03 0.  1.
         12    1    3    3    0    0 -0.16624748892E+02 -0.14524508738E+02 -0.29972044354E+02  0.37224549326E+02  0.00000000000E+00 0. -1.
</event>
<event>
 7    1  0.1654239E-015  0.9000774E+02  0.7816164E-02  0.1186339E+00
        -11   -1    0    0    0    0  0.00000000000E+00  0.00000000000E+00  0.45593999997E+02  0.45594000000E+02  0.51100000000E-03 0. -1.
         11   -1    0    0    0    0 -0.00000000000E+00 -0.00000000000E+00 -0.45593999997E+02  0.45594000000E+02  0.51100000000E-03 0.  1.
    9900012    2    1    2    0    0  0.62226861032E+00 -0.77759794228E-01  0.99987533483E+00  0.90007739226E+02  0.90000000584E+02 0.  0.
        -12    1    1    2    0    0 -0.62226861032E+00  0.77759794228E-01 -0.99987533483E+00  0.11802607738E+01  0.00000000000E+00 0.  1.
         11    1    3    3    0    0  0.12900790054E+02 -0.17438759520E+01  0.68326909340E+01  0.14702283938E+02  0.51100000000E-03 0. -1.
        -11    1    3    3    0    0  0.28905206855E+02 -0.10802270106E+01 -0.15637455279E+02  0.32881725648E+02  0.51100000000E-03 0.  1.
         12    1    3    3    0    0 -0.41183728298E+02  0.27463431684E+01  0.98046396797E+01  0.42423729640E+02  0.00000000000E+00 0. -1.
</event>
<event>
 7    1  0.1654239E-015  0.9000779E+02  0.7816164E-02  0.1186339E+00
        -11   -1    0    0    0    0  0.00000000000E+00  0.00000000000E+00  0.45593999997E+02  0.45594000000E+02  0.51100000000E-03 0. -1.
         11   -1    0    0    0    0 -0.00000000000E+00 -0.00000000000E+00 -0.45593999997E+02  0.45594000000E+02  0.51100000000E-03 0.  1.
    9900012    2    1    2    0    0 -0.11557827419E+01 -0.51422604500E-01 -0.23327245186E+00  0.90007790668E+02  0.90000052705E+02 0.  0.
        -12    1    1    2    0    0  0.11557827419E+01  0.51422604500E-01  0.23327245186E+00  0.11802093321E+01  0.00000000000E+00 0.  1.
         11    1    3    3    0    0  0.14117883416E+02 -0.40246447616E+02  0.10427347379E+02  0.43906955616E+02  0.51100000000E-03 0. -1.
        -11    1    3    3    0    0 -0.54236006172E+01  0.65278736517E+01 -0.66734673303E+01  0.10796469077E+02  0.51100000000E-03 0.  1.
        -12    1    3    3    0    0 -0.98500655408E+01  0.33667151359E+02 -0.39871525004E+01  0.35304365975E+02  0.00000000000E+00 0.  1.
</event>
<event>
 7    1  0.1654239E-015  0.9000776E+02  0.7816164E-02  0.1186339E+00
        -11   -1    0    0    0    0  0.00000000000E+00  0.00000000000E+00  0.45593999997E+02  0.45594000000E+02  0.51100000000E-03 0. -1.
         11   -1    0    0    0    0 -0.00000000000E+00 -0.00000000000E+00 -0.45593999997E+02  0.45594000000E+02  0.51100000000E-03 0.  1.
    9900012    2    1    2    0    0 -0.57774056837E+00 -0.70267696987E+00  0.75194781870E+00  0.90007760783E+02  0.90000022425E+02 0.  0.
        -12    1    1    2    0    0  0.57774056837E+00  0.70267696987E+00 -0.75194781870E+00  0.11802392174E+01  0.00000000000E+00 0.  1.
         11    1    3    3    0    0  0.23390227148E+02  0.28402145791E+02  0.13408798604E+01  0.36818236930E+02  0.51100000000E-03 0. -1.
        -11    1    3    3    0    0  0.67008186477E+01  0.11377467794E+01 -0.68677760951E+01  0.96623903377E+01  0.51100000000E-03 0.  1.
        -12    1    3    3    0    0 -0.30668786364E+02 -0.30242569540E+02  0.62788440534E+01  0.43527133515E+02  0.00000000000E+00 0.  1.
</event>
<event>
 7    1  0.1654239E-015  0.9000773E+02  0.7816164E-02  0.1186339E+00
        -11   -1    0    0    0    0  0.00000000000E+00  0.00000000000E+00  0.45593999997E+02  0.45594000000E+02  0.51100000000E-03 0. -1.
         11   -1    0    0    0    0 -0.00000000000E+00 -0.00000000000E+00 -0.45593999997E+02  0.45594000000E+02  0.51100000000E-03 0.  1.
    9900012    2    1    2    0    0 -0.14539075215E+00 -0.57873253548E+00  0.10183212366E+01  0.90007725473E+02  0.89999986649E+02 0.  0.
        -12    1    1    2    0    0  0.14539075215E+00  0.57873253548E+00 -0.10183212366E+01  0.11802745271E+01  0.00000000000E+00 0.  1.
         11    1    3    3    0    0 -0.24997324389E+02 -0.27958230604E+02 -0.46531586770E+00  0.37506604808E+02  0.51100000000E-03 0. -1.
        -11    1    3    3    0    0 -0.77319626801E+01 -0.14416478867E+01  0.41974913722E+01  0.89151853372E+01  0.51100000000E-03 0.  1.
        -12    1    3    3    0    0  0.32583896317E+02  0.28821145956E+02 -0.27138542679E+01  0.43585935327E+02  0.00000000000E+00 0.  1.
</event>
<event>
 7    1  0.1654239E-015  0.9000781E+02  0.7816164E-02  0.1186339E+00
        -11   -1    0    0    0    0  0.00000000000E+00  0.00000000000E+00  0.45593999997E+02  0.45594000000E+02  0.51100000000E-03 0. -1.
         11   -1    0    0    0    0 -0.00000000000E+00 -0.00000000000E+00 -0.45593999997E+02  0.45594000000E+02  0.51100000000E-03 0.  1.
    9900012    2    1    2    0    0  0.11735859870E+01 -0.69437620356E-01  0.10350081046E+00  0.90007814392E+02  0.90000076742E+02 0.  0.
        -12    1    1    2    0    0 -0.11735859870E+01  0.69437620356E-01 -0.10350081046E+00  0.11801856082E+01  0.00000000000E+00 0.  1.
         11    1    3    3    0    0  0.11262174402E+02  0.48849088268E+01 -0.16198416932E-01  0.12275958991E+02  0.51100000000E-03 0. -1.
        -11    1    3    3    0    0 -0.41369802971E+02  0.93768706710E+01 -0.58152689510E+01  0.42815927581E+02  0.51100000000E-03 0.  1.
         12    1    3    3    0    0  0.31281214556E+02 -0.14331217118E+02  0.59349681784E+01  0.34915927819E+02  0.00000000000E+00 0. -1.
</event>
<event>
 7    1  0.1654239E-015  0.9000779E+02  0.7816164E-02  0.1186339E+00
        -11   -1    0    0    0    0  0.00000000000E+00  0.00000000000E+00  0.45593999997E+02  0.45594000000E+02  0.51100000000E-03 0.  1.
         11   -1    0    0    0    0 -0.00000000000E+00 -0.00000000000E+00 -0.45593999997E+02  0.45594000000E+02  0.51100000000E-03 0. -1.
    9900012    2    1    2    0    0 -0.59345586309E+00  0.10115936154E+01  0.13184972565E+00  0.90007789911E+02  0.90000051938E+02 0.  0.
        -12    1    1    2    0    0  0.59345586309E+00 -0.10115936154E+01 -0.13184972565E+00  0.11802100890E+01  0.00000000000E+00 0.  1.
         11    1    3    3    0    0 -0.91124282811E+01  0.12245450689E+02 -0.35994876309E+02  0.39097551490E+02  0.51100000000E-03 0. -1.
        -11    1    3    3    0    0  0.79960076313E+01  0.23242700179E+01 -0.34942740968E+01  0.90304108922E+01  0.51100000000E-03 0.  1.
        -12    1    3    3    0    0  0.52296478665E+00 -0.13558127091E+02  0.39621000132E+02  0.41879827529E+02  0.00000000000E+00 0.  1.
</event>
<event>
 7    1  0.1654239E-015  0.9000766E+02  0.7816164E-02  0.1186339E+00
        -11   -1    0    0    0    0  0.00000000000E+00  0.00000000000E+00  0.45593999997E+02  0.45594000000E+02  0.51100000000E-03 0.  1.
         11   -1    0    0    0    0 -0.00000000000E+00 -0.00000000000E+00 -0.45593999997E+02  0.45594000000E+02  0.51100000000E-03 0. -1.
    9900012    2    1    2    0    0 -0.55440874599E+00  0.63979484045E+00 -0.82249316847E+00  0.90007660427E+02  0.89999920745E+02 0.  0.
        -12    1    1    2    0    0  0.55440874599E+00 -0.63979484045E+00  0.82249316847E+00  0.11803395730E+01  0.00000000000E+00 0.  1.
         11    1    3    3    0    0 -0.33752170582E+02  0.12061269450E+01  0.15144931340E+02  0.37013952866E+02  0.51100000000E-03 0. -1.
        -11    1    3    3    0    0 -0.79861810796E+01  0.41933381109E+01 -0.19363328875E+01  0.92256467557E+01  0.51100000000E-03 0.  1.
        -12    1    3    3    0    0  0.41183942915E+02 -0.47596702154E+01 -0.14031091621E+02  0.43768060806E+02  0.00000000000E+00 0.  1.
</event>
<event>
 7    1  0.1654239E-015  0.9000766E+02  0.7816164E-02  0.1186339E+00
        -11   -1    0    0    0    0  0.00000000000E+00  0.00000000000E+00  0.45593999997E+02  0.45594000000E+02  0.51100000000E-03 0.  1.
         11   -1    0    0    0    0 -0.00000000000E+00 -0.00000000000E+00 -0.45593999997E+02  0.45594000000E+02  0.51100000000E-03 0. -1.
    9900012    2    1    2    0    0  0.78494412038E-01 -0.81646449665E+00 -0.84878448359E+00  0.90007656513E+02  0.89999916779E+02 0.  0.
        -12    1    1    2    0    0 -0.78494412038E-01  0.81646449665E+00  0.84878448359E+00  0.11803434867E+01  0.00000000000E+00 0.  1.
         11    1    3    3    0    0  0.35776798559E+02  0.12606278852E+02  0.13273144230E+02  0.40187982528E+02  0.51100000000E-03 0. -1.
        -11    1    3    3    0    0 -0.28560804560E+01  0.73772669364E+01  0.12633521684E+01  0.80110749581E+01  0.51100000000E-03 0.  1.
        -12    1    3    3    0    0 -0.32842223691E+02 -0.20800010285E+02 -0.15385280882E+02  0.41808599028E+02  0.00000000000E+00 0.  1.
</event>
<event>
 7    1  0.1654239E-015  0.9000777E+02  0.7816164E-02  0.1186339E+00
        -11   -1    0    0    0    0  0.00000000000E+00  0.00000000000E+00  0.45593999997E+02  0.45594000000E+02  0.51100000000E-03 0.  1.
         11   -1    0    0    0    0 -0.00000000000E+00 -0.00000000000E+00 -0.45593999997E+02  0.45594000000E+02  0.51100000000E-03 0. -1.
    9900012    2    1    2    0    0 -0.11639584353E+01 -0.46701363755E-02 -0.19523583146E+00  0.90007772022E+02  0.90000033813E+02 0.  0.
        -12    1    1    2    0    0  0.11639584353E+01  0.46701363755E-02  0.19523583146E+00  0.11802279776E+01  0.00000000000E+00 0.  1.
         11    1    3    3    0    0 -0.96554494681E+01  0.10451345030E+00  0.47971756977E+01  0.10781999927E+02  0.51100000000E-03 0. -1.
        -11    1    3    3    0    0 -0.46924920844E+01  0.13638523558E+02  0.33392709263E+02  0.36374466855E+02  0.51100000000E-03 0.  1.
         12    1    3    3    0    0  0.13183983117E+02 -0.13747707145E+02 -0.38385120792E+02  0.42851305240E+02  0.00000000000E+00 0. -1.
</event>
<event>
 7    1  0.1654239E-015  0.9000776E+02  0.7816164E-02  0.1186339E+00
        -11   -1    0    0    0    0  0.00000000000E+00  0.00000000000E+00  0.45593999997E+02  0.45594000000E+02  0.51100000000E-03 0.  1.
         11   -1    0    0    0    0 -0.00000000000E+00 -0.00000000000E+00 -0.45593999997E+02  0.45594000000E+02  0.51100000000E-03 0. -1.
    9900012    2    1    2    0    0  0.37832360986E+00  0.59264420384E+00 -0.94794695784E+00  0.90007763015E+02  0.90000024687E+02 0.  0.
        -12    1    1    2    0    0 -0.37832360986E+00 -0.59264420384E+00  0.94794695784E+00  0.11802369851E+01  0.00000000000E+00 0.  1.
         11    1    3    3    0    0  0.77716503233E+01  0.56794347764E+01 -0.24256030810E+01  0.99266348122E+01  0.51100000000E-03 0. -1.
        -11    1    3    3    0    0  0.16813973459E+02  0.30088313047E+02  0.11287672282E+02  0.36268827267E+02  0.51100000000E-03 0.  1.
         12    1    3    3    0    0 -0.24207300172E+02 -0.35175103619E+02 -0.98100161591E+01  0.43812300936E+02  0.00000000000E+00 0. -1.
</event>
<event>
 7    1  0.1654239E-015  0.9000766E+02  0.7816164E-02  0.1186339E+00
        -11   -1    0    0    0    0  0.00000000000E+00  0.00000000000E+00  0.45593999997E+02  0.45594000000E+02  0.51100000000E-03 0. -1.
         11   -1    0    0    0    0 -0.00000000000E+00 -0.00000000000E+00 -0.45593999997E+02  0.45594000000E+02  0.51100000000E-03 0.  1.
    9900012    2    1    2    0    0 -0.60287242068E+00 -0.76164940851E+00  0.67055550995E+00  0.90007656970E+02  0.89999917242E+02 0.  0.
        -12    1    1    2    0    0  0.60287242068E+00  0.76164940851E+00 -0.67055550995E+00  0.11803430302E+01  0.00000000000E+00 0.  1.
         11    1    3    3    0    0 -0.61753551340E+01  0.36744231109E+01 -0.58290468296E+01  0.92527932773E+01  0.51100000000E-03 0. -1.
        -11    1    3    3    0    0  0.10212434895E+02 -0.48653245480E+01 -0.36136075430E+02  0.37865302814E+02  0.51100000000E-03 0.  1.
         12    1    3    3    0    0 -0.46399521819E+01  0.42925202854E+00  0.42635677769E+02  0.42889560879E+02  0.00000000000E+00 0. -1.
</event>
<event>
 7    1  0.1654239E-015  0.9000746E+02  0.7816164E-02  0.1186340E+00
        -11   -1    0    0    0    0  0.00000000000E+00  0.00000000000E+00  0.45593999997E+02  0.45594000000E+02  0.51100000000E-03 0.  1.
         11   -1    0    0    0    0 -0.00000000000E+00 -0.00000000000E+00 -0.45593999997E+02  0.45594000000E+02  0.51100000000E-03 0. -1.
    9900012    2    1    2    0    0  0.48433971910E+00  0.84789458681E+00 -0.66344131018E+00  0.90007464289E+02  0.89999722017E+02 0.  0.
        -12    1    1    2    0    0 -0.48433971910E+00 -0.84789458681E+00  0.66344131018E+00  0.11805357114E+01  0.00000000000E+00 0.  1.
         11    1    3    3    0    0  0.15562285942E+02 -0.24186831662E+02 -0.18750939820E+02  0.34333443084E+02  0.51100000000E-03 0. -1.
        -11    1    3    3    0    0  0.16154358749E+01 -0.46053487451E+01 -0.10280512141E+02  0.11380149396E+02  0.51100000000E-03 0.  1.
        -12    1    3    3    0    0 -0.16693382098E+02  0.29640074994E+02  0.28368010651E+02  0.44293871809E+02  0.00000000000E+00 0.  1.
</event>
<event>
 7    1  0.1654239E-015  0.9000774E+02  0.7816164E-02  0.1186339E+00
        -11   -1    0    0    0    0  0.00000000000E+00  0.00000000000E+00  0.45593999997E+02  0.45594000000E+02  0.51100000000E-03 0.  1.
         11   -1    0    0    0    0 -0.00000000000E+00 -0.00000000000E+00 -0.45593999997E+02  0.45594000000E+02  0.51100000000E-03 0. -1.
    9900012    2    1    2    0    0 -0.52593860067E+00  0.49816746046E-01 -0.10554267460E+01  0.90007737853E+02  0.89999999192E+02 0.  0.
        -12    1    1    2    0    0  0.52593860067E+00 -0.49816746046E-01  0.10554267460E+01  0.11802621472E+01  0.00000000000E+00 0.  1.
         11    1    3    3    0    0  0.34537141884E+01 -0.77070186208E+01 -0.36821786583E+01  0.92132902727E+01  0.51100000000E-03 0. -1.
        -11    1    3    3    0    0  0.10275367616E+02 -0.25521615038E+02  0.25875941838E+02  0.37769039967E+02  0.51100000000E-03 0.  1.
         12    1    3    3    0    0 -0.14255020405E+02  0.33278450404E+02 -0.23249189926E+02  0.43025407613E+02  0.00000000000E+00 0. -1.
</event>
<event>
 7    1  0.1654239E-015  0.9000774E+02  0.7816164E-02  0.1186339E+00
        -11   -1    0    0    0    0  0.00000000000E+00  0.00000000000E+00  0.45593999997E+02  0.45594000000E+02  0.51100000000E-03 0.  1.
         11   -1    0    0    0    0 -0.00000000000E+00 -0.00000000000E+00 -0.45593999997E+02  0.45594000000E+02  0.51100000000E-03 0. -1.
    9900012    2    1    2    0    0  0.91737933766E-01 -0.61413449196E+00 -0.10037124081E+01  0.90007739172E+02  0.90000000530E+02 0.  0.
        -12    1    1    2    0    0 -0.91737933766E-01  0.61413449196E+00  0.10037124081E+01  0.11802608275E+01  0.00000000000E+00 0.  1.
         11    1    3    3    0    0  0.27283035361E+01 -0.16962701160E+02 -0.10394965433E+01  0.17212130146E+02  0.51100000000E-03 0. -1.
        -11    1    3    3    0    0  0.68606077857E+01 -0.43059498467E+01  0.32314929678E+02  0.33314618768E+02  0.51100000000E-03 0.  1.
         12    1    3    3    0    0 -0.94971733880E+01  0.20654516515E+02 -0.32279145543E+02  0.39480990259E+02  0.00000000000E+00 0. -1.
</event>
<event>
 7    1  0.1654239E-015  0.9000772E+02  0.7816164E-02  0.1186339E+00
        -11   -1    0    0    0    0  0.00000000000E+00  0.00000000000E+00  0.45593999997E+02  0.45594000000E+02  0.51100000000E-03 0.  1.
         11   -1    0    0    0    0 -0.00000000000E+00 -0.00000000000E+00 -0.45593999997E+02  0.45594000000E+02  0.51100000000E-03 0. -1.
    9900012    2    1    2    0    0  0.63419792209E-01  0.68242500881E+00 -0.96090402460E+00  0.90007719310E+02  0.89999980405E+02 0.  0.
        -12    1    1    2    0    0 -0.63419792209E-01 -0.68242500881E+00  0.96090402460E+00  0.11802806900E+01  0.00000000000E+00 0.  1.
         11    1    3    3    0    0  0.63571434306E+01  0.10730582532E+02  0.50456713955E+01  0.13454273454E+02  0.51100000000E-03 0. -1.
        -11    1    3    3    0    0  0.19640611305E+02 -0.34002725900E+02  0.49725642807E+01  0.39581123997E+02  0.51100000000E-03 0.  1.
         12    1    3    3    0    0 -0.25934334943E+02  0.23954568377E+02 -0.10979139701E+02  0.36972321859E+02  0.00000000000E+00 0. -1.
</event>
<event>
 7    1  0.1654239E-015  0.9000773E+02  0.7816164E-02  0.1186339E+00
        -11   -1    0    0    0    0  0.00000000000E+00  0.00000000000E+00  0.45593999997E+02  0.45594000000E+02  0.51100000000E-03 0. -1.
         11   -1    0    0    0    0 -0.00000000000E+00 -0.00000000000E+00 -0.45593999997E+02  0.45594000000E+02  0.51100000000E-03 0.  1.
    9900012    2    1    2    0    0  0.91468386419E+00  0.60870049129E+00 -0.43113360075E+00  0.90007729251E+02  0.89999990477E+02 0.  0.
        -12    1    1    2    0    0 -0.91468386419E+00 -0.60870049129E+00  0.43113360075E+00  0.11802707491E+01  0.00000000000E+00 0.  1.
         11    1    3    3    0    0  0.44646753245E+01  0.58845647509E+01  0.15582463599E+01  0.75491430003E+01  0.51100000000E-03 0. -1.
        -11    1    3    3    0    0 -0.25744223170E+02 -0.13052600426E+02  0.30732851302E+02  0.42162110407E+02  0.51100000000E-03 0.  1.
         12    1    3    3    0    0  0.22194231710E+02  0.77767361666E+01 -0.32722231263E+02  0.40296475844E+02  0.00000000000E+00 0. -1.
</event>
<event>
 7    1  0.1654239E-015  0.9000773E+02  0.7816164E-02  0.1186339E+00
        -11   -1    0    0    0    0  0.00000000000E+00  0.00000000000E+00  0.45593999997E+02  0.45594000000E+02  0.51100000000E-03 0.  1.
         11   -1    0    0    0    0 -0.00000000000E+00 -0.00000000000E+00 -0.45593999997E+02  0.45594000000E+02  0.51100000000E-03 0. -1.
    9900012    2    1    2    0    0 -0.47006776895E+00  0.83527679940E+00 -0.68875502832E+00  0.90007731163E+02  0.89999992414E+02 0.  0.
        -12    1    1    2    0    0  0.47006776895E+00 -0.83527679940E+00  0.68875502832E+00  0.11802688372E+01  0.00000000000E+00 0.  1.
         11    1    3    3    0    0  0.32284788321E+02 -0.71854276057E+01 -0.14870553550E+02  0.36263911675E+02  0.51100000000E-03 0. -1.
        -11    1    3    3    0    0 -0.58948216485E+00  0.18108273622E+02  0.54857882488E+01  0.18930159423E+02  0.51100000000E-03 0.  1.
        -12    1    3    3    0    0 -0.32165373925E+02 -0.10087569217E+02  0.86960102729E+01  0.34813660065E+02  0.00000000000E+00 0.  1.
</event>
<event>
 7    1  0.1654239E-015  0.9000776E+02  0.7816164E-02  0.1186339E+00
        -11   -1    0    0    0    0  0.00000000000E+00  0.00000000000E+00  0.45593999997E+02  0.45594000000E+02  0.51100000000E-03 0.  1.
         11   -1    0    0    0    0 -0.00000000000E+00 -0.00000000000E+00 -0.45593999997E+02  0.45594000000E+02  0.51100000000E-03 0. -1.
    9900012    2    1    2    0    0  0.90996154151E+00  0.34808589173E+00 -0.66616353676E+00  0.90007759494E+02  0.90000021119E+02 0.  0.
        -12    1    1    2    0    0 -0.90996154151E+00 -0.34808589173E+00  0.66616353676E+00  0.11802405063E+01  0.00000000000E+00 0.  1.
         11    1    3    3    0    0 -0.27539450923E+02 -0.41765718621E+01 -0.22199457731E+02  0.35618549008E+02  0.51100000000E-03 0. -1.
        -11    1    3    3    0    0 -0.61322869042E+01  0.45236830321E+01 -0.63872883908E+01  0.99431435723E+01  0.51100000000E-03 0.  1.
        -12    1    3    3    0    0  0.34581699368E+02  0.97472168835E-03  0.27920582585E+02  0.44446066913E+02  0.00000000000E+00 0.  1.
</event>
<event>
 7    1  0.1654239E-015  0.9000770E+02  0.7816164E-02  0.1186339E+00
        -11   -1    0    0    0    0  0.00000000000E+00  0.00000000000E+00  0.45593999997E+02  0.45594000000E+02  0.51100000000E-03 0.  1.
         11   -1    0    0    0    0 -0.00000000000E+00 -0.00000000000E+00 -0.45593999997E+02  0.45594000000E+02  0.51100000000E-03 0. -1.
    9900012    2    1    2    0    0  0.85348671766E+00 -0.18648937486E+00 -0.79365459765E+00  0.90007701104E+02  0.89999961958E+02 0.  0.
        -12    1    1    2    0    0 -0.85348671766E+00  0.18648937486E+00  0.79365459765E+00  0.11802988963E+01  0.00000000000E+00 0.  1.
         11    1    3    3    0    0 -0.19667568080E+01  0.35461604885E+02  0.10066851612E+02  0.36915241500E+02  0.51100000000E-03 0. -1.
        -11    1    3    3    0    0  0.15280404695E+01  0.31621391329E+01  0.88668692139E+01  0.95370541306E+01  0.51100000000E-03 0.  1.
        -12    1    3    3    0    0  0.12922030561E+01 -0.38810233393E+02 -0.19727375424E+02  0.43555405473E+02  0.00000000000E+00 0.  1.
</event>
<event>
 7    1  0.1654239E-015  0.9000795E+02  0.7816164E-02  0.1186339E+00
        -11   -1    0    0    0    0  0.00000000000E+00  0.00000000000E+00  0.45593999997E+02  0.45594000000E+02  0.51100000000E-03 0. -1.
         11   -1    0    0    0    0 -0.00000000000E+00 -0.00000000000E+00 -0.45593999997E+02  0.45594000000E+02  0.51100000000E-03 0.  1.
    9900012    2    1    2    0    0  0.69056786311E+00  0.65822590600E+00  0.69452722789E+00  0.90007951956E+02  0.90000216121E+02 0.  0.
        -12    1    1    2    0    0 -0.69056786311E+00 -0.65822590600E+00 -0.69452722789E+00  0.11800480444E+01  0.00000000000E+00 0.  1.
         11    1    3    3    0    0 -0.15646155515E+02 -0.22033948299E+02  0.24655827862E+02  0.36581510465E+02  0.51100000000E-03 0. -1.
        -11    1    3    3    0    0 -0.39399057952E+01  0.20509174196E+01  0.87144795257E+01  0.97811693371E+01  0.51100000000E-03 0.  1.
        -12    1    3    3    0    0  0.20276629174E+02  0.20641256785E+02 -0.32675780160E+02  0.43645272154E+02  0.00000000000E+00 0.  1.
</event>
<event>
 7    1  0.1654239E-015  0.9000771E+02  0.7816164E-02  0.1186339E+00
        -11   -1    0    0    0    0  0.00000000000E+00  0.00000000000E+00  0.45593999997E+02  0.45594000000E+02  0.51100000000E-03 0.  1.
         11   -1    0    0    0    0 -0.00000000000E+00 -0.00000000000E+00 -0.45593999997E+02  0.45594000000E+02  0.51100000000E-03 0. -1.
    9900012    2    1    2    0    0  0.49547853806E+00  0.83449266140E+00 -0.67171772318E+00  0.90007711187E+02  0.89999972174E+02 0.  0.
        -12    1    1    2    0    0 -0.49547853806E+00 -0.83449266140E+00  0.67171772318E+00  0.11802888135E+01  0.00000000000E+00 0.  1.
         11    1    3    3    0    0  0.38833643833E+02  0.98438975866E+01 -0.57034194226E+01  0.40465827638E+02  0.51100000000E-03 0. -1.
        -11    1    3    3    0    0 -0.14074506128E+01 -0.35002080634E+01 -0.89169808600E+01  0.96821961163E+01  0.51100000000E-03 0.  1.
        -12    1    3    3    0    0 -0.36930714683E+02 -0.55091968618E+01  0.13948682559E+02  0.39859687432E+02  0.00000000000E+00 0.  1.
</event>
<event>
 7    1  0.1654239E-015  0.9000782E+02  0.7816164E-02  0.1186339E+00
        -11   -1    0    0    0    0  0.00000000000E+00  0.00000000000E+00  0.45593999997E+02  0.45594000000E+02  0.51100000000E-03 0.  1.
         11   -1    0    0    0    0 -0.00000000000E+00 -0.00000000000E+00 -0.45593999997E+02  0.45594000000E+02  0.51100000000E-03 0. -1.
    9900012    2    1    2    0    0  0.10769236878E+01  0.42299692589E+00 -0.23268969096E+00  0.90007815472E+02  0.90000077836E+02 0.  0.
        -12    1    1    2    0    0 -0.10769236878E+01 -0.42299692589E+00  0.23268969096E+00  0.11801845284E+01  0.00000000000E+00 0.  1.
         11    1    3    3    0    0 -0.51678382957E+01  0.29544555518E+00 -0.59190965207E+01  0.78631764961E+01  0.51100000000E-03 0. -1.
        -11    1    3    3    0    0  0.12510866416E+02  0.39750310551E+02  0.54601657956E+01  0.42028827942E+02  0.51100000000E-03 0.  1.
         12    1    3    3    0    0 -0.62661044324E+01 -0.39622759181E+02  0.22624103418E+00  0.40115811033E+02  0.00000000000E+00 0. -1.
</event>
<event>
 7    1  0.1654239E-015  0.9000773E+02  0.7816164E-02  0.1186339E+00
        -11   -1    0    0    0    0  0.00000000000E+00  0.00000000000E+00  0.45593999997E+02  0.45594000000E+02  0.51100000000E-03 0.  1.
         11   -1    0    0    0    0 -0.00000000000E+00 -0.00000000000E+00 -0.45593999997E+02  0.45594000000E+02  0.51100000000E-03 0. -1.
    9900012    2    1    2    0    0  0.46525899439E+00 -0.78755199177E+00 -0.74588144826E+00  0.90007727486E+02  0.89999988689E+02 0.  0.
        -12    1    1    2    0    0 -0.46525899439E+00  0.78755199177E+00  0.74588144826E+00  0.11802725136E+01  0.00000000000E+00 0.  1.
         11    1    3    3    0    0 -0.63675780232E+01  0.32575211949E+01  0.65180299926E+01  0.96768904852E+01  0.51100000000E-03 0. -1.
        -11    1    3    3    0    0 -0.24007730839E+02  0.24749844338E+02  0.81135854614E+01  0.35422538081E+02  0.51100000000E-03 0.  1.
         12    1    3    3    0    0  0.30840567856E+02 -0.28794917524E+02 -0.15377496902E+02  0.44908298920E+02  0.00000000000E+00 0. -1.
</event>
<event>
 7    1  0.1654239E-015  0.9000774E+02  0.7816164E-02  0.1186339E+00
        -11   -1    0    0    0    0  0.00000000000E+00  0.00000000000E+00  0.45593999997E+02  0.45594000000E+02  0.51100000000E-03 0. -1.
         11   -1    0    0    0    0 -0.00000000000E+00 -0.00000000000E+00 -0.45593999997E+02  0.45594000000E+02  0.51100000000E-03 0.  1.
    9900012    2    1    2    0    0  0.74750702198E+00  0.87121445302E+00  0.27428837506E+00  0.90007739231E+02  0.90000000588E+02 0.  0.
        -12    1    1    2    0    0 -0.74750702198E+00 -0.87121445302E+00 -0.27428837506E+00  0.11802607694E+01  0.00000000000E+00 0.  1.
         11    1    3    3    0    0 -0.14181323378E+02  0.58895588348E+01  0.33138744695E+02  0.36523598347E+02  0.51100000000E-03 0. -1.
        -11    1    3    3    0    0 -0.28107007087E+01 -0.73617782248E+01  0.65185070131E+01  0.10226766402E+02  0.51100000000E-03 0.  1.
        -12    1    3    3    0    0  0.17739531109E+02  0.23434338431E+01 -0.39382963333E+02  0.43257374481E+02  0.00000000000E+00 0.  1.
</event>
<event>
 7    1  0.1654239E-015  0.9000785E+02  0.7816164E-02  0.1186339E+00
        -11   -1    0    0    0    0  0.00000000000E+00  0.00000000000E+00  0.45593999997E+02  0.45594000000E+02  0.51100000000E-03 0.  1.
         11   -1    0    0    0    0 -0.00000000000E+00 -0.00000000000E+00 -0.45593999997E+02  0.45594000000E+02  0.51100000000E-03 0. -1.
    9900012    2    1    2    0    0 -0.10604049744E+01  0.29652047928E+00  0.42471241164E+00  0.90007845884E+02  0.90000108650E+02 0.  0.
        -12    1    1    2    0    0  0.10604049744E+01 -0.29652047928E+00 -0.42471241164E+00  0.11801541158E+01  0.00000000000E+00 0.  1.
         11    1    3    3    0    0 -0.21220245416E+01  0.29360558380E+01  0.99253193205E+01  0.10565764332E+02  0.51100000000E-03 0. -1.
        -11    1    3    3    0    0  0.25343537632E+02 -0.17089897876E+02  0.21594927700E+02  0.37425932343E+02  0.51100000000E-03 0.  1.
         12    1    3    3    0    0 -0.24281918064E+02  0.14450362517E+02 -0.31095534609E+02  0.42016149210E+02  0.00000000000E+00 0. -1.
</event>
<event>
 7    1  0.1654239E-015  0.9000774E+02  0.7816164E-02  0.1186339E+00
        -11   -1    0    0    0    0  0.00000000000E+00  0.00000000000E+00  0.45593999997E+02  0.45594000000E+02  0.51100000000E-03 0.  1.
         11   -1    0    0    0    0 -0.00000000000E+00 -0.00000000000E+00 -0.45593999997E+02  0.45594000000E+02  0.51100000000E-03 0. -1.
    9900012    2    1    2    0    0  0.97959390825E+00  0.65555358995E+00 -0.60449883283E-01  0.90007742010E+02  0.90000003405E+02 0.  0.
        -12    1    1    2    0    0 -0.97959390825E+00 -0.65555358995E+00  0.60449883283E-01  0.11802579899E+01  0.00000000000E+00 0.  1.
         11    1    3    3    0    0  0.42672957159E+01  0.82727782955E+01 -0.69753843855E+00  0.93346255194E+01  0.51100000000E-03 0. -1.
        -11    1    3    3    0    0  0.11652866074E+02  0.33887717939E+02 -0.50743882719E+01  0.36192763523E+02  0.51100000000E-03 0.  1.
         12    1    3    3    0    0 -0.14940567881E+02 -0.41504942645E+02  0.57114768272E+01  0.44480352967E+02  0.00000000000E+00 0. -1.
</event>
<event>
 7    1  0.1654239E-015  0.9000778E+02  0.7816164E-02  0.1186339E+00
        -11   -1    0    0    0    0  0.00000000000E+00  0.00000000000E+00  0.45593999997E+02  0.45594000000E+02  0.51100000000E-03 0. -1.
         11   -1    0    0    0    0 -0.00000000000E+00 -0.00000000000E+00 -0.45593999997E+02  0.45594000000E+02  0.51100000000E-03 0.  1.
    9900012    2    1    2    0    0 -0.33732813747E+00 -0.52340494980E+00  0.10025884081E+01  0.90007776915E+02  0.90000038770E+02 0.  0.
        -12    1    1    2    0    0  0.33732813747E+00  0.52340494980E+00 -0.10025884081E+01  0.11802230848E+01  0.00000000000E+00 0.  1.
         11    1    3    3    0    0 -0.89223315509E+01 -0.28145930512E+01 -0.23979282311E+01  0.96581568848E+01  0.51100000000E-03 0. -1.
        -11    1    3    3    0    0 -0.13571252602E+02  0.30602121308E+02  0.21815751484E+02  0.39957424076E+02  0.51100000000E-03 0.  1.
         12    1    3    3    0    0  0.22156256016E+02 -0.28310933206E+02 -0.18415234845E+02  0.40392195954E+02  0.00000000000E+00 0. -1.
</event>
<event>
 7    1  0.1654239E-015  0.9000761E+02  0.7816164E-02  0.1186339E+00
        -11   -1    0    0    0    0  0.00000000000E+00  0.00000000000E+00  0.45593999997E+02  0.45594000000E+02  0.51100000000E-03 0.  1.
         11   -1    0    0    0    0 -0.00000000000E+00 -0.00000000000E+00 -0.45593999997E+02  0.45594000000E+02  0.51100000000E-03 0. -1.
    9900012    2    1    2    0    0 -0.78026566252E-01  0.68566838600E+00  0.95765252802E+00  0.90007606996E+02  0.89999866608E+02 0.  0.
        -12    1    1    2    0    0  0.78026566252E-01 -0.68566838600E+00 -0.95765252802E+00  0.11803930045E+01  0.00000000000E+00 0.  1.
         11    1    3    3    0    0 -0.37345851985E+01 -0.15164778726E+02 -0.42095293982E+01  0.16175221124E+02  0.51100000000E-03 0. -1.
        -11    1    3    3    0    0  0.87210932451E+01 -0.13005352796E+02  0.31027400253E+02  0.34754801618E+02  0.51100000000E-03 0.  1.
         12    1    3    3    0    0 -0.50645346129E+01  0.28855799908E+02 -0.25860218327E+02  0.39077584254E+02  0.00000000000E+00 0. -1.
</event>
<event>
 7    1  0.1654239E-015  0.9000778E+02  0.7816164E-02  0.1186339E+00
        -11   -1    0    0    0    0  0.00000000000E+00  0.00000000000E+00  0.45593999997E+02  0.45594000000E+02  0.51100000000E-03 0.  1.
         11   -1    0    0    0    0 -0.00000000000E+00 -0.00000000000E+00 -0.45593999997E+02  0.45594000000E+02  0.51100000000E-03 0. -1.
    9900012    2    1    2    0    0 -0.10574119328E+01 -0.49732595507E+00  0.16576213598E+00  0.90007775366E+02  0.90000037201E+02 0.  0.
        -12    1    1    2    0    0  0.10574119328E+01  0.49732595507E+00 -0.16576213598E+00  0.11802246341E+01  0.00000000000E+00 0.  1.
         11    1    3    3    0    0 -0.54828585747E+01  0.21356112096E+01 -0.88828663966E+01  0.10654946695E+02  0.51100000000E-03 0. -1.
        -11    1    3    3    0    0 -0.26520185561E+02 -0.21302165685E+02  0.22506132821E+02  0.40787602526E+02  0.51100000000E-03 0.  1.
         12    1    3    3    0    0  0.30945632202E+02  0.18669228520E+02 -0.13457504288E+02  0.38565226145E+02  0.00000000000E+00 0. -1.
</event>
<event>
 7    1  0.1654239E-015  0.9000779E+02  0.7816164E-02  0.1186339E+00
        -11   -1    0    0    0    0  0.00000000000E+00  0.00000000000E+00  0.45593999997E+02  0.45594000000E+02  0.51100000000E-03 0.  1.
         11   -1    0    0    0    0 -0.00000000000E+00 -0.00000000000E+00 -0.45593999997E+02  0.45594000000E+02  0.51100000000E-03 0. -1.
    9900012    2    1    2    0    0  0.38253890397E+00 -0.44464596483E+00 -0.10241307317E+01  0.90007792475E+02  0.90000054535E+02 0.  0.
        -12    1    1    2    0    0 -0.38253890397E+00  0.44464596483E+00  0.10241307317E+01  0.11802075253E+01  0.00000000000E+00 0.  1.
         11    1    3    3    0    0  0.29983941380E+01  0.53772456988E+00 -0.36532611590E+02  0.36659394771E+02  0.51100000000E-03 0. -1.
        -11    1    3    3    0    0 -0.52935354065E+01 -0.15061498615E+02  0.10158856347E+01  0.15996946006E+02  0.51100000000E-03 0.  1.
        -12    1    3    3    0    0  0.26776801725E+01  0.14079128081E+02  0.34492595224E+02  0.37351451697E+02  0.00000000000E+00 0.  1.
</event>
<event>
 7    1  0.1654239E-015  0.9000774E+02  0.7816164E-02  0.1186339E+00
        -11   -1    0    0    0    0  0.00000000000E+00  0.00000000000E+00  0.45593999997E+02  0.45594000000E+02  0.51100000000E-03 0.  1.
         11   -1    0    0    0    0 -0.00000000000E+00 -0.00000000000E+00 -0.45593999997E+02  0.45594000000E+02  0.51100000000E-03 0. -1.
    9900012    2    1    2    0    0  0.72660145975E+00  0.28632880063E+00 -0.88492317495E+00  0.90007736094E+02  0.89999997410E+02 0.  0.
        -12    1    1    2    0    0 -0.72660145975E+00 -0.28632880063E+00  0.88492317495E+00  0.11802639065E+01  0.00000000000E+00 0.  1.
         11    1    3    3    0    0 -0.22384718586E+02 -0.26495757929E+02  0.38965003215E+01  0.34903918540E+02  0.51100000000E-03 0. -1.
        -11    1    3    3    0    0 -0.92881182444E+01  0.20505307107E+01 -0.10244487773E+02  0.13979390069E+02  0.51100000000E-03 0.  1.
        -12    1    3    3    0    0  0.32399438291E+02  0.24731556019E+02  0.54630642764E+01  0.41124427485E+02  0.00000000000E+00 0.  1.
</event>
<event>
 7    1  0.1654239E-015  0.9000742E+02  0.7816164E-02  0.1186340E+00
        -11   -1    0    0    0    0  0.00000000000E+00  0.00000000000E+00  0.45593999997E+02  0.45594000000E+02  0.51100000000E-03 0.  1.
         11   -1    0    0    0    0 -0.00000000000E+00 -0.00000000000E+00 -0.45593999997E+02  0.45594000000E+02  0.51100000000E-03 0. -1.
    9900012    2    1    2    0    0 -0.52690029846E+00 -0.63878411471E+00 -0.84148386714E+00  0.90007422104E+02  0.89999679275E+02 0.  0.
        -12    1    1    2    0    0  0.52690029846E+00  0.63878411471E+00  0.84148386714E+00  0.11805778959E+01  0.00000000000E+00 0.  1.
         11    1    3    3    0    0  0.53371342665E+01  0.58798509916E+01 -0.14430766066E+01  0.80709429570E+01  0.51100000000E-03 0. -1.
        -11    1    3    3    0    0 -0.13074598085E+02  0.26351576167E+02  0.26405925411E+02  0.39530033881E+02  0.51100000000E-03 0.  1.
         12    1    3    3    0    0  0.72105635200E+01 -0.32870211273E+02 -0.25804332672E+02  0.42406445266E+02  0.00000000000E+00 0. -1.
</event>
<event>
 7    1  0.1654239E-015  0.9000744E+02  0.7816164E-02  0.1186340E+00
        -11   -1    0    0    0    0  0.00000000000E+00  0.00000000000E+00  0.45593999997E+02  0.45594000000E+02  0.51100000000E-03 0. -1.
         11   -1    0    0    0    0 -0.00000000000E+00 -0.00000000000E+00 -0.45593999997E+02  0.45594000000E+02  0.51100000000E-03 0.  1.
    9900012    2    1    2    0    0 -0.26057979970E-01 -0.11794464297E+01  0.44132123386E-01  0.90007440580E+02  0.89999697996E+02 0.  0.
        -12    1    1    2    0    0  0.26057979970E-01  0.11794464297E+01 -0.44132123386E-01  0.11805594196E+01  0.00000000000E+00 0.  1.
         11    1    3    3    0    0  0.32950250167E+02 -0.12713789905E+02 -0.11969400142E+01  0.35338252723E+02  0.51100000000E-03 0. -1.
        -11    1    3    3    0    0  0.89119311654E+01 -0.27935414405E+00  0.62077056952E+01  0.10864445043E+02  0.51100000000E-03 0.  1.
        -12    1    3    3    0    0 -0.41888239313E+02  0.11813697620E+02 -0.49666335577E+01  0.43804742815E+02  0.00000000000E+00 0.  1.
</event>
<event>
 7    1  0.1654239E-015  0.9000773E+02  0.7816164E-02  0.1186339E+00
        -11   -1    0    0    0    0  0.00000000000E+00  0.00000000000E+00  0.45593999997E+02  0.45594000000E+02  0.51100000000E-03 0.  1.
         11   -1    0    0    0    0 -0.00000000000E+00 -0.00000000000E+00 -0.45593999997E+02  0.45594000000E+02  0.51100000000E-03 0. -1.
    9900012    2    1    2    0    0 -0.89891497326E+00  0.74809685091E+00  0.15917427258E+00  0.90007731608E+02  0.89999992865E+02 0.  0.
        -12    1    1    2    0    0  0.89891497326E+00 -0.74809685091E+00 -0.15917427258E+00  0.11802683917E+01  0.00000000000E+00 0.  1.
         11    1    3    3    0    0 -0.12814434992E+02  0.51549452838E+00 -0.36729025278E+02  0.38903685904E+02  0.51100000000E-03 0. -1.
        -11    1    3    3    0    0  0.87933404193E+01 -0.24152013953E+01 -0.40384094521E+01  0.99732033306E+01  0.51100000000E-03 0.  1.
        -12    1    3    3    0    0  0.31221795995E+01  0.26478037179E+01  0.40926609002E+02  0.41130842374E+02  0.00000000000E+00 0.  1.
</event>
<event>
 7    1  0.1654239E-015  0.9000758E+02  0.7816164E-02  0.1186339E+00
        -11   -1    0    0    0    0  0.00000000000E+00  0.00000000000E+00  0.45593999997E+02  0.45594000000E+02  0.51100000000E-03 0.  1.
         11   -1    0    0    0    0 -0.00000000000E+00 -0.00000000000E+00 -0.45593999997E+02  0.45594000000E+02  0.51100000000E-03 0. -1.
    9900012    2    1    2    0    0  0.11564219327E+01 -0.20492198396E+00  0.11871968514E+00  0.90007576741E+02  0.89999835954E+02 0.  0.
        -12    1    1    2    0    0 -0.11564219327E+01  0.20492198396E+00 -0.11871968514E+00  0.11804232586E+01  0.00000000000E+00 0.  1.
         11    1    3    3    0    0  0.73413044676E+01  0.86391734738E+01 -0.21475184701E+00  0.11339144069E+02  0.51100000000E-03 0. -1.
        -11    1    3    3    0    0 -0.10666465380E+02 -0.16965724424E+02  0.36332832217E+02  0.41493179995E+02  0.51100000000E-03 0.  1.
         12    1    3    3    0    0  0.44815828450E+01  0.81216289660E+01 -0.35999360685E+02  0.37175252677E+02  0.00000000000E+00 0. -1.
</event>
<event>
 7    1  0.1654239E-015  0.9000780E+02  0.7816164E-02  0.1186339E+00
        -11   -1    0    0    0    0  0.00000000000E+00  0.00000000000E+00  0.45593999997E+02  0.45594000000E+02  0.51100000000E-03 0. -1.
         11   -1    0    0    0    0 -0.00000000000E+00 -0.00000000000E+00 -0.45593999997E+02  0.45594000000E+02  0.51100000000E-03 0.  1.
    9900012    2    1    2    0    0 -0.71746797661E+00  0.48289533101E+00  0.80306732520E+00  0.90007802844E+02  0.90000065042E+02 0.  0.
        -12    1    1    2    0    0  0.71746797661E+00 -0.48289533101E+00 -0.80306732520E+00  0.11801971560E+01  0.00000000000E+00 0.  1.
         11    1    3    3    0    0 -0.45017687058E+01 -0.28672790265E+02  0.28581253933E+02  0.40734296357E+02  0.51100000000E-03 0. -1.
        -11    1    3    3    0    0 -0.16706153848E+01  0.75703274623E+01  0.53068740808E+01  0.93948776693E+01  0.51100000000E-03 0.  1.
        -12    1    3    3    0    0  0.54549161139E+01  0.21585358134E+02 -0.33085060689E+02  0.39878628817E+02  0.00000000000E+00 0.  1.
</event>
<event>
 7    1  0.1654239E-015  0.9000821E+02  0.7816164E-02  0.1186338E+00
        -11   -1    0    0    0    0  0.00000000000E+00  0.00000000000E+00  0.45593999997E+02  0.45594000000E+02  0.51100000000E-03 0.  1.
         11   -1    0    0    0    0 -0.00000000000E+00 -0.00000000000E+00 -0.45593999997E+02  0.45594000000E+02  0.51100000000E-03 0. -1.
    9900012    2    1    2    0    0 -0.57842375936E+00  0.64252347745E+00 -0.80279886909E+00  0.90008213372E+02  0.90000480987E+02 0.  0.
        -12    1    1    2    0    0  0.57842375936E+00 -0.64252347745E+00  0.80279886909E+00  0.11797866285E+01  0.00000000000E+00 0.  1.
         11    1    3    3    0    0 -0.33892752336E+02 -0.90953272288E+01  0.18584185294E+02  0.39709137256E+02  0.51100000000E-03 0. -1.
        -11    1    3    3    0    0 -0.58602053509E+01 -0.40866056474E+00 -0.15521185688E+01  0.60760252242E+01  0.51100000000E-03 0.  1.
        -12    1    3    3    0    0  0.39174533927E+02  0.10146511271E+02 -0.17834865594E+02  0.44223050892E+02  0.00000000000E+00 0.  1.
</event>
<event>
 7    1  0.1654239E-015  0.9000760E+02  0.7816164E-02  0.1186339E+00
        -11   -1    0    0    0    0  0.00000000000E+00  0.00000000000E+00  0.45593999997E+02  0.45594000000E+02  0.51100000000E-03 0. -1.
         11   -1    0    0    0    0 -0.00000000000E+00 -0.00000000000E+00 -0.45593999997E+02  0.45594000000E+02  0.51100000000E-03 0.  1.
    9900012    2    1    2    0    0 -0.39809405352E+00  0.10117700123E+01 -0.45955566878E+00  0.90007598015E+02  0.89999857509E+02 0.  0.
        -12    1    1    2    0    0  0.39809405352E+00 -0.10117700123E+01  0.45955566878E+00  0.11804019849E+01  0.00000000000E+00 0.  1.
         11    1    3    3    0    0  0.65841594060E+00 -0.99847745952E+01 -0.25920893445E+01  0.10336738494E+02  0.51100000000E-03 0. -1.
        -11    1    3    3    0    0 -0.14518790222E+02 -0.91500245346E+01 -0.32881364327E+02  0.37090461560E+02  0.51100000000E-03 0.  1.
         12    1    3    3    0    0  0.13462280227E+02  0.20146569142E+02  0.35013898003E+02  0.42580397961E+02  0.00000000000E+00 0. -1.
</event>
<event>
 7    1  0.1654239E-015  0.9000772E+02  0.7816164E-02  0.1186339E+00
        -11   -1    0    0    0    0  0.00000000000E+00  0.00000000000E+00  0.45593999997E+02  0.45594000000E+02  0.51100000000E-03 0. -1.
         11   -1    0    0    0    0 -0.00000000000E+00 -0.00000000000E+00 -0.45593999997E+02  0.45594000000E+02  0.51100000000E-03 0.  1.
    9900012    2    1    2    0    0  0.56688143731E+00  0.28797791481E+00  0.99437130305E+00  0.90007720316E+02  0.89999981424E+02 0.  0.
        -12    1    1    2    0    0 -0.56688143731E+00 -0.28797791481E+00 -0.99437130305E+00  0.11802796837E+01  0.00000000000E+00 0.  1.
         11    1    3    3    0    0 -0.12564560868E+00  0.92688021321E+00  0.88756183112E+01  0.89247685917E+01  0.51100000000E-03 0. -1.
        -11    1    3    3    0    0 -0.26842902851E+02  0.12407973306E+02 -0.30994262223E+02  0.42838575210E+02  0.51100000000E-03 0.  1.
         12    1    3    3    0    0  0.27535429897E+02 -0.13046875605E+02  0.23113015214E+02  0.38244376514E+02  0.00000000000E+00 0. -1.
</event>
<event>
 7    1  0.1654239E-015  0.9000773E+02  0.7816164E-02  0.1186339E+00
        -11   -1    0    0    0    0  0.00000000000E+00  0.00000000000E+00  0.45593999997E+02  0.45594000000E+02  0.51100000000E-03 0.  1.
         11   -1    0    0    0    0 -0.00000000000E+00 -0.00000000000E+00 -0.45593999997E+02  0.45594000000E+02  0.51100000000E-03 0. -1.
    9900012    2    1    2    0    0  0.79144438491E+00 -0.87330050566E+00  0.63225238953E-01  0.90007730786E+02  0.89999992032E+02 0.  0.
        -12    1    1    2    0    0 -0.79144438491E+00  0.87330050566E+00 -0.63225238953E-01  0.11802692144E+01  0.00000000000E+00 0.  1.
         11    1    3    3    0    0 -0.29959962379E+02  0.27306272727E+02 -0.17304914330E+01  0.40573716577E+02  0.51100000000E-03 0. -1.
        -11    1    3    3    0    0  0.34728902109E+01 -0.36662142158E+00  0.91450046122E+01  0.97891004337E+01  0.51100000000E-03 0.  1.
        -12    1    3    3    0    0  0.27278516554E+02 -0.27812951811E+02 -0.73512879402E+01  0.39644913775E+02  0.00000000000E+00 0.  1.
</event>
<event>
 7    1  0.1654239E-015  0.9000772E+02  0.7816164E-02  0.1186339E+00
        -11   -1    0    0    0    0  0.00000000000E+00  0.00000000000E+00  0.45593999997E+02  0.45594000000E+02  0.51100000000E-03 0. -1.
         11   -1    0    0    0    0 -0.00000000000E+00 -0.00000000000E+00 -0.45593999997E+02  0.45594000000E+02  0.51100000000E-03 0.  1.
    9900012    2    1    2    0    0 -0.79655911372E+00  0.17112886631E+00  0.85397498010E+00  0.90007718348E+02  0.89999979431E+02 0.  0.
        -12    1    1    2    0    0  0.79655911372E+00 -0.17112886631E+00 -0.85397498010E+00  0.11802816516E+01  0.00000000000E+00 0.  1.
         11    1    3    3    0    0 -0.15372256854E+02  0.31840774200E+02 -0.43416186483E+00  0.35360001120E+02  0.51100000000E-03 0. -1.
        -11    1    3    3    0    0 -0.60443372346E+01  0.70989297010E+01  0.50005931459E+01  0.10579921908E+02  0.51100000000E-03 0.  1.
        -12    1    3    3    0    0  0.20620034975E+02 -0.38768575035E+02 -0.37124563010E+01  0.44067795320E+02  0.00000000000E+00 0.  1.
</event>
<event>
 7    1  0.1654239E-015  0.9000780E+02  0.7816164E-02  0.1186339E+00
        -11   -1    0    0    0    0  0.00000000000E+00  0.00000000000E+00  0.45593999997E+02  0.45594000000E+02  0.51100000000E-03 0. -1.
         11   -1    0    0    0    0 -0.00000000000E+00 -0.00000000000E+00 -0.45593999997E+02  0.45594000000E+02  0.51100000000E-03 0.  1.
    9900012    2    1    2    0    0  0.78132585704E+00  0.86708093596E+00 -0.17484715118E+00  0.90007800453E+02  0.90000062619E+02 0.  0.
        -12    1    1    2    0    0 -0.78132585704E+00 -0.86708093596E+00  0.17484715118E+00  0.11801995470E+01  0.00000000000E+00 0.  1.
         11    1    3    3    0    0 -0.17028754639E+01  0.93571161683E+01 -0.90308746502E+01  0.13115338541E+02  0.51100000000E-03 0. -1.
        -11    1    3    3    0    0 -0.13329497980E+02  0.24606225156E+02  0.24329715444E+02  0.37082029160E+02  0.51100000000E-03 0.  1.
         12    1    3    3    0    0  0.15813699301E+02 -0.33096260388E+02 -0.15473687945E+02  0.39810432752E+02  0.00000000000E+00 0. -1.
</event>
<event>
 7    1  0.1654239E-015  0.9000768E+02  0.7816164E-02  0.1186339E+00
        -11   -1    0    0    0    0  0.00000000000E+00  0.00000000000E+00  0.45593999997E+02  0.45594000000E+02  0.51100000000E-03 0.  1.
         11   -1    0    0    0    0 -0.00000000000E+00 -0.00000000000E+00 -0.45593999997E+02  0.45594000000E+02  0.51100000000E-03 0. -1.
    9900012    2    1    2    0    0 -0.18017347266E+00 -0.29406839480E+00 -0.11288109034E+01  0.90007681078E+02  0.89999941669E+02 0.  0.
        -12    1    1    2    0    0  0.18017347266E+00  0.29406839480E+00  0.11288109034E+01  0.11803189216E+01  0.00000000000E+00 0.  1.
         11    1    3    3    0    0 -0.16188284375E+02 -0.32685954582E+02  0.11078606659E+02  0.38120436825E+02  0.51100000000E-03 0. -1.
        -11    1    3    3    0    0  0.18167857928E+01 -0.59874757173E+01  0.44808222886E+01  0.76959953694E+01  0.51100000000E-03 0.  1.
        -12    1    3    3    0    0  0.14191325109E+02  0.38379361905E+02 -0.16688239851E+02  0.44191248884E+02  0.00000000000E+00 0.  1.
</event>
<event>
 7    1  0.1654239E-015  0.9000778E+02  0.7816164E-02  0.1186339E+00
        -11   -1    0    0    0    0  0.00000000000E+00  0.00000000000E+00  0.45593999997E+02  0.45594000000E+02  0.51100000000E-03 0. -1.
         11   -1    0    0    0    0 -0.00000000000E+00 -0.00000000000E+00 -0.45593999997E+02  0.45594000000E+02  0.51100000000E-03 0.  1.
    9900012    2    1    2    0    0  0.11451787800E+01  0.55313118933E-01  0.28004113490E+00  0.90007780946E+02  0.90000042854E+02 0.  0.
        -12    1    1    2    0    0 -0.11451787800E+01 -0.55313118933E-01 -0.28004113490E+00  0.11802190545E+01  0.00000000000E+00 0.  1.
         11    1    3    3    0    0 -0.15194890657E+02  0.35623353457E+02  0.80007293611E+01  0.39546424417E+02  0.51100000000E-03 0. -1.
        -11    1    3    3    0    0 -0.79916278596E+01 -0.30079536241E+01  0.17710221747E+01  0.87206892305E+01  0.51100000000E-03 0.  1.
        -12    1    3    3    0    0  0.24331697297E+02 -0.32560086714E+02 -0.94917104008E+01  0.41740667298E+02  0.00000000000E+00 0.  1.
</event>
<event>
 7    1  0.1654239E-015  0.9000766E+02  0.7816164E-02  0.1186339E+00
        -11   -1    0    0    0    0  0.00000000000E+00  0.00000000000E+00  0.45593999997E+02  0.45594000000E+02  0.51100000000E-03 0.  1.
         11   -1    0    0    0    0 -0.00000000000E+00 -0.00000000000E+00 -0.45593999997E+02  0.45594000000E+02  0.51100000000E-03 0. -1.
    9900012    2    1    2    0    0  0.90014085498E+00 -0.34198089586E+00  0.68263741138E+00  0.90007661774E+02  0.89999922110E+02 0.  0.
        -12    1    1    2    0    0 -0.90014085498E+00  0.34198089586E+00 -0.68263741138E+00  0.11803382258E+01  0.00000000000E+00 0.  1.
         11    1    3    3    0    0  0.55495625184E+01 -0.33684017415E+02  0.24769991547E+02  0.42177756636E+02  0.51100000000E-03 0. -1.
        -11    1    3    3    0    0  0.56572332210E+00  0.97413479733E+01  0.41996386254E+01  0.10623128920E+02  0.51100000000E-03 0.  1.
        -12    1    3    3    0    0 -0.52151449855E+01  0.23600688546E+02 -0.28286992761E+02  0.37206776218E+02  0.00000000000E+00 0.  1.
</event>
<event>
 7    1  0.1654239E-015  0.9000774E+02  0.7816164E-02  0.1186339E+00
        -11   -1    0    0    0    0  0.00000000000E+00  0.00000000000E+00  0.45593999997E+02  0.45594000000E+02  0.51100000000E-03 0.  1.
         11   -1    0    0    0    0 -0.00000000000E+00 -0.00000000000E+00 -0.45593999997E+02  0.45594000000E+02  0.51100000000E-03 0. -1.
    9900012    2    1    2    0    0  0.53474480418E+00 -0.81832806317E+00  0.66137042712E+00  0.90007735764E+02  0.89999997076E+02 0.  0.
        -12    1    1    2    0    0 -0.53474480418E+00  0.81832806317E+00 -0.66137042712E+00  0.11802642359E+01  0.00000000000E+00 0.  1.
         11    1    3    3    0    0 -0.23061590170E+01 -0.19061528148E+01  0.11419223871E+02  0.11804679667E+02  0.51100000000E-03 0. -1.
        -11    1    3    3    0    0  0.28226421469E+02  0.12455368078E+01  0.22672782170E+02  0.36226196081E+02  0.51100000000E-03 0.  1.
         12    1    3    3    0    0 -0.25385517648E+02 -0.15771205618E+00 -0.33430635613E+02  0.41976860017E+02  0.00000000000E+00 0. -1.
</event>
<event>
 7    1  0.1654239E-015  0.9000773E+02  0.7816164E-02  0.1186339E+00
        -11   -1    0    0    0    0  0.00000000000E+00  0.00000000000E+00  0.45593999997E+02  0.45594000000E+02  0.51100000000E-03 0. -1.
         11   -1    0    0    0    0 -0.00000000000E+00 -0.00000000000E+00 -0.45593999997E+02  0.45594000000E+02  0.51100000000E-03 0.  1.
    9900012    2    1    2    0    0 -0.67361917615E+00  0.93049987171E+00  0.27101821326E+00  0.90007727287E+02  0.89999988487E+02 0.  0.
        -12    1    1    2    0    0  0.67361917615E+00 -0.93049987171E+00 -0.27101821326E+00  0.11802727132E+01  0.00000000000E+00 0.  1.
         11    1    3    3    0    0  0.76144942379E+01 -0.26712918026E+01 -0.48552631768E+01  0.94175316921E+01  0.51100000000E-03 0. -1.
        -11    1    3    3    0    0  0.19941164086E+02 -0.30155544144E+02  0.55928982127E+01  0.36582610328E+02  0.51100000000E-03 0.  1.
         12    1    3    3    0    0 -0.28229277500E+02  0.33757335818E+02 -0.46661682259E+00  0.44007585267E+02  0.00000000000E+00 0. -1.
</event>
<event>
 7    1  0.1654239E-015  0.9000772E+02  0.7816164E-02  0.1186339E+00
        -11   -1    0    0    0    0  0.00000000000E+00  0.00000000000E+00  0.45593999997E+02  0.45594000000E+02  0.51100000000E-03 0.  1.
         11   -1    0    0    0    0 -0.00000000000E+00 -0.00000000000E+00 -0.45593999997E+02  0.45594000000E+02  0.51100000000E-03 0. -1.
    9900012    2    1    2    0    0 -0.86169166216E-01  0.33613945006E+00 -0.11281130298E+01  0.90007722972E+02  0.89999984115E+02 0.  0.
        -12    1    1    2    0    0  0.86169166216E-01 -0.33613945006E+00  0.11281130298E+01  0.11802770281E+01  0.00000000000E+00 0.  1.
         11    1    3    3    0    0 -0.33816246301E+02  0.19512198382E+02  0.23714500437E+01  0.39113784977E+02  0.51100000000E-03 0. -1.
        -11    1    3    3    0    0 -0.26275771896E+00  0.16947851385E+01 -0.10289550735E+02  0.10431500030E+02  0.51100000000E-03 0.  1.
        -12    1    3    3    0    0  0.33992834854E+02 -0.20870844071E+02  0.67899876618E+01  0.40462437965E+02  0.00000000000E+00 0.  1.
</event>
<event>
 7    1  0.1654239E-015  0.9000806E+02  0.7816164E-02  0.1186338E+00
        -11   -1    0    0    0    0  0.00000000000E+00  0.00000000000E+00  0.45593999997E+02  0.45594000000E+02  0.51100000000E-03 0. -1.
         11   -1    0    0    0    0 -0.00000000000E+00 -0.00000000000E+00 -0.45593999997E+02  0.45594000000E+02  0.51100000000E-03 0.  1.
    9900012    2    1    2    0    0  0.63842655836E+00 -0.39880108632E+00  0.90864561969E+00  0.90008056086E+02  0.90000321626E+02 0.  0.
        -12    1    1    2    0    0 -0.63842655836E+00  0.39880108632E+00 -0.90864561969E+00  0.11799439135E+01  0.00000000000E+00 0.  1.
         11    1    3    3    0    0 -0.14124766525E+01  0.27385750218E+02  0.23300438427E+02  0.35984508284E+02  0.51100000000E-03 0. -1.
        -11    1    3    3    0    0  0.58209499331E+01  0.72074272777E+01  0.39413912996E+01  0.10068020249E+02  0.51100000000E-03 0.  1.
        -12    1    3    3    0    0 -0.37700467222E+01 -0.34991978582E+02 -0.26333184106E+02  0.43955527554E+02  0.00000000000E+00 0.  1.
</event>
<event>
 7    1  0.1654239E-015  0.9000768E+02  0.7816164E-02  0.1186339E+00
        -11   -1    0    0    0    0  0.00000000000E+00  0.00000000000E+00  0.45593999997E+02  0.45594000000E+02  0.51100000000E-03 0. -1.
         11   -1    0    0    0    0 -0.00000000000E+00 -0.00000000000E+00 -0.45593999997E+02  0.45594000000E+02  0.51100000000E-03 0.  1.
    9900012    2    1    2    0    0  0.91995354251E+00 -0.73844321998E+00  0.39201441565E-01  0.90007682389E+02  0.89999942997E+02 0.  0.
        -12    1    1    2    0    0 -0.91995354251E+00  0.73844321998E+00 -0.39201441565E-01  0.11803176109E+01  0.00000000000E+00 0.  1.
         11    1    3    3    0    0  0.36237702154E+01 -0.69664721528E+01  0.10631450417E+02  0.13217079218E+02  0.51100000000E-03 0. -1.
        -11    1    3    3    0    0  0.28861888189E+02 -0.16627164331E+02 -0.16836889512E+02  0.37322272602E+02  0.51100000000E-03 0.  1.
         12    1    3    3    0    0 -0.31565704861E+02  0.22855193263E+02  0.62446405366E+01  0.39468330569E+02  0.00000000000E+00 0. -1.
</event>
<event>
 7    1  0.1654239E-015  0.9000775E+02  0.7816164E-02  0.1186339E+00
        -11   -1    0    0    0    0  0.00000000000E+00  0.00000000000E+00  0.45593999997E+02  0.45594000000E+02  0.51100000000E-03 0.  1.
         11   -1    0    0    0    0 -0.00000000000E+00 -0.00000000000E+00 -0.45593999997E+02  0.45594000000E+02  0.51100000000E-03 0. -1.
    9900012    2    1    2    0    0 -0.63355674427E+00  0.67891286338E+00 -0.72847826304E+00  0.90007746890E+02  0.90000008349E+02 0.  0.
        -12    1    1    2    0    0  0.63355674427E+00 -0.67891286338E+00  0.72847826304E+00  0.11802531101E+01  0.00000000000E+00 0.  1.
         11    1    3    3    0    0 -0.24953067939E+02 -0.15361474338E+02 -0.30979187490E+02  0.42642004540E+02  0.51100000000E-03 0. -1.
        -11    1    3    3    0    0 -0.26141551898E+01  0.33561972036E+00  0.96334766665E+01  0.99875082428E+01  0.51100000000E-03 0.  1.
        -12    1    3    3    0    0  0.26933666385E+02  0.15704767481E+02  0.20617232560E+02  0.37378234107E+02  0.00000000000E+00 0.  1.
</event>
<event>
 7    1  0.1654239E-015  0.9000765E+02  0.7816164E-02  0.1186339E+00
        -11   -1    0    0    0    0  0.00000000000E+00  0.00000000000E+00  0.45593999997E+02  0.45594000000E+02  0.51100000000E-03 0.  1.
         11   -1    0    0    0    0 -0.00000000000E+00 -0.00000000000E+00 -0.45593999997E+02  0.45594000000E+02  0.51100000000E-03 0. -1.
    9900012    2    1    2    0    0  0.10130412215E+00 -0.11731941979E+01  0.81092101484E-01  0.90007651289E+02  0.89999911486E+02 0.  0.
        -12    1    1    2    0    0 -0.10130412215E+00  0.11731941979E+01 -0.81092101484E-01  0.11803487112E+01  0.00000000000E+00 0.  1.
         11    1    3    3    0    0  0.81381668715E+00 -0.32011745114E+02 -0.18817501883E+02  0.37141789136E+02  0.51100000000E-03 0. -1.
        -11    1    3    3    0    0 -0.32342774022E+01 -0.36686180762E+01 -0.77703329363E+01  0.91813606347E+01  0.51100000000E-03 0.  1.
        -12    1    3    3    0    0  0.25217648372E+01  0.34507168993E+02  0.26668926921E+02  0.43684501518E+02  0.00000000000E+00 0.  1.
</event>
<event>
 7    1  0.1654239E-015  0.9000777E+02  0.7816164E-02  0.1186339E+00
        -11   -1    0    0    0    0  0.00000000000E+00  0.00000000000E+00  0.45593999997E+02  0.45594000000E+02  0.51100000000E-03 0.  1.
         11   -1    0    0    0    0 -0.00000000000E+00 -0.00000000000E+00 -0.45593999997E+02  0.45594000000E+02  0.51100000000E-03 0. -1.
    9900012    2    1    2    0    0 -0.10431808557E+01 -0.48876491775E+00  0.25656430954E+00  0.90007770070E+02  0.90000031835E+02 0.  0.
        -12    1    1    2    0    0  0.10431808557E+01  0.48876491775E+00 -0.25656430954E+00  0.11802299299E+01  0.00000000000E+00 0.  1.
         11    1    3    3    0    0 -0.74478192775E+01 -0.50596345600E+01  0.40489043203E+01  0.98723624491E+01  0.51100000000E-03 0. -1.
        -11    1    3    3    0    0 -0.21923192236E+02  0.13091573578E+02  0.27188982281E+02  0.37299549787E+02  0.51100000000E-03 0.  1.
         12    1    3    3    0    0  0.28327830658E+02 -0.85207039362E+01 -0.30981322292E+02  0.42835857834E+02  0.00000000000E+00 0. -1.
</event>
<event>
 7    1  0.1654239E-015  0.9000769E+02  0.7816164E-02  0.1186339E+00
        -11   -1    0    0    0    0  0.00000000000E+00  0.00000000000E+00  0.45593999997E+02  0.45594000000E+02  0.51100000000E-03 0.  1.
         11   -1    0    0    0    0 -0.00000000000E+00 -0.00000000000E+00 -0.45593999997E+02  0.45594000000E+02  0.51100000000E-03 0. -1.
    9900012    2    1    2    0    0 -0.49859642812E+00 -0.15542742084E-01 -0.10697103056E+01  0.90007694907E+02  0.89999955680E+02 0.  0.
        -12    1    1    2    0    0  0.49859642812E+00  0.15542742084E-01  0.10697103056E+01  0.11803050932E+01  0.00000000000E+00 0.  1.
         11    1    3    3    0    0 -0.19034165560E+02  0.29604851037E+02 -0.10809030208E+02  0.36818226435E+02  0.51100000000E-03 0. -1.
        -11    1    3    3    0    0 -0.69720687419E+01  0.49684994971E+01 -0.16723633235E+01  0.87231031830E+01  0.51100000000E-03 0.  1.
        -12    1    3    3    0    0  0.25507637874E+02 -0.34588893276E+02  0.11411683225E+02  0.44466365289E+02  0.00000000000E+00 0.  1.
</event>
<event>
 7    1  0.1654239E-015  0.9000757E+02  0.7816164E-02  0.1186339E+00
        -11   -1    0    0    0    0  0.00000000000E+00  0.00000000000E+00  0.45593999997E+02  0.45594000000E+02  0.51100000000E-03 0.  1.
         11   -1    0    0    0    0 -0.00000000000E+00 -0.00000000000E+00 -0.45593999997E+02  0.45594000000E+02  0.51100000000E-03 0. -1.
    9900012    2    1    2    0    0 -0.99269621023E+00  0.38413408776E+00  0.51031107691E+00  0.90007566961E+02  0.89999826045E+02 0.  0.
        -12    1    1    2    0    0  0.99269621023E+00 -0.38413408776E+00 -0.51031107691E+00  0.11804330385E+01  0.00000000000E+00 0.  1.
         11    1    3    3    0    0  0.62496280630E+01 -0.43957114972E+01  0.54313381626E+01  0.93744101143E+01  0.51100000000E-03 0. -1.
        -11    1    3    3    0    0  0.11264211080E+02  0.10966629449E+02  0.33797777678E+02  0.37275181944E+02  0.51100000000E-03 0.  1.
         12    1    3    3    0    0 -0.18506535353E+02 -0.61867838640E+01 -0.38718804764E+02  0.43357974903E+02  0.00000000000E+00 0. -1.
</event>
<event>
 7    1  0.1654239E-015  0.9000769E+02  0.7816164E-02  0.1186339E+00
        -11   -1    0    0    0    0  0.00000000000E+00  0.00000000000E+00  0.45593999997E+02  0.45594000000E+02  0.51100000000E-03 0. -1.
         11   -1    0    0    0    0 -0.00000000000E+00 -0.00000000000E+00 -0.45593999997E+02  0.45594000000E+02  0.51100000000E-03 0.  1.
    9900012    2    1    2    0    0  0.10873214228E+01 -0.20458529113E+00 -0.41111113293E+00  0.90007688439E+02  0.89999949126E+02 0.  0.
        -12    1    1    2    0    0 -0.10873214228E+01  0.20458529113E+00  0.41111113293E+00  0.11803115612E+01  0.00000000000E+00 0.  1.
         11    1    3    3    0    0 -0.87024408593E+01  0.23365030441E+01 -0.34021606174E+01  0.96315326149E+01  0.51100000000E-03 0. -1.
        -11    1    3    3    0    0  0.24864366083E+02  0.33228950503E+02  0.18244814211E+01  0.41541889521E+02  0.51100000000E-03 0.  1.
         12    1    3    3    0    0 -0.15074603801E+02 -0.35770038838E+02  0.11665680633E+01  0.38834266303E+02  0.00000000000E+00 0. -1.
</event>
<event>
 7    1  0.1871158E-015  0.9000764E+02  0.7816164E-02  0.1186339E+00
        -11   -1    0    0    0    0  0.00000000000E+00  0.00000000000E+00  0.45593999997E+02  0.45594000000E+02  0.51100000000E-03 0. -1.
         11   -1    0    0    0    0 -0.00000000000E+00 -0.00000000000E+00 -0.45593999997E+02  0.45594000000E+02  0.51100000000E-03 0.  1.
    9900012    2    1    2    0    0 -0.93908734811E+00  0.32996014041E+00  0.63441832110E+00  0.90007641856E+02  0.89999901929E+02 0.  0.
        -12    1    1    2    0    0  0.93908734811E+00 -0.32996014041E+00 -0.63441832110E+00  0.11803581439E+01  0.00000000000E+00 0.  1.
         11    1    3    3    0    0 -0.44064637358E+01 -0.78039554252E+01 -0.36716342502E+01  0.96850163274E+01  0.51100000000E-03 0. -1.
        -11    1    3    3    0    0 -0.21353259946E+02  0.64975288386E+01 -0.30343866542E+02  0.37668684983E+02  0.51100000000E-03 0.  1.
         12    1    3    3    0    0  0.24820636334E+02  0.16363867271E+01  0.34649919113E+02  0.42653940546E+02  0.00000000000E+00 0. -1.
</event>
<event>
 7    1  0.1654239E-015  0.9000769E+02  0.7816164E-02  0.1186339E+00
        -11   -1    0    0    0    0  0.00000000000E+00  0.00000000000E+00  0.45593999997E+02  0.45594000000E+02  0.51100000000E-03 0. -1.
         11   -1    0    0    0    0 -0.00000000000E+00 -0.00000000000E+00 -0.45593999997E+02  0.45594000000E+02  0.51100000000E-03 0.  1.
    9900012    2    1    2    0    0 -0.10888141801E+01  0.22954057226E+00  0.39361981396E+00  0.90007685741E+02  0.89999946392E+02 0.  0.
        -12    1    1    2    0    0  0.10888141801E+01 -0.22954057226E+00 -0.39361981396E+00  0.11803142594E+01  0.00000000000E+00 0.  1.
         11    1    3    3    0    0  0.10571310533E+02 -0.81294413455E+01  0.32696290677E+02  0.35311299144E+02  0.51100000000E-03 0. -1.
        -11    1    3    3    0    0  0.59541816721E+01 -0.11332140068E+02  0.20981802128E+00  0.12802878652E+02  0.51100000000E-03 0.  1.
        -12    1    3    3    0    0 -0.17614306385E+02  0.19691121986E+02 -0.32512488884E+02  0.41893507945E+02  0.00000000000E+00 0.  1.
</event>
<event>
 7    1  0.1654239E-015  0.9000782E+02  0.7816164E-02  0.1186339E+00
        -11   -1    0    0    0    0  0.00000000000E+00  0.00000000000E+00  0.45593999997E+02  0.45594000000E+02  0.51100000000E-03 0.  1.
         11   -1    0    0    0    0 -0.00000000000E+00 -0.00000000000E+00 -0.45593999997E+02  0.45594000000E+02  0.51100000000E-03 0. -1.
    9900012    2    1    2    0    0 -0.86130328112E+00  0.79951409553E+00 -0.10839774559E+00  0.90007823656E+02  0.90000086129E+02 0.  0.
        -12    1    1    2    0    0  0.86130328112E+00 -0.79951409553E+00  0.10839774559E+00  0.11801763437E+01  0.00000000000E+00 0.  1.
         11    1    3    3    0    0  0.24851768653E+01 -0.34737198253E+02  0.66348158491E+01  0.35452359979E+02  0.51100000000E-03 0. -1.
        -11    1    3    3    0    0  0.20187927731E+01 -0.86116476046E+01 -0.47448447929E+01  0.10037407588E+02  0.51100000000E-03 0.  1.
        -12    1    3    3    0    0 -0.53652729195E+01  0.44148359953E+02 -0.19983688018E+01  0.44518056088E+02  0.00000000000E+00 0.  1.
</event>
<event>
 7    1  0.1654239E-015  0.9000777E+02  0.7816164E-02  0.1186339E+00
        -11   -1    0    0    0    0  0.00000000000E+00  0.00000000000E+00  0.45593999997E+02  0.45594000000E+02  0.51100000000E-03 0. -1.
         11   -1    0    0    0    0 -0.00000000000E+00 -0.00000000000E+00 -0.45593999997E+02  0.45594000000E+02  0.51100000000E-03 0.  1.
    9900012    2    1    2    0    0  0.52773455870E+00 -0.10542190396E+01  0.55238307398E-01  0.90007774251E+02  0.90000036071E+02 0.  0.
        -12    1    1    2    0    0 -0.52773455870E+00  0.10542190396E+01 -0.55238307398E-01  0.11802257490E+01  0.00000000000E+00 0.  1.
         11    1    3    3    0    0 -0.64399326847E+01  0.11913938737E+01 -0.61214316212E+01  0.89646013687E+01  0.51100000000E-03 0. -1.
        -11    1    3    3    0    0 -0.57924368135E+01 -0.38972692067E+02 -0.69448066054E+01  0.40008166544E+02  0.51100000000E-03 0.  1.
         12    1    3    3    0    0  0.12760104057E+02  0.36727079154E+02  0.13121476534E+02  0.41035006338E+02  0.00000000000E+00 0. -1.
</event>
<event>
 7    1  0.1654239E-015  0.9000774E+02  0.7816164E-02  0.1186339E+00
        -11   -1    0    0    0    0  0.00000000000E+00  0.00000000000E+00  0.45593999997E+02  0.45594000000E+02  0.51100000000E-03 0.  1.
         11   -1    0    0    0    0 -0.00000000000E+00 -0.00000000000E+00 -0.45593999997E+02  0.45594000000E+02  0.51100000000E-03 0. -1.
    9900012    2    1    2    0    0  0.10327985080E+01 -0.53013108070E+00 -0.21282454973E+00  0.90007743244E+02  0.90000004655E+02 0.  0.
        -12    1    1    2    0    0 -0.10327985080E+01  0.53013108070E+00  0.21282454973E+00  0.11802567559E+01  0.00000000000E+00 0.  1.
         11    1    3    3    0    0 -0.25928171115E+01  0.64593423598E+01 -0.62366217927E+01  0.93456543881E+01  0.51100000000E-03 0. -1.
        -11    1    3    3    0    0 -0.31185938956E+02  0.11913940449E+02  0.19689776693E+02  0.38758122660E+02  0.51100000000E-03 0.  1.
         12    1    3    3    0    0  0.34811554576E+02 -0.18903413890E+02 -0.13665979450E+02  0.41903966196E+02  0.00000000000E+00 0. -1.
</event>
<event>
 7    1  0.1654239E-015  0.9000777E+02  0.7816164E-02  0.1186339E+00
        -11   -1    0    0    0    0  0.00000000000E+00  0.00000000000E+00  0.45593999997E+02  0.45594000000E+02  0.51100000000E-03 0.  1.
         11   -1    0    0    0    0 -0.00000000000E+00 -0.00000000000E+00 -0.45593999997E+02  0.45594000000E+02  0.51100000000E-03 0. -1.
    9900012    2    1    2    0    0  0.20840263206E-01  0.45889054400E-01 -0.11791521817E+01  0.90007771213E+02  0.90000032993E+02 0.  0.
        -12    1    1    2    0    0 -0.20840263206E-01 -0.45889054400E-01  0.11791521817E+01  0.11802287869E+01  0.00000000000E+00 0.  1.
         11    1    3    3    0    0  0.16633214984E+02  0.18456337173E+02 -0.34925423764E+02  0.42861234792E+02  0.51100000000E-03 0. -1.
        -11    1    3    3    0    0  0.38262357539E+01 -0.80215719963E+01  0.44323642303E+01  0.99313418161E+01  0.51100000000E-03 0.  1.
        -12    1    3    3    0    0 -0.20438610474E+02 -0.10388876122E+02  0.29313907352E+02  0.37215194605E+02  0.00000000000E+00 0.  1.
</event>
<event>
 7    1  0.1654239E-015  0.9000773E+02  0.7816164E-02  0.1186339E+00
        -11   -1    0    0    0    0  0.00000000000E+00  0.00000000000E+00  0.45593999997E+02  0.45594000000E+02  0.51100000000E-03 0.  1.
         11   -1    0    0    0    0 -0.00000000000E+00 -0.00000000000E+00 -0.45593999997E+02  0.45594000000E+02  0.51100000000E-03 0. -1.
    9900012    2    1    2    0    0  0.11158021941E+01 -0.29854708835E-01  0.38359124947E+00  0.90007725419E+02  0.89999986595E+02 0.  0.
        -12    1    1    2    0    0 -0.11158021941E+01  0.29854708835E-01 -0.38359124947E+00  0.11802745810E+01  0.00000000000E+00 0.  1.
         11    1    3    3    0    0 -0.18534992638E+02  0.15523417951E+02 -0.31571064242E+02  0.39764991570E+02  0.51100000000E-03 0. -1.
        -11    1    3    3    0    0 -0.74655009723E+00 -0.88323739049E+01 -0.28799371617E+01  0.93199894936E+01  0.51100000000E-03 0.  1.
        -12    1    3    3    0    0  0.20397344929E+02 -0.67208987552E+01  0.34834592653E+02  0.40922744355E+02  0.00000000000E+00 0.  1.
</event>
<event>
 7    1  0.1654239E-015  0.9000811E+02  0.7816164E-02  0.1186338E+00
        -11   -1    0    0    0    0  0.00000000000E+00  0.00000000000E+00  0.45593999997E+02  0.45594000000E+02  0.51100000000E-03 0.  1.
         11   -1    0    0    0    0 -0.00000000000E+00 -0.00000000000E+00 -0.45593999997E+02  0.45594000000E+02  0.51100000000E-03 0. -1.
    9900012    2    1    2    0    0  0.42711919883E+00 -0.40962001199E+00 -0.10207436314E+01  0.90008111478E+02  0.90000377748E+02 0.  0.
        -12    1    1    2    0    0 -0.42711919883E+00  0.40962001199E+00  0.10207436314E+01  0.11798885224E+01  0.00000000000E+00 0.  1.
         11    1    3    3    0    0  0.47382387430E+01  0.11806397386E+02  0.11567095687E+02  0.17194174261E+02  0.51100000000E-03 0. -1.
        -11    1    3    3    0    0 -0.17403474109E+02  0.24770774224E+02  0.33638596955E+01  0.30459607993E+02  0.51100000000E-03 0.  1.
         12    1    3    3    0    0  0.13092354565E+02 -0.36986791623E+02 -0.15951699014E+02  0.42354329224E+02  0.00000000000E+00 0. -1.
</event>
<event>
 7    1  0.1654239E-015  0.9000770E+02  0.7816164E-02  0.1186339E+00
        -11   -1    0    0    0    0  0.00000000000E+00  0.00000000000E+00  0.45593999997E+02  0.45594000000E+02  0.51100000000E-03 0.  1.
         11   -1    0    0    0    0 -0.00000000000E+00 -0.00000000000E+00 -0.45593999997E+02  0.45594000000E+02  0.51100000000E-03 0. -1.
    9900012    2    1    2    0    0  0.93178410764E-01 -0.27127420578E+00 -0.11449201328E+01  0.90007697487E+02  0.89999958294E+02 0.  0.
        -12    1    1    2    0    0 -0.93178410764E-01  0.27127420578E+00  0.11449201328E+01  0.11803025126E+01  0.00000000000E+00 0.  1.
         11    1    3    3    0    0 -0.99065467925E+01 -0.12953790619E+01 -0.52774915873E+01  0.11299097043E+02  0.51100000000E-03 0. -1.
        -11    1    3    3    0    0 -0.34019104004E+01 -0.59220608099E+01  0.39588461338E+02  0.40173250677E+02  0.51100000000E-03 0.  1.
         12    1    3    3    0    0  0.13401635604E+02  0.69461656660E+01 -0.35455889883E+02  0.38535349768E+02  0.00000000000E+00 0. -1.
</event>
<event>
 7    1  0.1654239E-015  0.9000783E+02  0.7816164E-02  0.1186339E+00
        -11   -1    0    0    0    0  0.00000000000E+00  0.00000000000E+00  0.45593999997E+02  0.45594000000E+02  0.51100000000E-03 0. -1.
         11   -1    0    0    0    0 -0.00000000000E+00 -0.00000000000E+00 -0.45593999997E+02  0.45594000000E+02  0.51100000000E-03 0.  1.
    9900012    2    1    2    0    0 -0.90591468287E-01  0.10117445102E+01  0.60079921014E+00  0.90007833292E+02  0.90000095891E+02 0.  0.
        -12    1    1    2    0    0  0.90591468287E-01 -0.10117445102E+01 -0.60079921014E+00  0.11801667081E+01  0.00000000000E+00 0.  1.
         11    1    3    3    0    0 -0.43192213220E+01  0.61258662374E+01  0.44267325266E+00  0.75085198180E+01  0.51100000000E-03 0. -1.
        -11    1    3    3    0    0 -0.33948147916E+02 -0.42156795335E+01 -0.19680685184E+02  0.39466163615E+02  0.51100000000E-03 0.  1.
         12    1    3    3    0    0  0.38176777770E+02 -0.89844219367E+00  0.19838811142E+02  0.43033149859E+02  0.00000000000E+00 0. -1.
</event>
<event>
 7    1  0.1654239E-015  0.9000772E+02  0.7816164E-02  0.1186339E+00
        -11   -1    0    0    0    0  0.00000000000E+00  0.00000000000E+00  0.45593999997E+02  0.45594000000E+02  0.51100000000E-03 0.  1.
         11   -1    0    0    0    0 -0.00000000000E+00 -0.00000000000E+00 -0.45593999997E+02  0.45594000000E+02  0.51100000000E-03 0. -1.
    9900012    2    1    2    0    0 -0.66572964524E+00 -0.97272849164E+00 -0.60574750661E-01  0.90007717839E+02  0.89999978915E+02 0.  0.
        -12    1    1    2    0    0  0.66572964524E+00  0.97272849164E+00  0.60574750661E-01  0.11802821609E+01  0.00000000000E+00 0.  1.
         11    1    3    3    0    0 -0.24528792095E+01 -0.16931385198E+02  0.31230550737E+00  0.17110989338E+02  0.51100000000E-03 0. -1.
        -11    1    3    3    0    0 -0.23042656043E+02  0.32173899847E+02 -0.11517470815E+02  0.41216209956E+02  0.51100000000E-03 0.  1.
         12    1    3    3    0    0  0.24829805607E+02 -0.16215243141E+02  0.11144590557E+02  0.31680518545E+02  0.00000000000E+00 0. -1.
</event>
<event>
 7    1  0.1654239E-015  0.9000778E+02  0.7816164E-02  0.1186339E+00
        -11   -1    0    0    0    0  0.00000000000E+00  0.00000000000E+00  0.45593999997E+02  0.45594000000E+02  0.51100000000E-03 0.  1.
         11   -1    0    0    0    0 -0.00000000000E+00 -0.00000000000E+00 -0.45593999997E+02  0.45594000000E+02  0.51100000000E-03 0. -1.
    9900012    2    1    2    0    0 -0.40641829470E+00 -0.42858057388E+00 -0.10217879369E+01  0.90007784881E+02  0.90000046842E+02 0.  0.
        -12    1    1    2    0    0  0.40641829470E+00  0.42858057388E+00  0.10217879369E+01  0.11802151187E+01  0.00000000000E+00 0.  1.
         11    1    3    3    0    0 -0.37575794105E+01 -0.32743990413E+01  0.52454357393E+01  0.72357230782E+01  0.51100000000E-03 0. -1.
        -11    1    3    3    0    0  0.27876215492E+02 -0.30344698281E+02 -0.15459628061E+01  0.41234380135E+02  0.51100000000E-03 0.  1.
         12    1    3    3    0    0 -0.24525054376E+02  0.33190516748E+02 -0.47212608700E+01  0.41537681668E+02  0.00000000000E+00 0. -1.
</event>
<event>
 7    1  0.1654239E-015  0.9000775E+02  0.7816164E-02  0.1186339E+00
        -11   -1    0    0    0    0  0.00000000000E+00  0.00000000000E+00  0.45593999997E+02  0.45594000000E+02  0.51100000000E-03 0.  1.
         11   -1    0    0    0    0 -0.00000000000E+00 -0.00000000000E+00 -0.45593999997E+02  0.45594000000E+02  0.51100000000E-03 0. -1.
    9900012    2    1    2    0    0 -0.73925550823E+00  0.19680674288E+00 -0.89875236841E+00  0.90007751119E+02  0.90000012634E+02 0.  0.
        -12    1    1    2    0    0  0.73925550823E+00 -0.19680674288E+00  0.89875236841E+00  0.11802488806E+01  0.00000000000E+00 0.  1.
         11    1    3    3    0    0  0.19319669088E+02 -0.30470719933E+02  0.33337614990E+00  0.36080819376E+02  0.51100000000E-03 0. -1.
        -11    1    3    3    0    0 -0.17592264699E+01 -0.94328457388E+01 -0.21724790879E+01  0.98383495645E+01  0.51100000000E-03 0.  1.
        -12    1    3    3    0    0 -0.18299698127E+02  0.40100372415E+02  0.94035056964E+00  0.44088582179E+02  0.00000000000E+00 0.  1.
</event>
<event>
 7    1  0.1654239E-015  0.9000767E+02  0.7816164E-02  0.1186339E+00
        -11   -1    0    0    0    0  0.00000000000E+00  0.00000000000E+00  0.45593999997E+02  0.45594000000E+02  0.51100000000E-03 0.  1.
         11   -1    0    0    0    0 -0.00000000000E+00 -0.00000000000E+00 -0.45593999997E+02  0.45594000000E+02  0.51100000000E-03 0. -1.
    9900012    2    1    2    0    0 -0.10598085913E+01 -0.29070301773E+00 -0.43067002976E+00  0.90007669890E+02  0.89999930332E+02 0.  0.
        -12    1    1    2    0    0  0.10598085913E+01  0.29070301773E+00  0.43067002976E+00  0.11803301103E+01  0.00000000000E+00 0.  1.
         11    1    3    3    0    0 -0.58869235066E+01  0.99841396318E+01  0.53029072353E+00  0.11602591136E+02  0.51100000000E-03 0. -1.
        -11    1    3    3    0    0 -0.35804348778E+02 -0.11402382717E+02 -0.30846691099E+01  0.37702531835E+02  0.51100000000E-03 0.  1.
         12    1    3    3    0    0  0.40631463693E+02  0.11275400677E+01  0.21237083566E+01  0.40702546918E+02  0.00000000000E+00 0. -1.
</event>
<event>
 7    1  0.1654239E-015  0.9000776E+02  0.7816164E-02  0.1186339E+00
        -11   -1    0    0    0    0  0.00000000000E+00  0.00000000000E+00  0.45593999997E+02  0.45594000000E+02  0.51100000000E-03 0. -1.
         11   -1    0    0    0    0 -0.00000000000E+00 -0.00000000000E+00 -0.45593999997E+02  0.45594000000E+02  0.51100000000E-03 0.  1.
    9900012    2    1    2    0    0  0.19932870595E+00  0.11631932281E+01 -0.14890683157E-01  0.90007757588E+02  0.90000019188E+02 0.  0.
        -12    1    1    2    0    0 -0.19932870595E+00 -0.11631932281E+01  0.14890683157E-01  0.11802424121E+01  0.00000000000E+00 0.  1.
         11    1    3    3    0    0 -0.10682163887E+02 -0.73074431584E+01 -0.15813453647E+02  0.20434594866E+02  0.51100000000E-03 0. -1.
        -11    1    3    3    0    0 -0.20905880856E+02 -0.94636505039E+01 -0.98415668040E+01  0.24969440775E+02  0.51100000000E-03 0.  1.
         12    1    3    3    0    0  0.31787373448E+02  0.17934286890E+02  0.25640129768E+02  0.44603721947E+02  0.00000000000E+00 0. -1.
</event>
<event>
 7    1  0.1654239E-015  0.9000777E+02  0.7816164E-02  0.1186339E+00
        -11   -1    0    0    0    0  0.00000000000E+00  0.00000000000E+00  0.45593999997E+02  0.45594000000E+02  0.51100000000E-03 0.  1.
         11   -1    0    0    0    0 -0.00000000000E+00 -0.00000000000E+00 -0.45593999997E+02  0.45594000000E+02  0.51100000000E-03 0. -1.
    9900012    2    1    2    0    0 -0.97523799533E+00 -0.46921682075E+00 -0.47084864425E+00  0.90007766117E+02  0.90000027830E+02 0.  0.
        -12    1    1    2    0    0  0.97523799533E+00  0.46921682075E+00  0.47084864425E+00  0.11802338828E+01  0.00000000000E+00 0.  1.
         11    1    3    3    0    0  0.74999726644E+01  0.69809582640E+01  0.32606050727E+01  0.10752437582E+02  0.51100000000E-03 0. -1.
        -11    1    3    3    0    0  0.24839846396E+02  0.19816702615E+02 -0.14423865405E+02  0.34896526547E+02  0.51100000000E-03 0.  1.
         12    1    3    3    0    0 -0.33315057056E+02 -0.27266877700E+02  0.10692411688E+02  0.44358801989E+02  0.00000000000E+00 0. -1.
</event>
<event>
 7    1  0.1654239E-015  0.9000775E+02  0.7816164E-02  0.1186339E+00
        -11   -1    0    0    0    0  0.00000000000E+00  0.00000000000E+00  0.45593999997E+02  0.45594000000E+02  0.51100000000E-03 0.  1.
         11   -1    0    0    0    0 -0.00000000000E+00 -0.00000000000E+00 -0.45593999997E+02  0.45594000000E+02  0.51100000000E-03 0. -1.
    9900012    2    1    2    0    0 -0.19673779709E-01 -0.11385364368E+01 -0.31037389503E+00  0.90007752471E+02  0.90000014003E+02 0.  0.
        -12    1    1    2    0    0  0.19673779709E-01  0.11385364368E+01  0.31037389503E+00  0.11802475293E+01  0.00000000000E+00 0.  1.
         11    1    3    3    0    0 -0.30734922345E+02 -0.16612368642E+02  0.20296886904E+02  0.40405072228E+02  0.51100000000E-03 0. -1.
        -11    1    3    3    0    0 -0.52548745893E+01  0.49655054446E+01 -0.59542657336E+01  0.93660681161E+01  0.51100000000E-03 0.  1.
        -12    1    3    3    0    0  0.35970123155E+02  0.10508326761E+02 -0.14652995065E+02  0.40236612127E+02  0.00000000000E+00 0.  1.
</event>
<event>
 7    1  0.1654239E-015  0.9000782E+02  0.7816164E-02  0.1186339E+00
        -11   -1    0    0    0    0  0.00000000000E+00  0.00000000000E+00  0.45593999997E+02  0.45594000000E+02  0.51100000000E-03 0.  1.
         11   -1    0    0    0    0 -0.00000000000E+00 -0.00000000000E+00 -0.45593999997E+02  0.45594000000E+02  0.51100000000E-03 0. -1.
    9900012    2    1    2    0    0  0.78943945242E+00 -0.82503705927E-01 -0.87338862217E+00  0.90007818151E+02  0.90000080551E+02 0.  0.
        -12    1    1    2    0    0 -0.78943945242E+00  0.82503705927E-01  0.87338862217E+00  0.11801818486E+01  0.00000000000E+00 0.  1.
         11    1    3    3    0    0  0.17449690278E+01  0.24053276182E+01  0.74964019665E+01  0.80639047963E+01  0.51100000000E-03 0. -1.
        -11    1    3    3    0    0  0.39885316450E+02  0.39033552909E+01 -0.61647825102E+01  0.40547246448E+02  0.51100000000E-03 0.  1.
         12    1    3    3    0    0 -0.40840846025E+02 -0.63911866150E+01 -0.22050080785E+01  0.41396666907E+02  0.00000000000E+00 0. -1.
</event>
<event>
 7    1  0.1654239E-015  0.9000770E+02  0.7816164E-02  0.1186339E+00
        -11   -1    0    0    0    0  0.00000000000E+00  0.00000000000E+00  0.45593999997E+02  0.45594000000E+02  0.51100000000E-03 0.  1.
         11   -1    0    0    0    0 -0.00000000000E+00 -0.00000000000E+00 -0.45593999997E+02  0.45594000000E+02  0.51100000000E-03 0. -1.
    9900012    2    1    2    0    0  0.87297610591E+00  0.56622537727E+00 -0.55714593971E+00  0.90007699167E+02  0.89999959996E+02 0.  0.
        -12    1    1    2    0    0 -0.87297610591E+00 -0.56622537727E+00  0.55714593971E+00  0.11803008335E+01  0.00000000000E+00 0.  1.
         11    1    3    3    0    0  0.38683328371E+01 -0.66860107822E+00 -0.75731250683E+01  0.85301377423E+01  0.51100000000E-03 0. -1.
        -11    1    3    3    0    0 -0.11024632706E+02  0.39782756028E+02  0.81816917324E+01  0.42085036335E+02  0.51100000000E-03 0.  1.
         12    1    3    3    0    0  0.80292759749E+01 -0.38547929572E+02 -0.11657126038E+01  0.39392525089E+02  0.00000000000E+00 0. -1.
</event>
<event>
 7    1  0.1654239E-015  0.9000775E+02  0.7816164E-02  0.1186339E+00
        -11   -1    0    0    0    0  0.00000000000E+00  0.00000000000E+00  0.45593999997E+02  0.45594000000E+02  0.51100000000E-03 0. -1.
         11   -1    0    0    0    0 -0.00000000000E+00 -0.00000000000E+00 -0.45593999997E+02  0.45594000000E+02  0.51100000000E-03 0.  1.
    9900012    2    1    2    0    0  0.65071307355E+00  0.26367957529E+00  0.94870801329E+00  0.90007745232E+02  0.90000006669E+02 0.  0.
        -12    1    1    2    0    0 -0.65071307355E+00 -0.26367957529E+00 -0.94870801329E+00  0.11802547678E+01  0.00000000000E+00 0.  1.
         11    1    3    3    0    0  0.25241847190E+02  0.77941952652E+01  0.26092043226E+02  0.37130783043E+02  0.51100000000E-03 0. -1.
        -11    1    3    3    0    0  0.83571260356E+01  0.59050124086E+01 -0.19889769289E+01  0.10424334828E+02  0.51100000000E-03 0.  1.
        -12    1    3    3    0    0 -0.32948260152E+02 -0.13435528099E+02 -0.23154358284E+02  0.42452627361E+02  0.00000000000E+00 0.  1.
</event>
<event>
 7    1  0.1975423E-015  0.9000780E+02  0.7816164E-02  0.1186339E+00
        -11   -1    0    0    0    0  0.00000000000E+00  0.00000000000E+00  0.45593999997E+02  0.45594000000E+02  0.51100000000E-03 0.  1.
         11   -1    0    0    0    0 -0.00000000000E+00 -0.00000000000E+00 -0.45593999997E+02  0.45594000000E+02  0.51100000000E-03 0. -1.
    9900012    2    1    2    0    0 -0.10770994843E+01 -0.29198227769E+00 -0.38401740766E+00  0.90007802424E+02  0.90000064616E+02 0.  0.
        -12    1    1    2    0    0  0.10770994843E+01  0.29198227769E+00  0.38401740766E+00  0.11801975763E+01  0.00000000000E+00 0.  1.
         11    1    3    3    0    0 -0.96766022055E+00  0.43509306942E+01 -0.83893777588E+01  0.94999275601E+01  0.51100000000E-03 0. -1.
        -11    1    3    3    0    0 -0.13757353860E+02  0.34578981617E+02  0.11179696380E+02  0.38858157011E+02  0.51100000000E-03 0.  1.
         12    1    3    3    0    0  0.13647914596E+02 -0.39221894589E+02 -0.31743360288E+01  0.41649717852E+02  0.00000000000E+00 0. -1.
</event>
<event>
 7    1  0.1654239E-015  0.9000776E+02  0.7816164E-02  0.1186339E+00
        -11   -1    0    0    0    0  0.00000000000E+00  0.00000000000E+00  0.45593999997E+02  0.45594000000E+02  0.51100000000E-03 0. -1.
         11   -1    0    0    0    0 -0.00000000000E+00 -0.00000000000E+00 -0.45593999997E+02  0.45594000000E+02  0.51100000000E-03 0.  1.
    9900012    2    1    2    0    0  0.79147865469E+00  0.78422305708E+00  0.38925932451E+00  0.90007759734E+02  0.90000021362E+02 0.  0.
        -12    1    1    2    0    0 -0.79147865469E+00 -0.78422305708E+00 -0.38925932451E+00  0.11802402661E+01  0.00000000000E+00 0.  1.
         11    1    3    3    0    0  0.96771785497E+01 -0.30279729286E+02 -0.15160912640E+02  0.35218788489E+02  0.51100000000E-03 0. -1.
        -11    1    3    3    0    0  0.13107443492E+01 -0.10052685565E+02  0.38109489002E+01  0.10830414101E+02  0.51100000000E-03 0.  1.
        -12    1    3    3    0    0 -0.10196444244E+02  0.41116637907E+02  0.11739223064E+02  0.43958557144E+02  0.00000000000E+00 0.  1.
</event>
<event>
 7    1  0.1654239E-015  0.9000776E+02  0.7816164E-02  0.1186339E+00
        -11   -1    0    0    0    0  0.00000000000E+00  0.00000000000E+00  0.45593999997E+02  0.45594000000E+02  0.51100000000E-03 0.  1.
         11   -1    0    0    0    0 -0.00000000000E+00 -0.00000000000E+00 -0.45593999997E+02  0.45594000000E+02  0.51100000000E-03 0. -1.
    9900012    2    1    2    0    0  0.11356894348E+01 -0.13890648113E+00  0.28962130579E+00  0.90007760192E+02  0.90000021827E+02 0.  0.
        -12    1    1    2    0    0 -0.11356894348E+01  0.13890648113E+00 -0.28962130579E+00  0.11802398076E+01  0.00000000000E+00 0.  1.
         11    1    3    3    0    0 -0.38202143373E+02 -0.84294625145E+00  0.19775081556E+02  0.43025203863E+02  0.51100000000E-03 0. -1.
        -11    1    3    3    0    0  0.36155200363E+01 -0.79399234241E+00 -0.89867988110E+01  0.97193087255E+01  0.51100000000E-03 0.  1.
        -12    1    3    3    0    0  0.35722312771E+02  0.14980321127E+01 -0.10498661439E+02  0.37263247604E+02  0.00000000000E+00 0.  1.
</event>
<event>
 7    1  0.1798283E-015  0.9000742E+02  0.7816164E-02  0.1186340E+00
        -11   -1    0    0    0    0  0.00000000000E+00  0.00000000000E+00  0.45593999997E+02  0.45594000000E+02  0.51100000000E-03 0.  1.
         11   -1    0    0    0    0 -0.00000000000E+00 -0.00000000000E+00 -0.45593999997E+02  0.45594000000E+02  0.51100000000E-03 0. -1.
    9900012    2    1    2    0    0  0.82530934442E+00 -0.54268512454E+00 -0.64662707437E+00  0.90007419960E+02  0.89999677103E+02 0.  0.
        -12    1    1    2    0    0 -0.82530934442E+00  0.54268512454E+00  0.64662707437E+00  0.11805800404E+01  0.00000000000E+00 0.  1.
         11    1    3    3    0    0 -0.80586472977E+01  0.10639010717E+01  0.57127790380E+01  0.99352667986E+01  0.51100000000E-03 0. -1.
        -11    1    3    3    0    0  0.16636686071E+02  0.12343551359E+02  0.32229601777E+02  0.38313050186E+02  0.51100000000E-03 0.  1.
         12    1    3    3    0    0 -0.77527294289E+01 -0.13950137555E+02 -0.38589007890E+02  0.41759102975E+02  0.00000000000E+00 0. -1.
</event>
<event>
 7    1  0.1654239E-015  0.9000772E+02  0.7816164E-02  0.1186339E+00
        -11   -1    0    0    0    0  0.00000000000E+00  0.00000000000E+00  0.45593999997E+02  0.45594000000E+02  0.51100000000E-03 0. -1.
         11   -1    0    0    0    0 -0.00000000000E+00 -0.00000000000E+00 -0.45593999997E+02  0.45594000000E+02  0.51100000000E-03 0.  1.
    9900012    2    1    2    0    0 -0.82802777290E-02 -0.71217194797E+00  0.94117560972E+00  0.90007716570E+02  0.89999977629E+02 0.  0.
        -12    1    1    2    0    0  0.82802777290E-02  0.71217194797E+00 -0.94117560972E+00  0.11802834299E+01  0.00000000000E+00 0.  1.
         11    1    3    3    0    0  0.11043341957E+02 -0.14587089352E+02 -0.31642081106E+02  0.36550784866E+02  0.51100000000E-03 0. -1.
        -11    1    3    3    0    0 -0.37742464042E+01 -0.13229660998E+02  0.67985561800E+01  0.15345658423E+02  0.51100000000E-03 0.  1.
        -12    1    3    3    0    0 -0.72773758307E+01  0.27104578402E+02  0.25784700536E+02  0.38111273281E+02  0.00000000000E+00 0.  1.
</event>
<event>
 7    1  0.1654239E-015  0.9000775E+02  0.7816164E-02  0.1186339E+00
        -11   -1    0    0    0    0  0.00000000000E+00  0.00000000000E+00  0.45593999997E+02  0.45594000000E+02  0.51100000000E-03 0. -1.
         11   -1    0    0    0    0 -0.00000000000E+00 -0.00000000000E+00 -0.45593999997E+02  0.45594000000E+02  0.51100000000E-03 0.  1.
    9900012    2    1    2    0    0  0.46962943094E+00  0.44304929547E+00  0.98800067381E+00  0.90007750106E+02  0.90000011607E+02 0.  0.
        -12    1    1    2    0    0 -0.46962943095E+00 -0.44304929547E+00 -0.98800067381E+00  0.11802498939E+01  0.00000000000E+00 0.  1.
         11    1    3    3    0    0 -0.29469300930E+01 -0.78864892623E+00  0.97139701584E+01  0.10181727781E+02  0.51100000000E-03 0. -1.
        -11    1    3    3    0    0 -0.31999658225E+02  0.78374018980E+01 -0.23933173058E+02  0.40720999103E+02  0.51100000000E-03 0.  1.
         12    1    3    3    0    0  0.35416217749E+02 -0.66057036763E+01  0.15207203573E+02  0.39105023223E+02  0.00000000000E+00 0. -1.
</event>
<event>
 7    1  0.1654239E-015  0.9000762E+02  0.7816164E-02  0.1186339E+00
        -11   -1    0    0    0    0  0.00000000000E+00  0.00000000000E+00  0.45593999997E+02  0.45594000000E+02  0.51100000000E-03 0. -1.
         11   -1    0    0    0    0 -0.00000000000E+00 -0.00000000000E+00 -0.45593999997E+02  0.45594000000E+02  0.51100000000E-03 0.  1.
    9900012    2    1    2    0    0  0.95223299232E+00 -0.69709777570E+00 -0.24433987560E-01  0.90007622941E+02  0.89999882764E+02 0.  0.
        -12    1    1    2    0    0 -0.95223299232E+00  0.69709777570E+00  0.24433987560E-01  0.11803770585E+01  0.00000000000E+00 0.  1.
         11    1    3    3    0    0 -0.31638124605E+02 -0.12861368615E+02  0.17316741992E+02  0.38291713002E+02  0.51100000000E-03 0. -1.
        -11    1    3    3    0    0 -0.59484547504E+01  0.79808897074E+01 -0.33190856085E+01  0.10492618547E+02  0.51100000000E-03 0.  1.
        -12    1    3    3    0    0  0.38538812348E+02  0.41833811315E+01 -0.14022090371E+02  0.41223291392E+02  0.00000000000E+00 0.  1.
</event>
<event>
 7    1  0.1654239E-015  0.9000778E+02  0.7816164E-02  0.1186339E+00
        -11   -1    0    0    0    0  0.00000000000E+00  0.00000000000E+00  0.45593999997E+02  0.45594000000E+02  0.51100000000E-03 0.  1.
         11   -1    0    0    0    0 -0.00000000000E+00 -0.00000000000E+00 -0.45593999997E+02  0.45594000000E+02  0.51100000000E-03 0. -1.
    9900012    2    1    2    0    0 -0.67753875762E+00  0.62730567526E+00 -0.73507921404E+00  0.90007782804E+02  0.90000044737E+02 0.  0.
        -12    1    1    2    0    0  0.67753875762E+00 -0.62730567526E+00  0.73507921404E+00  0.11802171958E+01  0.00000000000E+00 0.  1.
         11    1    3    3    0    0 -0.44390533549E+01  0.97134894584E+01 -0.45830362053E+01  0.11621587382E+02  0.51100000000E-03 0. -1.
        -11    1    3    3    0    0 -0.27963354431E+02  0.12842621116E+02  0.19864830449E+02  0.36626405737E+02  0.51100000000E-03 0.  1.
         12    1    3    3    0    0  0.31724869029E+02 -0.21928804899E+02 -0.16016873458E+02  0.41759789685E+02  0.00000000000E+00 0. -1.
</event>
<event>
 7    1  0.1654239E-015  0.9000776E+02  0.7816164E-02  0.1186339E+00
        -11   -1    0    0    0    0  0.00000000000E+00  0.00000000000E+00  0.45593999997E+02  0.45594000000E+02  0.51100000000E-03 0.  1.
         11   -1    0    0    0    0 -0.00000000000E+00 -0.00000000000E+00 -0.45593999997E+02  0.45594000000E+02  0.51100000000E-03 0. -1.
    9900012    2    1    2    0    0 -0.95782549095E+00 -0.32449382824E+00 -0.60846537284E+00  0.90007764419E+02  0.90000026110E+02 0.  0.
        -12    1    1    2    0    0  0.95782549095E+00  0.32449382824E+00  0.60846537284E+00  0.11802355806E+01  0.00000000000E+00 0.  1.
         11    1    3    3    0    0  0.30019670861E+01 -0.32884355346E+01 -0.41948521543E+01  0.61173850221E+01  0.51100000000E-03 0. -1.
        -11    1    3    3    0    0  0.18180814439E+02  0.11396103969E+02  0.37094000228E+02  0.42852981839E+02  0.51100000000E-03 0.  1.
         12    1    3    3    0    0 -0.22140607016E+02 -0.84321622626E+01 -0.33507613446E+02  0.41037397558E+02  0.00000000000E+00 0. -1.
</event>
<event>
 7    1  0.1654239E-015  0.9000775E+02  0.7816164E-02  0.1186339E+00
        -11   -1    0    0    0    0  0.00000000000E+00  0.00000000000E+00  0.45593999997E+02  0.45594000000E+02  0.51100000000E-03 0.  1.
         11   -1    0    0    0    0 -0.00000000000E+00 -0.00000000000E+00 -0.45593999997E+02  0.45594000000E+02  0.51100000000E-03 0. -1.
    9900012    2    1    2    0    0  0.42517936881E+00  0.10620061760E+01  0.29043151421E+00  0.90007752112E+02  0.90000013640E+02 0.  0.
        -12    1    1    2    0    0 -0.42517936881E+00 -0.10620061760E+01 -0.29043151421E+00  0.11802478884E+01  0.00000000000E+00 0.  1.
         11    1    3    3    0    0  0.57883222571E+01 -0.63934282044E+01 -0.40305583019E+01  0.95197688650E+01  0.51100000000E-03 0. -1.
        -11    1    3    3    0    0  0.29251767088E+01 -0.35485083174E+02 -0.44548559220E+01  0.35883053496E+02  0.51100000000E-03 0.  1.
         12    1    3    3    0    0 -0.82883195971E+01  0.42940517555E+02  0.87758457381E+01  0.44604929750E+02  0.00000000000E+00 0. -1.
</event>
<event>
 7    1  0.1654239E-015  0.9000776E+02  0.7816164E-02  0.1186339E+00
        -11   -1    0    0    0    0  0.00000000000E+00  0.00000000000E+00  0.45593999997E+02  0.45594000000E+02  0.51100000000E-03 0.  1.
         11   -1    0    0    0    0 -0.00000000000E+00 -0.00000000000E+00 -0.45593999997E+02  0.45594000000E+02  0.51100000000E-03 0. -1.
    9900012    2    1    2    0    0  0.40568874699E+00  0.98645323596E+00 -0.50527550671E+00  0.90007755668E+02  0.90000017243E+02 0.  0.
        -12    1    1    2    0    0 -0.40568874699E+00 -0.98645323596E+00  0.50527550671E+00  0.11802443323E+01  0.00000000000E+00 0.  1.
         11    1    3    3    0    0  0.66056050425E+01 -0.26013609194E+01 -0.45598279660E+01  0.84376020261E+01  0.51100000000E-03 0. -1.
        -11    1    3    3    0    0  0.35004834838E+02  0.65810787617E+01  0.15282482464E+02  0.38758267895E+02  0.51100000000E-03 0.  1.
         12    1    3    3    0    0 -0.41204751133E+02 -0.29932646063E+01 -0.11227930005E+02  0.42811885746E+02  0.00000000000E+00 0. -1.
</event>
<event>
 7    1  0.1654239E-015  0.9000788E+02  0.7816164E-02  0.1186339E+00
        -11   -1    0    0    0    0  0.00000000000E+00  0.00000000000E+00  0.45593999997E+02  0.45594000000E+02  0.51100000000E-03 0. -1.
         11   -1    0    0    0    0 -0.00000000000E+00 -0.00000000000E+00 -0.45593999997E+02  0.45594000000E+02  0.51100000000E-03 0.  1.
    9900012    2    1    2    0    0  0.88022198625E+00 -0.28001028492E+00  0.73449503913E+00  0.90007881588E+02  0.90000144824E+02 0.  0.
        -12    1    1    2    0    0 -0.88022198625E+00  0.28001028492E+00 -0.73449503913E+00  0.11801184124E+01  0.00000000000E+00 0.  1.
         11    1    3    3    0    0  0.42872764651E+01  0.57805241454E+01 -0.38874132885E+01  0.81796809975E+01  0.51100000000E-03 0. -1.
        -11    1    3    3    0    0  0.22611643704E+01  0.36671994271E+02 -0.64942350573E+01  0.37311166122E+02  0.51100000000E-03 0.  1.
         12    1    3    3    0    0 -0.56682188492E+01 -0.42732528701E+02  0.11116143385E+02  0.44517034469E+02  0.00000000000E+00 0. -1.
</event>
<event>
 7    1  0.1654239E-015  0.9000772E+02  0.7816164E-02  0.1186339E+00
        -11   -1    0    0    0    0  0.00000000000E+00  0.00000000000E+00  0.45593999997E+02  0.45594000000E+02  0.51100000000E-03 0.  1.
         11   -1    0    0    0    0 -0.00000000000E+00 -0.00000000000E+00 -0.45593999997E+02  0.45594000000E+02  0.51100000000E-03 0. -1.
    9900012    2    1    2    0    0  0.76948789428E+00  0.87930038668E+00 -0.16665027464E+00  0.90007723294E+02  0.89999984441E+02 0.  0.
        -12    1    1    2    0    0 -0.76948789428E+00 -0.87930038668E+00  0.16665027464E+00  0.11802767063E+01  0.00000000000E+00 0.  1.
         11    1    3    3    0    0  0.23649890586E+02 -0.24606515921E+02 -0.12179596007E+02  0.36237280660E+02  0.51100000000E-03 0. -1.
        -11    1    3    3    0    0 -0.12452688525E+01 -0.97031548391E+01 -0.23065758545E+01  0.10050980090E+02  0.51100000000E-03 0.  1.
        -12    1    3    3    0    0 -0.21635133839E+02  0.35188971147E+02  0.14319521586E+02  0.43719462543E+02  0.00000000000E+00 0.  1.
</event>
<event>
 7    1  0.1654239E-015  0.9000759E+02  0.7816164E-02  0.1186339E+00
        -11   -1    0    0    0    0  0.00000000000E+00  0.00000000000E+00  0.45593999997E+02  0.45594000000E+02  0.51100000000E-03 0. -1.
         11   -1    0    0    0    0 -0.00000000000E+00 -0.00000000000E+00 -0.45593999997E+02  0.45594000000E+02  0.51100000000E-03 0.  1.
    9900012    2    1    2    0    0 -0.10302167302E+01 -0.67561907964E-01  0.57224607320E+00  0.90007586220E+02  0.89999845558E+02 0.  0.
        -12    1    1    2    0    0  0.10302167302E+01  0.67561907964E-01 -0.57224607320E+00  0.11804137795E+01  0.00000000000E+00 0.  1.
         11    1    3    3    0    0 -0.22431553605E+02  0.17768555353E+02  0.70218438816E+01  0.29465275295E+02  0.51100000000E-03 0. -1.
        -11    1    3    3    0    0 -0.13074691572E+02  0.91110564687E+01  0.17191438346E+01  0.16028548452E+02  0.51100000000E-03 0.  1.
        -12    1    3    3    0    0  0.34476028447E+02 -0.26947173730E+02 -0.81687416430E+01  0.44513762473E+02  0.00000000000E+00 0.  1.
</event>
<event>
 7    1  0.1654239E-015  0.9000759E+02  0.7816164E-02  0.1186339E+00
        -11   -1    0    0    0    0  0.00000000000E+00  0.00000000000E+00  0.45593999997E+02  0.45594000000E+02  0.51100000000E-03 0.  1.
         11   -1    0    0    0    0 -0.00000000000E+00 -0.00000000000E+00 -0.45593999997E+02  0.45594000000E+02  0.51100000000E-03 0. -1.
    9900012    2    1    2    0    0  0.94511960508E+00 -0.66024564616E+00 -0.25337606187E+00  0.90007587017E+02  0.89999846366E+02 0.  0.
        -12    1    1    2    0    0 -0.94511960508E+00  0.66024564616E+00  0.25337606187E+00  0.11804129828E+01  0.00000000000E+00 0.  1.
         11    1    3    3    0    0  0.11249881571E+02  0.24055062357E+01 -0.11720869087E+01  0.11563740035E+02  0.51100000000E-03 0. -1.
        -11    1    3    3    0    0  0.23930659859E+02 -0.26654660798E+02 -0.59291228820E+01  0.36308427699E+02  0.51100000000E-03 0.  1.
         12    1    3    3    0    0 -0.34235421826E+02  0.23588908916E+02  0.68478337288E+01  0.42135419283E+02  0.00000000000E+00 0. -1.
</event>
<event>
 7    1  0.1654239E-015  0.9000812E+02  0.7816164E-02  0.1186338E+00
        -11   -1    0    0    0    0  0.00000000000E+00  0.00000000000E+00  0.45593999997E+02  0.45594000000E+02  0.51100000000E-03 0. -1.
         11   -1    0    0    0    0 -0.00000000000E+00 -0.00000000000E+00 -0.45593999997E+02  0.45594000000E+02  0.51100000000E-03 0.  1.
    9900012    2    1    2    0    0 -0.17402916526E+00  0.20145805157E+00  0.11494542556E+01  0.90008120098E+02  0.90000386483E+02 0.  0.
        -12    1    1    2    0    0  0.17402916526E+00 -0.20145805157E+00 -0.11494542556E+01  0.11798799018E+01  0.00000000000E+00 0.  1.
         11    1    3    3    0    0 -0.88777385548E+01 -0.53963043864E+01 -0.63192852541E+00  0.10408346497E+02  0.51100000000E-03 0. -1.
        -11    1    3    3    0    0 -0.11011823205E+02 -0.26882373375E+02 -0.20497933855E+02  0.35554008792E+02  0.51100000000E-03 0.  1.
         12    1    3    3    0    0  0.19715532595E+02  0.32480135813E+02  0.22279316636E+02  0.44045764810E+02  0.00000000000E+00 0. -1.
</event>
<event>
 7    1  0.1654239E-015  0.9000784E+02  0.7816164E-02  0.1186339E+00
        -11   -1    0    0    0    0  0.00000000000E+00  0.00000000000E+00  0.45593999997E+02  0.45594000000E+02  0.51100000000E-03 0. -1.
         11   -1    0    0    0    0 -0.00000000000E+00 -0.00000000000E+00 -0.45593999997E+02  0.45594000000E+02  0.51100000000E-03 0.  1.
    9900012    2    1    2    0    0 -0.53380850514E+00  0.39064410162E+00  0.97735252506E+00  0.90007842259E+02  0.90000104977E+02 0.  0.
        -12    1    1    2    0    0  0.53380850514E+00 -0.39064410162E+00 -0.97735252506E+00  0.11801577405E+01  0.00000000000E+00 0.  1.
         11    1    3    3    0    0 -0.73135551502E+01  0.89918260547E+01  0.94990892340E+01  0.14985783972E+02  0.51100000000E-03 0. -1.
        -11    1    3    3    0    0 -0.82672836639E+01  0.23495418748E+02 -0.25562117501E+02  0.35690398327E+02  0.51100000000E-03 0.  1.
         12    1    3    3    0    0  0.15047030309E+02 -0.32096600701E+02  0.17040380792E+02  0.39331659960E+02  0.00000000000E+00 0. -1.
</event>
<event>
 7    1  0.1654239E-015  0.9000773E+02  0.7816164E-02  0.1186339E+00
        -11   -1    0    0    0    0  0.00000000000E+00  0.00000000000E+00  0.45593999997E+02  0.45594000000E+02  0.51100000000E-03 0.  1.
         11   -1    0    0    0    0 -0.00000000000E+00 -0.00000000000E+00 -0.45593999997E+02  0.45594000000E+02  0.51100000000E-03 0. -1.
    9900012    2    1    2    0    0 -0.32315771814E+00  0.55536303168E+00 -0.99003690762E+00  0.90007732197E+02  0.89999993462E+02 0.  0.
        -12    1    1    2    0    0  0.32315771814E+00 -0.55536303168E+00  0.99003690762E+00  0.11802678027E+01  0.00000000000E+00 0.  1.
         11    1    3    3    0    0  0.16859591430E+02  0.28176414778E+02 -0.21915308811E+02  0.39477043120E+02  0.51100000000E-03 0. -1.
        -11    1    3    3    0    0  0.62978053515E+01  0.27138184750E+01  0.67847648111E+01  0.96467713129E+01  0.51100000000E-03 0.  1.
        -12    1    3    3    0    0 -0.23480554500E+02 -0.30334870221E+02  0.14140507093E+02  0.40883917765E+02  0.00000000000E+00 0.  1.
</event>
<event>
 7    1  0.1654239E-015  0.9000769E+02  0.7816164E-02  0.1186339E+00
        -11   -1    0    0    0    0  0.00000000000E+00  0.00000000000E+00  0.45593999997E+02  0.45594000000E+02  0.51100000000E-03 0.  1.
         11   -1    0    0    0    0 -0.00000000000E+00 -0.00000000000E+00 -0.45593999997E+02  0.45594000000E+02  0.51100000000E-03 0. -1.
    9900012    2    1    2    0    0 -0.66903060299E+00  0.22836687569E+00 -0.94518936681E+00  0.90007688043E+02  0.89999948725E+02 0.  0.
        -12    1    1    2    0    0  0.66903060299E+00 -0.22836687569E+00  0.94518936681E+00  0.11803119574E+01  0.00000000000E+00 0.  1.
         11    1    3    3    0    0 -0.19039792059E+02 -0.21515882188E+01  0.26556909219E+01  0.19344138855E+02  0.51100000000E-03 0. -1.
        -11    1    3    3    0    0 -0.39493301485E+01 -0.29689956083E+02  0.57243560118E+01  0.30493588717E+02  0.51100000000E-03 0.  1.
         12    1    3    3    0    0  0.22320091605E+02  0.32069911177E+02 -0.93252363006E+01  0.40169960471E+02  0.00000000000E+00 0. -1.
</event>
<event>
 7    1  0.1654239E-015  0.9000665E+02  0.7816164E-02  0.1186341E+00
        -11   -1    0    0    0    0  0.00000000000E+00  0.00000000000E+00  0.45593999997E+02  0.45594000000E+02  0.51100000000E-03 0.  1.
         11   -1    0    0    0    0 -0.00000000000E+00 -0.00000000000E+00 -0.45593999997E+02  0.45594000000E+02  0.51100000000E-03 0. -1.
    9900012    2    1    2    0    0 -0.61196325938E+00 -0.10091042266E+01 -0.52860486191E-01  0.90006651363E+02  0.89998898354E+02 0.  0.
        -12    1    1    2    0    0  0.61196325938E+00  0.10091042266E+01  0.52860486191E-01  0.11813486369E+01  0.00000000000E+00 0.  1.
         11    1    3    3    0    0 -0.39335807079E+01 -0.63013539584E+01 -0.53720484194E+01  0.91672800425E+01  0.51100000000E-03 0. -1.
        -11    1    3    3    0    0  0.22774918737E+02 -0.51656450571E+01 -0.30709128285E+02  0.38580194046E+02  0.51100000000E-03 0.  1.
         12    1    3    3    0    0 -0.19453301288E+02  0.10457894789E+02  0.36028316218E+02  0.42259177275E+02  0.00000000000E+00 0. -1.
</event>
<event>
 7    1  0.1654239E-015  0.9000780E+02  0.7816164E-02  0.1186339E+00
        -11   -1    0    0    0    0  0.00000000000E+00  0.00000000000E+00  0.45593999997E+02  0.45594000000E+02  0.51100000000E-03 0. -1.
         11   -1    0    0    0    0 -0.00000000000E+00 -0.00000000000E+00 -0.45593999997E+02  0.45594000000E+02  0.51100000000E-03 0.  1.
    9900012    2    1    2    0    0 -0.10040015690E+01  0.61043440825E+00  0.11059655547E+00  0.90007796240E+02  0.90000058350E+02 0.  0.
        -12    1    1    2    0    0  0.10040015690E+01 -0.61043440825E+00 -0.11059655547E+00  0.11802037601E+01  0.00000000000E+00 0.  1.
         11    1    3    3    0    0  0.29227094574E+01 -0.82192369630E+01 -0.24457144798E+01  0.90597796002E+01  0.51100000000E-03 0. -1.
        -11    1    3    3    0    0 -0.38332969907E+02 -0.12311870703E+02  0.45395044185E+01  0.40516735341E+02  0.51100000000E-03 0.  1.
         12    1    3    3    0    0  0.34406258881E+02  0.21141542074E+02 -0.19831933833E+01  0.40431281298E+02  0.00000000000E+00 0. -1.
</event>
<event>
 7    1  0.1654239E-015  0.9000782E+02  0.7816164E-02  0.1186339E+00
        -11   -1    0    0    0    0  0.00000000000E+00  0.00000000000E+00  0.45593999997E+02  0.45594000000E+02  0.51100000000E-03 0. -1.
         11   -1    0    0    0    0 -0.00000000000E+00 -0.00000000000E+00 -0.45593999997E+02  0.45594000000E+02  0.51100000000E-03 0.  1.
    9900012    2    1    2    0    0 -0.73995758798E+00 -0.76230374813E+00  0.51397605517E+00  0.90007823902E+02  0.90000086378E+02 0.  0.
        -12    1    1    2    0    0  0.73995758798E+00  0.76230374813E+00 -0.51397605517E+00  0.11801760977E+01  0.00000000000E+00 0.  1.
         11    1    3    3    0    0 -0.73282030107E+00  0.69852746897E+01 -0.65976344877E+01  0.96363825774E+01  0.51100000000E-03 0. -1.
        -11    1    3    3    0    0 -0.10141975465E+02  0.13365692935E+02 -0.31225058063E+02  0.35447223661E+02  0.51100000000E-03 0.  1.
         12    1    3    3    0    0  0.10134838178E+02 -0.21113271373E+02  0.38336668606E+02  0.44924217664E+02  0.00000000000E+00 0. -1.
</event>
<event>
 7    1  0.1654239E-015  0.9000815E+02  0.7816164E-02  0.1186338E+00
        -11   -1    0    0    0    0  0.00000000000E+00  0.00000000000E+00  0.45593999997E+02  0.45594000000E+02  0.51100000000E-03 0. -1.
         11   -1    0    0    0    0 -0.00000000000E+00 -0.00000000000E+00 -0.45593999997E+02  0.45594000000E+02  0.51100000000E-03 0.  1.
    9900012    2    1    2    0    0  0.11073388959E+01  0.25499530175E+00 -0.31751775617E+00  0.90008152739E+02  0.90000419554E+02 0.  0.
        -12    1    1    2    0    0 -0.11073388959E+01 -0.25499530175E+00  0.31751775617E+00  0.11798472612E+01  0.00000000000E+00 0.  1.
         11    1    3    3    0    0 -0.30673020708E+02 -0.13696823159E+02  0.79158365831E+01  0.34512282351E+02  0.51100000000E-03 0. -1.
        -11    1    3    3    0    0 -0.79747668985E+01 -0.69351910955E+00  0.68382148658E+01  0.10528013044E+02  0.51100000000E-03 0.  1.
        -12    1    3    3    0    0  0.39755126503E+02  0.14645337570E+02 -0.15071569205E+02  0.44967857344E+02  0.00000000000E+00 0.  1.
</event>
<event>
 7    1  0.1654239E-015  0.9000780E+02  0.7816164E-02  0.1186339E+00
        -11   -1    0    0    0    0  0.00000000000E+00  0.00000000000E+00  0.45593999997E+02  0.45594000000E+02  0.51100000000E-03 0.  1.
         11   -1    0    0    0    0 -0.00000000000E+00 -0.00000000000E+00 -0.45593999997E+02  0.45594000000E+02  0.51100000000E-03 0. -1.
    9900012    2    1    2    0    0 -0.21728163569E+00 -0.83896763793E+00 -0.80112557100E+00  0.90007796548E+02  0.90000058663E+02 0.  0.
        -12    1    1    2    0    0  0.21728163569E+00  0.83896763793E+00  0.80112557100E+00  0.11802034516E+01  0.00000000000E+00 0.  1.
         11    1    3    3    0    0 -0.28799528790E+02  0.27006482322E+02 -0.16364377952E+02  0.42738224249E+02  0.51100000000E-03 0. -1.
        -11    1    3    3    0    0 -0.87056770274E+00 -0.95415149608E+01  0.91230239542E+00  0.96244839755E+01  0.51100000000E-03 0.  1.
        -12    1    3    3    0    0  0.29452814857E+02 -0.18303934999E+02  0.14650949985E+02  0.37645088324E+02  0.00000000000E+00 0.  1.
</event>
<event>
 7    1  0.1654239E-015  0.9000776E+02  0.7816164E-02  0.1186339E+00
        -11   -1    0    0    0    0  0.00000000000E+00  0.00000000000E+00  0.45593999997E+02  0.45594000000E+02  0.51100000000E-03 0. -1.
         11   -1    0    0    0    0 -0.00000000000E+00 -0.00000000000E+00 -0.45593999997E+02  0.45594000000E+02  0.51100000000E-03 0.  1.
    9900012    2    1    2    0    0  0.45048643256E+00  0.10908148382E+01 -0.12541779872E-01  0.90007757511E+02  0.90000019110E+02 0.  0.
        -12    1    1    2    0    0 -0.45048643256E+00 -0.10908148382E+01  0.12541779872E-01  0.11802424893E+01  0.00000000000E+00 0.  1.
         11    1    3    3    0    0  0.29535617696E+02 -0.18483779639E+02  0.10428634182E+02  0.36369757129E+02  0.51100000000E-03 0. -1.
        -11    1    3    3    0    0  0.77515925875E+01 -0.17701766659E+01  0.37095529376E+01  0.87739099795E+01  0.51100000000E-03 0.  1.
        -12    1    3    3    0    0 -0.36836723851E+02  0.21344771143E+02 -0.14150728900E+02  0.44864090402E+02  0.00000000000E+00 0.  1.
</event>
<event>
 7    1  0.1654239E-015  0.9000766E+02  0.7816164E-02  0.1186339E+00
        -11   -1    0    0    0    0  0.00000000000E+00  0.00000000000E+00  0.45593999997E+02  0.45594000000E+02  0.51100000000E-03 0.  1.
         11   -1    0    0    0    0 -0.00000000000E+00 -0.00000000000E+00 -0.45593999997E+02  0.45594000000E+02  0.51100000000E-03 0. -1.
    9900012    2    1    2    0    0 -0.61427202633E+00  0.16813969982E+00 -0.99378457529E+00  0.90007657311E+02  0.89999917588E+02 0.  0.
        -12    1    1    2    0    0  0.61427202633E+00 -0.16813969982E+00  0.99378457529E+00  0.11803426888E+01  0.00000000000E+00 0.  1.
         11    1    3    3    0    0 -0.78453963919E+01 -0.26069089076E+01  0.44843843312E+01  0.94051008336E+01  0.51100000000E-03 0. -1.
        -11    1    3    3    0    0  0.19676477188E+02 -0.24117257454E+02  0.23619133574E+02  0.39072616148E+02  0.51100000000E-03 0.  1.
         12    1    3    3    0    0 -0.12445352822E+02  0.26892306061E+02 -0.29097302480E+02  0.41529940330E+02  0.00000000000E+00 0. -1.
</event>
<event>
 7    1  0.1654239E-015  0.9000798E+02  0.7816164E-02  0.1186339E+00
        -11   -1    0    0    0    0  0.00000000000E+00  0.00000000000E+00  0.45593999997E+02  0.45594000000E+02  0.51100000000E-03 0.  1.
         11   -1    0    0    0    0 -0.00000000000E+00 -0.00000000000E+00 -0.45593999997E+02  0.45594000000E+02  0.51100000000E-03 0. -1.
    9900012    2    1    2    0    0 -0.49538413612E+00 -0.10547078198E+01  0.18612911710E+00  0.90007975392E+02  0.90000239867E+02 0.  0.
        -12    1    1    2    0    0  0.49538413612E+00  0.10547078198E+01 -0.18612911710E+00  0.11800246081E+01  0.00000000000E+00 0.  1.
         11    1    3    3    0    0 -0.30463393803E+02  0.74996768035E+01 -0.86861538173E+01  0.32553229986E+02  0.51100000000E-03 0. -1.
        -11    1    3    3    0    0 -0.36329608728E+00  0.25480476861E+01 -0.16301791045E+02  0.16503724507E+02  0.51100000000E-03 0.  1.
        -12    1    3    3    0    0  0.30331305754E+02 -0.11102432309E+02  0.25174073979E+02  0.40951020899E+02  0.00000000000E+00 0.  1.
</event>
<event>
 7    1  0.1654239E-015  0.9000764E+02  0.7816164E-02  0.1186339E+00
        -11   -1    0    0    0    0  0.00000000000E+00  0.00000000000E+00  0.45593999997E+02  0.45594000000E+02  0.51100000000E-03 0.  1.
         11   -1    0    0    0    0 -0.00000000000E+00 -0.00000000000E+00 -0.45593999997E+02  0.45594000000E+02  0.51100000000E-03 0. -1.
    9900012    2    1    2    0    0  0.46897107169E+00 -0.10753767952E+01  0.12990452561E+00  0.90007642299E+02  0.89999902377E+02 0.  0.
        -12    1    1    2    0    0 -0.46897107169E+00  0.10753767952E+01 -0.12990452561E+00  0.11803577015E+01  0.00000000000E+00 0.  1.
         11    1    3    3    0    0 -0.11225532200E+02  0.35047760245E+02 -0.15460810257E+02  0.39917348677E+02  0.51100000000E-03 0. -1.
        -11    1    3    3    0    0  0.52144787140E+01 -0.21424512428E+01 -0.68382600884E+01  0.88624312062E+01  0.51100000000E-03 0.  1.
        -12    1    3    3    0    0  0.64800245579E+01 -0.33980685797E+02  0.22428974871E+02  0.41227862415E+02  0.00000000000E+00 0.  1.
</event>
<event>
 7    1  0.1654239E-015  0.9000729E+02  0.7816164E-02  0.1186340E+00
        -11   -1    0    0    0    0  0.00000000000E+00  0.00000000000E+00  0.45593999997E+02  0.45594000000E+02  0.51100000000E-03 0.  1.
         11   -1    0    0    0    0 -0.00000000000E+00 -0.00000000000E+00 -0.45593999997E+02  0.45594000000E+02  0.51100000000E-03 0. -1.
    9900012    2    1    2    0    0 -0.77331854838E-01 -0.11361995445E+00 -0.11726875772E+01  0.90007285867E+02  0.89999541239E+02 0.  0.
        -12    1    1    2    0    0  0.77331854838E-01  0.11361995445E+00  0.11726875772E+01  0.11807141328E+01  0.00000000000E+00 0.  1.
         11    1    3    3    0    0 -0.90856476634E+01  0.24821671962E+02 -0.26956588878E+02  0.37753437945E+02  0.51100000000E-03 0. -1.
        -11    1    3    3    0    0 -0.82900877026E+01 -0.98494272141E+00 -0.48823978111E+01  0.96712705953E+01  0.51100000000E-03 0.  1.
        -12    1    3    3    0    0  0.17298403511E+02 -0.23950349195E+02  0.30666299112E+02  0.42582577327E+02  0.00000000000E+00 0.  1.
</event>
<event>
 7    1  0.1654239E-015  0.9000790E+02  0.7816164E-02  0.1186339E+00
        -11   -1    0    0    0    0  0.00000000000E+00  0.00000000000E+00  0.45593999997E+02  0.45594000000E+02  0.51100000000E-03 0. -1.
         11   -1    0    0    0    0 -0.00000000000E+00 -0.00000000000E+00 -0.45593999997E+02  0.45594000000E+02  0.51100000000E-03 0.  1.
    9900012    2    1    2    0    0  0.31085177691E-01  0.77833431506E+00  0.88648840348E+00  0.90007901579E+02  0.90000165079E+02 0.  0.
        -12    1    1    2    0    0 -0.31085177691E-01 -0.77833431506E+00 -0.88648840348E+00  0.11800984212E+01  0.00000000000E+00 0.  1.
         11    1    3    3    0    0  0.22334915811E+01 -0.95437240348E+01 -0.28772224140E+01  0.10215163346E+02  0.51100000000E-03 0. -1.
        -11    1    3    3    0    0 -0.22585469313E+02 -0.23262502026E+02 -0.15615030542E+02  0.35987172766E+02  0.51100000000E-03 0.  1.
         12    1    3    3    0    0  0.20383062910E+02  0.33584560376E+02  0.19378741360E+02  0.43805565467E+02  0.00000000000E+00 0. -1.
</event>
<event>
 7    1  0.1654239E-015  0.9000777E+02  0.7816164E-02  0.1186339E+00
        -11   -1    0    0    0    0  0.00000000000E+00  0.00000000000E+00  0.45593999997E+02  0.45594000000E+02  0.51100000000E-03 0. -1.
         11   -1    0    0    0    0 -0.00000000000E+00 -0.00000000000E+00 -0.45593999997E+02  0.45594000000E+02  0.51100000000E-03 0.  1.
    9900012    2    1    2    0    0 -0.10819860305E+01 -0.20413962085E+00 -0.42493664289E+00  0.90007772096E+02  0.90000033888E+02 0.  0.
        -12    1    1    2    0    0  0.10819860305E+01  0.20413962085E+00  0.42493664289E+00  0.11802279041E+01  0.00000000000E+00 0.  1.
         11    1    3    3    0    0  0.39560413168E+02 -0.13154870100E+02  0.41754067884E+00  0.41692340278E+02  0.51100000000E-03 0. -1.
        -11    1    3    3    0    0 -0.52765903199E+01 -0.31524952228E+01 -0.66146774151E+01  0.90296505525E+01  0.51100000000E-03 0.  1.
        -12    1    3    3    0    0 -0.35365808879E+02  0.16103225702E+02  0.57722000934E+01  0.39285781265E+02  0.00000000000E+00 0.  1.
</event>
<event>
 7    1  0.1654239E-015  0.9000778E+02  0.7816164E-02  0.1186339E+00
        -11   -1    0    0    0    0  0.00000000000E+00  0.00000000000E+00  0.45593999997E+02  0.45594000000E+02  0.51100000000E-03 0. -1.
         11   -1    0    0    0    0 -0.00000000000E+00 -0.00000000000E+00 -0.45593999997E+02  0.45594000000E+02  0.51100000000E-03 0.  1.
    9900012    2    1    2    0    0  0.10484232975E+01  0.52263683739E+00 -0.14345326958E+00  0.90007779887E+02  0.90000041782E+02 0.  0.
        -12    1    1    2    0    0 -0.10484232975E+01 -0.52263683739E+00  0.14345326958E+00  0.11802201130E+01  0.00000000000E+00 0.  1.
         11    1    3    3    0    0  0.55975588985E+01 -0.40023279544E+01 -0.81867317448E+00  0.69297561793E+01  0.51100000000E-03 0. -1.
        -11    1    3    3    0    0  0.84642220721E+01 -0.14616475048E+02 -0.35968188811E+02  0.39736570117E+02  0.51100000000E-03 0.  1.
         12    1    3    3    0    0 -0.13013357673E+02  0.19141439839E+02  0.36643408715E+02  0.43341453591E+02  0.00000000000E+00 0. -1.
</event>
<event>
 7    1  0.1654239E-015  0.9000783E+02  0.7816164E-02  0.1186339E+00
        -11   -1    0    0    0    0  0.00000000000E+00  0.00000000000E+00  0.45593999997E+02  0.45594000000E+02  0.51100000000E-03 0. -1.
         11   -1    0    0    0    0 -0.00000000000E+00 -0.00000000000E+00 -0.45593999997E+02  0.45594000000E+02  0.51100000000E-03 0.  1.
    9900012    2    1    2    0    0 -0.94640622917E+00  0.63894055401E+00  0.29812965069E+00  0.90007825830E+02  0.90000088331E+02 0.  0.
        -12    1    1    2    0    0  0.94640622917E+00 -0.63894055401E+00 -0.29812965069E+00  0.11801741697E+01  0.00000000000E+00 0.  1.
         11    1    3    3    0    0 -0.16795015805E+02  0.18520837270E+00  0.37360122212E+02  0.40962001782E+02  0.51100000000E-03 0. -1.
        -11    1    3    3    0    0 -0.74970858676E+01  0.93216771287E+00 -0.39405036147E+01  0.85207277946E+01  0.51100000000E-03 0.  1.
        -12    1    3    3    0    0  0.23345695443E+02 -0.47843553156E+00 -0.33121488947E+02  0.40525096253E+02  0.00000000000E+00 0.  1.
</event>
<event>
 7    1  0.1654239E-015  0.9000781E+02  0.7816164E-02  0.1186339E+00
        -11   -1    0    0    0    0  0.00000000000E+00  0.00000000000E+00  0.45593999997E+02  0.45594000000E+02  0.51100000000E-03 0.  1.
         11   -1    0    0    0    0 -0.00000000000E+00 -0.00000000000E+00 -0.45593999997E+02  0.45594000000E+02  0.51100000000E-03 0. -1.
    9900012    2    1    2    0    0 -0.28008229486E+00 -0.16704422619E-01 -0.11463533594E+01  0.90007808848E+02  0.90000071125E+02 0.  0.
        -12    1    1    2    0    0  0.28008229486E+00  0.16704422619E-01  0.11463533594E+01  0.11801911515E+01  0.00000000000E+00 0.  1.
         11    1    3    3    0    0  0.80127843714E+01 -0.34978652342E+01 -0.32512319372E+01  0.93279303143E+01  0.51100000000E-03 0. -1.
        -11    1    3    3    0    0  0.10379162755E+02  0.36741735465E+02  0.14092165538E+02  0.40697312863E+02  0.51100000000E-03 0.  1.
         12    1    3    3    0    0 -0.18672029421E+02 -0.33260574654E+02 -0.11987286960E+02  0.39982565671E+02  0.00000000000E+00 0. -1.
</event>
<event>
 7    1  0.1654239E-015  0.9000774E+02  0.7816164E-02  0.1186339E+00
        -11   -1    0    0    0    0  0.00000000000E+00  0.00000000000E+00  0.45593999997E+02  0.45594000000E+02  0.51100000000E-03 0.  1.
         11   -1    0    0    0    0 -0.00000000000E+00 -0.00000000000E+00 -0.45593999997E+02  0.45594000000E+02  0.51100000000E-03 0. -1.
    9900012    2    1    2    0    0 -0.25017323814E+00 -0.36465101830E+00 -0.10942820490E+01  0.90007741462E+02  0.90000002849E+02 0.  0.
        -12    1    1    2    0    0  0.25017323814E+00  0.36465101830E+00  0.10942820490E+01  0.11802585382E+01  0.00000000000E+00 0.  1.
         11    1    3    3    0    0  0.33471991521E+02 -0.16826547272E+02 -0.58182191796E+01  0.37912512238E+02  0.51100000000E-03 0. -1.
        -11    1    3    3    0    0 -0.39750840721E+01 -0.98703909483E+01  0.62460735500E+01  0.12338530946E+02  0.51100000000E-03 0.  1.
        -12    1    3    3    0    0 -0.29747080687E+02  0.26332287202E+02 -0.15221364194E+01  0.39756698278E+02  0.00000000000E+00 0.  1.
</event>
<event>
 7    1  0.1654239E-015  0.9000783E+02  0.7816164E-02  0.1186339E+00
        -11   -1    0    0    0    0  0.00000000000E+00  0.00000000000E+00  0.45593999997E+02  0.45594000000E+02  0.51100000000E-03 0.  1.
         11   -1    0    0    0    0 -0.00000000000E+00 -0.00000000000E+00 -0.45593999997E+02  0.45594000000E+02  0.51100000000E-03 0. -1.
    9900012    2    1    2    0    0 -0.13094516651E-01 -0.62181406779E+00 -0.10029843145E+01  0.90007829785E+02  0.90000092338E+02 0.  0.
        -12    1    1    2    0    0  0.13094516651E-01  0.62181406779E+00  0.10029843145E+01  0.11801702150E+01  0.00000000000E+00 0.  1.
         11    1    3    3    0    0  0.19823600410E+00  0.17278486452E+02 -0.10159483831E+02  0.20044962050E+02  0.51100000000E-03 0. -1.
        -11    1    3    3    0    0 -0.72760603986E+01  0.24638415513E+02  0.76899641983E+01  0.26816564350E+02  0.51100000000E-03 0.  1.
         12    1    3    3    0    0  0.70647298779E+01 -0.42538716033E+02  0.14665353185E+01  0.43146303385E+02  0.00000000000E+00 0. -1.
</event>
<event>
 7    1  0.1654239E-015  0.9000771E+02  0.7816164E-02  0.1186339E+00
        -11   -1    0    0    0    0  0.00000000000E+00  0.00000000000E+00  0.45593999997E+02  0.45594000000E+02  0.51100000000E-03 0. -1.
         11   -1    0    0    0    0 -0.00000000000E+00 -0.00000000000E+00 -0.45593999997E+02  0.45594000000E+02  0.51100000000E-03 0.  1.
    9900012    2    1    2    0    0  0.70693182725E-02 -0.80265852688E+00  0.86532057768E+00  0.90007707499E+02  0.89999968438E+02 0.  0.
        -12    1    1    2    0    0 -0.70693182725E-02  0.80265852688E+00 -0.86532057768E+00  0.11802925011E+01  0.00000000000E+00 0.  1.
         11    1    3    3    0    0 -0.54127106555E+01 -0.46860940729E+01  0.37429973368E+02  0.38108526879E+02  0.51100000000E-03 0. -1.
        -11    1    3    3    0    0  0.22005018927E+01  0.29498360515E+01  0.71577802417E+01  0.80484507553E+01  0.51100000000E-03 0.  1.
        -12    1    3    3    0    0  0.32192780810E+01  0.93359949448E+00 -0.43722433032E+02  0.43850729864E+02  0.00000000000E+00 0.  1.
</event>
<event>
 7    1  0.1654239E-015  0.9000772E+02  0.7816164E-02  0.1186339E+00
        -11   -1    0    0    0    0  0.00000000000E+00  0.00000000000E+00  0.45593999997E+02  0.45594000000E+02  0.51100000000E-03 0. -1.
         11   -1    0    0    0    0 -0.00000000000E+00 -0.00000000000E+00 -0.45593999997E+02  0.45594000000E+02  0.51100000000E-03 0.  1.
    9900012    2    1    2    0    0  0.59826144435E+00 -0.99428743863E+00  0.21573526985E+00  0.90007717842E+02  0.89999978917E+02 0.  0.
        -12    1    1    2    0    0 -0.59826144435E+00  0.99428743863E+00 -0.21573526985E+00  0.11802821583E+01  0.00000000000E+00 0.  1.
         11    1    3    3    0    0 -0.37646416126E+01 -0.81158052736E+01 -0.17839686682E+01  0.91225745369E+01  0.51100000000E-03 0. -1.
        -11    1    3    3    0    0  0.15402501964E+02 -0.28578621736E+02 -0.19403525822E+02  0.37821574553E+02  0.51100000000E-03 0.  1.
         12    1    3    3    0    0 -0.11039598907E+02  0.35700139571E+02  0.21403229760E+02  0.43063568751E+02  0.00000000000E+00 0. -1.
</event>
<event>
 7    1  0.1654239E-015  0.9000775E+02  0.7816164E-02  0.1186339E+00
        -11   -1    0    0    0    0  0.00000000000E+00  0.00000000000E+00  0.45593999997E+02  0.45594000000E+02  0.51100000000E-03 0.  1.
         11   -1    0    0    0    0 -0.00000000000E+00 -0.00000000000E+00 -0.45593999997E+02  0.45594000000E+02  0.51100000000E-03 0. -1.
    9900012    2    1    2    0    0 -0.84486784240E+00  0.38143707104E+00 -0.73054370588E+00  0.90007750019E+02  0.90000011520E+02 0.  0.
        -12    1    1    2    0    0  0.84486784240E+00 -0.38143707104E+00  0.73054370588E+00  0.11802499805E+01  0.00000000000E+00 0.  1.
         11    1    3    3    0    0 -0.16235744205E+02 -0.14551734374E+02 -0.29043039104E+02  0.36315981108E+02  0.51100000000E-03 0. -1.
        -11    1    3    3    0    0  0.38031832170E+01 -0.87522754613E+01 -0.53431621484E+01  0.10936905885E+02  0.51100000000E-03 0.  1.
        -12    1    3    3    0    0  0.11587693145E+02  0.23685446906E+02  0.33655657546E+02  0.42754863027E+02  0.00000000000E+00 0.  1.
</event>
<event>
 7    1  0.1654239E-015  0.9000772E+02  0.7816164E-02  0.1186339E+00
        -11   -1    0    0    0    0  0.00000000000E+00  0.00000000000E+00  0.45593999997E+02  0.45594000000E+02  0.51100000000E-03 0.  1.
         11   -1    0    0    0    0 -0.00000000000E+00 -0.00000000000E+00 -0.45593999997E+02  0.45594000000E+02  0.51100000000E-03 0. -1.
    9900012    2    1    2    0    0 -0.50222287380E+00  0.13989096242E+00  0.10589021782E+01  0.90007715662E+02  0.89999976708E+02 0.  0.
        -12    1    1    2    0    0  0.50222287380E+00 -0.13989096242E+00 -0.10589021782E+01  0.11802843383E+01  0.00000000000E+00 0.  1.
         11    1    3    3    0    0 -0.62886191237E+01 -0.30718972472E+00  0.71015419969E+01  0.94906793752E+01  0.51100000000E-03 0. -1.
        -11    1    3    3    0    0 -0.13472979752E+02 -0.32423176804E+02  0.13601714036E+02  0.37653554978E+02  0.51100000000E-03 0.  1.
         12    1    3    3    0    0  0.19259376002E+02  0.32870257491E+02 -0.19644353855E+02  0.42863481309E+02  0.00000000000E+00 0. -1.
</event>
<event>
 7    1  0.1654239E-015  0.9000780E+02  0.7816164E-02  0.1186339E+00
        -11   -1    0    0    0    0  0.00000000000E+00  0.00000000000E+00  0.45593999997E+02  0.45594000000E+02  0.51100000000E-03 0. -1.
         11   -1    0    0    0    0 -0.00000000000E+00 -0.00000000000E+00 -0.45593999997E+02  0.45594000000E+02  0.51100000000E-03 0.  1.
    9900012    2    1    2    0    0  0.11464436586E+01 -0.27950605407E+00 -0.20367175720E-01  0.90007800221E+02  0.90000062384E+02 0.  0.
        -12    1    1    2    0    0 -0.11464436586E+01  0.27950605407E+00  0.20367175720E-01  0.11801997791E+01  0.00000000000E+00 0.  1.
         11    1    3    3    0    0 -0.95017833651E+01  0.28963626238E+01  0.35457115549E+02  0.36822273788E+02  0.51100000000E-03 0. -1.
        -11    1    3    3    0    0 -0.10781967060E+02  0.64726803083E+01 -0.27152600138E+01  0.12865420369E+02  0.51100000000E-03 0.  1.
        -12    1    3    3    0    0  0.21430194084E+02 -0.96485489862E+01 -0.32762222711E+02  0.40320106064E+02  0.00000000000E+00 0.  1.
</event>
<event>
 7    1  0.1654239E-015  0.9000774E+02  0.7816164E-02  0.1186339E+00
        -11   -1    0    0    0    0  0.00000000000E+00  0.00000000000E+00  0.45593999997E+02  0.45594000000E+02  0.51100000000E-03 0.  1.
         11   -1    0    0    0    0 -0.00000000000E+00 -0.00000000000E+00 -0.45593999997E+02  0.45594000000E+02  0.51100000000E-03 0. -1.
    9900012    2    1    2    0    0 -0.96490911586E+00 -0.31031189022E+00 -0.60471500322E+00  0.90007735917E+02  0.89999997231E+02 0.  0.
        -12    1    1    2    0    0  0.96490911586E+00  0.31031189022E+00  0.60471500322E+00  0.11802640832E+01  0.00000000000E+00 0.  1.
         11    1    3    3    0    0  0.19515801264E+02 -0.20529671965E+02 -0.20375735621E+02  0.34892757591E+02  0.51100000000E-03 0. -1.
        -11    1    3    3    0    0  0.91674714130E+01 -0.52763332524E+01 -0.13651994878E+01  0.10665176726E+02  0.51100000000E-03 0.  1.
        -12    1    3    3    0    0 -0.29648181793E+02  0.25495693327E+02  0.21136220106E+02  0.44449801599E+02  0.00000000000E+00 0.  1.
</event>
<event>
 7    1  0.1654239E-015  0.9000770E+02  0.7816164E-02  0.1186339E+00
        -11   -1    0    0    0    0  0.00000000000E+00  0.00000000000E+00  0.45593999997E+02  0.45594000000E+02  0.51100000000E-03 0. -1.
         11   -1    0    0    0    0 -0.00000000000E+00 -0.00000000000E+00 -0.45593999997E+02  0.45594000000E+02  0.51100000000E-03 0.  1.
    9900012    2    1    2    0    0 -0.11153314084E+01  0.37039651211E+00 -0.10931106787E+00  0.90007700616E+02  0.89999961464E+02 0.  0.
        -12    1    1    2    0    0  0.11153314084E+01 -0.37039651211E+00  0.10931106787E+00  0.11802993842E+01  0.00000000000E+00 0.  1.
         11    1    3    3    0    0  0.13311358545E+00  0.50004851878E+01  0.95567886853E+01  0.10786787361E+02  0.51100000000E-03 0. -1.
        -11    1    3    3    0    0 -0.70165973733E+01 -0.18017384750E+02  0.30712242521E+02  0.36291881087E+02  0.51100000000E-03 0.  1.
         12    1    3    3    0    0  0.57681523794E+01  0.13387296074E+02 -0.40378342274E+02  0.42929032168E+02  0.00000000000E+00 0. -1.
</event>
<event>
 7    1  0.1654239E-015  0.9000768E+02  0.7816164E-02  0.1186339E+00
        -11   -1    0    0    0    0  0.00000000000E+00  0.00000000000E+00  0.45593999997E+02  0.45594000000E+02  0.51100000000E-03 0.  1.
         11   -1    0    0    0    0 -0.00000000000E+00 -0.00000000000E+00 -0.45593999997E+02  0.45594000000E+02  0.51100000000E-03 0. -1.
    9900012    2    1    2    0    0  0.61874339958E+00 -0.59091924381E+00  0.81309519270E+00  0.90007681086E+02  0.89999941676E+02 0.  0.
        -12    1    1    2    0    0 -0.61874339958E+00  0.59091924381E+00 -0.81309519270E+00  0.11803189144E+01  0.00000000000E+00 0.  1.
         11    1    3    3    0    0 -0.28209761034E+01 -0.91077656611E+01  0.99543744927E+00  0.95864590695E+01  0.51100000000E-03 0. -1.
        -11    1    3    3    0    0 -0.28367372059E+02  0.26882070775E+02  0.13320962897E+02  0.41289242902E+02  0.51100000000E-03 0.  1.
         12    1    3    3    0    0  0.31807091562E+02 -0.18365224358E+02 -0.13503305153E+02  0.39131979114E+02  0.00000000000E+00 0. -1.
</event>
<event>
 7    1  0.1654239E-015  0.9000778E+02  0.7816164E-02  0.1186339E+00
        -11   -1    0    0    0    0  0.00000000000E+00  0.00000000000E+00  0.45593999997E+02  0.45594000000E+02  0.51100000000E-03 0.  1.
         11   -1    0    0    0    0 -0.00000000000E+00 -0.00000000000E+00 -0.45593999997E+02  0.45594000000E+02  0.51100000000E-03 0. -1.
    9900012    2    1    2    0    0 -0.69571914241E+00  0.84289872778E+00  0.44544393729E+00  0.90007778118E+02  0.90000039989E+02 0.  0.
        -12    1    1    2    0    0  0.69571914241E+00 -0.84289872778E+00 -0.44544393729E+00  0.11802218824E+01  0.00000000000E+00 0.  1.
         11    1    3    3    0    0 -0.28492142242E+02  0.59451396491E+01  0.22576854663E+02  0.36835597208E+02  0.51100000000E-03 0. -1.
        -11    1    3    3    0    0 -0.85102909065E+01  0.59633736356E+01 -0.48291233999E+01  0.11458940156E+02  0.51100000000E-03 0.  1.
        -12    1    3    3    0    0  0.36306714006E+02 -0.11065614557E+02 -0.17302287326E+02  0.41713240753E+02  0.00000000000E+00 0.  1.
</event>
<event>
 7    1  0.1654239E-015  0.9000766E+02  0.7816164E-02  0.1186339E+00
        -11   -1    0    0    0    0  0.00000000000E+00  0.00000000000E+00  0.45593999997E+02  0.45594000000E+02  0.51100000000E-03 0. -1.
         11   -1    0    0    0    0 -0.00000000000E+00 -0.00000000000E+00 -0.45593999997E+02  0.45594000000E+02  0.51100000000E-03 0.  1.
    9900012    2    1    2    0    0  0.66630582553E+00  0.73022953750E+00  0.64498664676E+00  0.90007658352E+02  0.89999918643E+02 0.  0.
        -12    1    1    2    0    0 -0.66630582553E+00 -0.73022953750E+00 -0.64498664676E+00  0.11803416476E+01  0.00000000000E+00 0.  1.
         11    1    3    3    0    0 -0.68258880245E+01 -0.24074238093E+01  0.40552495576E+01  0.82965948411E+01  0.51100000000E-03 0. -1.
        -11    1    3    3    0    0  0.33451365230E+02  0.18903233635E+02  0.20044496211E+02  0.43337142340E+02  0.51100000000E-03 0.  1.
         12    1    3    3    0    0 -0.25959171380E+02 -0.15765580289E+02 -0.23454759122E+02  0.38373921171E+02  0.00000000000E+00 0. -1.
</event>
<event>
 7    1  0.1654239E-015  0.9000770E+02  0.7816164E-02  0.1186339E+00
        -11   -1    0    0    0    0  0.00000000000E+00  0.00000000000E+00  0.45593999997E+02  0.45594000000E+02  0.51100000000E-03 0.  1.
         11   -1    0    0    0    0 -0.00000000000E+00 -0.00000000000E+00 -0.45593999997E+02  0.45594000000E+02  0.51100000000E-03 0. -1.
    9900012    2    1    2    0    0 -0.93988540041E+00 -0.47827589957E+00 -0.53006588290E+00  0.90007702477E+02  0.89999963350E+02 0.  0.
        -12    1    1    2    0    0  0.93988540041E+00  0.47827589957E+00  0.53006588290E+00  0.11802975228E+01  0.00000000000E+00 0.  1.
         11    1    3    3    0    0 -0.32504459321E+00 -0.25568993598E+02 -0.21379814550E+02  0.33331299976E+02  0.51100000000E-03 0. -1.
        -11    1    3    3    0    0 -0.79129107538E+01 -0.55986589123E+01 -0.90145128387E+01  0.13237091078E+02  0.51100000000E-03 0.  1.
        -12    1    3    3    0    0  0.72980699466E+01  0.30689376611E+02  0.29864261506E+02  0.43439311424E+02  0.00000000000E+00 0.  1.
</event>
<event>
 7    1  0.1654239E-015  0.9000772E+02  0.7816164E-02  0.1186339E+00
        -11   -1    0    0    0    0  0.00000000000E+00  0.00000000000E+00  0.45593999997E+02  0.45594000000E+02  0.51100000000E-03 0. -1.
         11   -1    0    0    0    0 -0.00000000000E+00 -0.00000000000E+00 -0.45593999997E+02  0.45594000000E+02  0.51100000000E-03 0.  1.
    9900012    2    1    2    0    0 -0.77199136023E+00  0.89273963172E+00 -0.10284317180E-01  0.90007720170E+02  0.89999981276E+02 0.  0.
        -12    1    1    2    0    0  0.77199136023E+00 -0.89273963172E+00  0.10284317180E-01  0.11802798302E+01  0.00000000000E+00 0.  1.
         11    1    3    3    0    0 -0.19893331298E+02  0.18463754068E+02  0.26586456492E+01  0.27271289690E+02  0.51100000000E-03 0. -1.
        -11    1    3    3    0    0 -0.86042201175E+01  0.16308193233E+02 -0.42793665680E+01  0.18928886624E+02  0.51100000000E-03 0.  1.
        -12    1    3    3    0    0  0.27725560055E+02 -0.33879207669E+02  0.16104366017E+01  0.43807543856E+02  0.00000000000E+00 0.  1.
</event>
<event>
 7    1  0.1654239E-015  0.9000775E+02  0.7816164E-02  0.1186339E+00
        -11   -1    0    0    0    0  0.00000000000E+00  0.00000000000E+00  0.45593999997E+02  0.45594000000E+02  0.51100000000E-03 0.  1.
         11   -1    0    0    0    0 -0.00000000000E+00 -0.00000000000E+00 -0.45593999997E+02  0.45594000000E+02  0.51100000000E-03 0. -1.
    9900012    2    1    2    0    0 -0.63652396349E+00  0.98065359199E+00  0.16172381325E+00  0.90007746292E+02  0.90000007743E+02 0.  0.
        -12    1    1    2    0    0  0.63652396349E+00 -0.98065359199E+00 -0.16172381325E+00  0.11802537080E+01  0.00000000000E+00 0.  1.
         11    1    3    3    0    0 -0.34811568078E+02  0.35927363880E+01  0.22435299289E+02  0.41570370232E+02  0.51100000000E-03 0. -1.
        -11    1    3    3    0    0 -0.30821498504E+01 -0.23185016612E+01 -0.73518046627E+01  0.83020557523E+01  0.51100000000E-03 0.  1.
        -12    1    3    3    0    0  0.37257193965E+02 -0.29358113476E+00 -0.14921770813E+02  0.40135320308E+02  0.00000000000E+00 0.  1.
</event>
<event>
 7    1  0.1654239E-015  0.9000771E+02  0.7816164E-02  0.1186339E+00
        -11   -1    0    0    0    0  0.00000000000E+00  0.00000000000E+00  0.45593999997E+02  0.45594000000E+02  0.51100000000E-03 0.  1.
         11   -1    0    0    0    0 -0.00000000000E+00 -0.00000000000E+00 -0.45593999997E+02  0.45594000000E+02  0.51100000000E-03 0. -1.
    9900012    2    1    2    0    0 -0.92227782487E+00 -0.72452184224E+00 -0.13248735517E+00  0.90007711397E+02  0.89999972388E+02 0.  0.
        -12    1    1    2    0    0  0.92227782487E+00  0.72452184224E+00  0.13248735517E+00  0.11802886026E+01  0.00000000000E+00 0.  1.
         11    1    3    3    0    0 -0.23878009864E+01 -0.72651849385E+01  0.58249228509E+01  0.96132321423E+01  0.51100000000E-03 0. -1.
        -11    1    3    3    0    0  0.37397412855E+02 -0.51476437968E+01  0.10496633284E+02  0.39182190285E+02  0.51100000000E-03 0.  1.
         12    1    3    3    0    0 -0.35931889694E+02  0.11688306893E+02 -0.16454043490E+02  0.41212288970E+02  0.00000000000E+00 0. -1.
</event>
<event>
 7    1  0.1654239E-015  0.9000754E+02  0.7816164E-02  0.1186339E+00
        -11   -1    0    0    0    0  0.00000000000E+00  0.00000000000E+00  0.45593999997E+02  0.45594000000E+02  0.51100000000E-03 0. -1.
         11   -1    0    0    0    0 -0.00000000000E+00 -0.00000000000E+00 -0.45593999997E+02  0.45594000000E+02  0.51100000000E-03 0.  1.
    9900012    2    1    2    0    0  0.11593462490E+01  0.19812816468E+00  0.10068789192E+00  0.90007543924E+02  0.89999802704E+02 0.  0.
        -12    1    1    2    0    0 -0.11593462490E+01 -0.19812816468E+00 -0.10068789192E+00  0.11804560755E+01  0.00000000000E+00 0.  1.
         11    1    3    3    0    0  0.17645191065E+02 -0.13963565971E+02  0.23346594744E+02  0.32425259116E+02  0.51100000000E-03 0. -1.
        -11    1    3    3    0    0  0.10260622507E+02 -0.91119546668E+01  0.22585934934E+01  0.13907168544E+02  0.51100000000E-03 0.  1.
         12    1    3    3    0    0 -0.26746467323E+02  0.23273648803E+02 -0.25504500345E+02  0.43675116264E+02  0.00000000000E+00 0. -1.
</event>
<event>
 7    1  0.1654239E-015  0.9000774E+02  0.7816164E-02  0.1186339E+00
        -11   -1    0    0    0    0  0.00000000000E+00  0.00000000000E+00  0.45593999997E+02  0.45594000000E+02  0.51100000000E-03 0.  1.
         11   -1    0    0    0    0 -0.00000000000E+00 -0.00000000000E+00 -0.45593999997E+02  0.45594000000E+02  0.51100000000E-03 0. -1.
    9900012    2    1    2    0    0  0.35278574206E+00 -0.81115141258E+00  0.78140933553E+00  0.90007735223E+02  0.89999996528E+02 0.  0.
        -12    1    1    2    0    0 -0.35278574206E+00  0.81115141258E+00 -0.78140933553E+00  0.11802647769E+01  0.00000000000E+00 0.  1.
         11    1    3    3    0    0  0.40704935439E+01  0.59712781630E+01 -0.56834362271E+01  0.91938309860E+01  0.51100000000E-03 0. -1.
        -11    1    3    3    0    0  0.15002684147E+02  0.15450770510E+02 -0.28259862771E+02  0.35530644310E+02  0.51100000000E-03 0.  1.
         12    1    3    3    0    0 -0.18720391948E+02 -0.22233200086E+02  0.34724708334E+02  0.45283259927E+02  0.00000000000E+00 0. -1.
</event>
<event>
 7    1  0.1654239E-015  0.9000763E+02  0.7816164E-02  0.1186339E+00
        -11   -1    0    0    0    0  0.00000000000E+00  0.00000000000E+00  0.45593999997E+02  0.45594000000E+02  0.51100000000E-03 0. -1.
         11   -1    0    0    0    0 -0.00000000000E+00 -0.00000000000E+00 -0.45593999997E+02  0.45594000000E+02  0.51100000000E-03 0.  1.
    9900012    2    1    2    0    0 -0.29481976431E+00 -0.71287181262E+00  0.89339849539E+00  0.90007633198E+02  0.89999893157E+02 0.  0.
        -12    1    1    2    0    0  0.29481976431E+00  0.71287181262E+00 -0.89339849539E+00  0.11803668016E+01  0.00000000000E+00 0.  1.
         11    1    3    3    0    0  0.32412761484E+02 -0.10683497266E+02 -0.59979098129E+01  0.34651105945E+02  0.51100000000E-03 0. -1.
        -11    1    3    3    0    0  0.64166315251E+01 -0.78548291598E+01 -0.41643818063E+01  0.10964195244E+02  0.51100000000E-03 0.  1.
        -12    1    3    3    0    0 -0.39124212773E+02  0.17825454613E+02  0.11055690115E+02  0.44392332009E+02  0.00000000000E+00 0.  1.
</event>
<event>
 7    1  0.1960201E-015  0.9000771E+02  0.7816164E-02  0.1186339E+00
        -11   -1    0    0    0    0  0.00000000000E+00  0.00000000000E+00  0.45593999997E+02  0.45594000000E+02  0.51100000000E-03 0.  1.
         11   -1    0    0    0    0 -0.00000000000E+00 -0.00000000000E+00 -0.45593999997E+02  0.45594000000E+02  0.51100000000E-03 0. -1.
    9900012    2    1    2    0    0  0.80935462850E+00 -0.14930840953E+00 -0.84600781738E+00  0.90007713110E+02  0.89999974123E+02 0.  0.
        -12    1    1    2    0    0 -0.80935462850E+00  0.14930840953E+00  0.84600781738E+00  0.11802868901E+01  0.00000000000E+00 0.  1.
         11    1    3    3    0    0  0.55745720744E+01  0.66870270363E+01  0.27199547932E+01  0.91208737924E+01  0.51100000000E-03 0. -1.
        -11    1    3    3    0    0 -0.47874066066E+01 -0.50073316217E+01  0.38329975776E+02  0.38950990684E+02  0.51100000000E-03 0.  1.
         12    1    3    3    0    0  0.22189160671E-01 -0.18290038241E+01 -0.41895938387E+02  0.41935848634E+02  0.00000000000E+00 0. -1.
</event>
<event>
 7    1  0.1654239E-015  0.9000778E+02  0.7816164E-02  0.1186339E+00
        -11   -1    0    0    0    0  0.00000000000E+00  0.00000000000E+00  0.45593999997E+02  0.45594000000E+02  0.51100000000E-03 0. -1.
         11   -1    0    0    0    0 -0.00000000000E+00 -0.00000000000E+00 -0.45593999997E+02  0.45594000000E+02  0.51100000000E-03 0.  1.
    9900012    2    1    2    0    0  0.43718240177E+00 -0.10843504123E+01 -0.16115993305E+00  0.90007781040E+02  0.90000042950E+02 0.  0.
        -12    1    1    2    0    0 -0.43718240177E+00  0.10843504123E+01  0.16115993305E+00  0.11802189598E+01  0.00000000000E+00 0.  1.
         11    1    3    3    0    0 -0.23989956919E+02  0.56624257772E+01  0.27057435631E+02  0.36601720203E+02  0.51100000000E-03 0. -1.
        -11    1    3    3    0    0 -0.17783352430E+01 -0.87640147341E+01  0.62062988171E+01  0.10885245783E+02  0.51100000000E-03 0.  1.
        -12    1    3    3    0    0  0.26205474564E+02  0.20172385446E+01 -0.33424894381E+02  0.42520815054E+02  0.00000000000E+00 0.  1.
</event>
<event>
 7    1  0.1654239E-015  0.9000772E+02  0.7816164E-02  0.1186339E+00
        -11   -1    0    0    0    0  0.00000000000E+00  0.00000000000E+00  0.45593999997E+02  0.45594000000E+02  0.51100000000E-03 0.  1.
         11   -1    0    0    0    0 -0.00000000000E+00 -0.00000000000E+00 -0.45593999997E+02  0.45594000000E+02  0.51100000000E-03 0. -1.
    9900012    2    1    2    0    0 -0.69645647744E-01 -0.42456074425E+00 -0.10990727106E+01  0.90007719031E+02  0.89999980123E+02 0.  0.
        -12    1    1    2    0    0  0.69645647744E-01  0.42456074425E+00  0.10990727106E+01  0.11802809686E+01  0.00000000000E+00 0.  1.
         11    1    3    3    0    0 -0.27418415251E+01 -0.52455000889E+01  0.72006467251E+01  0.93210664439E+01  0.51100000000E-03 0. -1.
        -11    1    3    3    0    0 -0.35216042662E+02 -0.25445921404E+01  0.11725034512E+02  0.37203777288E+02  0.51100000000E-03 0.  1.
         12    1    3    3    0    0  0.37888238539E+02  0.73655314851E+01 -0.20024753948E+02  0.43482875300E+02  0.00000000000E+00 0. -1.
</event>
<event>
 7    1  0.1654239E-015  0.9000771E+02  0.7816164E-02  0.1186339E+00
        -11   -1    0    0    0    0  0.00000000000E+00  0.00000000000E+00  0.45593999997E+02  0.45594000000E+02  0.51100000000E-03 0.  1.
         11   -1    0    0    0    0 -0.00000000000E+00 -0.00000000000E+00 -0.45593999997E+02  0.45594000000E+02  0.51100000000E-03 0. -1.
    9900012    2    1    2    0    0  0.12149040493E+00 -0.11722418425E+01 -0.64601276036E-01  0.90007710129E+02  0.89999971102E+02 0.  0.
        -12    1    1    2    0    0 -0.12149040493E+00  0.11722418425E+01  0.64601276036E-01  0.11802898715E+01  0.00000000000E+00 0.  1.
         11    1    3    3    0    0  0.22952405614E+00  0.90441962834E+01  0.49696724361E+01  0.10322199964E+02  0.51100000000E-03 0. -1.
        -11    1    3    3    0    0 -0.39011257018E+02 -0.86224821182E+01  0.24859429581E+01  0.40030054767E+02  0.51100000000E-03 0.  1.
         12    1    3    3    0    0  0.38903223367E+02 -0.15939560078E+01 -0.75202166702E+01  0.39655455398E+02  0.00000000000E+00 0. -1.
</event>
<event>
 7    1  0.1654239E-015  0.9000799E+02  0.7816164E-02  0.1186339E+00
        -11   -1    0    0    0    0  0.00000000000E+00  0.00000000000E+00  0.45593999997E+02  0.45594000000E+02  0.51100000000E-03 0.  1.
         11   -1    0    0    0    0 -0.00000000000E+00 -0.00000000000E+00 -0.45593999997E+02  0.45594000000E+02  0.51100000000E-03 0. -1.
    9900012    2    1    2    0    0  0.11558173889E+01  0.96312744500E-01 -0.21735138834E+00  0.90007986607E+02  0.90000251230E+02 0.  0.
        -12    1    1    2    0    0 -0.11558173889E+01 -0.96312744500E-01  0.21735138834E+00  0.11800133928E+01  0.00000000000E+00 0.  1.
         11    1    3    3    0    0 -0.18141112136E+02  0.43148472958E+01  0.51718191350E+01  0.19351112891E+02  0.51100000000E-03 0. -1.
        -11    1    3    3    0    0 -0.44819942775E+01  0.27807665617E+02  0.67457931333E+01  0.28963084522E+02  0.51100000000E-03 0.  1.
         12    1    3    3    0    0  0.23778923802E+02 -0.32026200168E+02 -0.12134963657E+02  0.41693789194E+02  0.00000000000E+00 0. -1.
</event>
<event>
 7    1  0.1654239E-015  0.9000781E+02  0.7816164E-02  0.1186339E+00
        -11   -1    0    0    0    0  0.00000000000E+00  0.00000000000E+00  0.45593999997E+02  0.45594000000E+02  0.51100000000E-03 0.  1.
         11   -1    0    0    0    0 -0.00000000000E+00 -0.00000000000E+00 -0.45593999997E+02  0.45594000000E+02  0.51100000000E-03 0. -1.
    9900012    2    1    2    0    0  0.11549061677E+01 -0.20709063407E+00 -0.12706766643E+00  0.90007813159E+02  0.90000075493E+02 0.  0.
        -12    1    1    2    0    0 -0.11549061677E+01  0.20709063407E+00  0.12706766643E+00  0.11801868406E+01  0.00000000000E+00 0.  1.
         11    1    3    3    0    0 -0.12228940322E+02  0.15283268599E+02 -0.29092050275E+02  0.35063837068E+02  0.51100000000E-03 0. -1.
        -11    1    3    3    0    0 -0.53087767383E+01  0.80305644350E+01 -0.39261579594E+01  0.10396527891E+02  0.51100000000E-03 0.  1.
        -12    1    3    3    0    0  0.18692623228E+02 -0.23520923669E+02  0.32891140568E+02  0.44547448201E+02  0.00000000000E+00 0.  1.
</event>
<event>
 7    1  0.1654239E-015  0.9000772E+02  0.7816164E-02  0.1186339E+00
        -11   -1    0    0    0    0  0.00000000000E+00  0.00000000000E+00  0.45593999997E+02  0.45594000000E+02  0.51100000000E-03 0. -1.
         11   -1    0    0    0    0 -0.00000000000E+00 -0.00000000000E+00 -0.45593999997E+02  0.45594000000E+02  0.51100000000E-03 0.  1.
    9900012    2    1    2    0    0 -0.50954229431E+00  0.15421788277E+00  0.10533927181E+01  0.90007723455E+02  0.89999984604E+02 0.  0.
        -12    1    1    2    0    0  0.50954229431E+00 -0.15421788277E+00 -0.10533927181E+01  0.11802765454E+01  0.00000000000E+00 0.  1.
         11    1    3    3    0    0 -0.57035601996E+01  0.86232291716E+01 -0.31882279652E+01  0.10819217999E+02  0.51100000000E-03 0. -1.
        -11    1    3    3    0    0 -0.28850229109E+02  0.18741535480E+02  0.83829107018E+01  0.35409801805E+02  0.51100000000E-03 0.  1.
         12    1    3    3    0    0  0.34044247014E+02 -0.27210546769E+02 -0.41412900186E+01  0.43778703650E+02  0.00000000000E+00 0. -1.
</event>
<event>
 7    1  0.1654239E-015  0.9000775E+02  0.7816164E-02  0.1186339E+00
        -11   -1    0    0    0    0  0.00000000000E+00  0.00000000000E+00  0.45593999997E+02  0.45594000000E+02  0.51100000000E-03 0. -1.
         11   -1    0    0    0    0 -0.00000000000E+00 -0.00000000000E+00 -0.45593999997E+02  0.45594000000E+02  0.51100000000E-03 0.  1.
    9900012    2    1    2    0    0  0.10137476925E+01  0.12249406500E-01  0.60428291538E+00  0.90007749063E+02  0.90000010551E+02 0.  0.
        -12    1    1    2    0    0 -0.10137476925E+01 -0.12249406500E-01 -0.60428291538E+00  0.11802509368E+01  0.00000000000E+00 0.  1.
         11    1    3    3    0    0 -0.20350948397E+02 -0.50206072107E+01  0.45853967504E+01  0.21456781236E+02  0.51100000000E-03 0. -1.
        -11    1    3    3    0    0  0.51463794521E+01 -0.47694713878E+01 -0.33085198524E+02  0.33821050256E+02  0.51100000000E-03 0.  1.
         12    1    3    3    0    0  0.16218316637E+02  0.98023280050E+01  0.29104084689E+02  0.34729917571E+02  0.00000000000E+00 0. -1.
</event>
<event>
 7    1  0.1654239E-015  0.9000777E+02  0.7816164E-02  0.1186339E+00
        -11   -1    0    0    0    0  0.00000000000E+00  0.00000000000E+00  0.45593999997E+02  0.45594000000E+02  0.51100000000E-03 0. -1.
         11   -1    0    0    0    0 -0.00000000000E+00 -0.00000000000E+00 -0.45593999997E+02  0.45594000000E+02  0.51100000000E-03 0.  1.
    9900012    2    1    2    0    0  0.83125150589E+00 -0.71347505846E+00  0.43921183811E+00  0.90007774274E+02  0.90000036095E+02 0.  0.
        -12    1    1    2    0    0 -0.83125150589E+00  0.71347505846E+00 -0.43921183811E+00  0.11802257258E+01  0.00000000000E+00 0.  1.
         11    1    3    3    0    0  0.20906665802E+01 -0.20767166374E+01 -0.41903397048E+01  0.51227517844E+01  0.51100000000E-03 0. -1.
        -11    1    3    3    0    0 -0.42725147225E+02  0.26474622122E+00 -0.24887916172E+01  0.42798392259E+02  0.51100000000E-03 0.  1.
         12    1    3    3    0    0  0.41465732151E+02  0.10984953577E+01  0.71183431601E+01  0.42086630231E+02  0.00000000000E+00 0. -1.
</event>
<event>
 7    1  0.1654239E-015  0.9000773E+02  0.7816164E-02  0.1186339E+00
        -11   -1    0    0    0    0  0.00000000000E+00  0.00000000000E+00  0.45593999997E+02  0.45594000000E+02  0.51100000000E-03 0. -1.
         11   -1    0    0    0    0 -0.00000000000E+00 -0.00000000000E+00 -0.45593999997E+02  0.45594000000E+02  0.51100000000E-03 0.  1.
    9900012    2    1    2    0    0 -0.74315799419E+00 -0.67744591138E+00 -0.61791430706E+00  0.90007731023E+02  0.89999992273E+02 0.  0.
        -12    1    1    2    0    0  0.74315799419E+00  0.67744591138E+00  0.61791430706E+00  0.11802689770E+01  0.00000000000E+00 0.  1.
         11    1    3    3    0    0  0.13065228305E+01  0.78143361202E+01  0.20488626276E+01  0.81834399389E+01  0.51100000000E-03 0. -1.
        -11    1    3    3    0    0  0.62213187730E+01  0.11718861133E+02 -0.38020998037E+02  0.40269502176E+02  0.51100000000E-03 0.  1.
         12    1    3    3    0    0 -0.82709995977E+01 -0.20210643165E+02  0.35354221102E+02  0.41554788908E+02  0.00000000000E+00 0. -1.
</event>
<event>
 7    1  0.1654239E-015  0.9000780E+02  0.7816164E-02  0.1186339E+00
        -11   -1    0    0    0    0  0.00000000000E+00  0.00000000000E+00  0.45593999997E+02  0.45594000000E+02  0.51100000000E-03 0.  1.
         11   -1    0    0    0    0 -0.00000000000E+00 -0.00000000000E+00 -0.45593999997E+02  0.45594000000E+02  0.51100000000E-03 0. -1.
    9900012    2    1    2    0    0  0.82447078044E+00  0.75958913275E+00 -0.36896229088E+00  0.90007804724E+02  0.90000066946E+02 0.  0.
        -12    1    1    2    0    0 -0.82447078044E+00 -0.75958913275E+00  0.36896229088E+00  0.11801952764E+01  0.00000000000E+00 0.  1.
         11    1    3    3    0    0 -0.23579715545E+02 -0.27673942352E+02  0.14757593193E+01  0.36387194675E+02  0.51100000000E-03 0. -1.
        -11    1    3    3    0    0 -0.81628167871E+00 -0.59698161915E+01  0.78297802221E+01  0.98798016036E+01  0.51100000000E-03 0.  1.
        -12    1    3    3    0    0  0.25220468004E+02  0.34403347677E+02 -0.96745018322E+01  0.43740808445E+02  0.00000000000E+00 0.  1.
</event>
<event>
 7    1  0.1654239E-015  0.9000774E+02  0.7816164E-02  0.1186339E+00
        -11   -1    0    0    0    0  0.00000000000E+00  0.00000000000E+00  0.45593999997E+02  0.45594000000E+02  0.51100000000E-03 0. -1.
         11   -1    0    0    0    0 -0.00000000000E+00 -0.00000000000E+00 -0.45593999997E+02  0.45594000000E+02  0.51100000000E-03 0.  1.
    9900012    2    1    2    0    0  0.58702827855E+00  0.98465050031E+00  0.28085645034E+00  0.90007737676E+02  0.89999999013E+02 0.  0.
        -12    1    1    2    0    0 -0.58702827855E+00 -0.98465050031E+00 -0.28085645034E+00  0.11802623239E+01  0.00000000000E+00 0.  1.
         11    1    3    3    0    0  0.16118495684E+00 -0.37380779040E+01  0.89503049382E+01  0.97008847923E+01  0.51100000000E-03 0. -1.
        -11    1    3    3    0    0 -0.31179264391E+02 -0.12993234177E+02 -0.23509040598E+02  0.41153926330E+02  0.51100000000E-03 0.  1.
         12    1    3    3    0    0  0.31605107713E+02  0.17715962581E+02  0.14839592110E+02  0.39152926553E+02  0.00000000000E+00 0. -1.
</event>
<event>
 7    1  0.1940836E-015  0.9000755E+02  0.7816164E-02  0.1186339E+00
        -11   -1    0    0    0    0  0.00000000000E+00  0.00000000000E+00  0.45593999997E+02  0.45594000000E+02  0.51100000000E-03 0. -1.
         11   -1    0    0    0    0 -0.00000000000E+00 -0.00000000000E+00 -0.45593999997E+02  0.45594000000E+02  0.51100000000E-03 0.  1.
    9900012    2    1    2    0    0 -0.11105530411E+01 -0.20899312996E-01  0.39962936413E+00  0.90007547347E+02  0.89999806171E+02 0.  0.
        -12    1    1    2    0    0  0.11105530411E+01  0.20899312996E-01 -0.39962936413E+00  0.11804526535E+01  0.00000000000E+00 0.  1.
         11    1    3    3    0    0 -0.26702856618E+02  0.28788839736E+02 -0.92990555321E+01  0.40352351592E+02  0.51100000000E-03 0. -1.
        -11    1    3    3    0    0  0.50459038460E+01  0.13836385625E+01 -0.76139137167E+01  0.92383593588E+01  0.51100000000E-03 0.  1.
        -12    1    3    3    0    0  0.20546399731E+02 -0.30193377612E+02  0.17312598613E+02  0.40416836396E+02  0.00000000000E+00 0.  1.
</event>
<event>
 7    1  0.1654239E-015  0.9000760E+02  0.7816164E-02  0.1186339E+00
        -11   -1    0    0    0    0  0.00000000000E+00  0.00000000000E+00  0.45593999997E+02  0.45594000000E+02  0.51100000000E-03 0.  1.
         11   -1    0    0    0    0 -0.00000000000E+00 -0.00000000000E+00 -0.45593999997E+02  0.45594000000E+02  0.51100000000E-03 0. -1.
    9900012    2    1    2    0    0 -0.46171846818E+00 -0.85545561639E+00 -0.66958927746E+00  0.90007602586E+02  0.89999862140E+02 0.  0.
        -12    1    1    2    0    0  0.46171846818E+00  0.85545561639E+00  0.66958927746E+00  0.11803974144E+01  0.00000000000E+00 0.  1.
         11    1    3    3    0    0  0.63333186022E+01 -0.29121995148E+01  0.26231072475E+01  0.74479878104E+01  0.51100000000E-03 0. -1.
        -11    1    3    3    0    0  0.27289664288E+02 -0.25760464314E+02 -0.78149380102E+01  0.38332760858E+02  0.51100000000E-03 0.  1.
         12    1    3    3    0    0 -0.34084701358E+02  0.27817208213E+02  0.45222414853E+01  0.44226853918E+02  0.00000000000E+00 0. -1.
</event>
<event>
 7    1  0.1654239E-015  0.9000780E+02  0.7816164E-02  0.1186339E+00
        -11   -1    0    0    0    0  0.00000000000E+00  0.00000000000E+00  0.45593999997E+02  0.45594000000E+02  0.51100000000E-03 0.  1.
         11   -1    0    0    0    0 -0.00000000000E+00 -0.00000000000E+00 -0.45593999997E+02  0.45594000000E+02  0.51100000000E-03 0. -1.
    9900012    2    1    2    0    0 -0.12879689433E+00 -0.88873493339E+00 -0.76578957574E+00  0.90007799976E+02  0.90000062136E+02 0.  0.
        -12    1    1    2    0    0  0.12879689433E+00  0.88873493339E+00  0.76578957574E+00  0.11802000238E+01  0.00000000000E+00 0.  1.
         11    1    3    3    0    0  0.22167753085E+02 -0.18992497820E+02 -0.23795386006E+02  0.37660916687E+02  0.51100000000E-03 0. -1.
        -11    1    3    3    0    0 -0.10760588824E+01 -0.10108997748E+02 -0.55806594797E-01  0.10166260513E+02  0.51100000000E-03 0.  1.
        -12    1    3    3    0    0 -0.21220491097E+02  0.28212760634E+02  0.23085403025E+02  0.42180622776E+02  0.00000000000E+00 0.  1.
</event>
<event>
 7    1  0.1691985E-015  0.9000765E+02  0.7816164E-02  0.1186339E+00
        -11   -1    0    0    0    0  0.00000000000E+00  0.00000000000E+00  0.45593999997E+02  0.45594000000E+02  0.51100000000E-03 0.  1.
         11   -1    0    0    0    0 -0.00000000000E+00 -0.00000000000E+00 -0.45593999997E+02  0.45594000000E+02  0.51100000000E-03 0. -1.
    9900012    2    1    2    0    0  0.17203320675E+00  0.10393425838E+01  0.53236092511E+00  0.90007645568E+02  0.89999905689E+02 0.  0.
        -12    1    1    2    0    0 -0.17203320675E+00 -0.10393425838E+01 -0.53236092511E+00  0.11803544321E+01  0.00000000000E+00 0.  1.
         11    1    3    3    0    0  0.34043249794E+01  0.68995128825E+01 -0.54877597357E+01  0.94503023105E+01  0.51100000000E-03 0. -1.
        -11    1    3    3    0    0  0.74355282641E+01  0.27260332259E+02  0.27692655433E+02  0.39563821361E+02  0.51100000000E-03 0.  1.
         12    1    3    3    0    0 -0.10667820037E+02 -0.33120502558E+02 -0.21672534773E+02  0.40993521897E+02  0.00000000000E+00 0. -1.
</event>
<event>
 7    1  0.1654239E-015  0.9000775E+02  0.7816164E-02  0.1186339E+00
        -11   -1    0    0    0    0  0.00000000000E+00  0.00000000000E+00  0.45593999997E+02  0.45594000000E+02  0.51100000000E-03 0.  1.
         11   -1    0    0    0    0 -0.00000000000E+00 -0.00000000000E+00 -0.45593999997E+02  0.45594000000E+02  0.51100000000E-03 0. -1.
    9900012    2    1    2    0    0  0.22324669294E-01  0.79991891550E+00 -0.86754225871E+00  0.90007746539E+02  0.90000007993E+02 0.  0.
        -12    1    1    2    0    0 -0.22324669294E-01 -0.79991891550E+00  0.86754225871E+00  0.11802534613E+01  0.00000000000E+00 0.  1.
         11    1    3    3    0    0  0.73397123472E+01  0.32959022257E+02 -0.24286663259E+02  0.41593395365E+02  0.51100000000E-03 0. -1.
        -11    1    3    3    0    0 -0.60842970302E+01  0.29457644364E+01  0.66788392464E+01  0.95027939263E+01  0.51100000000E-03 0.  1.
        -12    1    3    3    0    0 -0.12330906477E+01 -0.35104867778E+02  0.16740281754E+02  0.38911557248E+02  0.00000000000E+00 0.  1.
</event>
<event>
 7    1  0.1654239E-015  0.9000770E+02  0.7816164E-02  0.1186339E+00
        -11   -1    0    0    0    0  0.00000000000E+00  0.00000000000E+00  0.45593999997E+02  0.45594000000E+02  0.51100000000E-03 0.  1.
         11   -1    0    0    0    0 -0.00000000000E+00 -0.00000000000E+00 -0.45593999997E+02  0.45594000000E+02  0.51100000000E-03 0. -1.
    9900012    2    1    2    0    0 -0.65428010201E+00  0.15685160523E+00 -0.96975207505E+00  0.90007701747E+02  0.89999962610E+02 0.  0.
        -12    1    1    2    0    0  0.65428010201E+00 -0.15685160523E+00  0.96975207505E+00  0.11802982526E+01  0.00000000000E+00 0.  1.
         11    1    3    3    0    0 -0.20507853374E+02 -0.12604269433E+02  0.11196179053E+02  0.26547958182E+02  0.51100000000E-03 0. -1.
        -11    1    3    3    0    0  0.15345239642E+01  0.17080408262E+02  0.19905148551E+02  0.26273752098E+02  0.51100000000E-03 0.  1.
        -12    1    3    3    0    0  0.18319049308E+02 -0.43192872238E+01 -0.32071079679E+02  0.37185991468E+02  0.00000000000E+00 0.  1.
</event>
<event>
 7    1  0.1654239E-015  0.9000783E+02  0.7816164E-02  0.1186339E+00
        -11   -1    0    0    0    0  0.00000000000E+00  0.00000000000E+00  0.45593999997E+02  0.45594000000E+02  0.51100000000E-03 0.  1.
         11   -1    0    0    0    0 -0.00000000000E+00 -0.00000000000E+00 -0.45593999997E+02  0.45594000000E+02  0.51100000000E-03 0. -1.
    9900012    2    1    2    0    0 -0.96102524816E+00 -0.33206510180E+00  0.59913928056E+00  0.90007828556E+02  0.90000091093E+02 0.  0.
        -12    1    1    2    0    0  0.96102524816E+00  0.33206510180E+00 -0.59913928056E+00  0.11801714439E+01  0.00000000000E+00 0.  1.
         11    1    3    3    0    0  0.34109806773E+01  0.56161078261E+01  0.66487196944E+01  0.93477767480E+01  0.51100000000E-03 0. -1.
        -11    1    3    3    0    0  0.12624552706E+02  0.11844630170E+00  0.34250722326E+02  0.36503497650E+02  0.51100000000E-03 0.  1.
         12    1    3    3    0    0 -0.16996558631E+02 -0.60666192296E+01 -0.40300302740E+02  0.44156554158E+02  0.00000000000E+00 0. -1.
</event>
<event>
 7    1  0.1654239E-015  0.9000773E+02  0.7816164E-02  0.1186339E+00
        -11   -1    0    0    0    0  0.00000000000E+00  0.00000000000E+00  0.45593999997E+02  0.45594000000E+02  0.51100000000E-03 0.  1.
         11   -1    0    0    0    0 -0.00000000000E+00 -0.00000000000E+00 -0.45593999997E+02  0.45594000000E+02  0.51100000000E-03 0. -1.
    9900012    2    1    2    0    0 -0.11747815887E+01  0.97921782578E-01 -0.57801900508E-01  0.90007728202E+02  0.89999989415E+02 0.  0.
        -12    1    1    2    0    0  0.11747815887E+01 -0.97921782578E-01  0.57801900508E-01  0.11802717977E+01  0.00000000000E+00 0.  1.
         11    1    3    3    0    0 -0.28062667266E+01  0.12550937574E+01 -0.17684610081E+02  0.17949814129E+02  0.51100000000E-03 0. -1.
        -11    1    3    3    0    0 -0.18136930534E+02 -0.20434220528E+02 -0.13478039561E+02  0.30465770439E+02  0.51100000000E-03 0.  1.
         12    1    3    3    0    0  0.19768415672E+02  0.19277048553E+02  0.31104847741E+02  0.41592143634E+02  0.00000000000E+00 0. -1.
</event>
<event>
 7    1  0.1654239E-015  0.9000772E+02  0.7816164E-02  0.1186339E+00
        -11   -1    0    0    0    0  0.00000000000E+00  0.00000000000E+00  0.45593999997E+02  0.45594000000E+02  0.51100000000E-03 0.  1.
         11   -1    0    0    0    0 -0.00000000000E+00 -0.00000000000E+00 -0.45593999997E+02  0.45594000000E+02  0.51100000000E-03 0. -1.
    9900012    2    1    2    0    0 -0.13678813122E+00 -0.24399841017E+00 -0.11466563441E+01  0.90007717412E+02  0.89999978481E+02 0.  0.
        -12    1    1    2    0    0  0.13678813122E+00  0.24399841017E+00  0.11466563441E+01  0.11802825884E+01  0.00000000000E+00 0.  1.
         11    1    3    3    0    0  0.41588657197E+00  0.44683916034E+01 -0.36762678237E+02  0.37035577443E+02  0.51100000000E-03 0. -1.
        -11    1    3    3    0    0 -0.12302340486E+02  0.88241635282E+01  0.25399069351E+01  0.15351370326E+02  0.51100000000E-03 0.  1.
        -12    1    3    3    0    0  0.11749665782E+02 -0.13536553542E+02  0.33076114957E+02  0.37620769642E+02  0.00000000000E+00 0.  1.
</event>
<event>
 7    1  0.1654239E-015  0.9000777E+02  0.7816164E-02  0.1186339E+00
        -11   -1    0    0    0    0  0.00000000000E+00  0.00000000000E+00  0.45593999997E+02  0.45594000000E+02  0.51100000000E-03 0. -1.
         11   -1    0    0    0    0 -0.00000000000E+00 -0.00000000000E+00 -0.45593999997E+02  0.45594000000E+02  0.51100000000E-03 0.  1.
    9900012    2    1    2    0    0  0.42055833558E+00  0.10813063828E+01 -0.21645861967E+00  0.90007768183E+02  0.90000029923E+02 0.  0.
        -12    1    1    2    0    0 -0.42055833558E+00 -0.10813063828E+01  0.21645861967E+00  0.11802318167E+01  0.00000000000E+00 0.  1.
         11    1    3    3    0    0  0.62019023840E+00  0.17714714122E+02  0.29916883407E+02  0.34773778129E+02  0.51100000000E-03 0. -1.
        -11    1    3    3    0    0  0.77656488950E+00 -0.91041705895E+01  0.10487576943E+02  0.13909645774E+02  0.51100000000E-03 0.  1.
        -12    1    3    3    0    0 -0.97619679232E+00 -0.75292371498E+01 -0.40620918970E+02  0.41324344280E+02  0.00000000000E+00 0.  1.
</event>
<event>
 7    1  0.1654239E-015  0.9000769E+02  0.7816164E-02  0.1186339E+00
        -11   -1    0    0    0    0  0.00000000000E+00  0.00000000000E+00  0.45593999997E+02  0.45594000000E+02  0.51100000000E-03 0.  1.
         11   -1    0    0    0    0 -0.00000000000E+00 -0.00000000000E+00 -0.45593999997E+02  0.45594000000E+02  0.51100000000E-03 0. -1.
    9900012    2    1    2    0    0  0.55183867433E-01  0.56000621276E+00 -0.10375326308E+01  0.90007692338E+02  0.89999953077E+02 0.  0.
        -12    1    1    2    0    0 -0.55183867433E-01 -0.56000621276E+00  0.10375326308E+01  0.11803076622E+01  0.00000000000E+00 0.  1.
         11    1    3    3    0    0  0.71955776482E+00  0.79869601901E+01 -0.54046283303E+01  0.96705379428E+01  0.51100000000E-03 0. -1.
        -11    1    3    3    0    0  0.77836346121E+01 -0.22869781164E+02  0.36458017103E+02  0.43735556126E+02  0.51100000000E-03 0.  1.
         12    1    3    3    0    0 -0.84480085095E+01  0.15442827187E+02 -0.32090921404E+02  0.36601598269E+02  0.00000000000E+00 0. -1.
</event>
<event>
 7    1  0.1654239E-015  0.9000775E+02  0.7816164E-02  0.1186339E+00
        -11   -1    0    0    0    0  0.00000000000E+00  0.00000000000E+00  0.45593999997E+02  0.45594000000E+02  0.51100000000E-03 0.  1.
         11   -1    0    0    0    0 -0.00000000000E+00 -0.00000000000E+00 -0.45593999997E+02  0.45594000000E+02  0.51100000000E-03 0. -1.
    9900012    2    1    2    0    0  0.31897680875E+00 -0.46074556227E-01 -0.11353964530E+01  0.90007748258E+02  0.90000009735E+02 0.  0.
        -12    1    1    2    0    0 -0.31897680875E+00  0.46074556227E-01  0.11353964530E+01  0.11802517421E+01  0.00000000000E+00 0.  1.
         11    1    3    3    0    0  0.38556474312E+02  0.12274744228E+02  0.93357902790E+01  0.41526233126E+02  0.51100000000E-03 0. -1.
        -11    1    3    3    0    0  0.20368586188E+01 -0.18235959526E+01 -0.60356193043E+01  0.66259335854E+01  0.51100000000E-03 0.  1.
        -12    1    3    3    0    0 -0.40274356122E+02 -0.10497222831E+02 -0.44355674277E+01  0.41855581547E+02  0.00000000000E+00 0.  1.
</event>
<event>
 7    1  0.1654239E-015  0.9000766E+02  0.7816164E-02  0.1186339E+00
        -11   -1    0    0    0    0  0.00000000000E+00  0.00000000000E+00  0.45593999997E+02  0.45594000000E+02  0.51100000000E-03 0. -1.
         11   -1    0    0    0    0 -0.00000000000E+00 -0.00000000000E+00 -0.45593999997E+02  0.45594000000E+02  0.51100000000E-03 0.  1.
    9900012    2    1    2    0    0  0.11541430918E+01  0.19814935145E+00  0.14793150338E+00  0.90007663958E+02  0.89999924322E+02 0.  0.
        -12    1    1    2    0    0 -0.11541430918E+01 -0.19814935145E+00 -0.14793150338E+00  0.11803360418E+01  0.00000000000E+00 0.  1.
         11    1    3    3    0    0 -0.18771719878E+01  0.63761476410E+01 -0.79726995846E+01  0.10379931230E+02  0.51100000000E-03 0. -1.
        -11    1    3    3    0    0 -0.29088318186E+02 -0.11664442483E+02 -0.19500276651E+02  0.36911383922E+02  0.51100000000E-03 0.  1.
         12    1    3    3    0    0  0.32119633265E+02  0.54864441930E+01  0.27620907739E+02  0.42716348806E+02  0.00000000000E+00 0. -1.
</event>
<event>
 7    1  0.1935360E-015  0.9000748E+02  0.7816164E-02  0.1186340E+00
        -11   -1    0    0    0    0  0.00000000000E+00  0.00000000000E+00  0.45593999997E+02  0.45594000000E+02  0.51100000000E-03 0.  1.
         11   -1    0    0    0    0 -0.00000000000E+00 -0.00000000000E+00 -0.45593999997E+02  0.45594000000E+02  0.51100000000E-03 0. -1.
    9900012    2    1    2    0    0  0.91293628100E+00  0.34752732519E+00 -0.66286891840E+00  0.90007481852E+02  0.89999739812E+02 0.  0.
        -12    1    1    2    0    0 -0.91293628100E+00 -0.34752732519E+00  0.66286891840E+00  0.11805181481E+01  0.00000000000E+00 0.  1.
         11    1    3    3    0    0  0.36715968693E+01  0.81289950008E+01  0.23139779869E+01  0.92149703027E+01  0.51100000000E-03 0. -1.
        -11    1    3    3    0    0  0.18377771190E+02 -0.94382165658E+01  0.33058374219E+02  0.38983054166E+02  0.51100000000E-03 0.  1.
         12    1    3    3    0    0 -0.21136431778E+02  0.16567488902E+01 -0.36035221124E+02  0.41809457383E+02  0.00000000000E+00 0. -1.
</event>
<event>
 7    1  0.1654239E-015  0.9000769E+02  0.7816164E-02  0.1186339E+00
        -11   -1    0    0    0    0  0.00000000000E+00  0.00000000000E+00  0.45593999997E+02  0.45594000000E+02  0.51100000000E-03 0. -1.
         11   -1    0    0    0    0 -0.00000000000E+00 -0.00000000000E+00 -0.45593999997E+02  0.45594000000E+02  0.51100000000E-03 0.  1.
    9900012    2    1    2    0    0  0.12666944338E+00 -0.10018214870E+01 -0.61110616205E+00  0.90007685558E+02  0.89999946208E+02 0.  0.
        -12    1    1    2    0    0 -0.12666944338E+00  0.10018214870E+01  0.61110616205E+00  0.11803144416E+01  0.00000000000E+00 0.  1.
         11    1    3    3    0    0  0.14726818827E+02 -0.28518650452E+02  0.30046003010E+02  0.43965383127E+02  0.51100000000E-03 0. -1.
        -11    1    3    3    0    0 -0.41371974619E+01  0.76966443394E+01 -0.89312960396E+00  0.87836448970E+01  0.51100000000E-03 0.  1.
        -12    1    3    3    0    0 -0.10462951921E+02  0.19820184626E+02 -0.29763979568E+02  0.37258657534E+02  0.00000000000E+00 0.  1.
</event>
<event>
 7    1  0.1654239E-015  0.9000713E+02  0.7816164E-02  0.1186340E+00
        -11   -1    0    0    0    0  0.00000000000E+00  0.00000000000E+00  0.45593999997E+02  0.45594000000E+02  0.51100000000E-03 0.  1.
         11   -1    0    0    0    0 -0.00000000000E+00 -0.00000000000E+00 -0.45593999997E+02  0.45594000000E+02  0.51100000000E-03 0. -1.
    9900012    2    1    2    0    0  0.10383663313E+01 -0.22294052333E+00 -0.51629313719E+00  0.90007125020E+02  0.89999378268E+02 0.  0.
        -12    1    1    2    0    0 -0.10383663313E+01  0.22294052333E+00  0.51629313719E+00  0.11808749800E+01  0.00000000000E+00 0.  1.
         11    1    3    3    0    0 -0.74427299238E+00 -0.38208975283E+00 -0.93187728243E+01  0.93562525660E+01  0.51100000000E-03 0. -1.
        -11    1    3    3    0    0  0.21533244238E+02  0.32146392105E+02 -0.79390905679E+01  0.39498104918E+02  0.51100000000E-03 0.  1.
         12    1    3    3    0    0 -0.19750604915E+02 -0.31987242875E+02  0.16741570255E+02  0.41152767536E+02  0.00000000000E+00 0. -1.
</event>
<event>
 7    1  0.1654239E-015  0.9000794E+02  0.7816164E-02  0.1186339E+00
        -11   -1    0    0    0    0  0.00000000000E+00  0.00000000000E+00  0.45593999997E+02  0.45594000000E+02  0.51100000000E-03 0.  1.
         11   -1    0    0    0    0 -0.00000000000E+00 -0.00000000000E+00 -0.45593999997E+02  0.45594000000E+02  0.51100000000E-03 0. -1.
    9900012    2    1    2    0    0 -0.73256333022E+00 -0.91527532176E+00 -0.13477120345E+00  0.90007940161E+02  0.90000204170E+02 0.  0.
        -12    1    1    2    0    0  0.73256333022E+00  0.91527532176E+00  0.13477120345E+00  0.11800598395E+01  0.00000000000E+00 0.  1.
         11    1    3    3    0    0  0.72027976037E+01 -0.29943647160E+02  0.22261767032E+02  0.38001165380E+02  0.51100000000E-03 0. -1.
        -11    1    3    3    0    0  0.42194191955E+01  0.96693241282E+00  0.78691869136E+01  0.89812337449E+01  0.51100000000E-03 0.  1.
        -12    1    3    3    0    0 -0.12154780129E+02  0.28061439425E+02 -0.30265725149E+02  0.43025541036E+02  0.00000000000E+00 0.  1.
</event>
<event>
 7    1  0.1654239E-015  0.9000781E+02  0.7816164E-02  0.1186339E+00
        -11   -1    0    0    0    0  0.00000000000E+00  0.00000000000E+00  0.45593999997E+02  0.45594000000E+02  0.51100000000E-03 0. -1.
         11   -1    0    0    0    0 -0.00000000000E+00 -0.00000000000E+00 -0.45593999997E+02  0.45594000000E+02  0.51100000000E-03 0.  1.
    9900012    2    1    2    0    0 -0.71026980749E+00  0.33308133317E+00  0.88170892840E+00  0.90007814841E+02  0.90000077197E+02 0.  0.
        -12    1    1    2    0    0  0.71026980749E+00 -0.33308133317E+00 -0.88170892840E+00  0.11801851585E+01  0.00000000000E+00 0.  1.
         11    1    3    3    0    0 -0.41625089879E+01  0.19102748658E+02 -0.20317651302E+02  0.28196603378E+02  0.51100000000E-03 0. -1.
        -11    1    3    3    0    0 -0.90865152660E+01 -0.31710636299E+02 -0.12673920777E+01  0.33011142014E+02  0.51100000000E-03 0.  1.
         12    1    3    3    0    0  0.12538754446E+02  0.12940968974E+02  0.22466752308E+02  0.28800069450E+02  0.00000000000E+00 0. -1.
</event>
<event>
 7    1  0.1654239E-015  0.9000773E+02  0.7816164E-02  0.1186339E+00
        -11   -1    0    0    0    0  0.00000000000E+00  0.00000000000E+00  0.45593999997E+02  0.45594000000E+02  0.51100000000E-03 0. -1.
         11   -1    0    0    0    0 -0.00000000000E+00 -0.00000000000E+00 -0.45593999997E+02  0.45594000000E+02  0.51100000000E-03 0.  1.
    9900012    2    1    2    0    0  0.10225793772E+00  0.29511956941E+00  0.11381934126E+01  0.90007730331E+02  0.89999991572E+02 0.  0.
        -12    1    1    2    0    0 -0.10225793772E+00 -0.29511956941E+00 -0.11381934126E+01  0.11802696686E+01  0.00000000000E+00 0.  1.
         11    1    3    3    0    0 -0.36826337810E+01  0.10732859360E+02 -0.15240828287E+01  0.11448968964E+02  0.51100000000E-03 0. -1.
        -11    1    3    3    0    0 -0.91528320512E+01  0.15307108915E+02 -0.30064032923E+02  0.34956086648E+02  0.51100000000E-03 0.  1.
         12    1    3    3    0    0  0.12937723770E+02 -0.25744848706E+02  0.32726309164E+02  0.43602674720E+02  0.00000000000E+00 0. -1.
</event>
<event>
 7    1  0.1654239E-015  0.9000776E+02  0.7816164E-02  0.1186339E+00
        -11   -1    0    0    0    0  0.00000000000E+00  0.00000000000E+00  0.45593999997E+02  0.45594000000E+02  0.51100000000E-03 0. -1.
         11   -1    0    0    0    0 -0.00000000000E+00 -0.00000000000E+00 -0.45593999997E+02  0.45594000000E+02  0.51100000000E-03 0.  1.
    9900012    2    1    2    0    0  0.84746821988E+00 -0.27123988254E+00  0.77536959003E+00  0.90007757881E+02  0.90000019485E+02 0.  0.
        -12    1    1    2    0    0 -0.84746821988E+00  0.27123988254E+00 -0.77536959003E+00  0.11802421187E+01  0.00000000000E+00 0.  1.
         11    1    3    3    0    0 -0.85805444209E+01  0.62220353776E+01 -0.20384115670E+01  0.10793265900E+02  0.51100000000E-03 0. -1.
        -11    1    3    3    0    0 -0.26661363033E+02 -0.36334021049E+01 -0.22470664995E+02  0.35056535414E+02  0.51100000000E-03 0.  1.
         12    1    3    3    0    0  0.36089375674E+02 -0.28598731553E+01  0.25284446152E+02  0.44157956568E+02  0.00000000000E+00 0. -1.
</event>
<event>
 7    1  0.1654239E-015  0.9000748E+02  0.7816164E-02  0.1186340E+00
        -11   -1    0    0    0    0  0.00000000000E+00  0.00000000000E+00  0.45593999997E+02  0.45594000000E+02  0.51100000000E-03 0. -1.
         11   -1    0    0    0    0 -0.00000000000E+00 -0.00000000000E+00 -0.45593999997E+02  0.45594000000E+02  0.51100000000E-03 0.  1.
    9900012    2    1    2    0    0  0.31261340487E+00  0.89071856899E+00  0.70888391890E+00  0.90007481842E+02  0.89999739802E+02 0.  0.
        -12    1    1    2    0    0 -0.31261340487E+00 -0.89071856899E+00 -0.70888391890E+00  0.11805181576E+01  0.00000000000E+00 0.  1.
         11    1    3    3    0    0  0.56259802566E+00  0.34673006156E+01  0.73810655319E+01  0.81742778730E+01  0.51100000000E-03 0. -1.
        -11    1    3    3    0    0 -0.23526805504E+02 -0.10535209139E+02  0.28809095626E+02  0.38658313464E+02  0.51100000000E-03 0.  1.
         12    1    3    3    0    0  0.23276820883E+02  0.79586270923E+01 -0.35481277239E+02  0.43174890505E+02  0.00000000000E+00 0. -1.
</event>
<event>
 7    1  0.1654239E-015  0.9000793E+02  0.7816164E-02  0.1186339E+00
        -11   -1    0    0    0    0  0.00000000000E+00  0.00000000000E+00  0.45593999997E+02  0.45594000000E+02  0.51100000000E-03 0.  1.
         11   -1    0    0    0    0 -0.00000000000E+00 -0.00000000000E+00 -0.45593999997E+02  0.45594000000E+02  0.51100000000E-03 0. -1.
    9900012    2    1    2    0    0 -0.56816960982E+00  0.77813734556E+00 -0.68136439519E+00  0.90007927175E+02  0.90000191013E+02 0.  0.
        -12    1    1    2    0    0  0.56816960982E+00 -0.77813734556E+00  0.68136439519E+00  0.11800728253E+01  0.00000000000E+00 0.  1.
         11    1    3    3    0    0  0.53586732800E+01  0.36202833520E+01  0.59636562021E+01  0.87969896231E+01  0.51100000000E-03 0. -1.
        -11    1    3    3    0    0  0.18527936410E+01 -0.17161836532E+02  0.33609357022E+02  0.37782937381E+02  0.51100000000E-03 0.  1.
         12    1    3    3    0    0 -0.77796365308E+01  0.14319690526E+02 -0.40254377619E+02  0.43428000171E+02  0.00000000000E+00 0. -1.
</event>
<event>
 7    1  0.1654239E-015  0.9000766E+02  0.7816164E-02  0.1186339E+00
        -11   -1    0    0    0    0  0.00000000000E+00  0.00000000000E+00  0.45593999997E+02  0.45594000000E+02  0.51100000000E-03 0.  1.
         11   -1    0    0    0    0 -0.00000000000E+00 -0.00000000000E+00 -0.45593999997E+02  0.45594000000E+02  0.51100000000E-03 0. -1.
    9900012    2    1    2    0    0 -0.19104949708E+00  0.11618335774E+01  0.82701642110E-01  0.90007662449E+02  0.89999922794E+02 0.  0.
        -12    1    1    2    0    0  0.19104949708E+00 -0.11618335774E+01 -0.82701642110E-01  0.11803375507E+01  0.00000000000E+00 0.  1.
         11    1    3    3    0    0  0.73680217321E+00  0.86823416534E+01  0.15166195232E+01  0.88445502468E+01  0.51100000000E-03 0. -1.
        -11    1    3    3    0    0  0.20201625052E+02  0.15018296674E+02  0.28583459766E+02  0.38087649733E+02  0.51100000000E-03 0.  1.
         12    1    3    3    0    0 -0.21129476723E+02 -0.22538804750E+02 -0.30017377647E+02  0.43075462469E+02  0.00000000000E+00 0. -1.
</event>
<event>
 7    1  0.1654239E-015  0.9000775E+02  0.7816164E-02  0.1186339E+00
        -11   -1    0    0    0    0  0.00000000000E+00  0.00000000000E+00  0.45593999997E+02  0.45594000000E+02  0.51100000000E-03 0.  1.
         11   -1    0    0    0    0 -0.00000000000E+00 -0.00000000000E+00 -0.45593999997E+02  0.45594000000E+02  0.51100000000E-03 0. -1.
    9900012    2    1    2    0    0  0.48946842884E+00  0.99673865058E+00  0.39989671608E+00  0.90007752287E+02  0.90000013817E+02 0.  0.
        -12    1    1    2    0    0 -0.48946842884E+00 -0.99673865058E+00 -0.39989671608E+00  0.11802477129E+01  0.00000000000E+00 0.  1.
         11    1    3    3    0    0  0.82321917374E+01  0.27710085811E+01 -0.33465943259E+02  0.34574800475E+02  0.51100000000E-03 0. -1.
        -11    1    3    3    0    0  0.62550128248E+01 -0.10218262992E+02 -0.52182473497E+01  0.13067830336E+02  0.51100000000E-03 0.  1.
        -12    1    3    3    0    0 -0.13997736133E+02  0.84439930618E+01  0.39084087325E+02  0.42365121477E+02  0.00000000000E+00 0.  1.
</event>
<event>
 7    1  0.1654239E-015  0.9000767E+02  0.7816164E-02  0.1186339E+00
        -11   -1    0    0    0    0  0.00000000000E+00  0.00000000000E+00  0.45593999997E+02  0.45594000000E+02  0.51100000000E-03 0. -1.
         11   -1    0    0    0    0 -0.00000000000E+00 -0.00000000000E+00 -0.45593999997E+02  0.45594000000E+02  0.51100000000E-03 0.  1.
    9900012    2    1    2    0    0  0.91928313016E+00  0.20373263730E+00  0.71175859938E+00  0.90007665825E+02  0.89999926214E+02 0.  0.
        -12    1    1    2    0    0 -0.91928313016E+00 -0.20373263730E+00 -0.71175859938E+00  0.11803341750E+01  0.00000000000E+00 0.  1.
         11    1    3    3    0    0 -0.20937249890E+02 -0.14252261239E+02  0.28783321681E+02  0.38340252877E+02  0.51100000000E-03 0. -1.
        -11    1    3    3    0    0 -0.95198535397E+01  0.34423857578E+01 -0.65672177353E+01  0.12066730301E+02  0.51100000000E-03 0.  1.
        -12    1    3    3    0    0  0.31376386560E+02  0.11013608118E+02 -0.21504345347E+02  0.39600682647E+02  0.00000000000E+00 0.  1.
</event>
<event>
 7    1  0.1654239E-015  0.9000807E+02  0.7816164E-02  0.1186338E+00
        -11   -1    0    0    0    0  0.00000000000E+00  0.00000000000E+00  0.45593999997E+02  0.45594000000E+02  0.51100000000E-03 0. -1.
         11   -1    0    0    0    0 -0.00000000000E+00 -0.00000000000E+00 -0.45593999997E+02  0.45594000000E+02  0.51100000000E-03 0.  1.
    9900012    2    1    2    0    0 -0.75066922187E+00 -0.73519258550E+00 -0.53685946659E+00  0.90008071822E+02  0.90000337569E+02 0.  0.
        -12    1    1    2    0    0  0.75066922187E+00  0.73519258550E+00  0.53685946659E+00  0.11799281780E+01  0.00000000000E+00 0.  1.
         11    1    3    3    0    0 -0.24200309306E+01 -0.28351543775E+02  0.20589525555E+02  0.35122573182E+02  0.51100000000E-03 0. -1.
        -11    1    3    3    0    0  0.60672733232E+01 -0.83134849329E+01  0.37606964111E+01  0.10957585275E+02  0.51100000000E-03 0.  1.
        -12    1    3    3    0    0 -0.43979116145E+01  0.35929836122E+02 -0.24887081432E+02  0.43927913364E+02  0.00000000000E+00 0.  1.
</event>
<event>
 7    1  0.1654239E-015  0.9000771E+02  0.7816164E-02  0.1186339E+00
        -11   -1    0    0    0    0  0.00000000000E+00  0.00000000000E+00  0.45593999997E+02  0.45594000000E+02  0.51100000000E-03 0.  1.
         11   -1    0    0    0    0 -0.00000000000E+00 -0.00000000000E+00 -0.45593999997E+02  0.45594000000E+02  0.51100000000E-03 0. -1.
    9900012    2    1    2    0    0  0.11084454933E+01  0.37248899297E+00 -0.16025724915E+00  0.90007711117E+02  0.89999972104E+02 0.  0.
        -12    1    1    2    0    0 -0.11084454933E+01 -0.37248899297E+00  0.16025724915E+00  0.11802888830E+01  0.00000000000E+00 0.  1.
         11    1    3    3    0    0 -0.55284978368E+01  0.65860942905E+01  0.19575035402E+01  0.88188857974E+01  0.51100000000E-03 0. -1.
        -11    1    3    3    0    0  0.14316376658E+02  0.12385722735E+02  0.34530788627E+02  0.39379437931E+02  0.51100000000E-03 0.  1.
         12    1    3    3    0    0 -0.76794333276E+01 -0.18599328032E+02 -0.36648549417E+02  0.41809387389E+02  0.00000000000E+00 0. -1.
</event>
<event>
 7    1  0.1654239E-015  0.9000768E+02  0.7816164E-02  0.1186339E+00
        -11   -1    0    0    0    0  0.00000000000E+00  0.00000000000E+00  0.45593999997E+02  0.45594000000E+02  0.51100000000E-03 0.  1.
         11   -1    0    0    0    0 -0.00000000000E+00 -0.00000000000E+00 -0.45593999997E+02  0.45594000000E+02  0.51100000000E-03 0. -1.
    9900012    2    1    2    0    0  0.27957723132E+00  0.53155661379E-01 -0.11454995447E+01  0.90007678790E+02  0.89999939350E+02 0.  0.
        -12    1    1    2    0    0 -0.27957723132E+00 -0.53155661379E-01  0.11454995447E+01  0.11803212103E+01  0.00000000000E+00 0.  1.
         11    1    3    3    0    0  0.38951557523E+02 -0.18921546120E+02 -0.66305027159E+01  0.43808815409E+02  0.51100000000E-03 0. -1.
        -11    1    3    3    0    0 -0.54307605443E+01  0.10069591921E+02  0.80911935032E+00  0.11469285764E+02  0.51100000000E-03 0.  1.
        -12    1    3    3    0    0 -0.33241219748E+02  0.89051098603E+01  0.46758838209E+01  0.34729577617E+02  0.00000000000E+00 0.  1.
</event>
<event>
 7    1  0.1654239E-015  0.9000769E+02  0.7816164E-02  0.1186339E+00
        -11   -1    0    0    0    0  0.00000000000E+00  0.00000000000E+00  0.45593999997E+02  0.45594000000E+02  0.51100000000E-03 0. -1.
         11   -1    0    0    0    0 -0.00000000000E+00 -0.00000000000E+00 -0.45593999997E+02  0.45594000000E+02  0.51100000000E-03 0.  1.
    9900012    2    1    2    0    0  0.88362334506E+00  0.69953906807E+00 -0.35068759478E+00  0.90007692026E+02  0.89999952761E+02 0.  0.
        -12    1    1    2    0    0 -0.88362334506E+00 -0.69953906807E+00  0.35068759478E+00  0.11803079737E+01  0.00000000000E+00 0.  1.
         11    1    3    3    0    0 -0.31570479535E+01  0.17305373370E+01  0.45123493143E+01  0.57726084096E+01  0.51100000000E-03 0. -1.
        -11    1    3    3    0    0  0.12376242994E+02 -0.11269562587E+02 -0.41790719301E+02  0.45018203557E+02  0.51100000000E-03 0.  1.
         12    1    3    3    0    0 -0.83355716953E+01  0.10238564318E+02  0.36927682392E+02  0.39216880060E+02  0.00000000000E+00 0. -1.
</event>
<event>
 7    1  0.1654239E-015  0.9000776E+02  0.7816164E-02  0.1186339E+00
        -11   -1    0    0    0    0  0.00000000000E+00  0.00000000000E+00  0.45593999997E+02  0.45594000000E+02  0.51100000000E-03 0. -1.
         11   -1    0    0    0    0 -0.00000000000E+00 -0.00000000000E+00 -0.45593999997E+02  0.45594000000E+02  0.51100000000E-03 0.  1.
    9900012    2    1    2    0    0 -0.11687838315E+01  0.10417169929E+00 -0.12669763677E+00  0.90007762872E+02  0.90000024542E+02 0.  0.
        -12    1    1    2    0    0  0.11687838315E+01 -0.10417169929E+00  0.12669763677E+00  0.11802371282E+01  0.00000000000E+00 0.  1.
         11    1    3    3    0    0  0.64431063481E+01 -0.46206140947E+01  0.66950421663E+01  0.10377248378E+02  0.51100000000E-03 0. -1.
        -11    1    3    3    0    0 -0.23712516923E+02 -0.25290404478E+02  0.16455653348E+02  0.38375468009E+02  0.51100000000E-03 0.  1.
         12    1    3    3    0    0  0.16100626744E+02  0.30015190272E+02 -0.23277393151E+02  0.41255046485E+02  0.00000000000E+00 0. -1.
</event>
<event>
 7    1  0.1654239E-015  0.9000778E+02  0.7816164E-02  0.1186339E+00
        -11   -1    0    0    0    0  0.00000000000E+00  0.00000000000E+00  0.45593999997E+02  0.45594000000E+02  0.51100000000E-03 0.  1.
         11   -1    0    0    0    0 -0.00000000000E+00 -0.00000000000E+00 -0.45593999997E+02  0.45594000000E+02  0.51100000000E-03 0. -1.
    9900012    2    1    2    0    0  0.10126034338E+01 -0.14955520086E+00  0.58752722399E+00  0.90007779380E+02  0.90000041268E+02 0.  0.
        -12    1    1    2    0    0 -0.10126034338E+01  0.14955520086E+00 -0.58752722399E+00  0.11802206197E+01  0.00000000000E+00 0.  1.
         11    1    3    3    0    0 -0.19084308903E+02  0.36631548669E+01 -0.26903474449E+02  0.33187746045E+02  0.51100000000E-03 0. -1.
        -11    1    3    3    0    0 -0.42942680260E+00 -0.50698099013E+01 -0.11590519921E+02  0.12658101442E+02  0.51100000000E-03 0.  1.
        -12    1    3    3    0    0  0.20526339139E+02  0.12570998335E+01  0.39081521594E+02  0.44161931893E+02  0.00000000000E+00 0.  1.
</event>
<event>
 7    1  0.1654239E-015  0.9000809E+02  0.7816164E-02  0.1186338E+00
        -11   -1    0    0    0    0  0.00000000000E+00  0.00000000000E+00  0.45593999997E+02  0.45594000000E+02  0.51100000000E-03 0.  1.
         11   -1    0    0    0    0 -0.00000000000E+00 -0.00000000000E+00 -0.45593999997E+02  0.45594000000E+02  0.51100000000E-03 0. -1.
    9900012    2    1    2    0    0 -0.17252732245E-01 -0.11181428661E+01  0.37634730302E+00  0.90008093894E+02  0.90000359933E+02 0.  0.
        -12    1    1    2    0    0  0.17252732245E-01  0.11181428661E+01 -0.37634730302E+00  0.11799061057E+01  0.00000000000E+00 0.  1.
         11    1    3    3    0    0  0.21696056400E+01 -0.75087419559E+01  0.61963697081E+01  0.99741361638E+01  0.51100000000E-03 0. -1.
        -11    1    3    3    0    0  0.33276308915E+02 -0.15641270458E+02  0.44563537764E+01  0.37038104241E+02  0.51100000000E-03 0.  1.
         12    1    3    3    0    0 -0.35463167287E+02  0.22031869548E+02 -0.10276376182E+02  0.42995853489E+02  0.00000000000E+00 0. -1.
</event>
<event>
 7    1  0.1654239E-015  0.9000754E+02  0.7816164E-02  0.1186339E+00
        -11   -1    0    0    0    0  0.00000000000E+00  0.00000000000E+00  0.45593999997E+02  0.45594000000E+02  0.51100000000E-03 0. -1.
         11   -1    0    0    0    0 -0.00000000000E+00 -0.00000000000E+00 -0.45593999997E+02  0.45594000000E+02  0.51100000000E-03 0.  1.
    9900012    2    1    2    0    0 -0.87689139379E+00  0.76670331300E+00 -0.19161018945E+00  0.90007539517E+02  0.89999798239E+02 0.  0.
        -12    1    1    2    0    0  0.87689139379E+00 -0.76670331300E+00  0.19161018945E+00  0.11804604828E+01  0.00000000000E+00 0.  1.
         11    1    3    3    0    0 -0.22987949433E+02  0.13768294978E+02 -0.14751388911E+02  0.30587828312E+02  0.51100000000E-03 0. -1.
        -11    1    3    3    0    0 -0.15887089909E+02  0.16699011069E+01  0.89274867172E+01  0.18299951225E+02  0.51100000000E-03 0.  1.
        -12    1    3    3    0    0  0.37998147948E+02 -0.14671492772E+02  0.56322920048E+01  0.41119759981E+02  0.00000000000E+00 0.  1.
</event>
<event>
 7    1  0.1654239E-015  0.9000761E+02  0.7816164E-02  0.1186339E+00
        -11   -1    0    0    0    0  0.00000000000E+00  0.00000000000E+00  0.45593999997E+02  0.45594000000E+02  0.51100000000E-03 0.  1.
         11   -1    0    0    0    0 -0.00000000000E+00 -0.00000000000E+00 -0.45593999997E+02  0.45594000000E+02  0.51100000000E-03 0. -1.
    9900012    2    1    2    0    0 -0.10733022475E+01 -0.33617647542E+00  0.35823561006E+00  0.90007608078E+02  0.89999867705E+02 0.  0.
        -12    1    1    2    0    0  0.10733022475E+01  0.33617647542E+00 -0.35823561006E+00  0.11803919220E+01  0.00000000000E+00 0.  1.
         11    1    3    3    0    0  0.14671837106E+02 -0.33540064717E+02  0.15177042349E+02  0.39630056271E+02  0.51100000000E-03 0. -1.
        -11    1    3    3    0    0 -0.71047499836E+01  0.13592107290E+01  0.75951627081E+01  0.10488633036E+02  0.51100000000E-03 0.  1.
        -12    1    3    3    0    0 -0.86403893699E+01  0.31844677513E+02 -0.22413969447E+02  0.39888918771E+02  0.00000000000E+00 0.  1.
</event>
<event>
 7    1  0.1654239E-015  0.9000863E+02  0.7816164E-02  0.1186337E+00
        -11   -1    0    0    0    0  0.00000000000E+00  0.00000000000E+00  0.45593999997E+02  0.45594000000E+02  0.51100000000E-03 0.  1.
         11   -1    0    0    0    0 -0.00000000000E+00 -0.00000000000E+00 -0.45593999997E+02  0.45594000000E+02  0.51100000000E-03 0. -1.
    9900012    2    1    2    0    0  0.19244837597E+00 -0.86459028107E+00 -0.77869826407E+00  0.90008625709E+02  0.90000898764E+02 0.  0.
        -12    1    1    2    0    0 -0.19244837597E+00  0.86459028107E+00  0.77869826407E+00  0.11793742909E+01  0.00000000000E+00 0.  1.
         11    1    3    3    0    0  0.31115630038E+02 -0.10606118865E+02 -0.18919984869E+02  0.37929381985E+02  0.51100000000E-03 0. -1.
        -11    1    3    3    0    0  0.32936145482E+00 -0.89509620871E+01 -0.36151298459E+01  0.96590561297E+01  0.51100000000E-03 0.  1.
        -12    1    3    3    0    0 -0.31252543117E+02  0.18692490671E+02  0.21756416450E+02  0.42420187595E+02  0.00000000000E+00 0.  1.
</event>
<event>
 7    1  0.1654239E-015  0.9000780E+02  0.7816164E-02  0.1186339E+00
        -11   -1    0    0    0    0  0.00000000000E+00  0.00000000000E+00  0.45593999997E+02  0.45594000000E+02  0.51100000000E-03 0. -1.
         11   -1    0    0    0    0 -0.00000000000E+00 -0.00000000000E+00 -0.45593999997E+02  0.45594000000E+02  0.51100000000E-03 0.  1.
    9900012    2    1    2    0    0  0.11638114322E+01 -0.32753417878E-01  0.19323984376E+00  0.90007800240E+02  0.90000062403E+02 0.  0.
        -12    1    1    2    0    0 -0.11638114322E+01  0.32753417878E-01 -0.19323984376E+00  0.11801997599E+01  0.00000000000E+00 0.  1.
         11    1    3    3    0    0 -0.68209474736E+00  0.89655440373E+01 -0.22316380982E+01  0.92642561489E+01  0.51100000000E-03 0. -1.
        -11    1    3    3    0    0  0.22734887617E+00  0.20399576087E+02 -0.30424232610E+02  0.36630974901E+02  0.51100000000E-03 0.  1.
         12    1    3    3    0    0  0.16185573033E+01 -0.29397873542E+02  0.32849110552E+02  0.44112569190E+02  0.00000000000E+00 0. -1.
</event>
<event>
 7    1  0.1654239E-015  0.9000772E+02  0.7816164E-02  0.1186339E+00
        -11   -1    0    0    0    0  0.00000000000E+00  0.00000000000E+00  0.45593999997E+02  0.45594000000E+02  0.51100000000E-03 0.  1.
         11   -1    0    0    0    0 -0.00000000000E+00 -0.00000000000E+00 -0.45593999997E+02  0.45594000000E+02  0.51100000000E-03 0. -1.
    9900012    2    1    2    0    0  0.70403158739E+00 -0.96390608658E-02 -0.94726027983E+00  0.90007722310E+02  0.89999983445E+02 0.  0.
        -12    1    1    2    0    0 -0.70403158739E+00  0.96390608658E-02  0.94726027983E+00  0.11802776899E+01  0.00000000000E+00 0.  1.
         11    1    3    3    0    0  0.42928968554E+01  0.21737096341E+02 -0.33712849077E+02  0.40342118362E+02  0.51100000000E-03 0. -1.
        -11    1    3    3    0    0  0.70666823085E+01 -0.59076213508E+01 -0.25181463174E+01  0.95487721729E+01  0.51100000000E-03 0.  1.
        -12    1    3    3    0    0 -0.10655547577E+02 -0.15839114051E+02  0.35283735114E+02  0.40116831776E+02  0.00000000000E+00 0.  1.
</event>
<event>
 7    1  0.1654239E-015  0.9000776E+02  0.7816164E-02  0.1186339E+00
        -11   -1    0    0    0    0  0.00000000000E+00  0.00000000000E+00  0.45593999997E+02  0.45594000000E+02  0.51100000000E-03 0. -1.
         11   -1    0    0    0    0 -0.00000000000E+00 -0.00000000000E+00 -0.45593999997E+02  0.45594000000E+02  0.51100000000E-03 0.  1.
    9900012    2    1    2    0    0  0.11706765233E+01 -0.68171718433E-01  0.13351748790E+00  0.90007763657E+02  0.90000025337E+02 0.  0.
        -12    1    1    2    0    0 -0.11706765233E+01  0.68171718433E-01 -0.13351748790E+00  0.11802363428E+01  0.00000000000E+00 0.  1.
         11    1    3    3    0    0 -0.62424199375E+01  0.87120017446E+01  0.40369053298E+01  0.11452658468E+02  0.51100000000E-03 0. -1.
        -11    1    3    3    0    0 -0.21343919945E+02 -0.10949346411E+02 -0.30854872081E+02  0.39082914897E+02  0.51100000000E-03 0.  1.
         12    1    3    3    0    0  0.28757016406E+02  0.21691729480E+01  0.26951484239E+02  0.39472190293E+02  0.00000000000E+00 0. -1.
</event>
<event>
 7    1  0.1654239E-015  0.9000774E+02  0.7816164E-02  0.1186339E+00
        -11   -1    0    0    0    0  0.00000000000E+00  0.00000000000E+00  0.45593999997E+02  0.45594000000E+02  0.51100000000E-03 0. -1.
         11   -1    0    0    0    0 -0.00000000000E+00 -0.00000000000E+00 -0.45593999997E+02  0.45594000000E+02  0.51100000000E-03 0.  1.
    9900012    2    1    2    0    0 -0.16103228721E+00 -0.78553804215E+00  0.86603827735E+00  0.90007735745E+02  0.89999997057E+02 0.  0.
        -12    1    1    2    0    0  0.16103228721E+00  0.78553804215E+00 -0.86603827735E+00  0.11802642547E+01  0.00000000000E+00 0.  1.
         11    1    3    3    0    0  0.61543968829E+01 -0.70353297296E+01 -0.38842078316E+01  0.10122229801E+02  0.51100000000E-03 0. -1.
        -11    1    3    3    0    0 -0.23699129240E+01 -0.16990777152E+02 -0.31951351875E+02  0.36265574342E+02  0.51100000000E-03 0.  1.
         12    1    3    3    0    0 -0.39455162461E+01  0.23240568839E+02  0.36701597984E+02  0.43619931602E+02  0.00000000000E+00 0. -1.
</event>
<event>
 7    1  0.1654239E-015  0.9000779E+02  0.7816164E-02  0.1186339E+00
        -11   -1    0    0    0    0  0.00000000000E+00  0.00000000000E+00  0.45593999997E+02  0.45594000000E+02  0.51100000000E-03 0. -1.
         11   -1    0    0    0    0 -0.00000000000E+00 -0.00000000000E+00 -0.45593999997E+02  0.45594000000E+02  0.51100000000E-03 0.  1.
    9900012    2    1    2    0    0 -0.29411779096E+00 -0.10676886963E+01 -0.40797291576E+00  0.90007785474E+02  0.90000047442E+02 0.  0.
        -12    1    1    2    0    0  0.29411779096E+00  0.10676886963E+01  0.40797291576E+00  0.11802145259E+01  0.00000000000E+00 0.  1.
         11    1    3    3    0    0  0.88722174776E+01 -0.22374435366E+01 -0.33789705466E+01  0.97539652842E+01  0.51100000000E-03 0. -1.
        -11    1    3    3    0    0  0.26632045965E+02 -0.24442522974E+02  0.18958262459E+00  0.36148841523E+02  0.51100000000E-03 0.  1.
         12    1    3    3    0    0 -0.35798381233E+02  0.25612277815E+02  0.27814150063E+01  0.44104978667E+02  0.00000000000E+00 0. -1.
</event>
<event>
 7    1  0.1654239E-015  0.9000769E+02  0.7816164E-02  0.1186339E+00
        -11   -1    0    0    0    0  0.00000000000E+00  0.00000000000E+00  0.45593999997E+02  0.45594000000E+02  0.51100000000E-03 0.  1.
         11   -1    0    0    0    0 -0.00000000000E+00 -0.00000000000E+00 -0.45593999997E+02  0.45594000000E+02  0.51100000000E-03 0. -1.
    9900012    2    1    2    0    0 -0.11054469632E+01  0.34218260403E+00 -0.23245592987E+00  0.90007687464E+02  0.89999948139E+02 0.  0.
        -12    1    1    2    0    0  0.11054469632E+01 -0.34218260403E+00  0.23245592987E+00  0.11803125358E+01  0.00000000000E+00 0.  1.
         11    1    3    3    0    0  0.12563500386E+02  0.14885738208E+02  0.34861829416E+01  0.19788385880E+02  0.51100000000E-03 0. -1.
        -11    1    3    3    0    0  0.17681034421E+02  0.11877099561E+02  0.14070658608E+02  0.25527786941E+02  0.51100000000E-03 0.  1.
         12    1    3    3    0    0 -0.31349981770E+02 -0.26420655165E+02 -0.17789297479E+02  0.44691514644E+02  0.00000000000E+00 0. -1.
</event>
<event>
 7    1  0.1654239E-015  0.9000770E+02  0.7816164E-02  0.1186339E+00
        -11   -1    0    0    0    0  0.00000000000E+00  0.00000000000E+00  0.45593999997E+02  0.45594000000E+02  0.51100000000E-03 0.  1.
         11   -1    0    0    0    0 -0.00000000000E+00 -0.00000000000E+00 -0.45593999997E+02  0.45594000000E+02  0.51100000000E-03 0. -1.
    9900012    2    1    2    0    0  0.35592739737E+00 -0.10701325960E+01 -0.34821216626E+00  0.90007695040E+02  0.89999955815E+02 0.  0.
        -12    1    1    2    0    0 -0.35592739737E+00  0.10701325960E+01  0.34821216626E+00  0.11803049597E+01  0.00000000000E+00 0.  1.
         11    1    3    3    0    0 -0.79367573741E+01  0.70687879067E+00  0.37093227951E+01  0.87892474706E+01  0.51100000000E-03 0. -1.
        -11    1    3    3    0    0 -0.76894969937E+00  0.38908127769E+02  0.26248021166E+01  0.39004144351E+02  0.51100000000E-03 0.  1.
         12    1    3    3    0    0  0.90616344708E+01 -0.40685139156E+02 -0.66823370780E+01  0.42214303219E+02  0.00000000000E+00 0. -1.
</event>
<event>
 7    1  0.1868729E-015  0.9000768E+02  0.7816164E-02  0.1186339E+00
        -11   -1    0    0    0    0  0.00000000000E+00  0.00000000000E+00  0.45593999997E+02  0.45594000000E+02  0.51100000000E-03 0. -1.
         11   -1    0    0    0    0 -0.00000000000E+00 -0.00000000000E+00 -0.45593999997E+02  0.45594000000E+02  0.51100000000E-03 0.  1.
    9900012    2    1    2    0    0 -0.83880021196E+00  0.83036799562E+00  0.68705529785E-02  0.90007684784E+02  0.89999945424E+02 0.  0.
        -12    1    1    2    0    0  0.83880021196E+00 -0.83036799562E+00 -0.68705529785E-02  0.11803152156E+01  0.00000000000E+00 0.  1.
         11    1    3    3    0    0 -0.24092777254E+01  0.40274893753E+01  0.80101053151E+01  0.92836995452E+01  0.51100000000E-03 0. -1.
        -11    1    3    3    0    0  0.85085718596E+01  0.31951148722E+02 -0.24627409409E+02  0.41228400335E+02  0.51100000000E-03 0.  1.
         12    1    3    3    0    0 -0.69380943462E+01 -0.35148270101E+02  0.16624174646E+02  0.39495584904E+02  0.00000000000E+00 0. -1.
</event>
<event>
 7    1  0.1654239E-015  0.9000773E+02  0.7816164E-02  0.1186339E+00
        -11   -1    0    0    0    0  0.00000000000E+00  0.00000000000E+00  0.45593999997E+02  0.45594000000E+02  0.51100000000E-03 0.  1.
         11   -1    0    0    0    0 -0.00000000000E+00 -0.00000000000E+00 -0.45593999997E+02  0.45594000000E+02  0.51100000000E-03 0. -1.
    9900012    2    1    2    0    0 -0.98740006749E+00  0.55316057171E+00 -0.33481709483E+00  0.90007725456E+02  0.89999986632E+02 0.  0.
        -12    1    1    2    0    0  0.98740006749E+00 -0.55316057171E+00  0.33481709483E+00  0.11802745436E+01  0.00000000000E+00 0.  1.
         11    1    3    3    0    0 -0.52371724501E+01  0.44386176824E+01 -0.34895212431E+01  0.77010428495E+01  0.51100000000E-03 0. -1.
        -11    1    3    3    0    0  0.23431196363E+01  0.38677105703E+02 -0.45368806071E+01  0.39012715890E+02  0.51100000000E-03 0.  1.
         12    1    3    3    0    0  0.19066527463E+01 -0.42562562814E+02  0.76915847554E+01  0.43293966717E+02  0.00000000000E+00 0. -1.
</event>
<event>
 7    1  0.1654239E-015  0.9000739E+02  0.7816164E-02  0.1186340E+00
        -11   -1    0    0    0    0  0.00000000000E+00  0.00000000000E+00  0.45593999997E+02  0.45594000000E+02  0.51100000000E-03 0. -1.
         11   -1    0    0    0    0 -0.00000000000E+00 -0.00000000000E+00 -0.45593999997E+02  0.45594000000E+02  0.51100000000E-03 0.  1.
    9900012    2    1    2    0    0  0.31621965925E+00 -0.11314090388E+01 -0.11731666940E+00  0.90007388088E+02  0.89999644810E+02 0.  0.
        -12    1    1    2    0    0 -0.31621965925E+00  0.11314090388E+01  0.11731666940E+00  0.11806119120E+01  0.00000000000E+00 0.  1.
         11    1    3    3    0    0 -0.27383641383E+02  0.21089907417E+02  0.10575679969E+02  0.36145442552E+02  0.51100000000E-03 0. -1.
        -11    1    3    3    0    0 -0.12911455521E+01  0.95954253514E+01 -0.94445400321E+00  0.97278588670E+01  0.51100000000E-03 0.  1.
        -12    1    3    3    0    0  0.28991006594E+02 -0.31816741808E+02 -0.97485426349E+01  0.44134086669E+02  0.00000000000E+00 0.  1.
</event>
<event>
 7    1  0.1654239E-015  0.9000775E+02  0.7816164E-02  0.1186339E+00
        -11   -1    0    0    0    0  0.00000000000E+00  0.00000000000E+00  0.45593999997E+02  0.45594000000E+02  0.51100000000E-03 0. -1.
         11   -1    0    0    0    0 -0.00000000000E+00 -0.00000000000E+00 -0.45593999997E+02  0.45594000000E+02  0.51100000000E-03 0.  1.
    9900012    2    1    2    0    0 -0.60390385573E+00  0.91114771103E+00 -0.44507149252E+00  0.90007754834E+02  0.90000016398E+02 0.  0.
        -12    1    1    2    0    0  0.60390385573E+00 -0.91114771103E+00  0.44507149252E+00  0.11802451659E+01  0.00000000000E+00 0.  1.
         11    1    3    3    0    0 -0.32353709958E+01  0.57776540069E+01  0.61521368804E+01  0.90386779875E+01  0.51100000000E-03 0. -1.
        -11    1    3    3    0    0 -0.84763419079E+01  0.23366610900E+02 -0.32611012155E+02  0.41003963114E+02  0.51100000000E-03 0.  1.
         12    1    3    3    0    0  0.11107809048E+02 -0.28233117196E+02  0.26013803782E+02  0.39965113732E+02  0.00000000000E+00 0. -1.
</event>
<event>
 7    1  0.1654239E-015  0.9000685E+02  0.7816164E-02  0.1186341E+00
        -11   -1    0    0    0    0  0.00000000000E+00  0.00000000000E+00  0.45593999997E+02  0.45594000000E+02  0.51100000000E-03 0. -1.
         11   -1    0    0    0    0 -0.00000000000E+00 -0.00000000000E+00 -0.45593999997E+02  0.45594000000E+02  0.51100000000E-03 0.  1.
    9900012    2    1    2    0    0 -0.16678254833E+00  0.70593353124E-01  0.11671856047E+01  0.90006847141E+02  0.89999096719E+02 0.  0.
        -12    1    1    2    0    0  0.16678254833E+00 -0.70593353124E-01 -0.11671856047E+01  0.11811528588E+01  0.00000000000E+00 0.  1.
         11    1    3    3    0    0 -0.12430107413E+01  0.24380620146E+01  0.74466180701E+01  0.79335580311E+01  0.51100000000E-03 0. -1.
        -11    1    3    3    0    0 -0.22225984911E+02  0.30189848831E+02  0.10083705747E+02  0.38821418052E+02  0.51100000000E-03 0.  1.
         12    1    3    3    0    0  0.23302213104E+02 -0.32557317493E+02 -0.16363138212E+02  0.43251871058E+02  0.00000000000E+00 0. -1.
</event>
<event>
 7    1  0.1654239E-015  0.9000777E+02  0.7816164E-02  0.1186339E+00
        -11   -1    0    0    0    0  0.00000000000E+00  0.00000000000E+00  0.45593999997E+02  0.45594000000E+02  0.51100000000E-03 0.  1.
         11   -1    0    0    0    0 -0.00000000000E+00 -0.00000000000E+00 -0.45593999997E+02  0.45594000000E+02  0.51100000000E-03 0. -1.
    9900012    2    1    2    0    0  0.89978873474E+00 -0.22579523533E+00 -0.72961748559E+00  0.90007769120E+02  0.90000030872E+02 0.  0.
        -12    1    1    2    0    0 -0.89978873474E+00  0.22579523533E+00  0.72961748559E+00  0.11802308803E+01  0.00000000000E+00 0.  1.
         11    1    3    3    0    0  0.46739453551E+00  0.76919090610E+01 -0.63071133296E+01  0.99580922605E+01  0.51100000000E-03 0. -1.
        -11    1    3    3    0    0  0.15452586036E+02  0.19221800603E+02  0.31232611914E+02  0.39796181737E+02  0.51100000000E-03 0.  1.
         12    1    3    3    0    0 -0.15020191837E+02 -0.27139504899E+02 -0.25655116070E+02  0.40253495122E+02  0.00000000000E+00 0. -1.
</event>
<event>
 7    1  0.1654239E-015  0.9000774E+02  0.7816164E-02  0.1186339E+00
        -11   -1    0    0    0    0  0.00000000000E+00  0.00000000000E+00  0.45593999997E+02  0.45594000000E+02  0.51100000000E-03 0.  1.
         11   -1    0    0    0    0 -0.00000000000E+00 -0.00000000000E+00 -0.45593999997E+02  0.45594000000E+02  0.51100000000E-03 0. -1.
    9900012    2    1    2    0    0 -0.11584137599E+01  0.14839120473E+00  0.17049594301E+00  0.90007741022E+02  0.90000002403E+02 0.  0.
        -12    1    1    2    0    0  0.11584137599E+01 -0.14839120473E+00 -0.17049594301E+00  0.11802589781E+01  0.00000000000E+00 0.  1.
         11    1    3    3    0    0  0.28547242362E+02  0.15494067033E+02 -0.18241440162E+02  0.37252668349E+02  0.51100000000E-03 0. -1.
        -11    1    3    3    0    0  0.62587807973E+01 -0.37592174642E+01 -0.44903905814E+01  0.85713278345E+01  0.51100000000E-03 0.  1.
        -12    1    3    3    0    0 -0.35964436919E+02 -0.11586458364E+02  0.22902326686E+02  0.44183744839E+02  0.00000000000E+00 0.  1.
</event>
<event>
 7    1  0.1900939E-015  0.9000776E+02  0.7816164E-02  0.1186339E+00
        -11   -1    0    0    0    0  0.00000000000E+00  0.00000000000E+00  0.45593999997E+02  0.45594000000E+02  0.51100000000E-03 0. -1.
         11   -1    0    0    0    0 -0.00000000000E+00 -0.00000000000E+00 -0.45593999997E+02  0.45594000000E+02  0.51100000000E-03 0.  1.
    9900012    2    1    2    0    0 -0.32278254375E+00 -0.11243757111E+01  0.15671525381E+00  0.90007758931E+02  0.90000020549E+02 0.  0.
        -12    1    1    2    0    0  0.32278254375E+00  0.11243757111E+01 -0.15671525381E+00  0.11802410690E+01  0.00000000000E+00 0.  1.
         11    1    3    3    0    0 -0.47396890304E+01  0.80014161325E+01  0.23704961812E+01  0.95972165046E+01  0.51100000000E-03 0. -1.
        -11    1    3    3    0    0  0.68483085898E+01  0.35179216875E+02 -0.35791184720E+01  0.36017866675E+02  0.51100000000E-03 0.  1.
         12    1    3    3    0    0 -0.24314021032E+01 -0.44305008719E+02  0.13653375447E+01  0.44392675752E+02  0.00000000000E+00 0. -1.
</event>
<event>
 7    1  0.1654239E-015  0.9000757E+02  0.7816164E-02  0.1186339E+00
        -11   -1    0    0    0    0  0.00000000000E+00  0.00000000000E+00  0.45593999997E+02  0.45594000000E+02  0.51100000000E-03 0.  1.
         11   -1    0    0    0    0 -0.00000000000E+00 -0.00000000000E+00 -0.45593999997E+02  0.45594000000E+02  0.51100000000E-03 0. -1.
    9900012    2    1    2    0    0 -0.18011184859E+00 -0.94917193436E+00 -0.67826834882E+00  0.90007569743E+02  0.89999828863E+02 0.  0.
        -12    1    1    2    0    0  0.18011184859E+00  0.94917193436E+00  0.67826834882E+00  0.11804302571E+01  0.00000000000E+00 0.  1.
         11    1    3    3    0    0 -0.26847589481E+01 -0.29741774053E+02 -0.29713942187E+02  0.42127181426E+02  0.51100000000E-03 0. -1.
        -11    1    3    3    0    0  0.61731919168E+01  0.67096529444E+01 -0.22688320797E+01  0.93954957476E+01  0.51100000000E-03 0.  1.
        -12    1    3    3    0    0 -0.36685448173E+01  0.22082949174E+02  0.31304505918E+02  0.38484892569E+02  0.00000000000E+00 0.  1.
</event>
<event>
 7    1  0.1654239E-015  0.9000773E+02  0.7816164E-02  0.1186339E+00
        -11   -1    0    0    0    0  0.00000000000E+00  0.00000000000E+00  0.45593999997E+02  0.45594000000E+02  0.51100000000E-03 0. -1.
         11   -1    0    0    0    0 -0.00000000000E+00 -0.00000000000E+00 -0.45593999997E+02  0.45594000000E+02  0.51100000000E-03 0.  1.
    9900012    2    1    2    0    0 -0.24790732219E-02  0.11784766966E+01 -0.64987015379E-01  0.90007730208E+02  0.89999991447E+02 0.  0.
        -12    1    1    2    0    0  0.24790732219E-02 -0.11784766966E+01  0.64987015379E-01  0.11802697922E+01  0.00000000000E+00 0.  1.
         11    1    3    3    0    0 -0.43188859489E+01 -0.63665532383E+01  0.74284203865E+01  0.10694260408E+02  0.51100000000E-03 0. -1.
        -11    1    3    3    0    0 -0.20534057274E+02 -0.27834155482E+02  0.33178816012E+01  0.34747605070E+02  0.51100000000E-03 0.  1.
         12    1    3    3    0    0  0.24850464150E+02  0.35379185417E+02 -0.10811289003E+02  0.44565864730E+02  0.00000000000E+00 0. -1.
</event>
<event>
 7    1  0.1654239E-015  0.9000771E+02  0.7816164E-02  0.1186339E+00
        -11   -1    0    0    0    0  0.00000000000E+00  0.00000000000E+00  0.45593999997E+02  0.45594000000E+02  0.51100000000E-03 0.  1.
         11   -1    0    0    0    0 -0.00000000000E+00 -0.00000000000E+00 -0.45593999997E+02  0.45594000000E+02  0.51100000000E-03 0. -1.
    9900012    2    1    2    0    0  0.54881095195E+00 -0.95055083847E+00  0.43398355043E+00  0.90007711019E+02  0.89999972004E+02 0.  0.
        -12    1    1    2    0    0 -0.54881095195E+00  0.95055083847E+00 -0.43398355043E+00  0.11802889814E+01  0.00000000000E+00 0.  1.
         11    1    3    3    0    0 -0.50978231275E+01  0.35087428117E+01  0.10377582781E+02  0.12082768781E+02  0.51100000000E-03 0. -1.
        -11    1    3    3    0    0  0.25130283559E+02 -0.24113818307E+02  0.17475810994E+02  0.38966798114E+02  0.51100000000E-03 0.  1.
         12    1    3    3    0    0 -0.19483649480E+02  0.19654524657E+02 -0.27419410225E+02  0.38958144124E+02  0.00000000000E+00 0. -1.
</event>
<event>
 7    1  0.1654239E-015  0.9000774E+02  0.7816164E-02  0.1186339E+00
        -11   -1    0    0    0    0  0.00000000000E+00  0.00000000000E+00  0.45593999997E+02  0.45594000000E+02  0.51100000000E-03 0.  1.
         11   -1    0    0    0    0 -0.00000000000E+00 -0.00000000000E+00 -0.45593999997E+02  0.45594000000E+02  0.51100000000E-03 0. -1.
    9900012    2    1    2    0    0  0.28085271579E+00 -0.53920731234E+00 -0.10116296488E+01  0.90007738453E+02  0.89999999800E+02 0.  0.
        -12    1    1    2    0    0 -0.28085271579E+00  0.53920731234E+00  0.10116296488E+01  0.11802615473E+01  0.00000000000E+00 0.  1.
         11    1    3    3    0    0 -0.15207861646E+02 -0.17146642370E+02 -0.30237561815E+02  0.37942015565E+02  0.51100000000E-03 0. -1.
        -11    1    3    3    0    0 -0.44186750444E+01 -0.77943872294E+00 -0.63318085874E+01  0.77604132699E+01  0.51100000000E-03 0.  1.
        -12    1    3    3    0    0  0.19907389406E+02  0.17386873781E+02  0.35557740753E+02  0.44305309618E+02  0.00000000000E+00 0.  1.
</event>
<event>
 7    1  0.1654239E-015  0.9000775E+02  0.7816164E-02  0.1186339E+00
        -11   -1    0    0    0    0  0.00000000000E+00  0.00000000000E+00  0.45593999997E+02  0.45594000000E+02  0.51100000000E-03 0.  1.
         11   -1    0    0    0    0 -0.00000000000E+00 -0.00000000000E+00 -0.45593999997E+02  0.45594000000E+02  0.51100000000E-03 0. -1.
    9900012    2    1    2    0    0 -0.85146877794E+00  0.76481555214E+00  0.28816443635E+00  0.90007753987E+02  0.90000015540E+02 0.  0.
        -12    1    1    2    0    0  0.85146877794E+00 -0.76481555214E+00 -0.28816443635E+00  0.11802460129E+01  0.00000000000E+00 0.  1.
         11    1    3    3    0    0  0.62110910406E+01 -0.74979759963E+01 -0.42288123626E+01  0.10615090683E+02  0.51100000000E-03 0. -1.
        -11    1    3    3    0    0  0.34804432685E+02 -0.42612773116E+01 -0.24096954340E+01  0.35147029052E+02  0.51100000000E-03 0.  1.
         12    1    3    3    0    0 -0.41866992504E+02  0.12524068860E+02  0.69266722330E+01  0.44245634252E+02  0.00000000000E+00 0. -1.
</event>
<event>
 7    1  0.1654239E-015  0.9000775E+02  0.7816164E-02  0.1186339E+00
        -11   -1    0    0    0    0  0.00000000000E+00  0.00000000000E+00  0.45593999997E+02  0.45594000000E+02  0.51100000000E-03 0. -1.
         11   -1    0    0    0    0 -0.00000000000E+00 -0.00000000000E+00 -0.45593999997E+02  0.45594000000E+02  0.51100000000E-03 0.  1.
    9900012    2    1    2    0    0 -0.94128890555E+00  0.67093990252E+00  0.23835460590E+00  0.90007746606E+02  0.90000008061E+02 0.  0.
        -12    1    1    2    0    0  0.94128890555E+00 -0.67093990252E+00 -0.23835460590E+00  0.11802533943E+01  0.00000000000E+00 0.  1.
         11    1    3    3    0    0 -0.23076660136E+02  0.27884273970E+02  0.14618651195E+02  0.39035495909E+02  0.51100000000E-03 0. -1.
        -11    1    3    3    0    0 -0.48063292191E+01 -0.44030309687E+01 -0.14251006123E+02  0.15670949494E+02  0.51100000000E-03 0.  1.
        -12    1    3    3    0    0  0.26941700449E+02 -0.22810303099E+02 -0.12929046611E+00  0.35301301202E+02  0.00000000000E+00 0.  1.
</event>
<event>
 7    1  0.1654239E-015  0.9000767E+02  0.7816164E-02  0.1186339E+00
        -11   -1    0    0    0    0  0.00000000000E+00  0.00000000000E+00  0.45593999997E+02  0.45594000000E+02  0.51100000000E-03 0.  1.
         11   -1    0    0    0    0 -0.00000000000E+00 -0.00000000000E+00 -0.45593999997E+02  0.45594000000E+02  0.51100000000E-03 0. -1.
    9900012    2    1    2    0    0 -0.96931458995E-01  0.10464403324E+01  0.53734494882E+00  0.90007672642E+02  0.89999933121E+02 0.  0.
        -12    1    1    2    0    0  0.96931458995E-01 -0.10464403324E+01 -0.53734494882E+00  0.11803273576E+01  0.00000000000E+00 0.  1.
         11    1    3    3    0    0  0.32521216841E+02  0.81466807903E+00  0.24728382468E+02  0.40863016636E+02  0.51100000000E-03 0. -1.
        -11    1    3    3    0    0 -0.49164379954E+01 -0.53106203088E+01  0.47851081385E+01  0.86759040327E+01  0.51100000000E-03 0.  1.
        -12    1    3    3    0    0 -0.27701710304E+02  0.55423925622E+01 -0.28976145658E+02  0.40468751973E+02  0.00000000000E+00 0.  1.
</event>
<event>
 7    1  0.1654239E-015  0.9000760E+02  0.7816164E-02  0.1186339E+00
        -11   -1    0    0    0    0  0.00000000000E+00  0.00000000000E+00  0.45593999997E+02  0.45594000000E+02  0.51100000000E-03 0.  1.
         11   -1    0    0    0    0 -0.00000000000E+00 -0.00000000000E+00 -0.45593999997E+02  0.45594000000E+02  0.51100000000E-03 0. -1.
    9900012    2    1    2    0    0 -0.55422059285E+00 -0.13544150213E+00 -0.10333660420E+01  0.90007597423E+02  0.89999856909E+02 0.  0.
        -12    1    1    2    0    0  0.55422059285E+00  0.13544150213E+00  0.10333660420E+01  0.11804025765E+01  0.00000000000E+00 0.  1.
         11    1    3    3    0    0 -0.28799840821E+02 -0.17969744214E+02  0.89568322660E+01  0.35107939030E+02  0.51100000000E-03 0. -1.
        -11    1    3    3    0    0 -0.97994810247E+01 -0.60908165861E-01 -0.82666017360E+01  0.12820695873E+02  0.51100000000E-03 0.  1.
        -12    1    3    3    0    0  0.38045101252E+02  0.17895210878E+02 -0.17235965720E+01  0.42078962520E+02  0.00000000000E+00 0.  1.
</event>
<event>
 7    1  0.1654239E-015  0.9000757E+02  0.7816164E-02  0.1186339E+00
        -11   -1    0    0    0    0  0.00000000000E+00  0.00000000000E+00  0.45593999997E+02  0.45594000000E+02  0.51100000000E-03 0.  1.
         11   -1    0    0    0    0 -0.00000000000E+00 -0.00000000000E+00 -0.45593999997E+02  0.45594000000E+02  0.51100000000E-03 0. -1.
    9900012    2    1    2    0    0  0.74206087463E+00 -0.40479589900E-01 -0.91713242703E+00  0.90007565831E+02  0.89999824900E+02 0.  0.
        -12    1    1    2    0    0 -0.74206087463E+00  0.40479589900E-01  0.91713242703E+00  0.11804341691E+01  0.00000000000E+00 0.  1.
         11    1    3    3    0    0 -0.64014800387E+01 -0.74359423331E+01  0.28084574626E-01  0.98118792324E+01  0.51100000000E-03 0. -1.
        -11    1    3    3    0    0 -0.31545355260E+02  0.79921694901E+01  0.17918255657E+02  0.37148998610E+02  0.51100000000E-03 0.  1.
         12    1    3    3    0    0  0.38688896174E+02 -0.59670674696E+00 -0.18863472659E+02  0.43046687989E+02  0.00000000000E+00 0. -1.
</event>
<event>
 7    1  0.1654239E-015  0.9000776E+02  0.7816164E-02  0.1186339E+00
        -11   -1    0    0    0    0  0.00000000000E+00  0.00000000000E+00  0.45593999997E+02  0.45594000000E+02  0.51100000000E-03 0.  1.
         11   -1    0    0    0    0 -0.00000000000E+00 -0.00000000000E+00 -0.45593999997E+02  0.45594000000E+02  0.51100000000E-03 0. -1.
    9900012    2    1    2    0    0  0.62068367087E+00 -0.11145002265E+00 -0.99764048086E+00  0.90007764491E+02  0.90000026183E+02 0.  0.
        -12    1    1    2    0    0 -0.62068367087E+00  0.11145002265E+00  0.99764048086E+00  0.11802355087E+01  0.00000000000E+00 0.  1.
         11    1    3    3    0    0  0.19929799435E+02  0.24295055434E+02 -0.14894561098E+02  0.34774913006E+02  0.51100000000E-03 0. -1.
        -11    1    3    3    0    0  0.11174154582E+01  0.98409939648E+00 -0.12935084008E+02  0.13020501814E+02  0.51100000000E-03 0.  1.
        -12    1    3    3    0    0 -0.20426531222E+02 -0.25390604853E+02  0.26832004625E+02  0.42212349671E+02  0.00000000000E+00 0.  1.
</event>
<event>
 7    1  0.1710038E-015  0.9000775E+02  0.7816164E-02  0.1186339E+00
        -11   -1    0    0    0    0  0.00000000000E+00  0.00000000000E+00  0.45593999997E+02  0.45594000000E+02  0.51100000000E-03 0.  1.
         11   -1    0    0    0    0 -0.00000000000E+00 -0.00000000000E+00 -0.45593999997E+02  0.45594000000E+02  0.51100000000E-03 0. -1.
    9900012    2    1    2    0    0  0.74881565218E+00 -0.24988639385E+00 -0.87739442624E+00  0.90007750420E+02  0.90000011926E+02 0.  0.
        -12    1    1    2    0    0 -0.74881565218E+00  0.24988639385E+00  0.87739442624E+00  0.11802495795E+01  0.00000000000E+00 0.  1.
         11    1    3    3    0    0 -0.74544687745E+01  0.36345654487E+01 -0.51457898913E+01  0.97600371197E+01  0.51100000000E-03 0. -1.
        -11    1    3    3    0    0 -0.30411236974E+02  0.83857174098E+01  0.19357781609E+02  0.37011988596E+02  0.51100000000E-03 0.  1.
         12    1    3    3    0    0  0.38614521401E+02 -0.12270169252E+02 -0.15089386144E+02  0.43235724704E+02  0.00000000000E+00 0. -1.
</event>
<event>
 7    1  0.1654239E-015  0.9000770E+02  0.7816164E-02  0.1186339E+00
        -11   -1    0    0    0    0  0.00000000000E+00  0.00000000000E+00  0.45593999997E+02  0.45594000000E+02  0.51100000000E-03 0. -1.
         11   -1    0    0    0    0 -0.00000000000E+00 -0.00000000000E+00 -0.45593999997E+02  0.45594000000E+02  0.51100000000E-03 0.  1.
    9900012    2    1    2    0    0  0.87192301862E+00  0.76680787224E+00  0.21183361194E+00  0.90007695996E+02  0.89999956783E+02 0.  0.
        -12    1    1    2    0    0 -0.87192301862E+00 -0.76680787224E+00 -0.21183361194E+00  0.11803040043E+01  0.00000000000E+00 0.  1.
         11    1    3    3    0    0  0.15129198690E+01 -0.96527461562E+01  0.15254334361E+01  0.98889525388E+01  0.51100000000E-03 0. -1.
        -11    1    3    3    0    0  0.27053036444E+02 -0.95176765048E+01 -0.25432906248E+02  0.38331262272E+02  0.51100000000E-03 0.  1.
         12    1    3    3    0    0 -0.27694033294E+02  0.19937230533E+02  0.24119306424E+02  0.41787481185E+02  0.00000000000E+00 0. -1.
</event>
<event>
 7    1  0.1654239E-015  0.9000776E+02  0.7816164E-02  0.1186339E+00
        -11   -1    0    0    0    0  0.00000000000E+00  0.00000000000E+00  0.45593999997E+02  0.45594000000E+02  0.51100000000E-03 0. -1.
         11   -1    0    0    0    0 -0.00000000000E+00 -0.00000000000E+00 -0.45593999997E+02  0.45594000000E+02  0.51100000000E-03 0.  1.
    9900012    2    1    2    0    0  0.97974826803E+00 -0.22374253467E+00  0.61887481611E+00  0.90007757047E+02  0.90000018640E+02 0.  0.
        -12    1    1    2    0    0 -0.97974826803E+00  0.22374253467E+00 -0.61887481611E+00  0.11802429532E+01  0.00000000000E+00 0.  1.
         11    1    3    3    0    0  0.83724526576E+01 -0.41150701198E+01  0.32836115151E+01  0.98900895061E+01  0.51100000000E-03 0. -1.
        -11    1    3    3    0    0  0.70830332540E+01 -0.36396829408E+02 -0.39434715217E+01  0.37288731796E+02  0.51100000000E-03 0.  1.
         12    1    3    3    0    0 -0.14475737644E+02  0.40288156994E+02  0.12787348227E+01  0.42828935745E+02  0.00000000000E+00 0. -1.
</event>
<event>
 7    1  0.1654239E-015  0.9000775E+02  0.7816164E-02  0.1186339E+00
        -11   -1    0    0    0    0  0.00000000000E+00  0.00000000000E+00  0.45593999997E+02  0.45594000000E+02  0.51100000000E-03 0.  1.
         11   -1    0    0    0    0 -0.00000000000E+00 -0.00000000000E+00 -0.45593999997E+02  0.45594000000E+02  0.51100000000E-03 0. -1.
    9900012    2    1    2    0    0  0.41313972785E+00 -0.50997560594E+00 -0.98093614964E+00  0.90007747788E+02  0.90000009259E+02 0.  0.
        -12    1    1    2    0    0 -0.41313972785E+00  0.50997560594E+00  0.98093614964E+00  0.11802522116E+01  0.00000000000E+00 0.  1.
         11    1    3    3    0    0 -0.80181327030E+00  0.49158154016E+01  0.68797617793E+01  0.84934838544E+01  0.51100000000E-03 0. -1.
        -11    1    3    3    0    0 -0.18407480192E+02  0.29257193356E+02  0.12510052233E+02  0.36760306000E+02  0.51100000000E-03 0.  1.
         12    1    3    3    0    0  0.19622433190E+02 -0.34682984363E+02 -0.20370750162E+02  0.44753957934E+02  0.00000000000E+00 0. -1.
</event>
<event>
 7    1  0.1654239E-015  0.9000772E+02  0.7816164E-02  0.1186339E+00
        -11   -1    0    0    0    0  0.00000000000E+00  0.00000000000E+00  0.45593999997E+02  0.45594000000E+02  0.51100000000E-03 0.  1.
         11   -1    0    0    0    0 -0.00000000000E+00 -0.00000000000E+00 -0.45593999997E+02  0.45594000000E+02  0.51100000000E-03 0. -1.
    9900012    2    1    2    0    0 -0.61952274652E+00 -0.61290659041E+00 -0.79598305350E+00  0.90007723785E+02  0.89999984939E+02 0.  0.
        -12    1    1    2    0    0  0.61952274652E+00  0.61290659041E+00  0.79598305350E+00  0.11802762149E+01  0.00000000000E+00 0.  1.
         11    1    3    3    0    0  0.12137353792E+01  0.27070569865E+00  0.76411037627E+01  0.77416343313E+01  0.51100000000E-03 0. -1.
        -11    1    3    3    0    0  0.20013732222E+02  0.32179303396E+01  0.30974582244E+02  0.37017959136E+02  0.51100000000E-03 0.  1.
         12    1    3    3    0    0 -0.21846990348E+02 -0.41015426287E+01 -0.39411669060E+02  0.45248130318E+02  0.00000000000E+00 0. -1.
</event>
<event>
 7    1  0.1654239E-015  0.9000752E+02  0.7816164E-02  0.1186339E+00
        -11   -1    0    0    0    0  0.00000000000E+00  0.00000000000E+00  0.45593999997E+02  0.45594000000E+02  0.51100000000E-03 0.  1.
         11   -1    0    0    0    0 -0.00000000000E+00 -0.00000000000E+00 -0.45593999997E+02  0.45594000000E+02  0.51100000000E-03 0. -1.
    9900012    2    1    2    0    0 -0.87285804176E+00  0.35398014235E+00 -0.71158730583E+00  0.90007517219E+02  0.89999775646E+02 0.  0.
        -12    1    1    2    0    0  0.87285804176E+00 -0.35398014235E+00  0.71158730583E+00  0.11804827809E+01  0.00000000000E+00 0.  1.
         11    1    3    3    0    0 -0.33033380308E+01 -0.88048060919E+01 -0.62268275191E+01  0.11278742557E+02  0.51100000000E-03 0. -1.
        -11    1    3    3    0    0  0.31161839679E+01 -0.34184132468E+02  0.82191822839E+01  0.35296182127E+02  0.51100000000E-03 0.  1.
         12    1    3    3    0    0 -0.68570397889E+00  0.43342918702E+02 -0.27039420706E+01  0.43432592534E+02  0.00000000000E+00 0. -1.
</event>
<event>
 7    1  0.1654239E-015  0.9000776E+02  0.7816164E-02  0.1186339E+00
        -11   -1    0    0    0    0  0.00000000000E+00  0.00000000000E+00  0.45593999997E+02  0.45594000000E+02  0.51100000000E-03 0. -1.
         11   -1    0    0    0    0 -0.00000000000E+00 -0.00000000000E+00 -0.45593999997E+02  0.45594000000E+02  0.51100000000E-03 0.  1.
    9900012    2    1    2    0    0 -0.34248117340E+00  0.52587478048E+00  0.99956194630E+00  0.90007762006E+02  0.90000023664E+02 0.  0.
        -12    1    1    2    0    0  0.34248117340E+00 -0.52587478048E+00 -0.99956194630E+00  0.11802379944E+01  0.00000000000E+00 0.  1.
         11    1    3    3    0    0  0.19343695730E+02 -0.30978165827E+02  0.75516172897E+01  0.37294131528E+02  0.51100000000E-03 0. -1.
        -11    1    3    3    0    0  0.45063920639E+01 -0.14206605012E+01  0.80426330463E+01  0.93279039592E+01  0.51100000000E-03 0.  1.
        -12    1    3    3    0    0 -0.24192568967E+02  0.32924701109E+02 -0.14594688390E+02  0.43385726518E+02  0.00000000000E+00 0.  1.
</event>
<event>
 7    1  0.1654239E-015  0.9000770E+02  0.7816164E-02  0.1186339E+00
        -11   -1    0    0    0    0  0.00000000000E+00  0.00000000000E+00  0.45593999997E+02  0.45594000000E+02  0.51100000000E-03 0. -1.
         11   -1    0    0    0    0 -0.00000000000E+00 -0.00000000000E+00 -0.45593999997E+02  0.45594000000E+02  0.51100000000E-03 0.  1.
    9900012    2    1    2    0    0  0.20415230346E+00  0.56471434083E+00  0.10161364843E+01  0.90007697579E+02  0.89999958387E+02 0.  0.
        -12    1    1    2    0    0 -0.20415230346E+00 -0.56471434083E+00 -0.10161364843E+01  0.11803024208E+01  0.00000000000E+00 0.  1.
         11    1    3    3    0    0 -0.72969067544E+01 -0.48474252003E+01  0.22795377430E+01  0.90519982235E+01  0.51100000000E-03 0. -1.
        -11    1    3    3    0    0 -0.19376422426E+02  0.26655293649E+02 -0.23176829341E+02  0.40287911886E+02  0.51100000000E-03 0.  1.
         12    1    3    3    0    0  0.26877481484E+02 -0.21243154108E+02  0.21913428082E+02  0.40667787470E+02  0.00000000000E+00 0. -1.
</event>
<event>
 7    1  0.1654239E-015  0.9000768E+02  0.7816164E-02  0.1186339E+00
        -11   -1    0    0    0    0  0.00000000000E+00  0.00000000000E+00  0.45593999997E+02  0.45594000000E+02  0.51100000000E-03 0.  1.
         11   -1    0    0    0    0 -0.00000000000E+00 -0.00000000000E+00 -0.45593999997E+02  0.45594000000E+02  0.51100000000E-03 0. -1.
    9900012    2    1    2    0    0  0.66953410910E+00 -0.87020888071E+00 -0.43313507246E+00  0.90007684190E+02  0.89999944822E+02 0.  0.
        -12    1    1    2    0    0 -0.66953410910E+00  0.87020888071E+00  0.43313507246E+00  0.11803158096E+01  0.00000000000E+00 0.  1.
         11    1    3    3    0    0  0.70957603606E+01  0.53948976680E+01 -0.58716703585E+00  0.89330566624E+01  0.51100000000E-03 0. -1.
        -11    1    3    3    0    0 -0.24430813699E+02  0.12847103345E+02 -0.30217245301E+02  0.40926698330E+02  0.51100000000E-03 0.  1.
         12    1    3    3    0    0  0.18004587447E+02 -0.19112209894E+02  0.30371277265E+02  0.40147929198E+02  0.00000000000E+00 0. -1.
</event>
<event>
 7    1  0.1654239E-015  0.9000715E+02  0.7816164E-02  0.1186340E+00
        -11   -1    0    0    0    0  0.00000000000E+00  0.00000000000E+00  0.45593999997E+02  0.45594000000E+02  0.51100000000E-03 0.  1.
         11   -1    0    0    0    0 -0.00000000000E+00 -0.00000000000E+00 -0.45593999997E+02  0.45594000000E+02  0.51100000000E-03 0. -1.
    9900012    2    1    2    0    0  0.50723458053E+00 -0.24151681649E+00  0.10386436075E+01  0.90007153763E+02  0.89999407391E+02 0.  0.
        -12    1    1    2    0    0 -0.50723458053E+00  0.24151681649E+00 -0.10386436075E+01  0.11808462371E+01  0.00000000000E+00 0.  1.
         11    1    3    3    0    0  0.77200147511E+01 -0.68311102174E+01 -0.24879221809E+01  0.10604360028E+02  0.51100000000E-03 0. -1.
        -11    1    3    3    0    0 -0.81443217320E+01 -0.13094610894E+02  0.37265676750E+02  0.40330255081E+02  0.51100000000E-03 0.  1.
         12    1    3    3    0    0  0.93154156138E+00  0.19684204295E+02 -0.33739110962E+02  0.39072538654E+02  0.00000000000E+00 0. -1.
</event>
<event>
 7    1  0.1654239E-015  0.9000754E+02  0.7816164E-02  0.1186339E+00
        -11   -1    0    0    0    0  0.00000000000E+00  0.00000000000E+00  0.45593999997E+02  0.45594000000E+02  0.51100000000E-03 0.  1.
         11   -1    0    0    0    0 -0.00000000000E+00 -0.00000000000E+00 -0.45593999997E+02  0.45594000000E+02  0.51100000000E-03 0. -1.
    9900012    2    1    2    0    0  0.85439245904E+00 -0.59893438733E+00  0.55207228592E+00  0.90007537089E+02  0.89999795779E+02 0.  0.
        -12    1    1    2    0    0 -0.85439245904E+00  0.59893438733E+00 -0.55207228592E+00  0.11804629106E+01  0.00000000000E+00 0.  1.
         11    1    3    3    0    0 -0.10240204260E+02  0.21463375930E+01 -0.13378354962E+01  0.10547907491E+02  0.51100000000E-03 0. -1.
        -11    1    3    3    0    0 -0.32121700221E+02  0.10983940768E+02  0.31818712849E+01  0.34096552392E+02  0.51100000000E-03 0.  1.
         12    1    3    3    0    0  0.43216296941E+02 -0.13729212748E+02 -0.12919635028E+01  0.45363077206E+02  0.00000000000E+00 0. -1.
</event>
<event>
 7    1  0.1654239E-015  0.9000770E+02  0.7816164E-02  0.1186339E+00
        -11   -1    0    0    0    0  0.00000000000E+00  0.00000000000E+00  0.45593999997E+02  0.45594000000E+02  0.51100000000E-03 0. -1.
         11   -1    0    0    0    0 -0.00000000000E+00 -0.00000000000E+00 -0.45593999997E+02  0.45594000000E+02  0.51100000000E-03 0.  1.
    9900012    2    1    2    0    0 -0.39470752506E+00  0.11121291829E+01 -0.21764576929E-01  0.90007703831E+02  0.89999964722E+02 0.  0.
        -12    1    1    2    0    0  0.39470752506E+00 -0.11121291829E+01  0.21764576929E-01  0.11802961690E+01  0.00000000000E+00 0.  1.
         11    1    3    3    0    0  0.54368269789E+01  0.19261261065E+01 -0.56998595926E+01  0.81090966829E+01  0.51100000000E-03 0. -1.
        -11    1    3    3    0    0 -0.35449055164E+02  0.36870065336E+01 -0.21353935576E+02  0.41547804925E+02  0.51100000000E-03 0.  1.
         12    1    3    3    0    0  0.29617520660E+02 -0.45010034572E+01  0.27032030592E+02  0.40350802224E+02  0.00000000000E+00 0. -1.
</event>
<event>
 7    1  0.1654239E-015  0.9000772E+02  0.7816164E-02  0.1186339E+00
        -11   -1    0    0    0    0  0.00000000000E+00  0.00000000000E+00  0.45593999997E+02  0.45594000000E+02  0.51100000000E-03 0.  1.
         11   -1    0    0    0    0 -0.00000000000E+00 -0.00000000000E+00 -0.45593999997E+02  0.45594000000E+02  0.51100000000E-03 0. -1.
    9900012    2    1    2    0    0 -0.79398350978E-01 -0.13883609556E+00 -0.11693901739E+01  0.90007723364E+02  0.89999984512E+02 0.  0.
        -12    1    1    2    0    0  0.79398350978E-01  0.13883609556E+00  0.11693901739E+01  0.11802766364E+01  0.00000000000E+00 0.  1.
         11    1    3    3    0    0  0.10869876558E+02 -0.26276611269E+02  0.22052405311E+02  0.35985039898E+02  0.51100000000E-03 0. -1.
        -11    1    3    3    0    0  0.90917437860E+01 -0.54834220728E+01 -0.14523563059E+01  0.10716205569E+02  0.51100000000E-03 0.  1.
        -12    1    3    3    0    0 -0.20041018695E+02  0.31621197246E+02 -0.21769439179E+02  0.43306477897E+02  0.00000000000E+00 0.  1.
</event>
<event>
 7    1  0.1654239E-015  0.9000735E+02  0.7816164E-02  0.1186340E+00
        -11   -1    0    0    0    0  0.00000000000E+00  0.00000000000E+00  0.45593999997E+02  0.45594000000E+02  0.51100000000E-03 0. -1.
         11   -1    0    0    0    0 -0.00000000000E+00 -0.00000000000E+00 -0.45593999997E+02  0.45594000000E+02  0.51100000000E-03 0.  1.
    9900012    2    1    2    0    0 -0.81986276278E+00  0.63084053046E+00 -0.56904396003E+00  0.90007345202E+02  0.89999601357E+02 0.  0.
        -12    1    1    2    0    0  0.81986276278E+00 -0.63084053046E+00  0.56904396003E+00  0.11806547985E+01  0.00000000000E+00 0.  1.
         11    1    3    3    0    0  0.27793247191E+02 -0.22500218105E+02 -0.20635845206E+02  0.41286347765E+02  0.51100000000E-03 0. -1.
        -11    1    3    3    0    0 -0.40281099867E+01 -0.51408376546E+01  0.54433671532E+01  0.85020072972E+01  0.51100000000E-03 0.  1.
        -12    1    3    3    0    0 -0.24584999967E+02  0.28271896290E+02  0.14623434092E+02  0.40218990139E+02  0.00000000000E+00 0.  1.
</event>
<event>
 7    1  0.1654239E-015  0.9000773E+02  0.7816164E-02  0.1186339E+00
        -11   -1    0    0    0    0  0.00000000000E+00  0.00000000000E+00  0.45593999997E+02  0.45594000000E+02  0.51100000000E-03 0. -1.
         11   -1    0    0    0    0 -0.00000000000E+00 -0.00000000000E+00 -0.45593999997E+02  0.45594000000E+02  0.51100000000E-03 0.  1.
    9900012    2    1    2    0    0  0.42926156257E+00  0.10700041999E+01  0.25272573943E+00  0.90007726821E+02  0.89999988015E+02 0.  0.
        -12    1    1    2    0    0 -0.42926156257E+00 -0.10700041999E+01 -0.25272573943E+00  0.11802731787E+01  0.00000000000E+00 0.  1.
         11    1    3    3    0    0  0.81124575980E+01 -0.48256365893E+01 -0.84895841800E+01  0.12695344682E+02  0.51100000000E-03 0. -1.
        -11    1    3    3    0    0  0.70676259820E+01  0.38404223904E+02 -0.43455437248E+01  0.39290195994E+02  0.51100000000E-03 0.  1.
         12    1    3    3    0    0 -0.14750822017E+02 -0.32508583115E+02  0.13087853644E+02  0.38022186146E+02  0.00000000000E+00 0. -1.
</event>
<event>
 7    1  0.1654239E-015  0.9000783E+02  0.7816164E-02  0.1186339E+00
        -11   -1    0    0    0    0  0.00000000000E+00  0.00000000000E+00  0.45593999997E+02  0.45594000000E+02  0.51100000000E-03 0.  1.
         11   -1    0    0    0    0 -0.00000000000E+00 -0.00000000000E+00 -0.45593999997E+02  0.45594000000E+02  0.51100000000E-03 0. -1.
    9900012    2    1    2    0    0  0.46967807060E+00  0.30461914354E+00 -0.10389423986E+01  0.90007834071E+02  0.90000096681E+02 0.  0.
        -12    1    1    2    0    0 -0.46967807060E+00 -0.30461914354E+00  0.10389423986E+01  0.11801659291E+01  0.00000000000E+00 0.  1.
         11    1    3    3    0    0  0.72379525824E+01  0.39387771218E+01 -0.79527810785E+01  0.11452015104E+02  0.51100000000E-03 0. -1.
        -11    1    3    3    0    0  0.34940256482E+02 -0.64462171288E+01  0.91619683461E+01  0.36692191302E+02  0.51100000000E-03 0.  1.
         12    1    3    3    0    0 -0.41708530993E+02  0.28120591506E+01 -0.22481296662E+01  0.41863627665E+02  0.00000000000E+00 0. -1.
</event>
<event>
 7    1  0.1654239E-015  0.9000811E+02  0.7816164E-02  0.1186338E+00
        -11   -1    0    0    0    0  0.00000000000E+00  0.00000000000E+00  0.45593999997E+02  0.45594000000E+02  0.51100000000E-03 0. -1.
         11   -1    0    0    0    0 -0.00000000000E+00 -0.00000000000E+00 -0.45593999997E+02  0.45594000000E+02  0.51100000000E-03 0.  1.
    9900012    2    1    2    0    0 -0.49410711560E+00 -0.45375708620E-01  0.10704825140E+01  0.90008112883E+02  0.90000379172E+02 0.  0.
        -12    1    1    2    0    0  0.49410711560E+00  0.45375708620E-01 -0.10704825140E+01  0.11798871173E+01  0.00000000000E+00 0.  1.
         11    1    3    3    0    0 -0.45680927855E+01  0.81051219222E+01  0.49044611002E+01  0.10517329129E+02  0.51100000000E-03 0. -1.
        -11    1    3    3    0    0 -0.10357856876E+02  0.12078844370E+02 -0.35697397132E+02  0.39083088960E+02  0.51100000000E-03 0.  1.
         12    1    3    3    0    0  0.14431842546E+02 -0.20229342000E+02  0.31863418546E+02  0.40407694793E+02  0.00000000000E+00 0. -1.
</event>
<event>
 7    1  0.1654239E-015  0.9000767E+02  0.7816164E-02  0.1186339E+00
        -11   -1    0    0    0    0  0.00000000000E+00  0.00000000000E+00  0.45593999997E+02  0.45594000000E+02  0.51100000000E-03 0.  1.
         11   -1    0    0    0    0 -0.00000000000E+00 -0.00000000000E+00 -0.45593999997E+02  0.45594000000E+02  0.51100000000E-03 0. -1.
    9900012    2    1    2    0    0  0.83446901955E+00  0.74234841220E+00 -0.38177930006E+00  0.90007671595E+02  0.89999932060E+02 0.  0.
        -12    1    1    2    0    0 -0.83446901955E+00 -0.74234841220E+00  0.38177930006E+00  0.11803284050E+01  0.00000000000E+00 0.  1.
         11    1    3    3    0    0  0.29530460460E+02  0.29786004720E+02 -0.12825481359E+02  0.43860542000E+02  0.51100000000E-03 0. -1.
        -11    1    3    3    0    0 -0.47035750572E+01 -0.29930601466E+01  0.89701636841E+01  0.10561527548E+02  0.51100000000E-03 0.  1.
        -12    1    3    3    0    0 -0.23992416383E+02 -0.26050596161E+02  0.34735383751E+01  0.35585602048E+02  0.00000000000E+00 0.  1.
</event>
<event>
 7    1  0.1654239E-015  0.9000775E+02  0.7816164E-02  0.1186339E+00
        -11   -1    0    0    0    0  0.00000000000E+00  0.00000000000E+00  0.45593999997E+02  0.45594000000E+02  0.51100000000E-03 0.  1.
         11   -1    0    0    0    0 -0.00000000000E+00 -0.00000000000E+00 -0.45593999997E+02  0.45594000000E+02  0.51100000000E-03 0. -1.
    9900012    2    1    2    0    0 -0.13187805352E+00  0.46059064690E+00  0.10786393650E+01  0.90007746449E+02  0.90000007902E+02 0.  0.
        -12    1    1    2    0    0  0.13187805352E+00 -0.46059064690E+00 -0.10786393650E+01  0.11802535511E+01  0.00000000000E+00 0.  1.
         11    1    3    3    0    0  0.32748160761E+00  0.41087670287E+01  0.91019018307E+01  0.99916879404E+01  0.51100000000E-03 0. -1.
        -11    1    3    3    0    0 -0.19598665851E+02 -0.12319943143E+02  0.29205252496E+02  0.37267083007E+02  0.51100000000E-03 0.  1.
         12    1    3    3    0    0  0.19139306190E+02  0.86717667614E+01 -0.37228514962E+02  0.42748975502E+02  0.00000000000E+00 0. -1.
</event>
<event>
 7    1  0.1654239E-015  0.9000776E+02  0.7816164E-02  0.1186339E+00
        -11   -1    0    0    0    0  0.00000000000E+00  0.00000000000E+00  0.45593999997E+02  0.45594000000E+02  0.51100000000E-03 0.  1.
         11   -1    0    0    0    0 -0.00000000000E+00 -0.00000000000E+00 -0.45593999997E+02  0.45594000000E+02  0.51100000000E-03 0. -1.
    9900012    2    1    2    0    0  0.47492788986E+00  0.96545204810E+00 -0.48509957764E+00  0.90007756060E+02  0.90000017640E+02 0.  0.
        -12    1    1    2    0    0 -0.47492788986E+00 -0.96545204810E+00  0.48509957764E+00  0.11802439400E+01  0.00000000000E+00 0.  1.
         11    1    3    3    0    0 -0.74786735790E+01 -0.29340604522E+01 -0.47598300648E+01  0.93378397794E+01  0.51100000000E-03 0. -1.
        -11    1    3    3    0    0 -0.15214408794E+02  0.37072080633E+02  0.11867190965E+01  0.40090219504E+02  0.51100000000E-03 0.  1.
         12    1    3    3    0    0  0.23168010263E+02 -0.33172568133E+02  0.30880113906E+01  0.40579696776E+02  0.00000000000E+00 0. -1.
</event>
<event>
 7    1  0.1654239E-015  0.9000780E+02  0.7816164E-02  0.1186339E+00
        -11   -1    0    0    0    0  0.00000000000E+00  0.00000000000E+00  0.45593999997E+02  0.45594000000E+02  0.51100000000E-03 0.  1.
         11   -1    0    0    0    0 -0.00000000000E+00 -0.00000000000E+00 -0.45593999997E+02  0.45594000000E+02  0.51100000000E-03 0. -1.
    9900012    2    1    2    0    0  0.33199229073E+00 -0.77538776363E+00  0.82548176965E+00  0.90007802891E+02  0.90000065089E+02 0.  0.
        -12    1    1    2    0    0 -0.33199229073E+00  0.77538776363E+00 -0.82548176965E+00  0.11801971094E+01  0.00000000000E+00 0.  1.
         11    1    3    3    0    0 -0.84581775563E+01  0.23948923744E+02 -0.25789076062E+02  0.36196245116E+02  0.51100000000E-03 0. -1.
        -11    1    3    3    0    0 -0.16227350100E+01  0.13147744690E+01 -0.85684227161E+01  0.88192839233E+01  0.51100000000E-03 0.  1.
        -12    1    3    3    0    0  0.10412904857E+02 -0.26039085977E+02  0.35182980548E+02  0.44992273851E+02  0.00000000000E+00 0.  1.
</event>
<event>
 7    1  0.1654239E-015  0.9000775E+02  0.7816164E-02  0.1186339E+00
        -11   -1    0    0    0    0  0.00000000000E+00  0.00000000000E+00  0.45593999997E+02  0.45594000000E+02  0.51100000000E-03 0. -1.
         11   -1    0    0    0    0 -0.00000000000E+00 -0.00000000000E+00 -0.45593999997E+02  0.45594000000E+02  0.51100000000E-03 0.  1.
    9900012    2    1    2    0    0 -0.55610903317E-01  0.81696826148E+00  0.84997075150E+00  0.90007754267E+02  0.90000015823E+02 0.  0.
        -12    1    1    2    0    0  0.55610903317E-01 -0.81696826148E+00 -0.84997075150E+00  0.11802457334E+01  0.00000000000E+00 0.  1.
         11    1    3    3    0    0  0.88306841883E+01  0.20387617104E+01  0.45301239581E+01  0.10132105205E+02  0.51100000000E-03 0. -1.
        -11    1    3    3    0    0 -0.31574273025E+01 -0.40066679122E+02 -0.55162255764E+01  0.40567682555E+02  0.51100000000E-03 0.  1.
         12    1    3    3    0    0 -0.57288677891E+01  0.38844885673E+02  0.18360723699E+01  0.39307966506E+02  0.00000000000E+00 0. -1.
</event>
<event>
 7    1  0.1654239E-015  0.9000744E+02  0.7816164E-02  0.1186340E+00
        -11   -1    0    0    0    0  0.00000000000E+00  0.00000000000E+00  0.45593999997E+02  0.45594000000E+02  0.51100000000E-03 0. -1.
         11   -1    0    0    0    0 -0.00000000000E+00 -0.00000000000E+00 -0.45593999997E+02  0.45594000000E+02  0.51100000000E-03 0.  1.
    9900012    2    1    2    0    0 -0.43148694600E+00  0.20867589738E+00  0.10788911482E+01  0.90007435421E+02  0.89999692768E+02 0.  0.
        -12    1    1    2    0    0  0.43148694600E+00 -0.20867589738E+00 -0.10788911482E+01  0.11805645786E+01  0.00000000000E+00 0.  1.
         11    1    3    3    0    0  0.15359912242E+02 -0.15369961299E+02  0.11456865169E+02  0.24564657013E+02  0.51100000000E-03 0. -1.
        -11    1    3    3    0    0 -0.57919966103E+00  0.37411032802E+02 -0.17004423902E+01  0.37454136649E+02  0.51100000000E-03 0.  1.
         12    1    3    3    0    0 -0.15212199527E+02 -0.21832395606E+02 -0.86775316305E+01  0.27988641759E+02  0.00000000000E+00 0. -1.
</event>
<event>
 7    1  0.1654239E-015  0.9000774E+02  0.7816164E-02  0.1186339E+00
        -11   -1    0    0    0    0  0.00000000000E+00  0.00000000000E+00  0.45593999997E+02  0.45594000000E+02  0.51100000000E-03 0. -1.
         11   -1    0    0    0    0 -0.00000000000E+00 -0.00000000000E+00 -0.45593999997E+02  0.45594000000E+02  0.51100000000E-03 0.  1.
    9900012    2    1    2    0    0  0.52105371960E+00 -0.48409392847E+00  0.94190082315E+00  0.90007736864E+02  0.89999998190E+02 0.  0.
        -12    1    1    2    0    0 -0.52105371960E+00  0.48409392847E+00 -0.94190082315E+00  0.11802631363E+01  0.00000000000E+00 0.  1.
         11    1    3    3    0    0  0.31336200399E+02 -0.53180473707E+00  0.16839291450E+02  0.35578111368E+02  0.51100000000E-03 0. -1.
        -11    1    3    3    0    0  0.10196183664E+02  0.27362023032E+01 -0.59412639776E+00  0.10573644159E+02  0.51100000000E-03 0.  1.
        -12    1    3    3    0    0 -0.41011330343E+02 -0.26884914946E+01 -0.15303264229E+02  0.43855981337E+02  0.00000000000E+00 0.  1.
</event>
<event>
 7    1  0.1654239E-015  0.9000777E+02  0.7816164E-02  0.1186339E+00
        -11   -1    0    0    0    0  0.00000000000E+00  0.00000000000E+00  0.45593999997E+02  0.45594000000E+02  0.51100000000E-03 0.  1.
         11   -1    0    0    0    0 -0.00000000000E+00 -0.00000000000E+00 -0.45593999997E+02  0.45594000000E+02  0.51100000000E-03 0. -1.
    9900012    2    1    2    0    0  0.10379973942E+00  0.88875485294E+00 -0.76960419336E+00  0.90007766892E+02  0.90000028615E+02 0.  0.
        -12    1    1    2    0    0 -0.10379973942E+00 -0.88875485294E+00  0.76960419336E+00  0.11802331079E+01  0.00000000000E+00 0.  1.
         11    1    3    3    0    0  0.79039613969E+01  0.22114204455E+01  0.52283209595E+01  0.97313065139E+01  0.51100000000E-03 0. -1.
        -11    1    3    3    0    0 -0.40821405827E+01 -0.38926925778E+02 -0.14149805235E+02  0.41619543615E+02  0.51100000000E-03 0.  1.
         12    1    3    3    0    0 -0.37180210747E+01  0.37604260185E+02  0.81518800824E+01  0.38656916764E+02  0.00000000000E+00 0. -1.
</event>
<event>
 7    1  0.1662182E-015  0.9000768E+02  0.7816164E-02  0.1186339E+00
        -11   -1    0    0    0    0  0.00000000000E+00  0.00000000000E+00  0.45593999997E+02  0.45594000000E+02  0.51100000000E-03 0.  1.
         11   -1    0    0    0    0 -0.00000000000E+00 -0.00000000000E+00 -0.45593999997E+02  0.45594000000E+02  0.51100000000E-03 0. -1.
    9900012    2    1    2    0    0 -0.71762520557E+00 -0.71794231236E+00 -0.60227617438E+00  0.90007676447E+02  0.89999936976E+02 0.  0.
        -12    1    1    2    0    0  0.71762520557E+00  0.71794231236E+00  0.60227617438E+00  0.11803235530E+01  0.00000000000E+00 0.  1.
         11    1    3    3    0    0 -0.31244032134E+01  0.66206858289E+01 -0.62496656889E+01  0.96256790810E+01  0.51100000000E-03 0. -1.
        -11    1    3    3    0    0  0.41623183276E+01 -0.19874268638E+01  0.42677522762E+02  0.42926049303E+02  0.51100000000E-03 0.  1.
         12    1    3    3    0    0 -0.17555403198E+01 -0.53512012775E+01 -0.37030133248E+02  0.37455948063E+02  0.00000000000E+00 0. -1.
</event>
<event>
 7    1  0.1654239E-015  0.9000786E+02  0.7816164E-02  0.1186339E+00
        -11   -1    0    0    0    0  0.00000000000E+00  0.00000000000E+00  0.45593999997E+02  0.45594000000E+02  0.51100000000E-03 0.  1.
         11   -1    0    0    0    0 -0.00000000000E+00 -0.00000000000E+00 -0.45593999997E+02  0.45594000000E+02  0.51100000000E-03 0. -1.
    9900012    2    1    2    0    0  0.72413134614E+00 -0.23487368397E+00 -0.90177138830E+00  0.90007862936E+02  0.90000125926E+02 0.  0.
        -12    1    1    2    0    0 -0.72413134614E+00  0.23487368397E+00  0.90177138830E+00  0.11801370643E+01  0.00000000000E+00 0.  1.
         11    1    3    3    0    0  0.15626925056E+01 -0.34490145187E+02  0.84696884629E+01  0.35549229891E+02  0.51100000000E-03 0. -1.
        -11    1    3    3    0    0 -0.15247347508E+01 -0.52822939562E+01  0.92417382022E+01  0.10753472498E+02  0.51100000000E-03 0.  1.
        -12    1    3    3    0    0  0.68617359135E+00  0.39537565460E+02 -0.18613198053E+02  0.43705160547E+02  0.00000000000E+00 0.  1.
</event>
<event>
 7    1  0.1654239E-015  0.9000771E+02  0.7816164E-02  0.1186339E+00
        -11   -1    0    0    0    0  0.00000000000E+00  0.00000000000E+00  0.45593999997E+02  0.45594000000E+02  0.51100000000E-03 0. -1.
         11   -1    0    0    0    0 -0.00000000000E+00 -0.00000000000E+00 -0.45593999997E+02  0.45594000000E+02  0.51100000000E-03 0.  1.
    9900012    2    1    2    0    0 -0.12444324888E+00 -0.10929596581E+01  0.42782967496E+00  0.90007709711E+02  0.89999970679E+02 0.  0.
        -12    1    1    2    0    0  0.12444324888E+00  0.10929596581E+01 -0.42782967496E+00  0.11802902894E+01  0.00000000000E+00 0.  1.
         11    1    3    3    0    0  0.17406167103E+02  0.10997015808E+02  0.30320271522E+02  0.36650073334E+02  0.51100000000E-03 0. -1.
        -11    1    3    3    0    0  0.86596180948E+01 -0.18945681287E+01  0.36593874593E+01  0.95900725117E+01  0.51100000000E-03 0.  1.
        -12    1    3    3    0    0 -0.26190228447E+02 -0.10195407338E+02 -0.33551829307E+02  0.43767563865E+02  0.00000000000E+00 0.  1.
</event>
<event>
 7    1  0.1874751E-015  0.9000737E+02  0.7816164E-02  0.1186340E+00
        -11   -1    0    0    0    0  0.00000000000E+00  0.00000000000E+00  0.45593999997E+02  0.45594000000E+02  0.51100000000E-03 0.  1.
         11   -1    0    0    0    0 -0.00000000000E+00 -0.00000000000E+00 -0.45593999997E+02  0.45594000000E+02  0.51100000000E-03 0. -1.
    9900012    2    1    2    0    0  0.42840962649E+00 -0.88261363309E+00 -0.65676220378E+00  0.90007373799E+02  0.89999630333E+02 0.  0.
        -12    1    1    2    0    0 -0.42840962649E+00  0.88261363309E+00  0.65676220378E+00  0.11806262007E+01  0.00000000000E+00 0.  1.
         11    1    3    3    0    0 -0.80937395689E+01  0.36007320743E+01  0.28232808737E+00  0.88630469417E+01  0.51100000000E-03 0. -1.
        -11    1    3    3    0    0 -0.28234590866E+02  0.77396913140E+01  0.21550982732E+02  0.36352988872E+02  0.51100000000E-03 0.  1.
         12    1    3    3    0    0  0.36756740061E+02 -0.12223037021E+02 -0.22490073023E+02  0.44791337985E+02  0.00000000000E+00 0. -1.
</event>
<event>
 7    1  0.1654239E-015  0.9000774E+02  0.7816164E-02  0.1186339E+00
        -11   -1    0    0    0    0  0.00000000000E+00  0.00000000000E+00  0.45593999997E+02  0.45594000000E+02  0.51100000000E-03 0. -1.
         11   -1    0    0    0    0 -0.00000000000E+00 -0.00000000000E+00 -0.45593999997E+02  0.45594000000E+02  0.51100000000E-03 0.  1.
    9900012    2    1    2    0    0  0.38606929627E+00  0.24160298822E+00  0.10888437635E+01  0.90007744838E+02  0.90000006270E+02 0.  0.
        -12    1    1    2    0    0 -0.38606929627E+00 -0.24160298822E+00 -0.10888437635E+01  0.11802551617E+01  0.00000000000E+00 0.  1.
         11    1    3    3    0    0  0.74425928560E+00  0.11332583171E+01 -0.40965915348E+01  0.43151197853E+01  0.51100000000E-03 0. -1.
        -11    1    3    3    0    0  0.36332293796E+02  0.21454549134E+02 -0.14739838471E+01  0.42219733297E+02  0.51100000000E-03 0.  1.
         12    1    3    3    0    0 -0.36690483785E+02 -0.22346204463E+02  0.66594191454E+01  0.43472891756E+02  0.00000000000E+00 0. -1.
</event>
<event>
 7    1  0.1654239E-015  0.9000774E+02  0.7816164E-02  0.1186339E+00
        -11   -1    0    0    0    0  0.00000000000E+00  0.00000000000E+00  0.45593999997E+02  0.45594000000E+02  0.51100000000E-03 0.  1.
         11   -1    0    0    0    0 -0.00000000000E+00 -0.00000000000E+00 -0.45593999997E+02  0.45594000000E+02  0.51100000000E-03 0. -1.
    9900012    2    1    2    0    0 -0.11494470066E+01 -0.18044822506E+00  0.19804766608E+00  0.90007740342E+02  0.90000001714E+02 0.  0.
        -12    1    1    2    0    0  0.11494470066E+01  0.18044822506E+00 -0.19804766608E+00  0.11802596583E+01  0.00000000000E+00 0.  1.
         11    1    3    3    0    0 -0.46596248669E+01 -0.80086911058E+01  0.94421736040E+01  0.13228978787E+02  0.51100000000E-03 0. -1.
        -11    1    3    3    0    0  0.20949964688E+02 -0.64453809307E+01  0.26582220916E+02  0.34453714239E+02  0.51100000000E-03 0.  1.
         12    1    3    3    0    0 -0.17439786828E+02  0.14273623811E+02 -0.35826346854E+02  0.42325047315E+02  0.00000000000E+00 0. -1.
</event>
<event>
 7    1  0.1654239E-015  0.9000780E+02  0.7816164E-02  0.1186339E+00
        -11   -1    0    0    0    0  0.00000000000E+00  0.00000000000E+00  0.45593999997E+02  0.45594000000E+02  0.51100000000E-03 0. -1.
         11   -1    0    0    0    0 -0.00000000000E+00 -0.00000000000E+00 -0.45593999997E+02  0.45594000000E+02  0.51100000000E-03 0.  1.
    9900012    2    1    2    0    0  0.42138460678E+00  0.47737774947E+00  0.99368840796E+00  0.90007800375E+02  0.90000062540E+02 0.  0.
        -12    1    1    2    0    0 -0.42138460678E+00 -0.47737774947E+00 -0.99368840796E+00  0.11801996249E+01  0.00000000000E+00 0.  1.
         11    1    3    3    0    0 -0.51542762394E+01  0.15719147875E+02 -0.10371196564E+02  0.19524853185E+02  0.51100000000E-03 0. -1.
        -11    1    3    3    0    0 -0.23937455995E+02 -0.28485026590E+02  0.64976325183E+01  0.37770593959E+02  0.51100000000E-03 0.  1.
         12    1    3    3    0    0  0.29513116842E+02  0.13243256465E+02  0.48672524533E+01  0.32712353231E+02  0.00000000000E+00 0. -1.
</event>
<event>
 7    1  0.1654239E-015  0.9000765E+02  0.7816164E-02  0.1186339E+00
        -11   -1    0    0    0    0  0.00000000000E+00  0.00000000000E+00  0.45593999997E+02  0.45594000000E+02  0.51100000000E-03 0.  1.
         11   -1    0    0    0    0 -0.00000000000E+00 -0.00000000000E+00 -0.45593999997E+02  0.45594000000E+02  0.51100000000E-03 0. -1.
    9900012    2    1    2    0    0 -0.13601788846E+00  0.27573631913E+00 -0.11396023559E+01  0.90007650512E+02  0.89999910699E+02 0.  0.
        -12    1    1    2    0    0  0.13601788846E+00 -0.27573631913E+00  0.11396023559E+01  0.11803494878E+01  0.00000000000E+00 0.  1.
         11    1    3    3    0    0 -0.29428492120E+01  0.28951980779E+02 -0.26082267813E+02  0.39078923310E+02  0.51100000000E-03 0. -1.
        -11    1    3    3    0    0  0.79096114867E+01  0.16846933287E+01 -0.36864744922E+01  0.88876453532E+01  0.51100000000E-03 0.  1.
        -12    1    3    3    0    0 -0.51027801631E+01 -0.30360937789E+02  0.28629139949E+02  0.42041081849E+02  0.00000000000E+00 0.  1.
</event>
<event>
 7    1  0.1654239E-015  0.9000779E+02  0.7816164E-02  0.1186339E+00
        -11   -1    0    0    0    0  0.00000000000E+00  0.00000000000E+00  0.45593999997E+02  0.45594000000E+02  0.51100000000E-03 0.  1.
         11   -1    0    0    0    0 -0.00000000000E+00 -0.00000000000E+00 -0.45593999997E+02  0.45594000000E+02  0.51100000000E-03 0. -1.
    9900012    2    1    2    0    0 -0.67281229346E+00 -0.90905817652E+00 -0.33738499914E+00  0.90007791634E+02  0.90000053683E+02 0.  0.
        -12    1    1    2    0    0  0.67281229346E+00  0.90905817652E+00  0.33738499914E+00  0.11802083664E+01  0.00000000000E+00 0.  1.
         11    1    3    3    0    0  0.33864109545E+01 -0.19332033490E+01 -0.85885588512E+01  0.94323060670E+01  0.51100000000E-03 0. -1.
        -11    1    3    3    0    0  0.18585179122E+02  0.72155076931E+01  0.37860595059E+02  0.42788983310E+02  0.51100000000E-03 0.  1.
         12    1    3    3    0    0 -0.22644402370E+02 -0.61913625207E+01 -0.29609421207E+02  0.37786502256E+02  0.00000000000E+00 0. -1.
</event>
<event>
 7    1  0.1654239E-015  0.9000771E+02  0.7816164E-02  0.1186339E+00
        -11   -1    0    0    0    0  0.00000000000E+00  0.00000000000E+00  0.45593999997E+02  0.45594000000E+02  0.51100000000E-03 0.  1.
         11   -1    0    0    0    0 -0.00000000000E+00 -0.00000000000E+00 -0.45593999997E+02  0.45594000000E+02  0.51100000000E-03 0. -1.
    9900012    2    1    2    0    0  0.80066561327E+00  0.57193930346E+00 -0.65185114842E+00  0.90007707701E+02  0.89999968643E+02 0.  0.
        -12    1    1    2    0    0 -0.80066561327E+00 -0.57193930346E+00  0.65185114842E+00  0.11802922989E+01  0.00000000000E+00 0.  1.
         11    1    3    3    0    0  0.47964424686E+01 -0.31349594382E+02 -0.23509491907E+02  0.39477830972E+02  0.51100000000E-03 0. -1.
        -11    1    3    3    0    0 -0.73014687667E+01 -0.44180097663E+01  0.35032947796E+01  0.92251466665E+01  0.51100000000E-03 0.  1.
        -12    1    3    3    0    0  0.33056919113E+01  0.36339543452E+02  0.19354345979E+02  0.41304730063E+02  0.00000000000E+00 0.  1.
</event>
<event>
 7    1  0.1654239E-015  0.9000770E+02  0.7816164E-02  0.1186339E+00
        -11   -1    0    0    0    0  0.00000000000E+00  0.00000000000E+00  0.45593999997E+02  0.45594000000E+02  0.51100000000E-03 0. -1.
         11   -1    0    0    0    0 -0.00000000000E+00 -0.00000000000E+00 -0.45593999997E+02  0.45594000000E+02  0.51100000000E-03 0.  1.
    9900012    2    1    2    0    0  0.10399494288E+01 -0.54294050986E+00 -0.12976949023E+00  0.90007695238E+02  0.89999956015E+02 0.  0.
        -12    1    1    2    0    0 -0.10399494288E+01  0.54294050986E+00  0.12976949023E+00  0.11803047625E+01  0.00000000000E+00 0.  1.
         11    1    3    3    0    0 -0.64977356177E+01  0.23460784290E+02  0.35572083185E+02  0.43104548137E+02  0.51100000000E-03 0. -1.
        -11    1    3    3    0    0 -0.49687102262E+01 -0.51222787835E+01 -0.48390570333E+01  0.86221977756E+01  0.51100000000E-03 0.  1.
        -12    1    3    3    0    0  0.12506395273E+02 -0.18881446017E+02 -0.30862795642E+02  0.38280949325E+02  0.00000000000E+00 0.  1.
</event>
<event>
 7    1  0.1654239E-015  0.9000771E+02  0.7816164E-02  0.1186339E+00
        -11   -1    0    0    0    0  0.00000000000E+00  0.00000000000E+00  0.45593999997E+02  0.45594000000E+02  0.51100000000E-03 0. -1.
         11   -1    0    0    0    0 -0.00000000000E+00 -0.00000000000E+00 -0.45593999997E+02  0.45594000000E+02  0.51100000000E-03 0.  1.
    9900012    2    1    2    0    0  0.12144925349E+00  0.47991318202E+00  0.10714609207E+01  0.90007705508E+02  0.89999966421E+02 0.  0.
        -12    1    1    2    0    0 -0.12144925349E+00 -0.47991318202E+00 -0.10714609207E+01  0.11802944921E+01  0.00000000000E+00 0.  1.
         11    1    3    3    0    0  0.12888770034E+02 -0.20470175451E+02  0.35527694767E+02  0.42980990818E+02  0.51100000000E-03 0. -1.
        -11    1    3    3    0    0  0.56125927169E+01  0.35431094295E+01 -0.82837102259E+01  0.10614832867E+02  0.51100000000E-03 0.  1.
        -12    1    3    3    0    0 -0.18379913497E+02  0.17406979204E+02 -0.26172523620E+02  0.36411881822E+02  0.00000000000E+00 0.  1.
</event>
<event>
 7    1  0.1654239E-015  0.9000768E+02  0.7816164E-02  0.1186339E+00
        -11   -1    0    0    0    0  0.00000000000E+00  0.00000000000E+00  0.45593999997E+02  0.45594000000E+02  0.51100000000E-03 0.  1.
         11   -1    0    0    0    0 -0.00000000000E+00 -0.00000000000E+00 -0.45593999997E+02  0.45594000000E+02  0.51100000000E-03 0. -1.
    9900012    2    1    2    0    0 -0.73186270687E+00 -0.25396711409E+00 -0.89052071887E+00  0.90007682472E+02  0.89999943080E+02 0.  0.
        -12    1    1    2    0    0  0.73186270687E+00  0.25396711409E+00  0.89052071887E+00  0.11803175282E+01  0.00000000000E+00 0.  1.
         11    1    3    3    0    0  0.19961285321E+02 -0.18897478532E+01 -0.34523832042E+02  0.39923915612E+02  0.51100000000E-03 0. -1.
        -11    1    3    3    0    0 -0.57274388774E+01 -0.10778190869E+02  0.11945456912E+01  0.12263763459E+02  0.51100000000E-03 0.  1.
        -12    1    3    3    0    0 -0.14965709151E+02  0.12413971609E+02  0.32438765632E+02  0.37820003401E+02  0.00000000000E+00 0.  1.
</event>
<event>
 7    1  0.1654239E-015  0.9000772E+02  0.7816164E-02  0.1186339E+00
        -11   -1    0    0    0    0  0.00000000000E+00  0.00000000000E+00  0.45593999997E+02  0.45594000000E+02  0.51100000000E-03 0. -1.
         11   -1    0    0    0    0 -0.00000000000E+00 -0.00000000000E+00 -0.45593999997E+02  0.45594000000E+02  0.51100000000E-03 0.  1.
    9900012    2    1    2    0    0  0.60705554473E+00 -0.89978458975E+00  0.46360294309E+00  0.90007721884E+02  0.89999983013E+02 0.  0.
        -12    1    1    2    0    0 -0.60705554473E+00  0.89978458975E+00 -0.46360294309E+00  0.11802781160E+01  0.00000000000E+00 0.  1.
         11    1    3    3    0    0 -0.75437630619E+01 -0.68468152819E+01 -0.19891702205E+01  0.10379982614E+02  0.51100000000E-03 0. -1.
        -11    1    3    3    0    0  0.31831084715E+02  0.92221124097E+01 -0.26247709897E+02  0.42275378018E+02  0.51100000000E-03 0.  1.
         12    1    3    3    0    0 -0.23680266108E+02 -0.32750817175E+01  0.28700483061E+02  0.37352361252E+02  0.00000000000E+00 0. -1.
</event>
<event>
 7    1  0.1654239E-015  0.9000777E+02  0.7816164E-02  0.1186339E+00
        -11   -1    0    0    0    0  0.00000000000E+00  0.00000000000E+00  0.45593999997E+02  0.45594000000E+02  0.51100000000E-03 0.  1.
         11   -1    0    0    0    0 -0.00000000000E+00 -0.00000000000E+00 -0.45593999997E+02  0.45594000000E+02  0.51100000000E-03 0. -1.
    9900012    2    1    2    0    0  0.96510757163E+00  0.64811051851E+00  0.20363962699E+00  0.90007767410E+02  0.90000029140E+02 0.  0.
        -12    1    1    2    0    0 -0.96510757163E+00 -0.64811051851E+00 -0.20363962699E+00  0.11802325901E+01  0.00000000000E+00 0.  1.
         11    1    3    3    0    0 -0.23673991279E+02  0.22280228846E+02 -0.17921424281E+02  0.37122013806E+02  0.51100000000E-03 0. -1.
        -11    1    3    3    0    0  0.50645792633E+01  0.10028373084E+02 -0.53510446605E+00  0.11247424900E+02  0.51100000000E-03 0.  1.
        -12    1    3    3    0    0  0.19574519588E+02 -0.31660491412E+02  0.18660168374E+02  0.41638328704E+02  0.00000000000E+00 0.  1.
</event>
<event>
 7    1  0.1654239E-015  0.9000774E+02  0.7816164E-02  0.1186339E+00
        -11   -1    0    0    0    0  0.00000000000E+00  0.00000000000E+00  0.45593999997E+02  0.45594000000E+02  0.51100000000E-03 0.  1.
         11   -1    0    0    0    0 -0.00000000000E+00 -0.00000000000E+00 -0.45593999997E+02  0.45594000000E+02  0.51100000000E-03 0. -1.
    9900012    2    1    2    0    0 -0.98156800102E+00 -0.44045496730E-01 -0.65391864896E+00  0.90007735053E+02  0.89999996355E+02 0.  0.
        -12    1    1    2    0    0  0.98156800102E+00  0.44045496730E-01  0.65391864896E+00  0.11802649473E+01  0.00000000000E+00 0.  1.
         11    1    3    3    0    0  0.33969356027E+02 -0.14927636364E+02  0.26932711533E+01  0.37202220177E+02  0.51100000000E-03 0. -1.
        -11    1    3    3    0    0  0.75410610540E+01  0.32405207056E+01 -0.30207304043E+01  0.87460498912E+01  0.51100000000E-03 0.  1.
        -12    1    3    3    0    0 -0.42491985082E+02  0.11643070162E+02 -0.32645939795E+00  0.44059464985E+02  0.00000000000E+00 0.  1.
</event>
<event>
 7    1  0.1654239E-015  0.9000778E+02  0.7816164E-02  0.1186339E+00
        -11   -1    0    0    0    0  0.00000000000E+00  0.00000000000E+00  0.45593999997E+02  0.45594000000E+02  0.51100000000E-03 0.  1.
         11   -1    0    0    0    0 -0.00000000000E+00 -0.00000000000E+00 -0.45593999997E+02  0.45594000000E+02  0.51100000000E-03 0. -1.
    9900012    2    1    2    0    0 -0.67188338380E+00  0.57099401181E+00  0.78451668375E+00  0.90007776347E+02  0.90000038195E+02 0.  0.
        -12    1    1    2    0    0  0.67188338380E+00 -0.57099401181E+00 -0.78451668375E+00  0.11802236525E+01  0.00000000000E+00 0.  1.
         11    1    3    3    0    0  0.11931188608E+01 -0.81161025451E+01 -0.19793356478E+02  0.21425956550E+02  0.51100000000E-03 0. -1.
        -11    1    3    3    0    0  0.25710708478E+02 -0.14377021648E+02  0.85416394744E+01  0.30670814907E+02  0.51100000000E-03 0.  1.
        -12    1    3    3    0    0 -0.27575710723E+02  0.23064118205E+02  0.12036233687E+02  0.37911004890E+02  0.00000000000E+00 0.  1.
</event>
<event>
 7    1  0.1654239E-015  0.9000806E+02  0.7816164E-02  0.1186338E+00
        -11   -1    0    0    0    0  0.00000000000E+00  0.00000000000E+00  0.45593999997E+02  0.45594000000E+02  0.51100000000E-03 0.  1.
         11   -1    0    0    0    0 -0.00000000000E+00 -0.00000000000E+00 -0.45593999997E+02  0.45594000000E+02  0.51100000000E-03 0. -1.
    9900012    2    1    2    0    0 -0.58342967397E+00 -0.97606812448E+00 -0.31490260457E+00  0.90008058129E+02  0.90000323696E+02 0.  0.
        -12    1    1    2    0    0  0.58342967397E+00  0.97606812448E+00  0.31490260457E+00  0.11799418708E+01  0.00000000000E+00 0.  1.
         11    1    3    3    0    0  0.22091738225E+01  0.86927178125E+01  0.34931497801E+01  0.96252733776E+01  0.51100000000E-03 0. -1.
        -11    1    3    3    0    0 -0.13225624549E+01 -0.11677851210E+02  0.37346994193E+02  0.39152514043E+02  0.51100000000E-03 0.  1.
         12    1    3    3    0    0 -0.14700410415E+01  0.20090652734E+01 -0.41155046578E+02  0.41230270709E+02  0.00000000000E+00 0. -1.
</event>
<event>
 7    1  0.1654239E-015  0.9000777E+02  0.7816164E-02  0.1186339E+00
        -11   -1    0    0    0    0  0.00000000000E+00  0.00000000000E+00  0.45593999997E+02  0.45594000000E+02  0.51100000000E-03 0.  1.
         11   -1    0    0    0    0 -0.00000000000E+00 -0.00000000000E+00 -0.45593999997E+02  0.45594000000E+02  0.51100000000E-03 0. -1.
    9900012    2    1    2    0    0  0.89200437306E+00 -0.73614086976E+00 -0.23531872163E+00  0.90007766937E+02  0.90000028661E+02 0.  0.
        -12    1    1    2    0    0 -0.89200437306E+00  0.73614086976E+00  0.23531872163E+00  0.11802330628E+01  0.00000000000E+00 0.  1.
         11    1    3    3    0    0  0.35529916601E+01  0.23046580663E+02 -0.32368486631E+02  0.39893452558E+02  0.51100000000E-03 0. -1.
        -11    1    3    3    0    0 -0.53852339651E+01 -0.64811078360E+01 -0.44684077849E+01  0.95379333209E+01  0.51100000000E-03 0.  1.
        -12    1    3    3    0    0  0.27242466780E+01 -0.17301613697E+02  0.36601575694E+02  0.40576381058E+02  0.00000000000E+00 0.  1.
</event>
<event>
 7    1  0.1654239E-015  0.9000806E+02  0.7816164E-02  0.1186338E+00
        -11   -1    0    0    0    0  0.00000000000E+00  0.00000000000E+00  0.45593999997E+02  0.45594000000E+02  0.51100000000E-03 0.  1.
         11   -1    0    0    0    0 -0.00000000000E+00 -0.00000000000E+00 -0.45593999997E+02  0.45594000000E+02  0.51100000000E-03 0. -1.
    9900012    2    1    2    0    0 -0.38703367777E+00  0.10387009474E+01 -0.40441945504E+00  0.90008063637E+02  0.90000329276E+02 0.  0.
        -12    1    1    2    0    0  0.38703367777E+00 -0.10387009474E+01  0.40441945504E+00  0.11799363633E+01  0.00000000000E+00 0.  1.
         11    1    3    3    0    0 -0.12351912535E+01  0.92676777721E+01 -0.35546388643E+02  0.36755425376E+02  0.51100000000E-03 0. -1.
        -11    1    3    3    0    0 -0.55344272710E+01  0.47837700503E+01 -0.61082533204E+01  0.95302203542E+01  0.51100000000E-03 0.  1.
        -12    1    3    3    0    0  0.63825848467E+01 -0.13012746875E+02  0.41250222509E+02  0.43722417906E+02  0.00000000000E+00 0.  1.
</event>
<event>
 7    1  0.1654239E-015  0.9000778E+02  0.7816164E-02  0.1186339E+00
        -11   -1    0    0    0    0  0.00000000000E+00  0.00000000000E+00  0.45593999997E+02  0.45594000000E+02  0.51100000000E-03 0. -1.
         11   -1    0    0    0    0 -0.00000000000E+00 -0.00000000000E+00 -0.45593999997E+02  0.45594000000E+02  0.51100000000E-03 0.  1.
    9900012    2    1    2    0    0 -0.23320925337E+00 -0.24424257805E+00  0.11308713624E+01  0.90007783481E+02  0.90000045423E+02 0.  0.
        -12    1    1    2    0    0  0.23320925337E+00  0.24424257805E+00 -0.11308713624E+01  0.11802165187E+01  0.00000000000E+00 0.  1.
         11    1    3    3    0    0  0.30921201156E+02  0.25647871600E+02  0.16464045566E+02  0.43416572818E+02  0.51100000000E-03 0. -1.
        -11    1    3    3    0    0 -0.91284640774E+01  0.10584186649E+01 -0.31996537174E+01  0.97307189177E+01  0.51100000000E-03 0.  1.
        -12    1    3    3    0    0 -0.22025946332E+02 -0.26950532843E+02 -0.12133520486E+02  0.36860491746E+02  0.00000000000E+00 0.  1.
</event>
<event>
 7    1  0.1654239E-015  0.9000771E+02  0.7816164E-02  0.1186339E+00
        -11   -1    0    0    0    0  0.00000000000E+00  0.00000000000E+00  0.45593999997E+02  0.45594000000E+02  0.51100000000E-03 0. -1.
         11   -1    0    0    0    0 -0.00000000000E+00 -0.00000000000E+00 -0.45593999997E+02  0.45594000000E+02  0.51100000000E-03 0.  1.
    9900012    2    1    2    0    0  0.59301481119E+00  0.14481788966E+00  0.10101683811E+01  0.90007712346E+02  0.89999973349E+02 0.  0.
        -12    1    1    2    0    0 -0.59301481119E+00 -0.14481788966E+00 -0.10101683811E+01  0.11802876538E+01  0.00000000000E+00 0.  1.
         11    1    3    3    0    0 -0.22969498148E+02  0.32224138587E+02 -0.68096666011E+01  0.40154258956E+02  0.51100000000E-03 0. -1.
        -11    1    3    3    0    0 -0.67551210026E+01 -0.82335790471E+01  0.21925827632E+01  0.10873403475E+02  0.51100000000E-03 0.  1.
        -12    1    3    3    0    0  0.30317633962E+02 -0.23845741650E+02  0.56272522190E+01  0.38980049916E+02  0.00000000000E+00 0.  1.
</event>
<event>
 7    1  0.1654239E-015  0.9000774E+02  0.7816164E-02  0.1186339E+00
        -11   -1    0    0    0    0  0.00000000000E+00  0.00000000000E+00  0.45593999997E+02  0.45594000000E+02  0.51100000000E-03 0. -1.
         11   -1    0    0    0    0 -0.00000000000E+00 -0.00000000000E+00 -0.45593999997E+02  0.45594000000E+02  0.51100000000E-03 0.  1.
    9900012    2    1    2    0    0  0.10605506561E+01 -0.37660742114E+00 -0.35553490155E+00  0.90007743286E+02  0.90000004698E+02 0.  0.
        -12    1    1    2    0    0 -0.10605506561E+01  0.37660742114E+00  0.35553490155E+00  0.11802567136E+01  0.00000000000E+00 0.  1.
         11    1    3    3    0    0 -0.95414373481E+01  0.27239770232E+02 -0.17238167563E+02  0.33618425457E+02  0.51100000000E-03 0. -1.
        -11    1    3    3    0    0 -0.76175355818E+01  0.89624642727E+01 -0.95430769418E+00  0.11800987993E+02  0.51100000000E-03 0.  1.
        -12    1    3    3    0    0  0.18219523586E+02 -0.36578841926E+02  0.17836940356E+02  0.44588329837E+02  0.00000000000E+00 0.  1.
</event>
<event>
 7    1  0.1654239E-015  0.9000775E+02  0.7816164E-02  0.1186339E+00
        -11   -1    0    0    0    0  0.00000000000E+00  0.00000000000E+00  0.45593999997E+02  0.45594000000E+02  0.51100000000E-03 0.  1.
         11   -1    0    0    0    0 -0.00000000000E+00 -0.00000000000E+00 -0.45593999997E+02  0.45594000000E+02  0.51100000000E-03 0. -1.
    9900012    2    1    2    0    0  0.16888987740E-01  0.11230322844E+01  0.36262467361E+00  0.90007752821E+02  0.90000014358E+02 0.  0.
        -12    1    1    2    0    0 -0.16888987740E-01 -0.11230322844E+01 -0.36262467361E+00  0.11802471790E+01  0.00000000000E+00 0.  1.
         11    1    3    3    0    0 -0.43431390282E+01 -0.91693905934E+01  0.93818594842E+00  0.10189247941E+02  0.51100000000E-03 0. -1.
        -11    1    3    3    0    0 -0.20731459205E+02 -0.75010399980E+01  0.29480198220E+02  0.36812241023E+02  0.51100000000E-03 0.  1.
         12    1    3    3    0    0  0.25091487221E+02  0.17793462876E+02 -0.30055759494E+02  0.43006263856E+02  0.00000000000E+00 0. -1.
</event>
<event>
 7    1  0.1654239E-015  0.9000779E+02  0.7816164E-02  0.1186339E+00
        -11   -1    0    0    0    0  0.00000000000E+00  0.00000000000E+00  0.45593999997E+02  0.45594000000E+02  0.51100000000E-03 0. -1.
         11   -1    0    0    0    0 -0.00000000000E+00 -0.00000000000E+00 -0.45593999997E+02  0.45594000000E+02  0.51100000000E-03 0.  1.
    9900012    2    1    2    0    0 -0.51358232600E+00 -0.34632068773E+00  0.10045869782E+01  0.90007788230E+02  0.90000050235E+02 0.  0.
        -12    1    1    2    0    0  0.51358232600E+00  0.34632068773E+00 -0.10045869782E+01  0.11802117696E+01  0.00000000000E+00 0.  1.
         11    1    3    3    0    0  0.30338780468E+02 -0.11810223692E+02  0.17416153734E+02  0.36922153175E+02  0.51100000000E-03 0. -1.
        -11    1    3    3    0    0  0.66343174240E+01 -0.53054579110E+01 -0.68700635022E+01  0.10925192177E+02  0.51100000000E-03 0.  1.
        -12    1    3    3    0    0 -0.37486680218E+02  0.16769360915E+02 -0.95415032536E+01  0.42160442878E+02  0.00000000000E+00 0.  1.
</event>
<event>
 7    1  0.1654239E-015  0.9000781E+02  0.7816164E-02  0.1186339E+00
        -11   -1    0    0    0    0  0.00000000000E+00  0.00000000000E+00  0.45593999997E+02  0.45594000000E+02  0.51100000000E-03 0. -1.
         11   -1    0    0    0    0 -0.00000000000E+00 -0.00000000000E+00 -0.45593999997E+02  0.45594000000E+02  0.51100000000E-03 0.  1.
    9900012    2    1    2    0    0  0.10043721006E+01 -0.44487199675E+00  0.43148188432E+00  0.90007808903E+02  0.90000071180E+02 0.  0.
        -12    1    1    2    0    0 -0.10043721006E+01  0.44487199675E+00 -0.43148188432E+00  0.11801910974E+01  0.00000000000E+00 0.  1.
         11    1    3    3    0    0  0.24454990065E+01 -0.92958975637E+01  0.11763260337E+01  0.96839000461E+01  0.51100000000E-03 0. -1.
        -11    1    3    3    0    0 -0.22573005781E+01 -0.21065819118E+02  0.30449282694E+02  0.37094783432E+02  0.51100000000E-03 0.  1.
         12    1    3    3    0    0  0.81617367216E+00  0.29916844685E+02 -0.31194126844E+02  0.43229125424E+02  0.00000000000E+00 0. -1.
</event>
<event>
 7    1  0.1654239E-015  0.9000774E+02  0.7816164E-02  0.1186339E+00
        -11   -1    0    0    0    0  0.00000000000E+00  0.00000000000E+00  0.45593999997E+02  0.45594000000E+02  0.51100000000E-03 0.  1.
         11   -1    0    0    0    0 -0.00000000000E+00 -0.00000000000E+00 -0.45593999997E+02  0.45594000000E+02  0.51100000000E-03 0. -1.
    9900012    2    1    2    0    0 -0.62658552911E+00  0.96167282451E+00 -0.27494667171E+00  0.90007737436E+02  0.89999998771E+02 0.  0.
        -12    1    1    2    0    0  0.62658552911E+00 -0.96167282451E+00  0.27494667171E+00  0.11802625636E+01  0.00000000000E+00 0.  1.
         11    1    3    3    0    0 -0.12754283280E+01 -0.83052924513E+01  0.19256150644E+01  0.86204752630E+01  0.51100000000E-03 0. -1.
        -11    1    3    3    0    0  0.34703072460E+01 -0.17600838208E+02  0.32672779048E+02  0.37273892056E+02  0.51100000000E-03 0.  1.
         12    1    3    3    0    0 -0.28214644471E+01  0.26867803484E+02 -0.34873340784E+02  0.44113370118E+02  0.00000000000E+00 0. -1.
</event>
<event>
 7    1  0.1654239E-015  0.9000772E+02  0.7816164E-02  0.1186339E+00
        -11   -1    0    0    0    0  0.00000000000E+00  0.00000000000E+00  0.45593999997E+02  0.45594000000E+02  0.51100000000E-03 0.  1.
         11   -1    0    0    0    0 -0.00000000000E+00 -0.00000000000E+00 -0.45593999997E+02  0.45594000000E+02  0.51100000000E-03 0. -1.
    9900012    2    1    2    0    0  0.11461443280E+01  0.19174797234E+00  0.20651107574E+00  0.90007719978E+02  0.89999981082E+02 0.  0.
        -12    1    1    2    0    0 -0.11461443280E+01 -0.19174797234E+00 -0.20651107574E+00  0.11802800218E+01  0.00000000000E+00 0.  1.
         11    1    3    3    0    0  0.11723512151E+01 -0.25339674243E+01  0.47497802476E+01  0.55096107794E+01  0.51100000000E-03 0. -1.
        -11    1    3    3    0    0  0.39785387781E+02 -0.47010734447E+01  0.10300353555E+02  0.41365135755E+02  0.51100000000E-03 0.  1.
         12    1    3    3    0    0 -0.39811594668E+02  0.74267888413E+01 -0.14843622726E+02  0.43132973444E+02  0.00000000000E+00 0. -1.
</event>
<event>
 7    1  0.1654239E-015  0.9000784E+02  0.7816164E-02  0.1186339E+00
        -11   -1    0    0    0    0  0.00000000000E+00  0.00000000000E+00  0.45593999997E+02  0.45594000000E+02  0.51100000000E-03 0. -1.
         11   -1    0    0    0    0 -0.00000000000E+00 -0.00000000000E+00 -0.45593999997E+02  0.45594000000E+02  0.51100000000E-03 0.  1.
    9900012    2    1    2    0    0  0.18599162787E+00  0.11650474373E+01 -0.29238601800E-01  0.90007837591E+02  0.90000100247E+02 0.  0.
        -12    1    1    2    0    0 -0.18599162787E+00 -0.11650474373E+01  0.29238601800E-01  0.11801624094E+01  0.00000000000E+00 0.  1.
         11    1    3    3    0    0  0.16712361748E+00 -0.16281020721E+01 -0.10126573982E+02  0.10257979700E+02  0.51100000000E-03 0. -1.
        -11    1    3    3    0    0 -0.23609726373E+02  0.13260151731E+02 -0.24533199645E+02  0.36539412809E+02  0.51100000000E-03 0.  1.
         12    1    3    3    0    0  0.23628594383E+02 -0.10467002222E+02  0.34630535025E+02  0.43210445082E+02  0.00000000000E+00 0. -1.
</event>
<event>
 7    1  0.1654239E-015  0.9000783E+02  0.7816164E-02  0.1186339E+00
        -11   -1    0    0    0    0  0.00000000000E+00  0.00000000000E+00  0.45593999997E+02  0.45594000000E+02  0.51100000000E-03 0.  1.
         11   -1    0    0    0    0 -0.00000000000E+00 -0.00000000000E+00 -0.45593999997E+02  0.45594000000E+02  0.51100000000E-03 0. -1.
    9900012    2    1    2    0    0 -0.10314259941E+01  0.52004649036E+00 -0.24187713476E+00  0.90007833706E+02  0.90000096311E+02 0.  0.
        -12    1    1    2    0    0  0.10314259941E+01 -0.52004649036E+00  0.24187713476E+00  0.11801662941E+01  0.00000000000E+00 0.  1.
         11    1    3    3    0    0  0.64097721402E+01 -0.47168854385E+01 -0.48938859842E+01  0.93426070995E+01  0.51100000000E-03 0. -1.
        -11    1    3    3    0    0 -0.42152943489E+02  0.12153391062E+02 -0.45194159110E+01  0.44102161846E+02  0.51100000000E-03 0.  1.
         12    1    3    3    0    0  0.34711745355E+02 -0.69164591334E+01  0.91714247605E+01  0.36563064760E+02  0.00000000000E+00 0. -1.
</event>
<event>
 7    1  0.1654239E-015  0.9000786E+02  0.7816164E-02  0.1186339E+00
        -11   -1    0    0    0    0  0.00000000000E+00  0.00000000000E+00  0.45593999997E+02  0.45594000000E+02  0.51100000000E-03 0. -1.
         11   -1    0    0    0    0 -0.00000000000E+00 -0.00000000000E+00 -0.45593999997E+02  0.45594000000E+02  0.51100000000E-03 0.  1.
    9900012    2    1    2    0    0 -0.11334384517E+01  0.30661448367E+00 -0.11851596653E+00  0.90007855433E+02  0.90000118324E+02 0.  0.
        -12    1    1    2    0    0  0.11334384517E+01 -0.30661448367E+00  0.11851596653E+00  0.11801445673E+01  0.00000000000E+00 0.  1.
         11    1    3    3    0    0 -0.38117092177E+01 -0.42646222170E+01  0.80957786835E+01  0.99125053627E+01  0.51100000000E-03 0. -1.
        -11    1    3    3    0    0 -0.22705087133E+02 -0.10561043030E+02 -0.33069583099E+02  0.41480765883E+02  0.51100000000E-03 0.  1.
         12    1    3    3    0    0  0.25383357899E+02  0.15132279731E+02  0.24855288449E+02  0.38614584187E+02  0.00000000000E+00 0. -1.
</event>
<event>
 7    1  0.1654239E-015  0.9000762E+02  0.7816164E-02  0.1186339E+00
        -11   -1    0    0    0    0  0.00000000000E+00  0.00000000000E+00  0.45593999997E+02  0.45594000000E+02  0.51100000000E-03 0. -1.
         11   -1    0    0    0    0 -0.00000000000E+00 -0.00000000000E+00 -0.45593999997E+02  0.45594000000E+02  0.51100000000E-03 0.  1.
    9900012    2    1    2    0    0 -0.11321142311E+01  0.21430174163E+00  0.25629534545E+00  0.90007620750E+02  0.89999880544E+02 0.  0.
        -12    1    1    2    0    0  0.11321142311E+01 -0.21430174163E+00 -0.25629534545E+00  0.11803792496E+01  0.00000000000E+00 0.  1.
         11    1    3    3    0    0  0.17964963360E+00  0.11442255514E+02  0.33866046822E+02  0.35747260215E+02  0.51100000000E-03 0. -1.
        -11    1    3    3    0    0  0.24489910839E+01 -0.38693407558E+01  0.94041561743E+01  0.10459804435E+02  0.51100000000E-03 0.  1.
        -12    1    3    3    0    0 -0.37607549486E+01 -0.73586130166E+01 -0.43013907651E+02  0.43800556100E+02  0.00000000000E+00 0.  1.
</event>
<event>
 7    1  0.1654239E-015  0.9000774E+02  0.7816164E-02  0.1186339E+00
        -11   -1    0    0    0    0  0.00000000000E+00  0.00000000000E+00  0.45593999997E+02  0.45594000000E+02  0.51100000000E-03 0.  1.
         11   -1    0    0    0    0 -0.00000000000E+00 -0.00000000000E+00 -0.45593999997E+02  0.45594000000E+02  0.51100000000E-03 0. -1.
    9900012    2    1    2    0    0  0.85943190147E-01 -0.10607162551E+01 -0.51039030043E+00  0.90007744322E+02  0.90000005747E+02 0.  0.
        -12    1    1    2    0    0 -0.85943190147E-01  0.10607162551E+01  0.51039030043E+00  0.11802556776E+01  0.00000000000E+00 0.  1.
         11    1    3    3    0    0 -0.88186000380E+01 -0.16372477833E+01 -0.43748862364E+01  0.99793745685E+01  0.51100000000E-03 0. -1.
        -11    1    3    3    0    0 -0.22380155013E+02 -0.25891480235E+02 -0.11736647589E+02  0.36179952792E+02  0.51100000000E-03 0.  1.
         12    1    3    3    0    0  0.31284698241E+02  0.26468011763E+02  0.15601143525E+02  0.43848416962E+02  0.00000000000E+00 0. -1.
</event>
<event>
 7    1  0.1654239E-015  0.9000765E+02  0.7816164E-02  0.1186339E+00
        -11   -1    0    0    0    0  0.00000000000E+00  0.00000000000E+00  0.45593999997E+02  0.45594000000E+02  0.51100000000E-03 0.  1.
         11   -1    0    0    0    0 -0.00000000000E+00 -0.00000000000E+00 -0.45593999997E+02  0.45594000000E+02  0.51100000000E-03 0. -1.
    9900012    2    1    2    0    0  0.46584502150E+00  0.10834693335E+01 -0.47939025218E-01  0.90007654487E+02  0.89999914726E+02 0.  0.
        -12    1    1    2    0    0 -0.46584502150E+00 -0.10834693335E+01  0.47939025218E-01  0.11803455133E+01  0.00000000000E+00 0.  1.
         11    1    3    3    0    0 -0.71752401133E+01  0.13179209207E+02 -0.37834192559E+02  0.40701372862E+02  0.51100000000E-03 0. -1.
        -11    1    3    3    0    0  0.67565414595E+01  0.65919859296E+01  0.31695631391E+01  0.99574726584E+01  0.51100000000E-03 0.  1.
        -12    1    3    3    0    0  0.88454367531E+00 -0.18687725803E+02  0.34616690395E+02  0.39348808966E+02  0.00000000000E+00 0.  1.
</event>
<event>
 7    1  0.1654239E-015  0.9000747E+02  0.7816164E-02  0.1186340E+00
        -11   -1    0    0    0    0  0.00000000000E+00  0.00000000000E+00  0.45593999997E+02  0.45594000000E+02  0.51100000000E-03 0.  1.
         11   -1    0    0    0    0 -0.00000000000E+00 -0.00000000000E+00 -0.45593999997E+02  0.45594000000E+02  0.51100000000E-03 0. -1.
    9900012    2    1    2    0    0 -0.80938600584E+00  0.85611972196E+00 -0.74807202507E-01  0.90007473506E+02  0.89999731356E+02 0.  0.
        -12    1    1    2    0    0  0.80938600584E+00 -0.85611972196E+00  0.74807202507E-01  0.11805264937E+01  0.00000000000E+00 0.  1.
         11    1    3    3    0    0 -0.58824276555E+01  0.67191830028E+00 -0.74078801947E+01  0.94832019152E+01  0.51100000000E-03 0. -1.
        -11    1    3    3    0    0 -0.19001636394E+02  0.33749607159E+02  0.10718116134E+01  0.38745928166E+02  0.51100000000E-03 0.  1.
         12    1    3    3    0    0  0.24074678044E+02 -0.33565405738E+02  0.62612613788E+01  0.41778343425E+02  0.00000000000E+00 0. -1.
</event>
<event>
 7    1  0.1654239E-015  0.9000776E+02  0.7816164E-02  0.1186339E+00
        -11   -1    0    0    0    0  0.00000000000E+00  0.00000000000E+00  0.45593999997E+02  0.45594000000E+02  0.51100000000E-03 0. -1.
         11   -1    0    0    0    0 -0.00000000000E+00 -0.00000000000E+00 -0.45593999997E+02  0.45594000000E+02  0.51100000000E-03 0.  1.
    9900012    2    1    2    0    0 -0.20321490623E+00 -0.54221435230E-01  0.11613472906E+01  0.90007761129E+02  0.90000022776E+02 0.  0.
        -12    1    1    2    0    0  0.20321490623E+00  0.54221435230E-01 -0.11613472906E+01  0.11802388705E+01  0.00000000000E+00 0.  1.
         11    1    3    3    0    0 -0.75729201984E+01 -0.15635659999E+01  0.27816785092E+01  0.82177609212E+01  0.51100000000E-03 0. -1.
        -11    1    3    3    0    0 -0.23047101768E+02 -0.28567151190E+02 -0.10341858714E+02  0.38134040816E+02  0.51100000000E-03 0.  1.
         12    1    3    3    0    0  0.30416807060E+02  0.30076495755E+02  0.87215274954E+01  0.43655959392E+02  0.00000000000E+00 0. -1.
</event>
<event>
 7    1  0.1654239E-015  0.9000766E+02  0.7816164E-02  0.1186339E+00
        -11   -1    0    0    0    0  0.00000000000E+00  0.00000000000E+00  0.45593999997E+02  0.45594000000E+02  0.51100000000E-03 0.  1.
         11   -1    0    0    0    0 -0.00000000000E+00 -0.00000000000E+00 -0.45593999997E+02  0.45594000000E+02  0.51100000000E-03 0. -1.
    9900012    2    1    2    0    0 -0.73464146193E+00  0.13125641434E+00  0.91447657160E+00  0.90007663724E+02  0.89999924085E+02 0.  0.
        -12    1    1    2    0    0  0.73464146193E+00 -0.13125641434E+00 -0.91447657160E+00  0.11803362758E+01  0.00000000000E+00 0.  1.
         11    1    3    3    0    0  0.92707124483E+00 -0.82508790246E+01  0.33240466272E+01  0.89434753878E+01  0.51100000000E-03 0. -1.
        -11    1    3    3    0    0  0.33209210382E+02 -0.17409671443E+02  0.14184883264E+01  0.37522798714E+02  0.51100000000E-03 0.  1.
         12    1    3    3    0    0 -0.34870923089E+02  0.25791806882E+02 -0.38280583819E+01  0.43541389622E+02  0.00000000000E+00 0. -1.
</event>
<event>
 7    1  0.1654239E-015  0.9000755E+02  0.7816164E-02  0.1186339E+00
        -11   -1    0    0    0    0  0.00000000000E+00  0.00000000000E+00  0.45593999997E+02  0.45594000000E+02  0.51100000000E-03 0.  1.
         11   -1    0    0    0    0 -0.00000000000E+00 -0.00000000000E+00 -0.45593999997E+02  0.45594000000E+02  0.51100000000E-03 0. -1.
    9900012    2    1    2    0    0 -0.90061656080E+00 -0.37884154607E+00 -0.66244501653E+00  0.90007549024E+02  0.89999807871E+02 0.  0.
        -12    1    1    2    0    0  0.90061656080E+00  0.37884154607E+00  0.66244501653E+00  0.11804509759E+01  0.00000000000E+00 0.  1.
         11    1    3    3    0    0 -0.28445636810E+02  0.56341832571E+01 -0.23916192472E+02  0.37588329800E+02  0.51100000000E-03 0. -1.
        -11    1    3    3    0    0 -0.67601048913E+01  0.67000906753E+01  0.93489871740E+00  0.95636953669E+01  0.51100000000E-03 0.  1.
        -12    1    3    3    0    0  0.34305125141E+02 -0.12713115479E+02  0.22318848738E+02  0.42855523857E+02  0.00000000000E+00 0.  1.
</event>
<event>
 7    1  0.1654239E-015  0.9000761E+02  0.7816164E-02  0.1186339E+00
        -11   -1    0    0    0    0  0.00000000000E+00  0.00000000000E+00  0.45593999997E+02  0.45594000000E+02  0.51100000000E-03 0. -1.
         11   -1    0    0    0    0 -0.00000000000E+00 -0.00000000000E+00 -0.45593999997E+02  0.45594000000E+02  0.51100000000E-03 0.  1.
    9900012    2    1    2    0    0  0.10112161368E+01  0.52496705946E+00  0.30849220939E+00  0.90007611957E+02  0.89999871635E+02 0.  0.
        -12    1    1    2    0    0 -0.10112161368E+01 -0.52496705946E+00 -0.30849220939E+00  0.11803880431E+01  0.00000000000E+00 0.  1.
         11    1    3    3    0    0 -0.87529313793E+01  0.12318002128E+02  0.37395041576E+02  0.40332816897E+02  0.51100000000E-03 0. -1.
        -11    1    3    3    0    0  0.37016347835E+01  0.80053640051E+01 -0.21736539074E+01  0.90836514956E+01  0.51100000000E-03 0.  1.
        -12    1    3    3    0    0  0.60625127327E+01 -0.19798399073E+02 -0.34912895459E+02  0.40591143564E+02  0.00000000000E+00 0.  1.
</event>
<event>
 7    1  0.1654239E-015  0.9000775E+02  0.7816164E-02  0.1186339E+00
        -11   -1    0    0    0    0  0.00000000000E+00  0.00000000000E+00  0.45593999997E+02  0.45594000000E+02  0.51100000000E-03 0.  1.
         11   -1    0    0    0    0 -0.00000000000E+00 -0.00000000000E+00 -0.45593999997E+02  0.45594000000E+02  0.51100000000E-03 0. -1.
    9900012    2    1    2    0    0 -0.12228999197E+00  0.22120929340E+00 -0.11528647698E+01  0.90007751903E+02  0.90000013428E+02 0.  0.
        -12    1    1    2    0    0  0.12228999197E+00 -0.22120929340E+00  0.11528647698E+01  0.11802480972E+01  0.00000000000E+00 0.  1.
         11    1    3    3    0    0  0.34393815382E+01  0.73997929783E+01  0.23058239685E+01  0.84795699137E+01  0.51100000000E-03 0. -1.
        -11    1    3    3    0    0  0.17931906326E+02  0.14990641271E+02  0.28654777038E+02  0.36977950695E+02  0.51100000000E-03 0.  1.
         12    1    3    3    0    0 -0.21493577856E+02 -0.22169224956E+02 -0.32113465777E+02  0.44550231294E+02  0.00000000000E+00 0. -1.
</event>
<event>
 7    1  0.1654239E-015  0.9000771E+02  0.7816164E-02  0.1186339E+00
        -11   -1    0    0    0    0  0.00000000000E+00  0.00000000000E+00  0.45593999997E+02  0.45594000000E+02  0.51100000000E-03 0.  1.
         11   -1    0    0    0    0 -0.00000000000E+00 -0.00000000000E+00 -0.45593999997E+02  0.45594000000E+02  0.51100000000E-03 0. -1.
    9900012    2    1    2    0    0  0.66138175572E+00 -0.97646005074E+00  0.46723488321E-01  0.90007710569E+02  0.89999971548E+02 0.  0.
        -12    1    1    2    0    0 -0.66138175572E+00  0.97646005074E+00 -0.46723488321E-01  0.11802894314E+01  0.00000000000E+00 0.  1.
         11    1    3    3    0    0  0.16139053626E+01  0.63485157465E+01 -0.44836013408E+01  0.79379483462E+01  0.51100000000E-03 0. -1.
        -11    1    3    3    0    0  0.40042875765E+02 -0.71881512645E+01 -0.10474812706E+01  0.40696420425E+02  0.51100000000E-03 0.  1.
         12    1    3    3    0    0 -0.40995399372E+02 -0.13682453271E+00  0.55778060997E+01  0.41373341797E+02  0.00000000000E+00 0. -1.
</event>
<event>
 7    1  0.1654239E-015  0.9000776E+02  0.7816164E-02  0.1186339E+00
        -11   -1    0    0    0    0  0.00000000000E+00  0.00000000000E+00  0.45593999997E+02  0.45594000000E+02  0.51100000000E-03 0.  1.
         11   -1    0    0    0    0 -0.00000000000E+00 -0.00000000000E+00 -0.45593999997E+02  0.45594000000E+02  0.51100000000E-03 0. -1.
    9900012    2    1    2    0    0 -0.97057683952E+00 -0.50661631535E+00  0.44079274062E+00  0.90007755223E+02  0.90000016792E+02 0.  0.
        -12    1    1    2    0    0  0.97057683952E+00  0.50661631535E+00 -0.44079274062E+00  0.11802447765E+01  0.00000000000E+00 0.  1.
         11    1    3    3    0    0  0.64859198686E+01 -0.24951103472E+01  0.70557366137E+01  0.99033404268E+01  0.51100000000E-03 0. -1.
        -11    1    3    3    0    0  0.33684841903E+02 -0.12730628473E+02 -0.75530015682E+00  0.36018161446E+02  0.51100000000E-03 0.  1.
         12    1    3    3    0    0 -0.41141338611E+02  0.14719122504E+02 -0.58596437162E+01  0.44086253351E+02  0.00000000000E+00 0. -1.
</event>
<event>
 7    1  0.1654239E-015  0.9000786E+02  0.7816164E-02  0.1186339E+00
        -11   -1    0    0    0    0  0.00000000000E+00  0.00000000000E+00  0.45593999997E+02  0.45594000000E+02  0.51100000000E-03 0.  1.
         11   -1    0    0    0    0 -0.00000000000E+00 -0.00000000000E+00 -0.45593999997E+02  0.45594000000E+02  0.51100000000E-03 0. -1.
    9900012    2    1    2    0    0  0.49427590224E+00  0.78504872015E+00  0.72946041231E+00  0.90007863290E+02  0.90000126286E+02 0.  0.
        -12    1    1    2    0    0 -0.49427590224E+00 -0.78504872015E+00 -0.72946041231E+00  0.11801367097E+01  0.00000000000E+00 0.  1.
         11    1    3    3    0    0  0.81686023319E+00  0.41171012806E+02 -0.52776241708E+01  0.41515935173E+02  0.51100000000E-03 0. -1.
        -11    1    3    3    0    0 -0.59323965100E+01  0.48953666291E+00  0.40250757246E+01  0.71856947713E+01  0.51100000000E-03 0.  1.
        -12    1    3    3    0    0  0.56098121791E+01 -0.40875500749E+02  0.19820088585E+01  0.41306233346E+02  0.00000000000E+00 0.  1.
</event>
<event>
 7    1  0.1654239E-015  0.9000777E+02  0.7816164E-02  0.1186339E+00
        -11   -1    0    0    0    0  0.00000000000E+00  0.00000000000E+00  0.45593999997E+02  0.45594000000E+02  0.51100000000E-03 0. -1.
         11   -1    0    0    0    0 -0.00000000000E+00 -0.00000000000E+00 -0.45593999997E+02  0.45594000000E+02  0.51100000000E-03 0.  1.
    9900012    2    1    2    0    0  0.99925763991E+00 -0.10912326510E+00  0.61849080814E+00  0.90007765024E+02  0.90000026723E+02 0.  0.
        -12    1    1    2    0    0 -0.99925763991E+00  0.10912326510E+00 -0.61849080814E+00  0.11802349756E+01  0.00000000000E+00 0.  1.
         11    1    3    3    0    0 -0.13879837766E+02 -0.39386323801E+02  0.89141448846E+01  0.42701222211E+02  0.51100000000E-03 0. -1.
        -11    1    3    3    0    0 -0.44605303114E+01  0.55773953380E+01  0.13597980630E+01  0.72699876512E+01  0.51100000000E-03 0.  1.
        -12    1    3    3    0    0  0.19339625717E+02  0.33699805198E+02 -0.96554521394E+01  0.40036555163E+02  0.00000000000E+00 0.  1.
</event>
<event>
 7    1  0.1654239E-015  0.9000779E+02  0.7816164E-02  0.1186339E+00
        -11   -1    0    0    0    0  0.00000000000E+00  0.00000000000E+00  0.45593999997E+02  0.45594000000E+02  0.51100000000E-03 0. -1.
         11   -1    0    0    0    0 -0.00000000000E+00 -0.00000000000E+00 -0.45593999997E+02  0.45594000000E+02  0.51100000000E-03 0.  1.
    9900012    2    1    2    0    0 -0.52977235818E-01 -0.99561184740E+00  0.63154717124E+00  0.90007787575E+02  0.90000049571E+02 0.  0.
        -12    1    1    2    0    0  0.52977235818E-01  0.99561184740E+00 -0.63154717124E+00  0.11802124248E+01  0.00000000000E+00 0.  1.
         11    1    3    3    0    0  0.51853430216E+01  0.36318830936E+01 -0.53282124345E+01  0.82745516535E+01  0.51100000000E-03 0. -1.
        -11    1    3    3    0    0 -0.23211546951E+01  0.17402964085E+02 -0.32714990405E+02  0.37128446177E+02  0.51100000000E-03 0.  1.
         12    1    3    3    0    0 -0.29171655623E+01 -0.22030459026E+02  0.38674750010E+02  0.44604789745E+02  0.00000000000E+00 0. -1.
</event>
<event>
 7    1  0.1654239E-015  0.9000772E+02  0.7816164E-02  0.1186339E+00
        -11   -1    0    0    0    0  0.00000000000E+00  0.00000000000E+00  0.45593999997E+02  0.45594000000E+02  0.51100000000E-03 0. -1.
         11   -1    0    0    0    0 -0.00000000000E+00 -0.00000000000E+00 -0.45593999997E+02  0.45594000000E+02  0.51100000000E-03 0.  1.
    9900012    2    1    2    0    0  0.28448041194E+00 -0.29550741433E+00  0.11067057269E+01  0.90007724057E+02  0.89999985214E+02 0.  0.
        -12    1    1    2    0    0 -0.28448041194E+00  0.29550741433E+00 -0.11067057269E+01  0.11802759435E+01  0.00000000000E+00 0.  1.
         11    1    3    3    0    0 -0.94527716297E+01 -0.38480661225E+02 -0.65568252578E+01  0.40163517495E+02  0.51100000000E-03 0. -1.
        -11    1    3    3    0    0  0.72114942573E+01  0.12637956184E+02  0.17136235457E+02  0.22480528282E+02  0.51100000000E-03 0.  1.
        -12    1    3    3    0    0  0.25257577843E+01  0.25547197627E+02 -0.94727044724E+01  0.27363678280E+02  0.00000000000E+00 0.  1.
</event>
<event>
 7    1  0.1654239E-015  0.9000769E+02  0.7816164E-02  0.1186339E+00
        -11   -1    0    0    0    0  0.00000000000E+00  0.00000000000E+00  0.45593999997E+02  0.45594000000E+02  0.51100000000E-03 0.  1.
         11   -1    0    0    0    0 -0.00000000000E+00 -0.00000000000E+00 -0.45593999997E+02  0.45594000000E+02  0.51100000000E-03 0. -1.
    9900012    2    1    2    0    0  0.44355564561E+00  0.69940067279E+00 -0.84096516091E+00  0.90007692704E+02  0.89999953447E+02 0.  0.
        -12    1    1    2    0    0 -0.44355564561E+00 -0.69940067279E+00  0.84096516091E+00  0.11803072963E+01  0.00000000000E+00 0.  1.
         11    1    3    3    0    0  0.30111392422E+02 -0.23849236002E+02  0.10429334865E+02  0.39802676260E+02  0.51100000000E-03 0. -1.
        -11    1    3    3    0    0 -0.71012052350E+01 -0.70989828174E+01 -0.27880165566E+01  0.10420926514E+02  0.51100000000E-03 0.  1.
        -12    1    3    3    0    0 -0.22566631541E+02  0.31647619493E+02 -0.84822834690E+01  0.39784089929E+02  0.00000000000E+00 0.  1.
</event>
<event>
 7    1  0.1654239E-015  0.9000782E+02  0.7816164E-02  0.1186339E+00
        -11   -1    0    0    0    0  0.00000000000E+00  0.00000000000E+00  0.45593999997E+02  0.45594000000E+02  0.51100000000E-03 0.  1.
         11   -1    0    0    0    0 -0.00000000000E+00 -0.00000000000E+00 -0.45593999997E+02  0.45594000000E+02  0.51100000000E-03 0. -1.
    9900012    2    1    2    0    0  0.59366088749E+00 -0.10199789439E+01 -0.54742322783E-02  0.90007821936E+02  0.90000084386E+02 0.  0.
        -12    1    1    2    0    0 -0.59366088749E+00  0.10199789439E+01  0.54742322783E-02  0.11801780639E+01  0.00000000000E+00 0.  1.
         11    1    3    3    0    0 -0.68070082461E+01 -0.68194943807E+01  0.49866851655E+01  0.10849326895E+02  0.51100000000E-03 0. -1.
        -11    1    3    3    0    0 -0.36120381077E+01  0.38858142362E-01  0.36073204194E+02  0.36253612100E+02  0.51100000000E-03 0.  1.
         12    1    3    3    0    0  0.11012707241E+02  0.57606572945E+01 -0.41065363592E+02  0.42904882941E+02  0.00000000000E+00 0. -1.
</event>
<event>
 7    1  0.1654239E-015  0.9000775E+02  0.7816164E-02  0.1186339E+00
        -11   -1    0    0    0    0  0.00000000000E+00  0.00000000000E+00  0.45593999997E+02  0.45594000000E+02  0.51100000000E-03 0. -1.
         11   -1    0    0    0    0 -0.00000000000E+00 -0.00000000000E+00 -0.45593999997E+02  0.45594000000E+02  0.51100000000E-03 0.  1.
    9900012    2    1    2    0    0  0.10578137549E+01 -0.20116818972E+00  0.48327890728E+00  0.90007747026E+02  0.90000008487E+02 0.  0.
        -12    1    1    2    0    0 -0.10578137549E+01  0.20116818972E+00 -0.48327890728E+00  0.11802529741E+01  0.00000000000E+00 0.  1.
         11    1    3    3    0    0 -0.19098235954E+02 -0.25361160165E+02  0.13254273205E+02  0.34403587312E+02  0.51100000000E-03 0. -1.
        -11    1    3    3    0    0 -0.65149216450E+01 -0.30060493450E+01  0.86930621087E+01  0.11271639889E+02  0.51100000000E-03 0.  1.
        -12    1    3    3    0    0  0.26670971354E+02  0.28166041320E+02 -0.21464056406E+02  0.44332519825E+02  0.00000000000E+00 0.  1.
</event>
<event>
 7    1  0.2291688E-015  0.9000781E+02  0.7816164E-02  0.1186339E+00
        -11   -1    0    0    0    0  0.00000000000E+00  0.00000000000E+00  0.45593999997E+02  0.45594000000E+02  0.51100000000E-03 0.  1.
         11   -1    0    0    0    0 -0.00000000000E+00 -0.00000000000E+00 -0.45593999997E+02  0.45594000000E+02  0.51100000000E-03 0. -1.
    9900012    2    1    2    0    0 -0.16216085081E+00  0.11159683198E+01  0.34808867362E+00  0.90007810542E+02  0.90000072841E+02 0.  0.
        -12    1    1    2    0    0  0.16216085081E+00 -0.11159683198E+01 -0.34808867362E+00  0.11801894581E+01  0.00000000000E+00 0.  1.
         11    1    3    3    0    0  0.60161823830E+01 -0.63270525133E+01 -0.23115958672E+01  0.90315845612E+01  0.51100000000E-03 0. -1.
        -11    1    3    3    0    0 -0.51476210073E+01 -0.25328606562E+02  0.29052538340E+02  0.38885553830E+02  0.51100000000E-03 0.  1.
         12    1    3    3    0    0 -0.10307222265E+01  0.32771627396E+02 -0.26392853799E+02  0.42090672151E+02  0.00000000000E+00 0. -1.
</event>
<event>
 7    1  0.1654239E-015  0.9000753E+02  0.7816164E-02  0.1186339E+00
        -11   -1    0    0    0    0  0.00000000000E+00  0.00000000000E+00  0.45593999997E+02  0.45594000000E+02  0.51100000000E-03 0.  1.
         11   -1    0    0    0    0 -0.00000000000E+00 -0.00000000000E+00 -0.45593999997E+02  0.45594000000E+02  0.51100000000E-03 0. -1.
    9900012    2    1    2    0    0 -0.62101500033E+00 -0.10036894478E+01  0.21146362273E-01  0.90007534284E+02  0.89999792936E+02 0.  0.
        -12    1    1    2    0    0  0.62101500033E+00  0.10036894478E+01 -0.21146362273E-01  0.11804657161E+01  0.00000000000E+00 0.  1.
         11    1    3    3    0    0 -0.69714955332E+01 -0.34026098547E+02 -0.92620842179E+01  0.35946673512E+02  0.51100000000E-03 0. -1.
        -11    1    3    3    0    0  0.35801235516E+01 -0.96001105190E+01  0.40969370132E+01  0.11034686211E+02  0.51100000000E-03 0.  1.
        -12    1    3    3    0    0  0.27703569812E+01  0.42622519618E+02  0.51862935670E+01  0.43026174561E+02  0.00000000000E+00 0.  1.
</event>
<event>
 7    1  0.1654239E-015  0.9000842E+02  0.7816164E-02  0.1186338E+00
        -11   -1    0    0    0    0  0.00000000000E+00  0.00000000000E+00  0.45593999997E+02  0.45594000000E+02  0.51100000000E-03 0. -1.
         11   -1    0    0    0    0 -0.00000000000E+00 -0.00000000000E+00 -0.45593999997E+02  0.45594000000E+02  0.51100000000E-03 0.  1.
    9900012    2    1    2    0    0  0.85636690109E+00 -0.77701683958E+00  0.23299733124E+00  0.90008420755E+02  0.90000691107E+02 0.  0.
        -12    1    1    2    0    0 -0.85636690109E+00  0.77701683958E+00 -0.23299733124E+00  0.11795792447E+01  0.00000000000E+00 0.  1.
         11    1    3    3    0    0  0.10442083243E+01  0.53541004825E+01  0.22361294534E+02  0.23017042740E+02  0.51100000000E-03 0. -1.
        -11    1    3    3    0    0  0.81457386196E+01  0.27312776531E+02 -0.13063294355E+02  0.31352678979E+02  0.51100000000E-03 0.  1.
         12    1    3    3    0    0 -0.83335800428E+01 -0.33443893853E+02 -0.90650028477E+01  0.35638699037E+02  0.00000000000E+00 0. -1.
</event>
<event>
 7    1  0.1654239E-015  0.9000866E+02  0.7816164E-02  0.1186337E+00
        -11   -1    0    0    0    0  0.00000000000E+00  0.00000000000E+00  0.45593999997E+02  0.45594000000E+02  0.51100000000E-03 0.  1.
         11   -1    0    0    0    0 -0.00000000000E+00 -0.00000000000E+00 -0.45593999997E+02  0.45594000000E+02  0.51100000000E-03 0. -1.
    9900012    2    1    2    0    0  0.10965792351E+01 -0.39397812326E+00 -0.18203272553E+00  0.90008660908E+02  0.90000934427E+02 0.  0.
        -12    1    1    2    0    0 -0.10965792351E+01  0.39397812326E+00  0.18203272553E+00  0.11793390919E+01  0.00000000000E+00 0.  1.
         11    1    3    3    0    0 -0.42706672957E+01 -0.17907153373E+01 -0.80795041297E+01  0.93125532381E+01  0.51100000000E-03 0. -1.
        -11    1    3    3    0    0  0.30840902737E+02  0.28801588117E+02  0.94683946466E+01  0.43247465326E+02  0.51100000000E-03 0.  1.
         12    1    3    3    0    0 -0.25473656206E+02 -0.27404850903E+02 -0.15709232424E+01  0.37448642344E+02  0.00000000000E+00 0. -1.
</event>
<event>
 7    1  0.1654239E-015  0.9000776E+02  0.7816164E-02  0.1186339E+00
        -11   -1    0    0    0    0  0.00000000000E+00  0.00000000000E+00  0.45593999997E+02  0.45594000000E+02  0.51100000000E-03 0.  1.
         11   -1    0    0    0    0 -0.00000000000E+00 -0.00000000000E+00 -0.45593999997E+02  0.45594000000E+02  0.51100000000E-03 0. -1.
    9900012    2    1    2    0    0 -0.17121264588E+00  0.11402507026E+01 -0.25195577815E+00  0.90007759707E+02  0.90000021335E+02 0.  0.
        -12    1    1    2    0    0  0.17121264588E+00 -0.11402507026E+01  0.25195577815E+00  0.11802402930E+01  0.00000000000E+00 0.  1.
         11    1    3    3    0    0 -0.45436374814E+01 -0.29416849079E+02  0.21475458114E+02  0.36704099945E+02  0.51100000000E-03 0. -1.
        -11    1    3    3    0    0 -0.65113976172E+01 -0.46097209764E+01  0.34632564307E+01  0.86972393192E+01  0.51100000000E-03 0.  1.
        -12    1    3    3    0    0  0.10883822453E+02  0.35166820758E+02 -0.25190670323E+02  0.44606420443E+02  0.00000000000E+00 0.  1.
</event>
<event>
 7    1  0.1654239E-015  0.9000775E+02  0.7816164E-02  0.1186339E+00
        -11   -1    0    0    0    0  0.00000000000E+00  0.00000000000E+00  0.45593999997E+02  0.45594000000E+02  0.51100000000E-03 0.  1.
         11   -1    0    0    0    0 -0.00000000000E+00 -0.00000000000E+00 -0.45593999997E+02  0.45594000000E+02  0.51100000000E-03 0. -1.
    9900012    2    1    2    0    0 -0.25252699223E+00  0.59483882500E+00 -0.98761404770E+00  0.90007752307E+02  0.90000013837E+02 0.  0.
        -12    1    1    2    0    0  0.25252699223E+00 -0.59483882500E+00  0.98761404770E+00  0.11802476930E+01  0.00000000000E+00 0.  1.
         11    1    3    3    0    0  0.36122580856E+01 -0.94170831555E+01 -0.34989949177E+02  0.36414645505E+02  0.51100000000E-03 0. -1.
        -11    1    3    3    0    0  0.10072284333E+02 -0.33443164705E+01 -0.36974310164E+01  0.11238610267E+02  0.51100000000E-03 0.  1.
        -12    1    3    3    0    0 -0.13937069411E+02  0.13356238451E+02  0.37699766145E+02  0.42354496535E+02  0.00000000000E+00 0.  1.
</event>
<event>
 7    1  0.1654239E-015  0.9000773E+02  0.7816164E-02  0.1186339E+00
        -11   -1    0    0    0    0  0.00000000000E+00  0.00000000000E+00  0.45593999997E+02  0.45594000000E+02  0.51100000000E-03 0.  1.
         11   -1    0    0    0    0 -0.00000000000E+00 -0.00000000000E+00 -0.45593999997E+02  0.45594000000E+02  0.51100000000E-03 0. -1.
    9900012    2    1    2    0    0  0.15884386506E-01 -0.67982324642E+00 -0.96469439756E+00  0.90007725777E+02  0.89999986958E+02 0.  0.
        -12    1    1    2    0    0 -0.15884386506E-01  0.67982324642E+00  0.96469439756E+00  0.11802742227E+01  0.00000000000E+00 0.  1.
         11    1    3    3    0    0 -0.33249374794E+01 -0.56143518443E+01 -0.11488874856E+02  0.13212509285E+02  0.51100000000E-03 0. -1.
        -11    1    3    3    0    0  0.22787013650E+02 -0.69833889829E+01 -0.25025254622E+02  0.34558343160E+02  0.51100000000E-03 0.  1.
         12    1    3    3    0    0 -0.19446191784E+02  0.11917917581E+02  0.35549435081E+02  0.42236873333E+02  0.00000000000E+00 0. -1.
</event>
<event>
 7    1  0.1654239E-015  0.9000774E+02  0.7816164E-02  0.1186339E+00
        -11   -1    0    0    0    0  0.00000000000E+00  0.00000000000E+00  0.45593999997E+02  0.45594000000E+02  0.51100000000E-03 0.  1.
         11   -1    0    0    0    0 -0.00000000000E+00 -0.00000000000E+00 -0.45593999997E+02  0.45594000000E+02  0.51100000000E-03 0. -1.
    9900012    2    1    2    0    0 -0.60086108347E+00  0.69453977366E+00 -0.74133864082E+00  0.90007744723E+02  0.90000006153E+02 0.  0.
        -12    1    1    2    0    0  0.60086108347E+00 -0.69453977366E+00  0.74133864082E+00  0.11802552771E+01  0.00000000000E+00 0.  1.
         11    1    3    3    0    0 -0.32195353247E+02  0.13179824628E+02 -0.15328696563E+02  0.38016016184E+02  0.51100000000E-03 0. -1.
        -11    1    3    3    0    0 -0.16615105103E+01  0.93798932611E+01 -0.21442703452E+00  0.95283258750E+01  0.51100000000E-03 0.  1.
        -12    1    3    3    0    0  0.33256002674E+02 -0.21865178116E+02  0.14801784956E+02  0.42463402664E+02  0.00000000000E+00 0.  1.
</event>
<event>
 7    1  0.1654239E-015  0.9000760E+02  0.7816164E-02  0.1186339E+00
        -11   -1    0    0    0    0  0.00000000000E+00  0.00000000000E+00  0.45593999997E+02  0.45594000000E+02  0.51100000000E-03 0. -1.
         11   -1    0    0    0    0 -0.00000000000E+00 -0.00000000000E+00 -0.45593999997E+02  0.45594000000E+02  0.51100000000E-03 0.  1.
    9900012    2    1    2    0    0  0.94170860368E-01  0.79440177402E+00  0.86799175559E+00  0.90007596672E+02  0.89999856148E+02 0.  0.
        -12    1    1    2    0    0 -0.94170860368E-01 -0.79440177402E+00 -0.86799175559E+00  0.11804033282E+01  0.00000000000E+00 0.  1.
         11    1    3    3    0    0  0.35827982852E+02  0.64117681765E+01 -0.22081489824E+02  0.42571672735E+02  0.51100000000E-03 0. -1.
        -11    1    3    3    0    0  0.73195764913E-01  0.12546603880E+01  0.78872419163E+01  0.79867462472E+01  0.51100000000E-03 0.  1.
        -12    1    3    3    0    0 -0.35807007756E+02 -0.68720267906E+01  0.15062239663E+02  0.39449177689E+02  0.00000000000E+00 0.  1.
</event>
<event>
 7    1  0.1654239E-015  0.9000775E+02  0.7816164E-02  0.1186339E+00
        -11   -1    0    0    0    0  0.00000000000E+00  0.00000000000E+00  0.45593999997E+02  0.45594000000E+02  0.51100000000E-03 0. -1.
         11   -1    0    0    0    0 -0.00000000000E+00 -0.00000000000E+00 -0.45593999997E+02  0.45594000000E+02  0.51100000000E-03 0.  1.
    9900012    2    1    2    0    0 -0.23835253760E+00  0.87722483698E+00  0.75276994067E+00  0.90007746667E+02  0.90000008123E+02 0.  0.
        -12    1    1    2    0    0  0.23835253760E+00 -0.87722483698E+00 -0.75276994067E+00  0.11802533331E+01  0.00000000000E+00 0.  1.
         11    1    3    3    0    0  0.88875856294E+01 -0.11405650875E+01  0.39475371178E+01  0.97914818386E+01  0.51100000000E-03 0. -1.
        -11    1    3    3    0    0  0.27707213783E+02 -0.22082703841E+02 -0.67040252938E+01  0.36059387959E+02  0.51100000000E-03 0.  1.
         12    1    3    3    0    0 -0.36833151950E+02  0.24100493766E+02  0.35092581168E+01  0.44156876869E+02  0.00000000000E+00 0. -1.
</event>
<event>
 7    1  0.1654239E-015  0.9000778E+02  0.7816164E-02  0.1186339E+00
        -11   -1    0    0    0    0  0.00000000000E+00  0.00000000000E+00  0.45593999997E+02  0.45594000000E+02  0.51100000000E-03 0. -1.
         11   -1    0    0    0    0 -0.00000000000E+00 -0.00000000000E+00 -0.45593999997E+02  0.45594000000E+02  0.51100000000E-03 0.  1.
    9900012    2    1    2    0    0 -0.19760525033E+00  0.10128855924E+01  0.57266393057E+00  0.90007775854E+02  0.90000037695E+02 0.  0.
        -12    1    1    2    0    0  0.19760525033E+00 -0.10128855924E+01 -0.57266393057E+00  0.11802241464E+01  0.00000000000E+00 0.  1.
         11    1    3    3    0    0 -0.11636683705E+02 -0.33295385868E+01  0.36785196403E+02  0.38725300639E+02  0.51100000000E-03 0. -1.
        -11    1    3    3    0    0 -0.70937881981E+01 -0.67080749170E+01 -0.77653282445E+00  0.97940340810E+01  0.51100000000E-03 0.  1.
        -12    1    3    3    0    0  0.18532866653E+02  0.11050499096E+02 -0.35435999648E+02  0.41488441134E+02  0.00000000000E+00 0.  1.
</event>
<event>
 7    1  0.1654239E-015  0.9000776E+02  0.7816164E-02  0.1186339E+00
        -11   -1    0    0    0    0  0.00000000000E+00  0.00000000000E+00  0.45593999997E+02  0.45594000000E+02  0.51100000000E-03 0. -1.
         11   -1    0    0    0    0 -0.00000000000E+00 -0.00000000000E+00 -0.45593999997E+02  0.45594000000E+02  0.51100000000E-03 0.  1.
    9900012    2    1    2    0    0  0.44143330818E+00  0.94380413190E+00  0.55436981730E+00  0.90007764642E+02  0.90000026336E+02 0.  0.
        -12    1    1    2    0    0 -0.44143330818E+00 -0.94380413190E+00 -0.55436981730E+00  0.11802353576E+01  0.00000000000E+00 0.  1.
         11    1    3    3    0    0  0.19033761939E+02  0.15782806555E+02  0.31019376279E+02  0.39668410371E+02  0.51100000000E-03 0. -1.
        -11    1    3    3    0    0 -0.72122214576E+01  0.26452228457E+01  0.50196969051E+01  0.91766387930E+01  0.51100000000E-03 0.  1.
        -12    1    3    3    0    0 -0.11380107173E+02 -0.17484225269E+02 -0.35484703367E+02  0.41162715479E+02  0.00000000000E+00 0.  1.
</event>
<event>
 7    1  0.1654239E-015  0.9000776E+02  0.7816164E-02  0.1186339E+00
        -11   -1    0    0    0    0  0.00000000000E+00  0.00000000000E+00  0.45593999997E+02  0.45594000000E+02  0.51100000000E-03 0.  1.
         11   -1    0    0    0    0 -0.00000000000E+00 -0.00000000000E+00 -0.45593999997E+02  0.45594000000E+02  0.51100000000E-03 0. -1.
    9900012    2    1    2    0    0 -0.30889311748E+00 -0.58614419681E+00 -0.97672263565E+00  0.90007759734E+02  0.90000021363E+02 0.  0.
        -12    1    1    2    0    0  0.30889311748E+00  0.58614419681E+00  0.97672263565E+00  0.11802402656E+01  0.00000000000E+00 0.  1.
         11    1    3    3    0    0  0.25091983663E+00 -0.26439787686E+01 -0.11898037969E+02  0.12190852811E+02  0.51100000000E-03 0. -1.
        -11    1    3    3    0    0  0.32218677359E+02 -0.14702998769E+02  0.18906535548E+02  0.40145714968E+02  0.51100000000E-03 0.  1.
         12    1    3    3    0    0 -0.32778490313E+02  0.16760833341E+02 -0.79852202148E+01  0.37671191956E+02  0.00000000000E+00 0. -1.
</event>
<event>
 7    1  0.1654239E-015  0.9000760E+02  0.7816164E-02  0.1186339E+00
        -11   -1    0    0    0    0  0.00000000000E+00  0.00000000000E+00  0.45593999997E+02  0.45594000000E+02  0.51100000000E-03 0.  1.
         11   -1    0    0    0    0 -0.00000000000E+00 -0.00000000000E+00 -0.45593999997E+02  0.45594000000E+02  0.51100000000E-03 0. -1.
    9900012    2    1    2    0    0 -0.81390778769E+00 -0.70682465643E+00 -0.48094299199E+00  0.90007596195E+02  0.89999855664E+02 0.  0.
        -12    1    1    2    0    0  0.81390778769E+00  0.70682465643E+00  0.48094299199E+00  0.11804038052E+01  0.00000000000E+00 0.  1.
         11    1    3    3    0    0  0.34711271310E+02 -0.73998900645E+01  0.12985213456E+02  0.37792148624E+02  0.51100000000E-03 0. -1.
        -11    1    3    3    0    0  0.34841731511E+01  0.98185089114E+01  0.10598585892E+01  0.10472147835E+02  0.51100000000E-03 0.  1.
        -12    1    3    3    0    0 -0.39009352248E+02 -0.31254435033E+01 -0.14526015037E+02  0.41743299735E+02  0.00000000000E+00 0.  1.
</event>
<event>
 7    1  0.1654239E-015  0.9000749E+02  0.7816164E-02  0.1186340E+00
        -11   -1    0    0    0    0  0.00000000000E+00  0.00000000000E+00  0.45593999997E+02  0.45594000000E+02  0.51100000000E-03 0. -1.
         11   -1    0    0    0    0 -0.00000000000E+00 -0.00000000000E+00 -0.45593999997E+02  0.45594000000E+02  0.51100000000E-03 0.  1.
    9900012    2    1    2    0    0  0.91079098786E+00  0.22148608565E+00  0.71764126504E+00  0.90007489392E+02  0.89999747452E+02 0.  0.
        -12    1    1    2    0    0 -0.91079098786E+00 -0.22148608565E+00 -0.71764126504E+00  0.11805106077E+01  0.00000000000E+00 0.  1.
         11    1    3    3    0    0  0.24272275549E+02 -0.19946348632E+02  0.89242023285E+01  0.32659479046E+02  0.51100000000E-03 0. -1.
        -11    1    3    3    0    0  0.29315271539E+01 -0.10337578037E+02  0.85464729024E+01  0.13729587410E+02  0.51100000000E-03 0.  1.
        -12    1    3    3    0    0 -0.26293011715E+02  0.30505412755E+02 -0.16753033966E+02  0.43618422936E+02  0.00000000000E+00 0.  1.
</event>
<event>
 7    1  0.1654239E-015  0.9000771E+02  0.7816164E-02  0.1186339E+00
        -11   -1    0    0    0    0  0.00000000000E+00  0.00000000000E+00  0.45593999997E+02  0.45594000000E+02  0.51100000000E-03 0.  1.
         11   -1    0    0    0    0 -0.00000000000E+00 -0.00000000000E+00 -0.45593999997E+02  0.45594000000E+02  0.51100000000E-03 0. -1.
    9900012    2    1    2    0    0 -0.11050342289E+01  0.59803002683E-01 -0.41037093982E+00  0.90007711326E+02  0.89999972315E+02 0.  0.
        -12    1    1    2    0    0  0.11050342289E+01 -0.59803002683E-01  0.41037093982E+00  0.11802886742E+01  0.00000000000E+00 0.  1.
         11    1    3    3    0    0  0.14567826969E+02 -0.23553807902E+02 -0.32713396183E+02  0.42862218087E+02  0.51100000000E-03 0. -1.
        -11    1    3    3    0    0 -0.95714460232E+01  0.17217331101E+01  0.32373271255E+01  0.10249742975E+02  0.51100000000E-03 0.  1.
        -12    1    3    3    0    0 -0.61014151749E+01  0.21891877794E+02  0.29065698117E+02  0.36895750264E+02  0.00000000000E+00 0.  1.
</event>
<event>
 7    1  0.1654239E-015  0.9000780E+02  0.7816164E-02  0.1186339E+00
        -11   -1    0    0    0    0  0.00000000000E+00  0.00000000000E+00  0.45593999997E+02  0.45594000000E+02  0.51100000000E-03 0.  1.
         11   -1    0    0    0    0 -0.00000000000E+00 -0.00000000000E+00 -0.45593999997E+02  0.45594000000E+02  0.51100000000E-03 0. -1.
    9900012    2    1    2    0    0  0.35811353316E+00 -0.41314924928E+00 -0.10459150697E+01  0.90007798349E+02  0.90000060487E+02 0.  0.
        -12    1    1    2    0    0 -0.35811353316E+00  0.41314924928E+00  0.10459150697E+01  0.11802016514E+01  0.00000000000E+00 0.  1.
         11    1    3    3    0    0  0.29537074105E+02 -0.13349285717E+01 -0.23549402665E+02  0.37799406703E+02  0.51100000000E-03 0. -1.
        -11    1    3    3    0    0  0.62396006140E+01  0.88009223664E+01  0.42994044265E+01  0.11613514929E+02  0.51100000000E-03 0.  1.
        -12    1    3    3    0    0 -0.35418561186E+02 -0.78791430440E+01  0.18204083169E+02  0.40594876716E+02  0.00000000000E+00 0.  1.
</event>
<event>
 7    1  0.1654239E-015  0.9000777E+02  0.7816164E-02  0.1186339E+00
        -11   -1    0    0    0    0  0.00000000000E+00  0.00000000000E+00  0.45593999997E+02  0.45594000000E+02  0.51100000000E-03 0.  1.
         11   -1    0    0    0    0 -0.00000000000E+00 -0.00000000000E+00 -0.45593999997E+02  0.45594000000E+02  0.51100000000E-03 0. -1.
    9900012    2    1    2    0    0 -0.59795326105E+00 -0.30684036635E+00 -0.97017384544E+00  0.90007772732E+02  0.90000034532E+02 0.  0.
        -12    1    1    2    0    0  0.59795326105E+00  0.30684036635E+00  0.97017384544E+00  0.11802272676E+01  0.00000000000E+00 0.  1.
         11    1    3    3    0    0  0.78311330982E+01 -0.39270609569E+01  0.22501437408E+00  0.87635087203E+01  0.51100000000E-03 0. -1.
        -11    1    3    3    0    0 -0.10740887039E+01 -0.37826156563E+02  0.66618976190E+01  0.38423334929E+02  0.51100000000E-03 0.  1.
         12    1    3    3    0    0 -0.73549976554E+01  0.41446377154E+02 -0.78570858385E+01  0.42820929083E+02  0.00000000000E+00 0. -1.
</event>
<event>
 7    1  0.1654239E-015  0.9000771E+02  0.7816164E-02  0.1186339E+00
        -11   -1    0    0    0    0  0.00000000000E+00  0.00000000000E+00  0.45593999997E+02  0.45594000000E+02  0.51100000000E-03 0. -1.
         11   -1    0    0    0    0 -0.00000000000E+00 -0.00000000000E+00 -0.45593999997E+02  0.45594000000E+02  0.51100000000E-03 0.  1.
    9900012    2    1    2    0    0  0.61222361439E-01 -0.11568239177E+01  0.22606566762E+00  0.90007705359E+02  0.89999966270E+02 0.  0.
        -12    1    1    2    0    0 -0.61222361439E-01  0.11568239177E+01 -0.22606566762E+00  0.11802946412E+01  0.00000000000E+00 0.  1.
         11    1    3    3    0    0  0.29067217398E+02  0.25191621955E+02 -0.19009813264E+01  0.38511487563E+02  0.51100000000E-03 0. -1.
        -11    1    3    3    0    0 -0.18339433495E+01  0.29656811473E+01 -0.92935609051E+01  0.99261718419E+01  0.51100000000E-03 0.  1.
        -12    1    3    3    0    0 -0.27172051687E+02 -0.29314127020E+02  0.11420607899E+02  0.41570045954E+02  0.00000000000E+00 0.  1.
</event>
<event>
 7    1  0.1654239E-015  0.9000763E+02  0.7816164E-02  0.1186339E+00
        -11   -1    0    0    0    0  0.00000000000E+00  0.00000000000E+00  0.45593999997E+02  0.45594000000E+02  0.51100000000E-03 0.  1.
         11   -1    0    0    0    0 -0.00000000000E+00 -0.00000000000E+00 -0.45593999997E+02  0.45594000000E+02  0.51100000000E-03 0. -1.
    9900012    2    1    2    0    0 -0.86273151742E+00  0.38763569062E+00 -0.70618838163E+00  0.90007631782E+02  0.89999891721E+02 0.  0.
        -12    1    1    2    0    0  0.86273151742E+00 -0.38763569062E+00  0.70618838163E+00  0.11803682180E+01  0.00000000000E+00 0.  1.
         11    1    3    3    0    0  0.34721258099E+02 -0.97834685663E+01 -0.89305752410E+01  0.37162308803E+02  0.51100000000E-03 0. -1.
        -11    1    3    3    0    0  0.16905712195E+01 -0.97566908357E+01  0.22924153518E+01  0.10163966525E+02  0.51100000000E-03 0.  1.
        -12    1    3    3    0    0 -0.37274560836E+02  0.19927795093E+02  0.59319715075E+01  0.42681356454E+02  0.00000000000E+00 0.  1.
</event>
<event>
 7    1  0.1654239E-015  0.9000777E+02  0.7816164E-02  0.1186339E+00
        -11   -1    0    0    0    0  0.00000000000E+00  0.00000000000E+00  0.45593999997E+02  0.45594000000E+02  0.51100000000E-03 0. -1.
         11   -1    0    0    0    0 -0.00000000000E+00 -0.00000000000E+00 -0.45593999997E+02  0.45594000000E+02  0.51100000000E-03 0.  1.
    9900012    2    1    2    0    0 -0.62535184094E+00 -0.79098399399E+00  0.61337265522E+00  0.90007768405E+02  0.90000030148E+02 0.  0.
        -12    1    1    2    0    0  0.62535184094E+00  0.79098399399E+00 -0.61337265522E+00  0.11802315950E+01  0.00000000000E+00 0.  1.
         11    1    3    3    0    0  0.54957565467E+01  0.45964455750E+01  0.51971223177E+01  0.88510300299E+01  0.51100000000E-03 0. -1.
        -11    1    3    3    0    0  0.77771009644E+01 -0.25682877831E+02 -0.33675443381E+02  0.43059598236E+02  0.51100000000E-03 0.  1.
         12    1    3    3    0    0 -0.13898209352E+02  0.20295448262E+02  0.29091693719E+02  0.38097140139E+02  0.00000000000E+00 0. -1.
</event>
<event>
 7    1  0.1654239E-015  0.9000757E+02  0.7816164E-02  0.1186339E+00
        -11   -1    0    0    0    0  0.00000000000E+00  0.00000000000E+00  0.45593999997E+02  0.45594000000E+02  0.51100000000E-03 0. -1.
         11   -1    0    0    0    0 -0.00000000000E+00 -0.00000000000E+00 -0.45593999997E+02  0.45594000000E+02  0.51100000000E-03 0.  1.
    9900012    2    1    2    0    0 -0.92126439033E+00  0.21843408766E+00  0.70496080213E+00  0.90007571578E+02  0.89999830722E+02 0.  0.
        -12    1    1    2    0    0  0.92126439033E+00 -0.21843408766E+00 -0.70496080213E+00  0.11804284223E+01  0.00000000000E+00 0.  1.
         11    1    3    3    0    0 -0.71769447040E+01  0.70635935045E+00 -0.71998981791E+01  0.10190486390E+02  0.51100000000E-03 0. -1.
        -11    1    3    3    0    0 -0.30145619623E+02  0.81207384689E+01 -0.16343767829E+02  0.35239516496E+02  0.51100000000E-03 0.  1.
         12    1    3    3    0    0  0.36401299937E+02 -0.86086637317E+01  0.24248626810E+02  0.44577568692E+02  0.00000000000E+00 0. -1.
</event>
<event>
 7    1  0.1654239E-015  0.9000772E+02  0.7816164E-02  0.1186339E+00
        -11   -1    0    0    0    0  0.00000000000E+00  0.00000000000E+00  0.45593999997E+02  0.45594000000E+02  0.51100000000E-03 0.  1.
         11   -1    0    0    0    0 -0.00000000000E+00 -0.00000000000E+00 -0.45593999997E+02  0.45594000000E+02  0.51100000000E-03 0. -1.
    9900012    2    1    2    0    0  0.17522088489E+00 -0.44834631470E+00 -0.10776513109E+01  0.90007724979E+02  0.89999986149E+02 0.  0.
        -12    1    1    2    0    0 -0.17522088489E+00  0.44834631470E+00  0.10776513109E+01  0.11802750206E+01  0.00000000000E+00 0.  1.
         11    1    3    3    0    0 -0.11854214330E+02  0.70548605306E+01 -0.29744553591E+02  0.32787679440E+02  0.51100000000E-03 0. -1.
        -11    1    3    3    0    0 -0.72421692943E+01 -0.33319281261E+01 -0.10610254776E+02  0.13271332555E+02  0.51100000000E-03 0.  1.
        -12    1    3    3    0    0  0.19271604510E+02 -0.41712787192E+01  0.39277157056E+02  0.43948712984E+02  0.00000000000E+00 0.  1.
</event>
<event>
 7    1  0.1654239E-015  0.9000765E+02  0.7816164E-02  0.1186339E+00
        -11   -1    0    0    0    0  0.00000000000E+00  0.00000000000E+00  0.45593999997E+02  0.45594000000E+02  0.51100000000E-03 0. -1.
         11   -1    0    0    0    0 -0.00000000000E+00 -0.00000000000E+00 -0.45593999997E+02  0.45594000000E+02  0.51100000000E-03 0.  1.
    9900012    2    1    2    0    0 -0.97022654298E-02  0.10549863083E+01  0.52928376316E+00  0.90007647702E+02  0.89999907852E+02 0.  0.
        -12    1    1    2    0    0  0.97022654298E-02 -0.10549863083E+01 -0.52928376316E+00  0.11803522976E+01  0.00000000000E+00 0.  1.
         11    1    3    3    0    0 -0.62115858281E+01  0.30364110454E+02  0.20785636632E+02  0.37317632462E+02  0.51100000000E-03 0. -1.
        -11    1    3    3    0    0  0.19298402478E+02 -0.61372336155E+01 -0.18632364191E+01  0.20336312961E+02  0.51100000000E-03 0.  1.
        -12    1    3    3    0    0 -0.13096518915E+02 -0.23171890530E+02 -0.18393116450E+02  0.32353702279E+02  0.00000000000E+00 0.  1.
</event>
<event>
 7    1  0.2284933E-015  0.9000772E+02  0.7816164E-02  0.1186339E+00
        -11   -1    0    0    0    0  0.00000000000E+00  0.00000000000E+00  0.45593999997E+02  0.45594000000E+02  0.51100000000E-03 0.  1.
         11   -1    0    0    0    0 -0.00000000000E+00 -0.00000000000E+00 -0.45593999997E+02  0.45594000000E+02  0.51100000000E-03 0. -1.
    9900012    2    1    2    0    0 -0.17526691882E+00  0.58083795601E+00 -0.10124078414E+01  0.90007720007E+02  0.89999981111E+02 0.  0.
        -12    1    1    2    0    0  0.17526691882E+00 -0.58083795601E+00  0.10124078414E+01  0.11802799927E+01  0.00000000000E+00 0.  1.
         11    1    3    3    0    0  0.83926386589E+01  0.20357181896E+01  0.42815311455E+01  0.96390892421E+01  0.51100000000E-03 0. -1.
        -11    1    3    3    0    0  0.49069413965E+01  0.14111386601E+02  0.33371633236E+02  0.36563304155E+02  0.51100000000E-03 0.  1.
         12    1    3    3    0    0 -0.13474846974E+02 -0.15566266834E+02 -0.38665572222E+02  0.43805326610E+02  0.00000000000E+00 0. -1.
</event>
<event>
 7    1  0.1654239E-015  0.9000776E+02  0.7816164E-02  0.1186339E+00
        -11   -1    0    0    0    0  0.00000000000E+00  0.00000000000E+00  0.45593999997E+02  0.45594000000E+02  0.51100000000E-03 0.  1.
         11   -1    0    0    0    0 -0.00000000000E+00 -0.00000000000E+00 -0.45593999997E+02  0.45594000000E+02  0.51100000000E-03 0. -1.
    9900012    2    1    2    0    0  0.17688563800E+00  0.30197162250E+00 -0.11271563286E+01  0.90007764100E+02  0.90000025786E+02 0.  0.
        -12    1    1    2    0    0 -0.17688563800E+00 -0.30197162250E+00  0.11271563286E+01  0.11802358997E+01  0.00000000000E+00 0.  1.
         11    1    3    3    0    0  0.25381392588E+01  0.13951033991E+02 -0.37503042299E+02  0.40094284908E+02  0.51100000000E-03 0. -1.
        -11    1    3    3    0    0  0.66595617280E+01 -0.46409209374E+01 -0.29006166494E+01  0.86198310171E+01  0.51100000000E-03 0.  1.
        -12    1    3    3    0    0 -0.90208153488E+01 -0.90081414311E+01  0.39276502620E+02  0.41293648176E+02  0.00000000000E+00 0.  1.
</event>
<event>
 7    1  0.1654239E-015  0.9000772E+02  0.7816164E-02  0.1186339E+00
        -11   -1    0    0    0    0  0.00000000000E+00  0.00000000000E+00  0.45593999997E+02  0.45594000000E+02  0.51100000000E-03 0. -1.
         11   -1    0    0    0    0 -0.00000000000E+00 -0.00000000000E+00 -0.45593999997E+02  0.45594000000E+02  0.51100000000E-03 0.  1.
    9900012    2    1    2    0    0 -0.11631993899E+01 -0.19753429800E+00  0.31853592875E-01  0.90007717292E+02  0.89999978360E+02 0.  0.
        -12    1    1    2    0    0  0.11631993899E+01  0.19753429800E+00 -0.31853592875E-01  0.11802827081E+01  0.00000000000E+00 0.  1.
         11    1    3    3    0    0 -0.16008302321E+02  0.30638819040E+02  0.15592307586E+02  0.37922592626E+02  0.51100000000E-03 0. -1.
        -11    1    3    3    0    0 -0.82075203472E+01  0.31084935552E+00 -0.99959651818E+01  0.12937516676E+02  0.51100000000E-03 0.  1.
        -12    1    3    3    0    0  0.23052623278E+02 -0.31147202693E+02 -0.55644888114E+01  0.39147607990E+02  0.00000000000E+00 0.  1.
</event>
<event>
 7    1  0.1654239E-015  0.9000773E+02  0.7816164E-02  0.1186339E+00
        -11   -1    0    0    0    0  0.00000000000E+00  0.00000000000E+00  0.45593999997E+02  0.45594000000E+02  0.51100000000E-03 0.  1.
         11   -1    0    0    0    0 -0.00000000000E+00 -0.00000000000E+00 -0.45593999997E+02  0.45594000000E+02  0.51100000000E-03 0. -1.
    9900012    2    1    2    0    0  0.44534800049E-01 -0.83949978426E+00 -0.82843426753E+00  0.90007726061E+02  0.89999987245E+02 0.  0.
        -12    1    1    2    0    0 -0.44534800049E-01  0.83949978426E+00  0.82843426753E+00  0.11802739393E+01  0.00000000000E+00 0.  1.
         11    1    3    3    0    0  0.35425179714E+02 -0.67030345220E+01 -0.23178341081E+02  0.42861515665E+02  0.51100000000E-03 0. -1.
        -11    1    3    3    0    0 -0.75680681960E+01  0.98222871666E+00 -0.39191003186E+01  0.85790312413E+01  0.51100000000E-03 0.  1.
        -12    1    3    3    0    0 -0.27812576718E+02  0.48813060211E+01  0.26269007132E+02  0.38567179154E+02  0.00000000000E+00 0.  1.
</event>
<event>
 7    1  0.1654239E-015  0.9000769E+02  0.7816164E-02  0.1186339E+00
        -11   -1    0    0    0    0  0.00000000000E+00  0.00000000000E+00  0.45593999997E+02  0.45594000000E+02  0.51100000000E-03 0.  1.
         11   -1    0    0    0    0 -0.00000000000E+00 -0.00000000000E+00 -0.45593999997E+02  0.45594000000E+02  0.51100000000E-03 0. -1.
    9900012    2    1    2    0    0  0.45585677373E+00  0.19171482535E+00 -0.10717152166E+01  0.90007689245E+02  0.89999949943E+02 0.  0.
        -12    1    1    2    0    0 -0.45585677373E+00 -0.19171482535E+00  0.10717152166E+01  0.11803107548E+01  0.00000000000E+00 0.  1.
         11    1    3    3    0    0 -0.72716670395E+01 -0.33720441187E+02  0.14912465990E+02  0.37580938487E+02  0.51100000000E-03 0. -1.
        -11    1    3    3    0    0  0.49137764772E+01 -0.71984750870E+01 -0.31519944678E+01  0.92681342369E+01  0.51100000000E-03 0.  1.
        -12    1    3    3    0    0  0.28137473360E+01  0.41110631100E+02 -0.12832186739E+02  0.43158616521E+02  0.00000000000E+00 0.  1.
</event>
<event>
 7    1  0.1654239E-015  0.9000779E+02  0.7816164E-02  0.1186339E+00
        -11   -1    0    0    0    0  0.00000000000E+00  0.00000000000E+00  0.45593999997E+02  0.45594000000E+02  0.51100000000E-03 0.  1.
         11   -1    0    0    0    0 -0.00000000000E+00 -0.00000000000E+00 -0.45593999997E+02  0.45594000000E+02  0.51100000000E-03 0. -1.
    9900012    2    1    2    0    0  0.48149493427E+00 -0.99298495237E+00 -0.41838803482E+00  0.90007786022E+02  0.90000047997E+02 0.  0.
        -12    1    1    2    0    0 -0.48149493427E+00  0.99298495237E+00  0.41838803482E+00  0.11802139785E+01  0.00000000000E+00 0.  1.
         11    1    3    3    0    0 -0.18896729912E+02  0.23359023231E+02 -0.22874498901E+02  0.37762058576E+02  0.51100000000E-03 0. -1.
        -11    1    3    3    0    0 -0.37661759485E+01 -0.49699579614E+01 -0.74750576848E+01  0.97345288055E+01  0.51100000000E-03 0.  1.
        -12    1    3    3    0    0  0.23144400794E+02 -0.19382050222E+02  0.29931168551E+02  0.42511198640E+02  0.00000000000E+00 0.  1.
</event>
<event>
 7    1  0.2383236E-015  0.9000774E+02  0.7816164E-02  0.1186339E+00
        -11   -1    0    0    0    0  0.00000000000E+00  0.00000000000E+00  0.45593999997E+02  0.45594000000E+02  0.51100000000E-03 0. -1.
         11   -1    0    0    0    0 -0.00000000000E+00 -0.00000000000E+00 -0.45593999997E+02  0.45594000000E+02  0.51100000000E-03 0.  1.
    9900012    2    1    2    0    0 -0.10716130499E+01  0.32685144085E+00  0.37125827903E+00  0.90007737697E+02  0.89999999035E+02 0.  0.
        -12    1    1    2    0    0  0.10716130499E+01 -0.32685144085E+00 -0.37125827903E+00  0.11802623025E+01  0.00000000000E+00 0.  1.
         11    1    3    3    0    0  0.68730977504E+01  0.52553537038E+01  0.45267380075E+01  0.97647105686E+01  0.51100000000E-03 0. -1.
        -11    1    3    3    0    0 -0.59226572927E+01  0.35042960623E+02 -0.15306654286E+02  0.38696002691E+02  0.51100000000E-03 0.  1.
         12    1    3    3    0    0 -0.20220535075E+01 -0.39971462885E+02  0.11151174558E+02  0.41547024437E+02  0.00000000000E+00 0. -1.
</event>
<event>
 7    1  0.3234069E-015  0.9000783E+02  0.7816164E-02  0.1186339E+00
        -11   -1    0    0    0    0  0.00000000000E+00  0.00000000000E+00  0.45593999997E+02  0.45594000000E+02  0.51100000000E-03 0. -1.
         11   -1    0    0    0    0 -0.00000000000E+00 -0.00000000000E+00 -0.45593999997E+02  0.45594000000E+02  0.51100000000E-03 0.  1.
    9900012    2    1    2    0    0  0.42017884157E+00 -0.46113265454E+00  0.10018066620E+01  0.90007826211E+02  0.90000088717E+02 0.  0.
        -12    1    1    2    0    0 -0.42017884157E+00  0.46113265454E+00 -0.10018066620E+01  0.11801737889E+01  0.00000000000E+00 0.  1.
         11    1    3    3    0    0  0.64926187794E+01  0.46340005825E+01  0.53144204858E+01  0.95849426380E+01  0.51100000000E-03 0. -1.
        -11    1    3    3    0    0  0.12569786050E+02  0.14481482549E+02 -0.34764962212E+02  0.39702839396E+02  0.51100000000E-03 0.  1.
         12    1    3    3    0    0 -0.18642225988E+02 -0.19576615787E+02  0.30452348389E+02  0.40720044178E+02  0.00000000000E+00 0. -1.
</event>
<event>
 7    1  0.1654239E-015  0.9000776E+02  0.7816164E-02  0.1186339E+00
        -11   -1    0    0    0    0  0.00000000000E+00  0.00000000000E+00  0.45593999997E+02  0.45594000000E+02  0.51100000000E-03 0. -1.
         11   -1    0    0    0    0 -0.00000000000E+00 -0.00000000000E+00 -0.45593999997E+02  0.45594000000E+02  0.51100000000E-03 0.  1.
    9900012    2    1    2    0    0 -0.70446165346E+00 -0.61944841610E+00  0.71623619425E+00  0.90007755598E+02  0.90000017172E+02 0.  0.
        -12    1    1    2    0    0  0.70446165346E+00  0.61944841610E+00 -0.71623619425E+00  0.11802444015E+01  0.00000000000E+00 0.  1.
         11    1    3    3    0    0  0.14502368279E+02 -0.21498074711E+02  0.24969576634E+02  0.35999523046E+02  0.51100000000E-03 0. -1.
        -11    1    3    3    0    0  0.74286821088E+01  0.51390002147E+00  0.71103053384E+01  0.10295914402E+02  0.51100000000E-03 0.  1.
        -12    1    3    3    0    0 -0.22635512041E+02  0.20364726274E+02 -0.31363645779E+02  0.43712318150E+02  0.00000000000E+00 0.  1.
</event>
<event>
 7    1  0.1654239E-015  0.9000769E+02  0.7816164E-02  0.1186339E+00
        -11   -1    0    0    0    0  0.00000000000E+00  0.00000000000E+00  0.45593999997E+02  0.45594000000E+02  0.51100000000E-03 0. -1.
         11   -1    0    0    0    0 -0.00000000000E+00 -0.00000000000E+00 -0.45593999997E+02  0.45594000000E+02  0.51100000000E-03 0.  1.
    9900012    2    1    2    0    0 -0.79882713871E+00  0.85622139134E+00  0.14794263387E+00  0.90007692035E+02  0.89999952770E+02 0.  0.
        -12    1    1    2    0    0  0.79882713871E+00 -0.85622139134E+00 -0.14794263387E+00  0.11803079647E+01  0.00000000000E+00 0.  1.
         11    1    3    3    0    0  0.34626332506E+00 -0.89837158877E+01  0.72457602663E+01  0.11546778405E+02  0.51100000000E-03 0. -1.
        -11    1    3    3    0    0 -0.15654951623E+02 -0.29339427634E+02 -0.14060042602E+02  0.36104907180E+02  0.51100000000E-03 0.  1.
         12    1    3    3    0    0  0.14509861159E+02  0.39179364913E+02  0.69622249699E+01  0.42356006450E+02  0.00000000000E+00 0. -1.
</event>
<event>
 7    1  0.1654239E-015  0.9000772E+02  0.7816164E-02  0.1186339E+00
        -11   -1    0    0    0    0  0.00000000000E+00  0.00000000000E+00  0.45593999997E+02  0.45594000000E+02  0.51100000000E-03 0.  1.
         11   -1    0    0    0    0 -0.00000000000E+00 -0.00000000000E+00 -0.45593999997E+02  0.45594000000E+02  0.51100000000E-03 0. -1.
    9900012    2    1    2    0    0 -0.10435045129E+01  0.32745678298E+00 -0.44376650769E+00  0.90007721081E+02  0.89999982199E+02 0.  0.
        -12    1    1    2    0    0  0.10435045129E+01 -0.32745678298E+00  0.44376650769E+00  0.11802789190E+01  0.00000000000E+00 0.  1.
         11    1    3    3    0    0 -0.73487913749E+01 -0.10593216475E+02 -0.39783271960E+01  0.13492518575E+02  0.51100000000E-03 0. -1.
        -11    1    3    3    0    0  0.18775953342E+02  0.13262211344E+02 -0.31647453298E+02  0.39115009576E+02  0.51100000000E-03 0.  1.
         12    1    3    3    0    0 -0.12470666480E+02 -0.23415380868E+01  0.35182013986E+02  0.37400192930E+02  0.00000000000E+00 0. -1.
</event>
<event>
 7    1  0.1654239E-015  0.9000763E+02  0.7816164E-02  0.1186339E+00
        -11   -1    0    0    0    0  0.00000000000E+00  0.00000000000E+00  0.45593999997E+02  0.45594000000E+02  0.51100000000E-03 0.  1.
         11   -1    0    0    0    0 -0.00000000000E+00 -0.00000000000E+00 -0.45593999997E+02  0.45594000000E+02  0.51100000000E-03 0. -1.
    9900012    2    1    2    0    0 -0.82954140402E+00 -0.83561212875E+00 -0.83046703031E-01  0.90007625769E+02  0.89999885629E+02 0.  0.
        -12    1    1    2    0    0  0.82954140402E+00  0.83561212875E+00  0.83046703031E-01  0.11803742312E+01  0.00000000000E+00 0.  1.
         11    1    3    3    0    0  0.94161713371E+01 -0.24270450563E+01  0.62054288574E+01  0.11535258034E+02  0.51100000000E-03 0. -1.
        -11    1    3    3    0    0  0.18090133135E+02 -0.12284711932E+02 -0.31319624938E+02  0.38197983855E+02  0.51100000000E-03 0.  1.
         12    1    3    3    0    0 -0.28335845876E+02  0.13876144860E+02  0.25031149377E+02  0.40274383879E+02  0.00000000000E+00 0. -1.
</event>
<event>
 7    1  0.1654239E-015  0.9000782E+02  0.7816164E-02  0.1186339E+00
        -11   -1    0    0    0    0  0.00000000000E+00  0.00000000000E+00  0.45593999997E+02  0.45594000000E+02  0.51100000000E-03 0. -1.
         11   -1    0    0    0    0 -0.00000000000E+00 -0.00000000000E+00 -0.45593999997E+02  0.45594000000E+02  0.51100000000E-03 0.  1.
    9900012    2    1    2    0    0 -0.10065621956E+01 -0.37890599452E+00 -0.48589071010E+00  0.90007819087E+02  0.90000081498E+02 0.  0.
        -12    1    1    2    0    0  0.10065621956E+01  0.37890599452E+00  0.48589071010E+00  0.11801809135E+01  0.00000000000E+00 0.  1.
         11    1    3    3    0    0 -0.75647659480E+01 -0.19381413512E+02 -0.29264421754E+01  0.21010210318E+02  0.51100000000E-03 0. -1.
        -11    1    3    3    0    0  0.20407543867E+02 -0.16806036851E+02 -0.10552554041E+02  0.28465191346E+02  0.51100000000E-03 0.  1.
        -12    1    3    3    0    0 -0.13849340115E+02  0.35808544368E+02  0.12993105506E+02  0.40532417422E+02  0.00000000000E+00 0.  1.
</event>
<event>
 7    1  0.1654239E-015  0.9000776E+02  0.7816164E-02  0.1186339E+00
        -11   -1    0    0    0    0  0.00000000000E+00  0.00000000000E+00  0.45593999997E+02  0.45594000000E+02  0.51100000000E-03 0.  1.
         11   -1    0    0    0    0 -0.00000000000E+00 -0.00000000000E+00 -0.45593999997E+02  0.45594000000E+02  0.51100000000E-03 0. -1.
    9900012    2    1    2    0    0 -0.10866347896E+01  0.37332663502E+00  0.26983673296E+00  0.90007762818E+02  0.90000024488E+02 0.  0.
        -12    1    1    2    0    0  0.10866347896E+01 -0.37332663502E+00 -0.26983673296E+00  0.11802371816E+01  0.00000000000E+00 0.  1.
         11    1    3    3    0    0  0.13626259731E+00  0.10500846236E+01  0.98121094817E+01  0.98690798940E+01  0.51100000000E-03 0. -1.
        -11    1    3    3    0    0 -0.89224022521E+01 -0.54629160003E+01  0.34046219801E+02  0.35617380535E+02  0.51100000000E-03 0.  1.
         12    1    3    3    0    0  0.76995048652E+01  0.47861580118E+01 -0.43588492550E+02  0.44521302389E+02  0.00000000000E+00 0. -1.
</event>
<event>
 7    1  0.1654239E-015  0.9000771E+02  0.7816164E-02  0.1186339E+00
        -11   -1    0    0    0    0  0.00000000000E+00  0.00000000000E+00  0.45593999997E+02  0.45594000000E+02  0.51100000000E-03 0. -1.
         11   -1    0    0    0    0 -0.00000000000E+00 -0.00000000000E+00 -0.45593999997E+02  0.45594000000E+02  0.51100000000E-03 0.  1.
    9900012    2    1    2    0    0 -0.89178606646E+00 -0.46274556649E+00  0.61941056339E+00  0.90007709657E+02  0.89999970625E+02 0.  0.
        -12    1    1    2    0    0  0.89178606646E+00  0.46274556649E+00 -0.61941056339E+00  0.11802903430E+01  0.00000000000E+00 0.  1.
         11    1    3    3    0    0 -0.12377529148E+02 -0.22686397289E+01 -0.43110474768E+01  0.13301694804E+02  0.51100000000E-03 0. -1.
        -11    1    3    3    0    0 -0.14299043612E+02 -0.69141629137E+01 -0.29085849358E+02  0.33139929543E+02  0.51100000000E-03 0.  1.
         12    1    3    3    0    0  0.25784786694E+02  0.87200570761E+01  0.34016307398E+02  0.43566085310E+02  0.00000000000E+00 0. -1.
</event>
<event>
 7    1  0.1654239E-015  0.9000764E+02  0.7816164E-02  0.1186339E+00
        -11   -1    0    0    0    0  0.00000000000E+00  0.00000000000E+00  0.45593999997E+02  0.45594000000E+02  0.51100000000E-03 0. -1.
         11   -1    0    0    0    0 -0.00000000000E+00 -0.00000000000E+00 -0.45593999997E+02  0.45594000000E+02  0.51100000000E-03 0.  1.
    9900012    2    1    2    0    0 -0.54408225768E+00 -0.10417372521E+01 -0.10961584863E+00  0.90007636649E+02  0.89999896653E+02 0.  0.
        -12    1    1    2    0    0  0.54408225768E+00  0.10417372521E+01  0.10961584863E+00  0.11803633508E+01  0.00000000000E+00 0.  1.
         11    1    3    3    0    0  0.34337316343E+02 -0.70976181646E+01 -0.20551222777E+01  0.35123368362E+02  0.51100000000E-03 0. -1.
        -11    1    3    3    0    0  0.83732894946E+01 -0.40908545673E+01  0.45670952224E+01  0.10378122522E+02  0.51100000000E-03 0.  1.
        -12    1    3    3    0    0 -0.43254688095E+02  0.10146735480E+02 -0.26215887933E+01  0.44506145765E+02  0.00000000000E+00 0.  1.
</event>
<event>
 7    1  0.1826048E-015  0.9000777E+02  0.7816164E-02  0.1186339E+00
        -11   -1    0    0    0    0  0.00000000000E+00  0.00000000000E+00  0.45593999997E+02  0.45594000000E+02  0.51100000000E-03 0. -1.
         11   -1    0    0    0    0 -0.00000000000E+00 -0.00000000000E+00 -0.45593999997E+02  0.45594000000E+02  0.51100000000E-03 0.  1.
    9900012    2    1    2    0    0 -0.10783191067E+01 -0.48092462761E-01  0.47733896846E+00  0.90007772280E+02  0.90000034074E+02 0.  0.
        -12    1    1    2    0    0  0.10783191067E+01  0.48092462761E-01 -0.47733896846E+00  0.11802277203E+01  0.00000000000E+00 0.  1.
         11    1    3    3    0    0 -0.57521755858E+01  0.91670364608E+01 -0.66596848370E+00  0.10842766977E+02  0.51100000000E-03 0. -1.
        -11    1    3    3    0    0  0.93540535719E+01  0.14117445865E+01 -0.37572621494E+02  0.38745234897E+02  0.51100000000E-03 0.  1.
         12    1    3    3    0    0 -0.46801970928E+01 -0.10626873510E+02  0.38715928946E+02  0.40419770405E+02  0.00000000000E+00 0. -1.
</event>
<event>
 7    1  0.1654239E-015  0.9000772E+02  0.7816164E-02  0.1186339E+00
        -11   -1    0    0    0    0  0.00000000000E+00  0.00000000000E+00  0.45593999997E+02  0.45594000000E+02  0.51100000000E-03 0. -1.
         11   -1    0    0    0    0 -0.00000000000E+00 -0.00000000000E+00 -0.45593999997E+02  0.45594000000E+02  0.51100000000E-03 0.  1.
    9900012    2    1    2    0    0  0.84191455221E+00 -0.42497033413E+00  0.70966988585E+00  0.90007724081E+02  0.89999985239E+02 0.  0.
        -12    1    1    2    0    0 -0.84191455221E+00  0.42497033413E+00 -0.70966988585E+00  0.11802759190E+01  0.00000000000E+00 0.  1.
         11    1    3    3    0    0 -0.15477285098E+02  0.23179287088E+02  0.26797668563E+02  0.38664463588E+02  0.51100000000E-03 0. -1.
        -11    1    3    3    0    0 -0.44434659189E+01 -0.55638031310E+01  0.58344708563E+01  0.92055062374E+01  0.51100000000E-03 0.  1.
        -12    1    3    3    0    0  0.20762665569E+02 -0.18040454291E+02 -0.31922469534E+02  0.42137754255E+02  0.00000000000E+00 0.  1.
</event>
<event>
 7    1  0.1658931E-015  0.9000763E+02  0.7816164E-02  0.1186339E+00
        -11   -1    0    0    0    0  0.00000000000E+00  0.00000000000E+00  0.45593999997E+02  0.45594000000E+02  0.51100000000E-03 0. -1.
         11   -1    0    0    0    0 -0.00000000000E+00 -0.00000000000E+00 -0.45593999997E+02  0.45594000000E+02  0.51100000000E-03 0.  1.
    9900012    2    1    2    0    0  0.91991329411E-01 -0.49666886347E+00  0.10668301559E+01  0.90007631860E+02  0.89999891800E+02 0.  0.
        -12    1    1    2    0    0 -0.91991329411E-01  0.49666886347E+00 -0.10668301559E+01  0.11803681401E+01  0.00000000000E+00 0.  1.
         11    1    3    3    0    0 -0.61750852815E+01 -0.62527306696E+01 -0.38137539551E+01  0.95798245574E+01  0.51100000000E-03 0. -1.
        -11    1    3    3    0    0  0.26427786173E+02 -0.25629446735E+02 -0.13024391857E+02  0.39050367546E+02  0.51100000000E-03 0.  1.
         12    1    3    3    0    0 -0.20160709562E+02  0.31385508542E+02  0.17904975968E+02  0.41377439757E+02  0.00000000000E+00 0. -1.
</event>
<event>
 7    1  0.1654239E-015  0.9000775E+02  0.7816164E-02  0.1186339E+00
        -11   -1    0    0    0    0  0.00000000000E+00  0.00000000000E+00  0.45593999997E+02  0.45594000000E+02  0.51100000000E-03 0. -1.
         11   -1    0    0    0    0 -0.00000000000E+00 -0.00000000000E+00 -0.45593999997E+02  0.45594000000E+02  0.51100000000E-03 0.  1.
    9900012    2    1    2    0    0 -0.11557068794E+01  0.36477964880E-01  0.23666344180E+00  0.90007746376E+02  0.90000007828E+02 0.  0.
        -12    1    1    2    0    0  0.11557068794E+01 -0.36477964880E-01 -0.23666344180E+00  0.11802536243E+01  0.00000000000E+00 0.  1.
         11    1    3    3    0    0 -0.29632038205E+01  0.26517782222E+02  0.26090605545E+02  0.37318802886E+02  0.51100000000E-03 0. -1.
        -11    1    3    3    0    0  0.68936999449E+01  0.49096919134E+01  0.37360349872E+01  0.92512772795E+01  0.51100000000E-03 0.  1.
        -12    1    3    3    0    0 -0.50862030038E+01 -0.31390996171E+02 -0.29589977091E+02  0.43437666210E+02  0.00000000000E+00 0.  1.
</event>
<event>
 7    1  0.1654239E-015  0.9000777E+02  0.7816164E-02  0.1186339E+00
        -11   -1    0    0    0    0  0.00000000000E+00  0.00000000000E+00  0.45593999997E+02  0.45594000000E+02  0.51100000000E-03 0. -1.
         11   -1    0    0    0    0 -0.00000000000E+00 -0.00000000000E+00 -0.45593999997E+02  0.45594000000E+02  0.51100000000E-03 0.  1.
    9900012    2    1    2    0    0  0.11633639048E+01 -0.71445126873E-01  0.18556070325E+00  0.90007765805E+02  0.90000027513E+02 0.  0.
        -12    1    1    2    0    0 -0.11633639048E+01  0.71445126873E-01 -0.18556070325E+00  0.11802341953E+01  0.00000000000E+00 0.  1.
         11    1    3    3    0    0  0.35119870936E+02  0.71433464837E+00  0.10712412118E+02  0.36724261493E+02  0.51100000000E-03 0. -1.
        -11    1    3    3    0    0  0.31800900859E+01  0.29469422138E+01  0.98483554244E+01  0.10760462174E+02  0.51100000000E-03 0.  1.
        -12    1    3    3    0    0 -0.37136597117E+02 -0.37327219891E+01 -0.20375206839E+02  0.42523042138E+02  0.00000000000E+00 0.  1.
</event>
<event>
 7    1  0.1654239E-015  0.9000772E+02  0.7816164E-02  0.1186339E+00
        -11   -1    0    0    0    0  0.00000000000E+00  0.00000000000E+00  0.45593999997E+02  0.45594000000E+02  0.51100000000E-03 0. -1.
         11   -1    0    0    0    0 -0.00000000000E+00 -0.00000000000E+00 -0.45593999997E+02  0.45594000000E+02  0.51100000000E-03 0.  1.
    9900012    2    1    2    0    0  0.11049941302E+01  0.27947136479E+00 -0.30648540166E+00  0.90007724789E+02  0.89999985957E+02 0.  0.
        -12    1    1    2    0    0 -0.11049941302E+01 -0.27947136479E+00  0.30648540166E+00  0.11802752107E+01  0.00000000000E+00 0.  1.
         11    1    3    3    0    0 -0.56078449870E+00 -0.68603017044E+01  0.87593934459E+01  0.11140251008E+02  0.51100000000E-03 0. -1.
        -11    1    3    3    0    0 -0.37463149910E+02  0.57540350619E+01 -0.11583960741E+02  0.39633125885E+02  0.51100000000E-03 0.  1.
         12    1    3    3    0    0  0.39128928539E+02  0.13857380072E+01  0.25180818939E+01  0.39234347896E+02  0.00000000000E+00 0. -1.
</event>
<event>
 7    1  0.1654239E-015  0.9000775E+02  0.7816164E-02  0.1186339E+00
        -11   -1    0    0    0    0  0.00000000000E+00  0.00000000000E+00  0.45593999997E+02  0.45594000000E+02  0.51100000000E-03 0. -1.
         11   -1    0    0    0    0 -0.00000000000E+00 -0.00000000000E+00 -0.45593999997E+02  0.45594000000E+02  0.51100000000E-03 0.  1.
    9900012    2    1    2    0    0  0.49341649238E+00 -0.88598747002E+00  0.60377629977E+00  0.90007754495E+02  0.90000016054E+02 0.  0.
        -12    1    1    2    0    0 -0.49341649238E+00  0.88598747002E+00 -0.60377629977E+00  0.11802455050E+01  0.00000000000E+00 0.  1.
         11    1    3    3    0    0  0.94474368744E+01  0.11064728382E+02  0.31786155606E+02  0.34957716832E+02  0.51100000000E-03 0. -1.
        -11    1    3    3    0    0  0.68552124894E+01 -0.79592487617E+01  0.76092469269E+01  0.12970898896E+02  0.51100000000E-03 0.  1.
        -12    1    3    3    0    0 -0.15809232871E+02 -0.39914670900E+01 -0.38791626233E+02  0.42079138766E+02  0.00000000000E+00 0.  1.
</event>
<event>
 7    1  0.1654239E-015  0.9000781E+02  0.7816164E-02  0.1186339E+00
        -11   -1    0    0    0    0  0.00000000000E+00  0.00000000000E+00  0.45593999997E+02  0.45594000000E+02  0.51100000000E-03 0.  1.
         11   -1    0    0    0    0 -0.00000000000E+00 -0.00000000000E+00 -0.45593999997E+02  0.45594000000E+02  0.51100000000E-03 0. -1.
    9900012    2    1    2    0    0 -0.78084072662E+00 -0.39991411097E+00 -0.78943632328E+00  0.90007807963E+02  0.90000070228E+02 0.  0.
        -12    1    1    2    0    0  0.78084072662E+00  0.39991411097E+00  0.78943632328E+00  0.11801920373E+01  0.00000000000E+00 0.  1.
         11    1    3    3    0    0  0.23110653266E+02 -0.21200875740E+02 -0.28336966375E+02  0.42267754732E+02  0.51100000000E-03 0. -1.
        -11    1    3    3    0    0 -0.23446454433E+01  0.84481496453E+01 -0.21484559412E+01  0.90268742030E+01  0.51100000000E-03 0.  1.
        -12    1    3    3    0    0 -0.21546848549E+02  0.12352811984E+02  0.29695985993E+02  0.38713179027E+02  0.00000000000E+00 0.  1.
</event>
<event>
 7    1  0.1654239E-015  0.9000769E+02  0.7816164E-02  0.1186339E+00
        -11   -1    0    0    0    0  0.00000000000E+00  0.00000000000E+00  0.45593999997E+02  0.45594000000E+02  0.51100000000E-03 0.  1.
         11   -1    0    0    0    0 -0.00000000000E+00 -0.00000000000E+00 -0.45593999997E+02  0.45594000000E+02  0.51100000000E-03 0. -1.
    9900012    2    1    2    0    0 -0.85865887606E+00 -0.38153546054E+00 -0.71432824998E+00  0.90007691048E+02  0.89999951770E+02 0.  0.
        -12    1    1    2    0    0  0.85865887606E+00  0.38153546054E+00  0.71432824998E+00  0.11803089518E+01  0.00000000000E+00 0.  1.
         11    1    3    3    0    0  0.56290273477E+01  0.31345641984E+02 -0.17065523456E+02  0.36131251173E+02  0.51100000000E-03 0. -1.
        -11    1    3    3    0    0  0.20082906333E+01  0.91364275677E+01  0.10103380470E+01  0.94089491017E+01  0.51100000000E-03 0.  1.
        -12    1    3    3    0    0 -0.84959768570E+01 -0.40863605012E+02  0.15340857159E+02  0.44467490773E+02  0.00000000000E+00 0.  1.
</event>
<event>
 7    1  0.1654239E-015  0.9000770E+02  0.7816164E-02  0.1186339E+00
        -11   -1    0    0    0    0  0.00000000000E+00  0.00000000000E+00  0.45593999997E+02  0.45594000000E+02  0.51100000000E-03 0.  1.
         11   -1    0    0    0    0 -0.00000000000E+00 -0.00000000000E+00 -0.45593999997E+02  0.45594000000E+02  0.51100000000E-03 0. -1.
    9900012    2    1    2    0    0  0.27243969938E+00 -0.84377336736E+00 -0.77906036597E+00  0.90007698369E+02  0.89999959188E+02 0.  0.
        -12    1    1    2    0    0 -0.27243969938E+00  0.84377336736E+00  0.77906036597E+00  0.11803016306E+01  0.00000000000E+00 0.  1.
         11    1    3    3    0    0  0.18772412100E+02 -0.21047352148E+02 -0.20317615678E+02  0.34759171388E+02  0.51100000000E-03 0. -1.
        -11    1    3    3    0    0  0.10642642004E+02 -0.62310954554E+01  0.46753344813E+01  0.13189053498E+02  0.51100000000E-03 0.  1.
        -12    1    3    3    0    0 -0.29142614404E+02  0.26434674236E+02  0.14863220831E+02  0.42059473484E+02  0.00000000000E+00 0.  1.
</event>
<event>
 7    1  0.1654239E-015  0.9000779E+02  0.7816164E-02  0.1186339E+00
        -11   -1    0    0    0    0  0.00000000000E+00  0.00000000000E+00  0.45593999997E+02  0.45594000000E+02  0.51100000000E-03 0. -1.
         11   -1    0    0    0    0 -0.00000000000E+00 -0.00000000000E+00 -0.45593999997E+02  0.45594000000E+02  0.51100000000E-03 0.  1.
    9900012    2    1    2    0    0 -0.11079831160E+00 -0.92383799369E-01  0.11713613686E+01  0.90007788795E+02  0.90000050807E+02 0.  0.
        -12    1    1    2    0    0  0.11079831160E+00  0.92383799369E-01 -0.11713613686E+01  0.11802112049E+01  0.00000000000E+00 0.  1.
         11    1    3    3    0    0 -0.75361147974E+01 -0.14004190992E+01 -0.32779996162E+01  0.83366349109E+01  0.51100000000E-03 0. -1.
        -11    1    3    3    0    0 -0.81683170165E+01 -0.27518442594E+02 -0.24654923163E+02  0.37839811339E+02  0.51100000000E-03 0.  1.
         12    1    3    3    0    0  0.15593633502E+02  0.28826477894E+02  0.29104284148E+02  0.43831342546E+02  0.00000000000E+00 0. -1.
</event>
<event>
 7    1  0.1654239E-015  0.9000771E+02  0.7816164E-02  0.1186339E+00
        -11   -1    0    0    0    0  0.00000000000E+00  0.00000000000E+00  0.45593999997E+02  0.45594000000E+02  0.51100000000E-03 0.  1.
         11   -1    0    0    0    0 -0.00000000000E+00 -0.00000000000E+00 -0.45593999997E+02  0.45594000000E+02  0.51100000000E-03 0. -1.
    9900012    2    1    2    0    0  0.86713931197E+00  0.78169108275E-01 -0.79689677473E+00  0.90007709584E+02  0.89999970551E+02 0.  0.
        -12    1    1    2    0    0 -0.86713931197E+00 -0.78169108275E-01  0.79689677473E+00  0.11802904157E+01  0.00000000000E+00 0.  1.
         11    1    3    3    0    0  0.33116220057E+01  0.37765932824E+02 -0.19938973637E+02  0.42834509362E+02  0.51100000000E-03 0. -1.
        -11    1    3    3    0    0  0.90001265971E+00 -0.19373133385E+00  0.78064512066E+01  0.78605493014E+01  0.51100000000E-03 0.  1.
        -12    1    3    3    0    0 -0.33444953534E+01 -0.37494032381E+02  0.11335625656E+02  0.39312650921E+02  0.00000000000E+00 0.  1.
</event>
<event>
 7    1  0.1654239E-015  0.9000778E+02  0.7816164E-02  0.1186339E+00
        -11   -1    0    0    0    0  0.00000000000E+00  0.00000000000E+00  0.45593999997E+02  0.45594000000E+02  0.51100000000E-03 0. -1.
         11   -1    0    0    0    0 -0.00000000000E+00 -0.00000000000E+00 -0.45593999997E+02  0.45594000000E+02  0.51100000000E-03 0.  1.
    9900012    2    1    2    0    0  0.60226758321E+00 -0.99789704134E+00 -0.18546422746E+00  0.90007778950E+02  0.90000040832E+02 0.  0.
        -12    1    1    2    0    0 -0.60226758321E+00  0.99789704134E+00  0.18546422746E+00  0.11802210499E+01  0.00000000000E+00 0.  1.
         11    1    3    3    0    0 -0.35400022463E+02 -0.62582710986E+01  0.13953217303E+02  0.38561895971E+02  0.51100000000E-03 0. -1.
        -11    1    3    3    0    0  0.72885836851E+00  0.12429684390E+02 -0.83426003148E+01  0.14987570478E+02  0.51100000000E-03 0.  1.
        -12    1    3    3    0    0  0.35273431677E+02 -0.71693103332E+01 -0.57960812160E+01  0.36458312501E+02  0.00000000000E+00 0.  1.
</event>
<event>
 7    1  0.1654239E-015  0.9000781E+02  0.7816164E-02  0.1186339E+00
        -11   -1    0    0    0    0  0.00000000000E+00  0.00000000000E+00  0.45593999997E+02  0.45594000000E+02  0.51100000000E-03 0.  1.
         11   -1    0    0    0    0 -0.00000000000E+00 -0.00000000000E+00 -0.45593999997E+02  0.45594000000E+02  0.51100000000E-03 0. -1.
    9900012    2    1    2    0    0 -0.93403576804E+00 -0.31111607701E+00 -0.65086751852E+00  0.90007811644E+02  0.90000073958E+02 0.  0.
        -12    1    1    2    0    0  0.93403576804E+00  0.31111607701E+00  0.65086751852E+00  0.11801883562E+01  0.00000000000E+00 0.  1.
         11    1    3    3    0    0 -0.25177629326E+01  0.32248910206E+02  0.45610950863E+01  0.32667031214E+02  0.51100000000E-03 0. -1.
        -11    1    3    3    0    0  0.59052459166E+01  0.11168487813E+02  0.20636045100E+01  0.12800996571E+02  0.51100000000E-03 0.  1.
        -12    1    3    3    0    0 -0.43215187520E+01 -0.43728514096E+02 -0.72755671148E+01  0.44539783859E+02  0.00000000000E+00 0.  1.
</event>
<event>
 7    1  0.1654239E-015  0.9000779E+02  0.7816164E-02  0.1186339E+00
        -11   -1    0    0    0    0  0.00000000000E+00  0.00000000000E+00  0.45593999997E+02  0.45594000000E+02  0.51100000000E-03 0.  1.
         11   -1    0    0    0    0 -0.00000000000E+00 -0.00000000000E+00 -0.45593999997E+02  0.45594000000E+02  0.51100000000E-03 0. -1.
    9900012    2    1    2    0    0 -0.15514394411E+00 -0.69943999490E+00 -0.93787909371E+00  0.90007786823E+02  0.90000048809E+02 0.  0.
        -12    1    1    2    0    0  0.15514394411E+00  0.69943999490E+00  0.93787909371E+00  0.11802131775E+01  0.00000000000E+00 0.  1.
         11    1    3    3    0    0 -0.75576939832E+01  0.22857874690E+01 -0.45471600203E+01  0.91115436238E+01  0.51100000000E-03 0. -1.
        -11    1    3    3    0    0 -0.25102905981E+02 -0.28216166740E+02  0.10443824397E+02  0.39183943427E+02  0.51100000000E-03 0.  1.
         12    1    3    3    0    0  0.32505456020E+02  0.25230939276E+02 -0.68345434701E+01  0.41712299772E+02  0.00000000000E+00 0. -1.
</event>
<event>
 7    1  0.1654239E-015  0.9000769E+02  0.7816164E-02  0.1186339E+00
        -11   -1    0    0    0    0  0.00000000000E+00  0.00000000000E+00  0.45593999997E+02  0.45594000000E+02  0.51100000000E-03 0. -1.
         11   -1    0    0    0    0 -0.00000000000E+00 -0.00000000000E+00 -0.45593999997E+02  0.45594000000E+02  0.51100000000E-03 0.  1.
    9900012    2    1    2    0    0  0.86832627904E+00 -0.66210935532E-01  0.79672116564E+00  0.90007686893E+02  0.89999947560E+02 0.  0.
        -12    1    1    2    0    0 -0.86832627904E+00  0.66210935531E-01 -0.79672116564E+00  0.11803131070E+01  0.00000000000E+00 0.  1.
         11    1    3    3    0    0  0.29353166268E+01 -0.28870965060E+02  0.56379201437E+01  0.29562389129E+02  0.51100000000E-03 0. -1.
        -11    1    3    3    0    0 -0.17005514036E+02 -0.29399135730E+01  0.12500448265E+02  0.21309429991E+02  0.51100000000E-03 0.  1.
        -12    1    3    3    0    0  0.14938523688E+02  0.31744667698E+02 -0.17341647244E+02  0.39135867773E+02  0.00000000000E+00 0.  1.
</event>
<event>
 7    1  0.1654239E-015  0.9000779E+02  0.7816164E-02  0.1186339E+00
        -11   -1    0    0    0    0  0.00000000000E+00  0.00000000000E+00  0.45593999997E+02  0.45594000000E+02  0.51100000000E-03 0. -1.
         11   -1    0    0    0    0 -0.00000000000E+00 -0.00000000000E+00 -0.45593999997E+02  0.45594000000E+02  0.51100000000E-03 0.  1.
    9900012    2    1    2    0    0 -0.89618887805E+00  0.75598422417E+00 -0.13503367124E+00  0.90007787839E+02  0.90000049839E+02 0.  0.
        -12    1    1    2    0    0  0.89618887805E+00 -0.75598422417E+00  0.13503367124E+00  0.11802121609E+01  0.00000000000E+00 0.  1.
         11    1    3    3    0    0 -0.93320454473E+01  0.23384229469E+01 -0.83619423153E+00  0.96568377414E+01  0.51100000000E-03 0. -1.
        -11    1    3    3    0    0 -0.10791696973E+02 -0.14076546751E+02 -0.34237736387E+02  0.38559466868E+02  0.51100000000E-03 0.  1.
         12    1    3    3    0    0  0.19227553542E+02  0.12494108029E+02  0.34938896947E+02  0.41791483230E+02  0.00000000000E+00 0. -1.
</event>
<event>
 7    1  0.1654239E-015  0.9000788E+02  0.7816164E-02  0.1186339E+00
        -11   -1    0    0    0    0  0.00000000000E+00  0.00000000000E+00  0.45593999997E+02  0.45594000000E+02  0.51100000000E-03 0.  1.
         11   -1    0    0    0    0 -0.00000000000E+00 -0.00000000000E+00 -0.45593999997E+02  0.45594000000E+02  0.51100000000E-03 0. -1.
    9900012    2    1    2    0    0  0.57256451709E+00  0.66305074203E-01 -0.10297835822E+01  0.90007881059E+02  0.90000144289E+02 0.  0.
        -12    1    1    2    0    0 -0.57256451709E+00 -0.66305074203E-01  0.10297835822E+01  0.11801189411E+01  0.00000000000E+00 0.  1.
         11    1    3    3    0    0 -0.31676619828E+02  0.15558350722E+02 -0.18182548512E+02  0.39699818534E+02  0.51100000000E-03 0. -1.
        -11    1    3    3    0    0 -0.32092729741E+01 -0.75026380913E+01 -0.30641280701E+01  0.87165298395E+01  0.51100000000E-03 0.  1.
        -12    1    3    3    0    0  0.35458457319E+02 -0.79894075566E+01  0.20216893000E+02  0.41591532686E+02  0.00000000000E+00 0.  1.
</event>
<event>
 7    1  0.1654239E-015  0.9000757E+02  0.7816164E-02  0.1186339E+00
        -11   -1    0    0    0    0  0.00000000000E+00  0.00000000000E+00  0.45593999997E+02  0.45594000000E+02  0.51100000000E-03 0.  1.
         11   -1    0    0    0    0 -0.00000000000E+00 -0.00000000000E+00 -0.45593999997E+02  0.45594000000E+02  0.51100000000E-03 0. -1.
    9900012    2    1    2    0    0  0.37753215967E+00 -0.11001150341E+01  0.20158003320E+00  0.90007568668E+02  0.89999827774E+02 0.  0.
        -12    1    1    2    0    0 -0.37753215967E+00  0.11001150341E+01 -0.20158003320E+00  0.11804313320E+01  0.00000000000E+00 0.  1.
         11    1    3    3    0    0 -0.63683001805E+01  0.52190403304E+01 -0.15615662518E+01  0.83804605231E+01  0.51100000000E-03 0. -1.
        -11    1    3    3    0    0 -0.36158480409E+02 -0.12031589665E+02 -0.21457011426E+01  0.38168034911E+02  0.51100000000E-03 0.  1.
         12    1    3    3    0    0  0.42904312749E+02  0.57124343006E+01  0.39088474276E+01  0.43459073234E+02  0.00000000000E+00 0. -1.
</event>
<event>
 7    1  0.1654239E-015  0.9000786E+02  0.7816164E-02  0.1186339E+00
        -11   -1    0    0    0    0  0.00000000000E+00  0.00000000000E+00  0.45593999997E+02  0.45594000000E+02  0.51100000000E-03 0.  1.
         11   -1    0    0    0    0 -0.00000000000E+00 -0.00000000000E+00 -0.45593999997E+02  0.45594000000E+02  0.51100000000E-03 0. -1.
    9900012    2    1    2    0    0  0.34728984090E+00  0.58865203462E-01 -0.11263507912E+01  0.90007855326E+02  0.90000118217E+02 0.  0.
        -12    1    1    2    0    0 -0.34728984090E+00 -0.58865203462E-01  0.11263507912E+01  0.11801446736E+01  0.00000000000E+00 0.  1.
         11    1    3    3    0    0 -0.10423588951E+02 -0.29862854295E+02  0.18072321999E+02  0.36428698796E+02  0.51100000000E-03 0. -1.
        -11    1    3    3    0    0  0.67403597802E+01 -0.74815412776E+01  0.21882107599E+01  0.10305055868E+02  0.51100000000E-03 0.  1.
        -12    1    3    3    0    0  0.40305190113E+01  0.37403260776E+02 -0.21386883550E+02  0.43274100663E+02  0.00000000000E+00 0.  1.
</event>
<event>
 7    1  0.1654239E-015  0.9000765E+02  0.7816164E-02  0.1186339E+00
        -11   -1    0    0    0    0  0.00000000000E+00  0.00000000000E+00  0.45593999997E+02  0.45594000000E+02  0.51100000000E-03 0. -1.
         11   -1    0    0    0    0 -0.00000000000E+00 -0.00000000000E+00 -0.45593999997E+02  0.45594000000E+02  0.51100000000E-03 0.  1.
    9900012    2    1    2    0    0 -0.90611349609E+00  0.69220682254E+00  0.30500285240E+00  0.90007653147E+02  0.89999913369E+02 0.  0.
        -12    1    1    2    0    0  0.90611349609E+00 -0.69220682254E+00 -0.30500285240E+00  0.11803468528E+01  0.00000000000E+00 0.  1.
         11    1    3    3    0    0 -0.32218149268E+01  0.20243692012E+02  0.29648073153E+02  0.36044353229E+02  0.51100000000E-03 0. -1.
        -11    1    3    3    0    0 -0.74061615179E+01  0.14860757812E+01  0.73660225193E+01  0.10550731618E+02  0.51100000000E-03 0.  1.
        -12    1    3    3    0    0  0.97218629486E+01 -0.21037560971E+02 -0.36709092820E+02  0.43412568301E+02  0.00000000000E+00 0.  1.
</event>
<event>
 7    1  0.1654239E-015  0.9000772E+02  0.7816164E-02  0.1186339E+00
        -11   -1    0    0    0    0  0.00000000000E+00  0.00000000000E+00  0.45593999997E+02  0.45594000000E+02  0.51100000000E-03 0. -1.
         11   -1    0    0    0    0 -0.00000000000E+00 -0.00000000000E+00 -0.45593999997E+02  0.45594000000E+02  0.51100000000E-03 0.  1.
    9900012    2    1    2    0    0  0.10364017245E+01 -0.32678290053E+00 -0.46059809847E+00  0.90007717743E+02  0.89999978817E+02 0.  0.
        -12    1    1    2    0    0 -0.10364017245E+01  0.32678290053E+00  0.46059809847E+00  0.11802822573E+01  0.00000000000E+00 0.  1.
         11    1    3    3    0    0 -0.54950229871E+01 -0.85533172584E+01 -0.84869221467E+01  0.13243200577E+02  0.51100000000E-03 0. -1.
        -11    1    3    3    0    0 -0.14902003190E+02  0.23784241610E+02 -0.22773139404E+02  0.36143820033E+02  0.51100000000E-03 0.  1.
         12    1    3    3    0    0  0.21433427902E+02 -0.15557707252E+02  0.30799463452E+02  0.40620697132E+02  0.00000000000E+00 0. -1.
</event>
<event>
 7    1  0.1654239E-015  0.9000776E+02  0.7816164E-02  0.1186339E+00
        -11   -1    0    0    0    0  0.00000000000E+00  0.00000000000E+00  0.45593999997E+02  0.45594000000E+02  0.51100000000E-03 0.  1.
         11   -1    0    0    0    0 -0.00000000000E+00 -0.00000000000E+00 -0.45593999997E+02  0.45594000000E+02  0.51100000000E-03 0. -1.
    9900012    2    1    2    0    0  0.51883206428E+00  0.76872798541E+00 -0.72995901900E+00  0.90007758670E+02  0.90000020285E+02 0.  0.
        -12    1    1    2    0    0 -0.51883206428E+00 -0.76872798541E+00  0.72995901900E+00  0.11802413295E+01  0.00000000000E+00 0.  1.
         11    1    3    3    0    0 -0.17084672811E+01  0.46230443763E+01 -0.10155479689E+02  0.11288275676E+02  0.51100000000E-03 0. -1.
        -11    1    3    3    0    0  0.21960312333E+02  0.28792381662E+02 -0.75103953927E+01  0.36981922594E+02  0.51100000000E-03 0.  1.
         12    1    3    3    0    0 -0.19733012987E+02 -0.32646698053E+02  0.16935916063E+02  0.41737560401E+02  0.00000000000E+00 0. -1.
</event>
<event>
 7    1  0.1654239E-015  0.9000786E+02  0.7816164E-02  0.1186339E+00
        -11   -1    0    0    0    0  0.00000000000E+00  0.00000000000E+00  0.45593999997E+02  0.45594000000E+02  0.51100000000E-03 0.  1.
         11   -1    0    0    0    0 -0.00000000000E+00 -0.00000000000E+00 -0.45593999997E+02  0.45594000000E+02  0.51100000000E-03 0. -1.
    9900012    2    1    2    0    0  0.63173471483E+00 -0.98972448207E+00 -0.11867916688E+00  0.90007861006E+02  0.90000123971E+02 0.  0.
        -12    1    1    2    0    0 -0.63173471483E+00  0.98972448207E+00  0.11867916688E+00  0.11801389939E+01  0.00000000000E+00 0.  1.
         11    1    3    3    0    0 -0.28096099357E+02  0.99231089487E+01 -0.22931892566E+02  0.37599608871E+02  0.51100000000E-03 0. -1.
        -11    1    3    3    0    0 -0.78518323472E+01 -0.54119955610E+01  0.13223280915E+01  0.96275396132E+01  0.51100000000E-03 0.  1.
        -12    1    3    3    0    0  0.36579666419E+02 -0.55008378697E+01  0.21490885307E+02  0.42780712522E+02  0.00000000000E+00 0.  1.
</event>
<event>
 7    1  0.1654239E-015  0.9000775E+02  0.7816164E-02  0.1186339E+00
        -11   -1    0    0    0    0  0.00000000000E+00  0.00000000000E+00  0.45593999997E+02  0.45594000000E+02  0.51100000000E-03 0.  1.
         11   -1    0    0    0    0 -0.00000000000E+00 -0.00000000000E+00 -0.45593999997E+02  0.45594000000E+02  0.51100000000E-03 0. -1.
    9900012    2    1    2    0    0 -0.96515797667E+00  0.33349669146E+00 -0.59181671948E+00  0.90007747064E+02  0.90000008525E+02 0.  0.
        -12    1    1    2    0    0  0.96515797667E+00 -0.33349669146E+00  0.59181671948E+00  0.11802529359E+01  0.00000000000E+00 0.  1.
         11    1    3    3    0    0 -0.28775921411E+02 -0.17491344126E+02 -0.19487126832E+02  0.38906925924E+02  0.51100000000E-03 0. -1.
        -11    1    3    3    0    0  0.44229364543E+01 -0.30246192516E+01 -0.81211835207E+01  0.97295585991E+01  0.51100000000E-03 0.  1.
        -12    1    3    3    0    0  0.23387826980E+02  0.20849460069E+02  0.27016493633E+02  0.41371262541E+02  0.00000000000E+00 0.  1.
</event>
<event>
 7    1  0.1654239E-015  0.9000771E+02  0.7816164E-02  0.1186339E+00
        -11   -1    0    0    0    0  0.00000000000E+00  0.00000000000E+00  0.45593999997E+02  0.45594000000E+02  0.51100000000E-03 0.  1.
         11   -1    0    0    0    0 -0.00000000000E+00 -0.00000000000E+00 -0.45593999997E+02  0.45594000000E+02  0.51100000000E-03 0. -1.
    9900012    2    1    2    0    0  0.69305444830E+00 -0.22472034653E+00 -0.92858451945E+00  0.90007706430E+02  0.89999967355E+02 0.  0.
        -12    1    1    2    0    0 -0.69305444830E+00  0.22472034653E+00  0.92858451945E+00  0.11802935704E+01  0.00000000000E+00 0.  1.
         11    1    3    3    0    0 -0.83341701327E+01 -0.74017927456E+01 -0.74113526454E+01  0.13385554749E+02  0.51100000000E-03 0. -1.
        -11    1    3    3    0    0  0.14994587878E+02 -0.32409770986E+02  0.78569285250E+01  0.36564494351E+02  0.51100000000E-03 0.  1.
         12    1    3    3    0    0 -0.59673632968E+01  0.39586843385E+02 -0.13741603991E+01  0.40057657330E+02  0.00000000000E+00 0. -1.
</event>
<event>
 7    1  0.1654239E-015  0.9000776E+02  0.7816164E-02  0.1186339E+00
        -11   -1    0    0    0    0  0.00000000000E+00  0.00000000000E+00  0.45593999997E+02  0.45594000000E+02  0.51100000000E-03 0.  1.
         11   -1    0    0    0    0 -0.00000000000E+00 -0.00000000000E+00 -0.45593999997E+02  0.45594000000E+02  0.51100000000E-03 0. -1.
    9900012    2    1    2    0    0  0.11058870073E+01  0.34108444301E+00  0.23158682098E+00  0.90007763953E+02  0.90000025638E+02 0.  0.
        -12    1    1    2    0    0 -0.11058870073E+01 -0.34108444301E+00 -0.23158682098E+00  0.11802360466E+01  0.00000000000E+00 0.  1.
         11    1    3    3    0    0  0.77975093814E+01  0.64022492880E+01  0.51522101090E+01  0.11328513484E+02  0.51100000000E-03 0. -1.
        -11    1    3    3    0    0 -0.34859117727E+01  0.77487424028E+01  0.35156388727E+02  0.36168581094E+02  0.51100000000E-03 0.  1.
         12    1    3    3    0    0 -0.32057106014E+01 -0.13809907248E+02 -0.40077012015E+02  0.42510669375E+02  0.00000000000E+00 0. -1.
</event>
<event>
 7    1  0.1654239E-015  0.9000724E+02  0.7816164E-02  0.1186340E+00
        -11   -1    0    0    0    0  0.00000000000E+00  0.00000000000E+00  0.45593999997E+02  0.45594000000E+02  0.51100000000E-03 0.  1.
         11   -1    0    0    0    0 -0.00000000000E+00 -0.00000000000E+00 -0.45593999997E+02  0.45594000000E+02  0.51100000000E-03 0. -1.
    9900012    2    1    2    0    0 -0.23294383413E+00  0.65150206695E+00 -0.95680128673E+00  0.90007243262E+02  0.89999498071E+02 0.  0.
        -12    1    1    2    0    0  0.23294383413E+00 -0.65150206695E+00  0.95680128673E+00  0.11807567384E+01  0.00000000000E+00 0.  1.
         11    1    3    3    0    0 -0.67614168054E+01  0.54443312931E+01 -0.47295430066E+01  0.98856500928E+01  0.51100000000E-03 0. -1.
        -11    1    3    3    0    0 -0.20804050797E+02 -0.31713385310E+02 -0.10227620192E+02  0.39282967714E+02  0.51100000000E-03 0.  1.
         12    1    3    3    0    0  0.27332523768E+02  0.26920556083E+02  0.14000361912E+02  0.40838625455E+02  0.00000000000E+00 0. -1.
</event>
<event>
 7    1  0.1654239E-015  0.9000776E+02  0.7816164E-02  0.1186339E+00
        -11   -1    0    0    0    0  0.00000000000E+00  0.00000000000E+00  0.45593999997E+02  0.45594000000E+02  0.51100000000E-03 0.  1.
         11   -1    0    0    0    0 -0.00000000000E+00 -0.00000000000E+00 -0.45593999997E+02  0.45594000000E+02  0.51100000000E-03 0. -1.
    9900012    2    1    2    0    0 -0.11004112583E+01 -0.67756083303E-01  0.42126868021E+00  0.90007761412E+02  0.90000023062E+02 0.  0.
        -12    1    1    2    0    0  0.11004112583E+01  0.67756083303E-01 -0.42126868021E+00  0.11802385882E+01  0.00000000000E+00 0.  1.
         11    1    3    3    0    0  0.32769136378E+02  0.15392196528E+02  0.15831058597E+01  0.36238684267E+02  0.51100000000E-03 0. -1.
        -11    1    3    3    0    0 -0.98402018960E+01  0.12541240838E+02  0.41960769346E+01  0.16483912066E+02  0.51100000000E-03 0.  1.
        -12    1    3    3    0    0 -0.24029345741E+02 -0.28001193449E+02 -0.53579141141E+01  0.37285165079E+02  0.00000000000E+00 0.  1.
</event>
<event>
 7    1  0.1654239E-015  0.9000776E+02  0.7816164E-02  0.1186339E+00
        -11   -1    0    0    0    0  0.00000000000E+00  0.00000000000E+00  0.45593999997E+02  0.45594000000E+02  0.51100000000E-03 0.  1.
         11   -1    0    0    0    0 -0.00000000000E+00 -0.00000000000E+00 -0.45593999997E+02  0.45594000000E+02  0.51100000000E-03 0. -1.
    9900012    2    1    2    0    0 -0.10916297360E+01  0.44164173709E+00 -0.79118418966E-01  0.90007761622E+02  0.90000023275E+02 0.  0.
        -12    1    1    2    0    0  0.10916297360E+01 -0.44164173709E+00  0.79118418966E-01  0.11802383779E+01  0.00000000000E+00 0.  1.
         11    1    3    3    0    0  0.18114199309E+01 -0.17918433121E+01 -0.72224898791E+01  0.76587404275E+01  0.51100000000E-03 0. -1.
        -11    1    3    3    0    0 -0.30923339015E+02 -0.39034624388E+01  0.31797024174E+02  0.44525730331E+02  0.51100000000E-03 0.  1.
         12    1    3    3    0    0  0.28020289348E+02  0.61369474880E+01 -0.24653652714E+02  0.37823290864E+02  0.00000000000E+00 0. -1.
</event>
<event>
 7    1  0.1654239E-015  0.9000765E+02  0.7816164E-02  0.1186339E+00
        -11   -1    0    0    0    0  0.00000000000E+00  0.00000000000E+00  0.45593999997E+02  0.45594000000E+02  0.51100000000E-03 0.  1.
         11   -1    0    0    0    0 -0.00000000000E+00 -0.00000000000E+00 -0.45593999997E+02  0.45594000000E+02  0.51100000000E-03 0. -1.
    9900012    2    1    2    0    0 -0.11105014265E+01  0.39106091069E+00  0.84103492008E-01  0.90007654520E+02  0.89999914760E+02 0.  0.
        -12    1    1    2    0    0  0.11105014265E+01 -0.39106091069E+00 -0.84103492008E-01  0.11803454798E+01  0.00000000000E+00 0.  1.
         11    1    3    3    0    0 -0.15432761433E+02 -0.27024466003E+02 -0.18891742661E+02  0.36405903769E+02  0.51100000000E-03 0. -1.
        -11    1    3    3    0    0  0.24568870163E-01 -0.14107686482E+01 -0.10121469799E+02  0.10219345525E+02  0.51100000000E-03 0.  1.
        -12    1    3    3    0    0  0.14297691136E+02  0.28826295562E+02  0.29097315952E+02  0.43382405227E+02  0.00000000000E+00 0.  1.
</event>
<event>
 7    1  0.1654239E-015  0.9000720E+02  0.7816164E-02  0.1186340E+00
        -11   -1    0    0    0    0  0.00000000000E+00  0.00000000000E+00  0.45593999997E+02  0.45594000000E+02  0.51100000000E-03 0. -1.
         11   -1    0    0    0    0 -0.00000000000E+00 -0.00000000000E+00 -0.45593999997E+02  0.45594000000E+02  0.51100000000E-03 0.  1.
    9900012    2    1    2    0    0  0.85668734610E+00  0.81240427876E+00  0.19352233697E-01  0.90007200089E+02  0.89999454328E+02 0.  0.
        -12    1    1    2    0    0 -0.85668734610E+00 -0.81240427876E+00 -0.19352233697E-01  0.11807999111E+01  0.00000000000E+00 0.  1.
         11    1    3    3    0    0  0.31072767596E+01  0.57588408009E+01  0.74087587958E+01  0.98847925312E+01  0.51100000000E-03 0. -1.
        -11    1    3    3    0    0  0.32423346432E+02 -0.19983637774E+02 -0.16079395624E+02  0.41342062556E+02  0.51100000000E-03 0.  1.
         12    1    3    3    0    0 -0.34673935846E+02  0.15037201252E+02  0.86899890619E+01  0.38780345001E+02  0.00000000000E+00 0. -1.
</event>
<event>
 7    1  0.1654239E-015  0.9000779E+02  0.7816164E-02  0.1186339E+00
        -11   -1    0    0    0    0  0.00000000000E+00  0.00000000000E+00  0.45593999997E+02  0.45594000000E+02  0.51100000000E-03 0.  1.
         11   -1    0    0    0    0 -0.00000000000E+00 -0.00000000000E+00 -0.45593999997E+02  0.45594000000E+02  0.51100000000E-03 0. -1.
    9900012    2    1    2    0    0 -0.50630219553E+00 -0.58923828078E+00 -0.88845573820E+00  0.90007789314E+02  0.90000051333E+02 0.  0.
        -12    1    1    2    0    0  0.50630219553E+00  0.58923828078E+00  0.88845573820E+00  0.11802106861E+01  0.00000000000E+00 0.  1.
         11    1    3    3    0    0 -0.20607679956E+01  0.78804175003E+01 -0.28873865421E+02  0.30000797478E+02  0.51100000000E-03 0. -1.
        -11    1    3    3    0    0 -0.25546413541E+01  0.12939171233E+02 -0.97676731193E+01  0.16412062121E+02  0.51100000000E-03 0.  1.
        -12    1    3    3    0    0  0.41091071542E+01 -0.21408827014E+02  0.37753082802E+02  0.43594929714E+02  0.00000000000E+00 0.  1.
</event>
<event>
 7    1  0.1654239E-015  0.9000775E+02  0.7816164E-02  0.1186339E+00
        -11   -1    0    0    0    0  0.00000000000E+00  0.00000000000E+00  0.45593999997E+02  0.45594000000E+02  0.51100000000E-03 0.  1.
         11   -1    0    0    0    0 -0.00000000000E+00 -0.00000000000E+00 -0.45593999997E+02  0.45594000000E+02  0.51100000000E-03 0. -1.
    9900012    2    1    2    0    0  0.33669825787E+00  0.99258138197E+00 -0.54260116501E+00  0.90007745985E+02  0.90000007432E+02 0.  0.
        -12    1    1    2    0    0 -0.33669825787E+00 -0.99258138197E+00  0.54260116501E+00  0.11802540154E+01  0.00000000000E+00 0.  1.
         11    1    3    3    0    0  0.38804594171E+01 -0.24337565344E+01  0.94583960916E+01  0.10509157580E+02  0.51100000000E-03 0. -1.
        -11    1    3    3    0    0 -0.36148013998E+00  0.37451988897E+02  0.11431854407E+02  0.39159538247E+02  0.51100000000E-03 0.  1.
         12    1    3    3    0    0 -0.31822810192E+01 -0.34025650981E+02 -0.21432851664E+02  0.40339050157E+02  0.00000000000E+00 0. -1.
</event>
<event>
 7    1  0.1654239E-015  0.9000764E+02  0.7816164E-02  0.1186339E+00
        -11   -1    0    0    0    0  0.00000000000E+00  0.00000000000E+00  0.45593999997E+02  0.45594000000E+02  0.51100000000E-03 0. -1.
         11   -1    0    0    0    0 -0.00000000000E+00 -0.00000000000E+00 -0.45593999997E+02  0.45594000000E+02  0.51100000000E-03 0.  1.
    9900012    2    1    2    0    0  0.27113220799E+00 -0.84774883606E+00  0.77528366723E+00  0.90007637544E+02  0.89999897559E+02 0.  0.
        -12    1    1    2    0    0 -0.27113220799E+00  0.84774883606E+00 -0.77528366723E+00  0.11803624562E+01  0.00000000000E+00 0.  1.
         11    1    3    3    0    0  0.73370696857E+00  0.65236087382E+01 -0.49657692190E+01  0.82313219523E+01  0.51100000000E-03 0. -1.
        -11    1    3    3    0    0 -0.17097664634E+02  0.32440081854E+02 -0.57672882593E+01  0.37120757815E+02  0.51100000000E-03 0.  1.
         12    1    3    3    0    0  0.16635089874E+02 -0.39811439428E+02  0.11508341146E+02  0.44655557777E+02  0.00000000000E+00 0. -1.
</event>
<event>
 7    1  0.1654239E-015  0.9000775E+02  0.7816164E-02  0.1186339E+00
        -11   -1    0    0    0    0  0.00000000000E+00  0.00000000000E+00  0.45593999997E+02  0.45594000000E+02  0.51100000000E-03 0.  1.
         11   -1    0    0    0    0 -0.00000000000E+00 -0.00000000000E+00 -0.45593999997E+02  0.45594000000E+02  0.51100000000E-03 0. -1.
    9900012    2    1    2    0    0 -0.70073397740E-01  0.11567344919E+01 -0.22373223903E+00  0.90007745332E+02  0.90000006771E+02 0.  0.
        -12    1    1    2    0    0  0.70073397740E-01 -0.11567344919E+01  0.22373223903E+00  0.11802546677E+01  0.00000000000E+00 0.  1.
         11    1    3    3    0    0  0.25445183922E+02  0.38405773436E+01 -0.19907311720E+02  0.32534727282E+02  0.51100000000E-03 0. -1.
        -11    1    3    3    0    0  0.11859395522E+02 -0.33928091536E+01  0.15572839414E+02  0.19866296681E+02  0.51100000000E-03 0.  1.
        -12    1    3    3    0    0 -0.37374652842E+02  0.70896630185E+00  0.41107400668E+01  0.37606721370E+02  0.00000000000E+00 0.  1.
</event>
<event>
 7    1  0.1654239E-015  0.9000773E+02  0.7816164E-02  0.1186339E+00
        -11   -1    0    0    0    0  0.00000000000E+00  0.00000000000E+00  0.45593999997E+02  0.45594000000E+02  0.51100000000E-03 0. -1.
         11   -1    0    0    0    0 -0.00000000000E+00 -0.00000000000E+00 -0.45593999997E+02  0.45594000000E+02  0.51100000000E-03 0.  1.
    9900012    2    1    2    0    0 -0.10261180068E+01  0.32201383124E-04  0.58320214108E+00  0.90007727615E+02  0.89999988820E+02 0.  0.
        -12    1    1    2    0    0  0.10261180068E+01 -0.32201383123E-04 -0.58320214108E+00  0.11802723848E+01  0.00000000000E+00 0.  1.
         11    1    3    3    0    0  0.77903894936E+01 -0.38150015958E+01 -0.30191783994E+01  0.91847615160E+01  0.51100000000E-03 0. -1.
        -11    1    3    3    0    0 -0.81416854915E+01  0.19838755272E+02 -0.33855746952E+02  0.40075863750E+02  0.51100000000E-03 0.  1.
         12    1    3    3    0    0 -0.67482200888E+00 -0.16023721474E+02  0.37458127492E+02  0.40747102349E+02  0.00000000000E+00 0. -1.
</event>
<event>
 7    1  0.2639043E-015  0.9000780E+02  0.7816164E-02  0.1186339E+00
        -11   -1    0    0    0    0  0.00000000000E+00  0.00000000000E+00  0.45593999997E+02  0.45594000000E+02  0.51100000000E-03 0.  1.
         11   -1    0    0    0    0 -0.00000000000E+00 -0.00000000000E+00 -0.45593999997E+02  0.45594000000E+02  0.51100000000E-03 0. -1.
    9900012    2    1    2    0    0  0.12207263934E+00  0.10605558284E+01 -0.50318706674E+00  0.90007797637E+02  0.90000059765E+02 0.  0.
        -12    1    1    2    0    0 -0.12207263934E+00 -0.10605558284E+01  0.50318706674E+00  0.11802023634E+01  0.00000000000E+00 0.  1.
         11    1    3    3    0    0  0.21994631980E+01  0.88436463097E+01  0.30359073873E+01  0.96054386852E+01  0.51100000000E-03 0. -1.
        -11    1    3    3    0    0  0.48912804279E+01  0.21988246310E+02  0.28358999914E+02  0.36216577370E+02  0.51100000000E-03 0.  1.
         12    1    3    3    0    0 -0.69686709866E+01 -0.29771336792E+02 -0.31898094368E+02  0.44185781581E+02  0.00000000000E+00 0. -1.
</event>
<event>
 7    1  0.1654239E-015  0.9000765E+02  0.7816164E-02  0.1186339E+00
        -11   -1    0    0    0    0  0.00000000000E+00  0.00000000000E+00  0.45593999997E+02  0.45594000000E+02  0.51100000000E-03 0.  1.
         11   -1    0    0    0    0 -0.00000000000E+00 -0.00000000000E+00 -0.45593999997E+02  0.45594000000E+02  0.51100000000E-03 0. -1.
    9900012    2    1    2    0    0  0.73167004816E+00  0.89067744009E+00  0.25410600333E+00  0.90007653770E+02  0.89999914000E+02 0.  0.
        -12    1    1    2    0    0 -0.73167004816E+00 -0.89067744009E+00 -0.25410600333E+00  0.11803462300E+01  0.00000000000E+00 0.  1.
         11    1    3    3    0    0  0.21469278027E+02 -0.26165731950E+02  0.19794806464E+02  0.39209817529E+02  0.51100000000E-03 0. -1.
        -11    1    3    3    0    0  0.66111482798E+01 -0.15258981182E+01 -0.57825443650E+01  0.89147891865E+01  0.51100000000E-03 0.  1.
        -12    1    3    3    0    0 -0.27348756258E+02  0.28582307509E+02 -0.13758156096E+02  0.41883047054E+02  0.00000000000E+00 0.  1.
</event>
<event>
 7    1  0.1654239E-015  0.9000724E+02  0.7816164E-02  0.1186340E+00
        -11   -1    0    0    0    0  0.00000000000E+00  0.00000000000E+00  0.45593999997E+02  0.45594000000E+02  0.51100000000E-03 0.  1.
         11   -1    0    0    0    0 -0.00000000000E+00 -0.00000000000E+00 -0.45593999997E+02  0.45594000000E+02  0.51100000000E-03 0. -1.
    9900012    2    1    2    0    0  0.47762333220E+00  0.81042739855E+00 -0.71363820500E+00  0.90007239184E+02  0.89999493940E+02 0.  0.
        -12    1    1    2    0    0 -0.47762333220E+00 -0.81042739855E+00  0.71363820500E+00  0.11807608155E+01  0.00000000000E+00 0.  1.
         11    1    3    3    0    0  0.56906694160E+01  0.19596440853E+02  0.23213105515E+02  0.30907159048E+02  0.51100000000E-03 0. -1.
        -11    1    3    3    0    0 -0.14586653893E+02 -0.16702004784E+01  0.11503033291E+02  0.18651536574E+02  0.51100000000E-03 0.  1.
         12    1    3    3    0    0  0.93736078088E+01 -0.17115812977E+02 -0.35429777011E+02  0.40448543562E+02  0.00000000000E+00 0. -1.
</event>
<event>
 7    1  0.1654239E-015  0.9000783E+02  0.7816164E-02  0.1186339E+00
        -11   -1    0    0    0    0  0.00000000000E+00  0.00000000000E+00  0.45593999997E+02  0.45594000000E+02  0.51100000000E-03 0. -1.
         11   -1    0    0    0    0 -0.00000000000E+00 -0.00000000000E+00 -0.45593999997E+02  0.45594000000E+02  0.51100000000E-03 0.  1.
    9900012    2    1    2    0    0  0.25793252545E+00  0.10044552750E+01 -0.56333103612E+00  0.90007829909E+02  0.90000092464E+02 0.  0.
        -12    1    1    2    0    0 -0.25793252545E+00 -0.10044552750E+01  0.56333103612E+00  0.11801700909E+01  0.00000000000E+00 0.  1.
         11    1    3    3    0    0  0.91706032398E+01  0.56513269237E+00 -0.88752382600E+00  0.92307658157E+01  0.51100000000E-03 0. -1.
        -11    1    3    3    0    0  0.25012535636E+02 -0.18870186696E+02 -0.19592901272E+02  0.36953926251E+02  0.51100000000E-03 0.  1.
         12    1    3    3    0    0 -0.33925206350E+02  0.19309509279E+02  0.19917094062E+02  0.43823137842E+02  0.00000000000E+00 0. -1.
</event>
<event>
 7    1  0.1654239E-015  0.9000771E+02  0.7816164E-02  0.1186339E+00
        -11   -1    0    0    0    0  0.00000000000E+00  0.00000000000E+00  0.45593999997E+02  0.45594000000E+02  0.51100000000E-03 0. -1.
         11   -1    0    0    0    0 -0.00000000000E+00 -0.00000000000E+00 -0.45593999997E+02  0.45594000000E+02  0.51100000000E-03 0.  1.
    9900012    2    1    2    0    0 -0.88233080138E+00 -0.45980889737E+00 -0.63494300200E+00  0.90007710001E+02  0.89999970973E+02 0.  0.
        -12    1    1    2    0    0  0.88233080138E+00  0.45980889737E+00  0.63494300200E+00  0.11802899987E+01  0.00000000000E+00 0.  1.
         11    1    3    3    0    0 -0.38823245748E+02 -0.15034117397E+02  0.12305183696E+02  0.43412977811E+02  0.51100000000E-03 0. -1.
        -11    1    3    3    0    0  0.80335760531E+01  0.28821157943E+01  0.49189970325E+01  0.98509627814E+01  0.51100000000E-03 0.  1.
        -12    1    3    3    0    0  0.29907338894E+02  0.11692192705E+02 -0.17859123731E+02  0.36743769409E+02  0.00000000000E+00 0.  1.
</event>
<event>
 7    1  0.1654239E-015  0.9000779E+02  0.7816164E-02  0.1186339E+00
        -11   -1    0    0    0    0  0.00000000000E+00  0.00000000000E+00  0.45593999997E+02  0.45594000000E+02  0.51100000000E-03 0.  1.
         11   -1    0    0    0    0 -0.00000000000E+00 -0.00000000000E+00 -0.45593999997E+02  0.45594000000E+02  0.51100000000E-03 0. -1.
    9900012    2    1    2    0    0 -0.78880064420E+00  0.52864340498E+00 -0.70088152747E+00  0.90007785943E+02  0.90000047917E+02 0.  0.
        -12    1    1    2    0    0  0.78880064420E+00 -0.52864340498E+00  0.70088152747E+00  0.11802140575E+01  0.00000000000E+00 0.  1.
         11    1    3    3    0    0  0.12601220240E+02 -0.24129498389E+02 -0.27352334316E+02  0.38589812604E+02  0.51100000000E-03 0. -1.
        -11    1    3    3    0    0  0.35339297085E+01  0.50222494293E+01 -0.67578110571E+01  0.91312463038E+01  0.51100000000E-03 0.  1.
        -12    1    3    3    0    0 -0.16923950592E+02  0.19635892364E+02  0.33409263846E+02  0.42286727035E+02  0.00000000000E+00 0.  1.
</event>
<event>
 7    1  0.1654239E-015  0.9000771E+02  0.7816164E-02  0.1186339E+00
        -11   -1    0    0    0    0  0.00000000000E+00  0.00000000000E+00  0.45593999997E+02  0.45594000000E+02  0.51100000000E-03 0. -1.
         11   -1    0    0    0    0 -0.00000000000E+00 -0.00000000000E+00 -0.45593999997E+02  0.45594000000E+02  0.51100000000E-03 0.  1.
    9900012    2    1    2    0    0  0.18103702771E-01 -0.58162126469E+00  0.10268763619E+01  0.90007709314E+02  0.89999970277E+02 0.  0.
        -12    1    1    2    0    0 -0.18103702771E-01  0.58162126469E+00 -0.10268763619E+01  0.11802906855E+01  0.00000000000E+00 0.  1.
         11    1    3    3    0    0 -0.31334221241E+00  0.48448801796E+01  0.72290679330E+01  0.87080692888E+01  0.51100000000E-03 0. -1.
        -11    1    3    3    0    0  0.16511172040E+02  0.32622384522E+02 -0.14133965983E+02  0.39199588885E+02  0.51100000000E-03 0.  1.
         12    1    3    3    0    0 -0.16179726125E+02 -0.38048885966E+02  0.79317744122E+01  0.42100051141E+02  0.00000000000E+00 0. -1.
</event>
<event>
 7    1  0.1654239E-015  0.9000779E+02  0.7816164E-02  0.1186339E+00
        -11   -1    0    0    0    0  0.00000000000E+00  0.00000000000E+00  0.45593999997E+02  0.45594000000E+02  0.51100000000E-03 0.  1.
         11   -1    0    0    0    0 -0.00000000000E+00 -0.00000000000E+00 -0.45593999997E+02  0.45594000000E+02  0.51100000000E-03 0. -1.
    9900012    2    1    2    0    0  0.34337384463E+00  0.32192639357E+00 -0.10822954390E+01  0.90007785775E+02  0.90000047747E+02 0.  0.
        -12    1    1    2    0    0 -0.34337384463E+00 -0.32192639357E+00  0.10822954390E+01  0.11802142252E+01  0.00000000000E+00 0.  1.
         11    1    3    3    0    0  0.12893726307E+02  0.27123873291E+02  0.27661659616E+02  0.40830381988E+02  0.51100000000E-03 0. -1.
        -11    1    3    3    0    0  0.13584311771E+01  0.35781918751E+01 -0.10352820706E+02  0.11037648717E+02  0.51100000000E-03 0.  1.
        -12    1    3    3    0    0 -0.13908783640E+02 -0.30380138772E+02 -0.18391134349E+02  0.38139755070E+02  0.00000000000E+00 0.  1.
</event>
<event>
 7    1  0.1654239E-015  0.9000770E+02  0.7816164E-02  0.1186339E+00
        -11   -1    0    0    0    0  0.00000000000E+00  0.00000000000E+00  0.45593999997E+02  0.45594000000E+02  0.51100000000E-03 0. -1.
         11   -1    0    0    0    0 -0.00000000000E+00 -0.00000000000E+00 -0.45593999997E+02  0.45594000000E+02  0.51100000000E-03 0.  1.
    9900012    2    1    2    0    0 -0.19711069054E+00  0.66839946801E+00  0.95263153627E+00  0.90007696091E+02  0.89999956880E+02 0.  0.
        -12    1    1    2    0    0  0.19711069054E+00 -0.66839946801E+00 -0.95263153627E+00  0.11803039088E+01  0.00000000000E+00 0.  1.
         11    1    3    3    0    0  0.41797501290E+01 -0.18990476202E+02 -0.92836300320E+01  0.21547489050E+02  0.51100000000E-03 0. -1.
        -11    1    3    3    0    0  0.61965866766E+01  0.27390668860E+02 -0.20685221706E+02  0.34878715922E+02  0.51100000000E-03 0.  1.
         12    1    3    3    0    0 -0.10573447496E+02 -0.77317931903E+01  0.30921483275E+02  0.33581491119E+02  0.00000000000E+00 0. -1.
</event>
<event>
 7    1  0.1654239E-015  0.9000787E+02  0.7816164E-02  0.1186339E+00
        -11   -1    0    0    0    0  0.00000000000E+00  0.00000000000E+00  0.45593999997E+02  0.45594000000E+02  0.51100000000E-03 0.  1.
         11   -1    0    0    0    0 -0.00000000000E+00 -0.00000000000E+00 -0.45593999997E+02  0.45594000000E+02  0.51100000000E-03 0. -1.
    9900012    2    1    2    0    0 -0.88830607333E+00 -0.24436109744E+00 -0.73750630553E+00  0.90007866289E+02  0.90000129324E+02 0.  0.
        -12    1    1    2    0    0  0.88830607333E+00  0.24436109744E+00  0.73750630553E+00  0.11801337113E+01  0.00000000000E+00 0.  1.
         11    1    3    3    0    0  0.25907004624E+01 -0.57528052077E+01 -0.68269471145E+01  0.92958971492E+01  0.51100000000E-03 0. -1.
        -11    1    3    3    0    0 -0.36149792302E+02 -0.17574854954E+02 -0.33307314598E+00  0.40196939536E+02  0.51100000000E-03 0.  1.
         12    1    3    3    0    0  0.32670785766E+02  0.23083299064E+02  0.64225139549E+01  0.40515029603E+02  0.00000000000E+00 0. -1.
</event>
<event>
 7    1  0.1654239E-015  0.9000771E+02  0.7816164E-02  0.1186339E+00
        -11   -1    0    0    0    0  0.00000000000E+00  0.00000000000E+00  0.45593999997E+02  0.45594000000E+02  0.51100000000E-03 0. -1.
         11   -1    0    0    0    0 -0.00000000000E+00 -0.00000000000E+00 -0.45593999997E+02  0.45594000000E+02  0.51100000000E-03 0.  1.
    9900012    2    1    2    0    0 -0.36821307924E+00  0.11725418152E+00  0.11152326556E+01  0.90007714742E+02  0.89999975776E+02 0.  0.
        -12    1    1    2    0    0  0.36821307924E+00 -0.11725418152E+00 -0.11152326556E+01  0.11802852583E+01  0.00000000000E+00 0.  1.
         11    1    3    3    0    0 -0.28999311190E+02 -0.46377388253E+01  0.24007987225E+02  0.37932204283E+02  0.51100000000E-03 0. -1.
        -11    1    3    3    0    0  0.55342802361E+00 -0.29371255125E+01  0.86498273103E+01  0.91516392856E+01  0.51100000000E-03 0.  1.
        -12    1    3    3    0    0  0.28077670087E+02  0.76921185193E+01 -0.31542581880E+02  0.42923871173E+02  0.00000000000E+00 0.  1.
</event>
<event>
 7    1  0.1654239E-015  0.9000773E+02  0.7816164E-02  0.1186339E+00
        -11   -1    0    0    0    0  0.00000000000E+00  0.00000000000E+00  0.45593999997E+02  0.45594000000E+02  0.51100000000E-03 0. -1.
         11   -1    0    0    0    0 -0.00000000000E+00 -0.00000000000E+00 -0.45593999997E+02  0.45594000000E+02  0.51100000000E-03 0.  1.
    9900012    2    1    2    0    0  0.88859141481E-01 -0.99857827502E+00  0.62288155691E+00  0.90007730559E+02  0.89999991803E+02 0.  0.
        -12    1    1    2    0    0 -0.88859141481E-01  0.99857827502E+00 -0.62288155691E+00  0.11802694406E+01  0.00000000000E+00 0.  1.
         11    1    3    3    0    0 -0.34075904187E+02 -0.12784952286E+02  0.11448013325E+02  0.38153364995E+02  0.51100000000E-03 0. -1.
        -11    1    3    3    0    0 -0.36262857355E+01  0.59358636454E+01  0.68173569577E+01  0.97396499733E+01  0.51100000000E-03 0.  1.
        -12    1    3    3    0    0  0.37791049064E+02  0.58505103655E+01 -0.17642488726E+02  0.42114715591E+02  0.00000000000E+00 0.  1.
</event>
<event>
 7    1  0.1654239E-015  0.9000752E+02  0.7816164E-02  0.1186339E+00
        -11   -1    0    0    0    0  0.00000000000E+00  0.00000000000E+00  0.45593999997E+02  0.45594000000E+02  0.51100000000E-03 0.  1.
         11   -1    0    0    0    0 -0.00000000000E+00 -0.00000000000E+00 -0.45593999997E+02  0.45594000000E+02  0.51100000000E-03 0. -1.
    9900012    2    1    2    0    0 -0.42269203217E+00  0.98380024382E+00 -0.49698414446E+00  0.90007523523E+02  0.89999782033E+02 0.  0.
        -12    1    1    2    0    0  0.42269203217E+00 -0.98380024382E+00  0.49698414446E+00  0.11804764774E+01  0.00000000000E+00 0.  1.
         11    1    3    3    0    0  0.34973417649E+02  0.65250869266E+01 -0.10598003317E+02  0.37121885404E+02  0.51100000000E-03 0. -1.
        -11    1    3    3    0    0  0.55685699842E+01  0.66769461968E+01 -0.91152614769E+00  0.87419369915E+01  0.51100000000E-03 0.  1.
        -12    1    3    3    0    0 -0.40964679665E+02 -0.12218232880E+02  0.11012545320E+02  0.44143701127E+02  0.00000000000E+00 0.  1.
</event>
<event>
 7    1  0.1654239E-015  0.9000777E+02  0.7816164E-02  0.1186339E+00
        -11   -1    0    0    0    0  0.00000000000E+00  0.00000000000E+00  0.45593999997E+02  0.45594000000E+02  0.51100000000E-03 0.  1.
         11   -1    0    0    0    0 -0.00000000000E+00 -0.00000000000E+00 -0.45593999997E+02  0.45594000000E+02  0.51100000000E-03 0. -1.
    9900012    2    1    2    0    0  0.50246305951E+00 -0.97179726875E+00 -0.44282378152E+00  0.90007766142E+02  0.90000027855E+02 0.  0.
        -12    1    1    2    0    0 -0.50246305951E+00  0.97179726875E+00  0.44282378152E+00  0.11802338578E+01  0.00000000000E+00 0.  1.
         11    1    3    3    0    0 -0.20204297200E+01 -0.85353923812E+01  0.11236702768E-01  0.87712704826E+01  0.51100000000E-03 0. -1.
        -11    1    3    3    0    0 -0.17621553601E+02  0.66513471587E+01  0.35401104836E+02  0.40099847808E+02  0.51100000000E-03 0.  1.
         12    1    3    3    0    0  0.20144446380E+02  0.91224795377E+00 -0.35855165321E+02  0.41136647852E+02  0.00000000000E+00 0. -1.
</event>
<event>
 7    1  0.1654239E-015  0.9000764E+02  0.7816164E-02  0.1186339E+00
        -11   -1    0    0    0    0  0.00000000000E+00  0.00000000000E+00  0.45593999997E+02  0.45594000000E+02  0.51100000000E-03 0. -1.
         11   -1    0    0    0    0 -0.00000000000E+00 -0.00000000000E+00 -0.45593999997E+02  0.45594000000E+02  0.51100000000E-03 0.  1.
    9900012    2    1    2    0    0  0.54039590098E+00  0.94717555781E+00  0.45176087833E+00  0.90007636853E+02  0.89999896860E+02 0.  0.
        -12    1    1    2    0    0 -0.54039590098E+00 -0.94717555781E+00 -0.45176087833E+00  0.11803631468E+01  0.00000000000E+00 0.  1.
         11    1    3    3    0    0  0.13426761699E+02  0.24296962898E+02  0.24157103366E+02  0.36799266013E+02  0.51100000000E-03 0. -1.
        -11    1    3    3    0    0 -0.41763465146E+01  0.84382495302E+01  0.39237743507E+01  0.10200094645E+02  0.51100000000E-03 0.  1.
        -12    1    3    3    0    0 -0.87100192829E+01 -0.31788036871E+02 -0.27629116839E+02  0.43008276195E+02  0.00000000000E+00 0.  1.
</event>
<event>
 7    1  0.1654239E-015  0.9000769E+02  0.7816164E-02  0.1186339E+00
        -11   -1    0    0    0    0  0.00000000000E+00  0.00000000000E+00  0.45593999997E+02  0.45594000000E+02  0.51100000000E-03 0. -1.
         11   -1    0    0    0    0 -0.00000000000E+00 -0.00000000000E+00 -0.45593999997E+02  0.45594000000E+02  0.51100000000E-03 0.  1.
    9900012    2    1    2    0    0 -0.26317583544E+00 -0.29640730128E+00  0.11117584934E+01  0.90007692516E+02  0.89999953257E+02 0.  0.
        -12    1    1    2    0    0  0.26317583544E+00  0.29640730128E+00 -0.11117584934E+01  0.11803074837E+01  0.00000000000E+00 0.  1.
         11    1    3    3    0    0  0.52667743012E+01  0.79724996607E+01  0.52507079200E+01  0.10902733433E+02  0.51100000000E-03 0. -1.
        -11    1    3    3    0    0  0.11216842881E+02 -0.21482982160E+02 -0.34400629657E+02  0.42080154559E+02  0.51100000000E-03 0.  1.
         12    1    3    3    0    0 -0.16746793018E+02  0.13214075198E+02  0.30261680230E+02  0.37024804524E+02  0.00000000000E+00 0. -1.
</event>
<event>
 7    1  0.1654239E-015  0.9000775E+02  0.7816164E-02  0.1186339E+00
        -11   -1    0    0    0    0  0.00000000000E+00  0.00000000000E+00  0.45593999997E+02  0.45594000000E+02  0.51100000000E-03 0.  1.
         11   -1    0    0    0    0 -0.00000000000E+00 -0.00000000000E+00 -0.45593999997E+02  0.45594000000E+02  0.51100000000E-03 0. -1.
    9900012    2    1    2    0    0  0.87684641135E+00 -0.36242535549E+00 -0.70197936550E+00  0.90007751383E+02  0.90000012902E+02 0.  0.
        -12    1    1    2    0    0 -0.87684641135E+00  0.36242535549E+00  0.70197936550E+00  0.11802486166E+01  0.00000000000E+00 0.  1.
         11    1    3    3    0    0  0.31098988002E+02 -0.27204401734E+02  0.59577696496E+01  0.41745916541E+02  0.51100000000E-03 0. -1.
        -11    1    3    3    0    0  0.25083285377E+01  0.97416059983E+01  0.21739359686E+01  0.10291578953E+02  0.51100000000E-03 0.  1.
        -12    1    3    3    0    0 -0.32730470128E+02  0.17100370380E+02 -0.88336849837E+01  0.37970255890E+02  0.00000000000E+00 0.  1.
</event>
<event>
 7    1  0.1654239E-015  0.9000777E+02  0.7816164E-02  0.1186339E+00
        -11   -1    0    0    0    0  0.00000000000E+00  0.00000000000E+00  0.45593999997E+02  0.45594000000E+02  0.51100000000E-03 0.  1.
         11   -1    0    0    0    0 -0.00000000000E+00 -0.00000000000E+00 -0.45593999997E+02  0.45594000000E+02  0.51100000000E-03 0. -1.
    9900012    2    1    2    0    0  0.18551025558E+00 -0.28073730915E-01 -0.11652193150E+01  0.90007771954E+02  0.90000033743E+02 0.  0.
        -12    1    1    2    0    0 -0.18551025558E+00  0.28073730915E-01  0.11652193150E+01  0.11802280464E+01  0.00000000000E+00 0.  1.
         11    1    3    3    0    0 -0.14527832797E+02  0.30469919928E+02 -0.11676220494E+02  0.35718455614E+02  0.51100000000E-03 0. -1.
        -11    1    3    3    0    0 -0.17135785879E+01  0.61428386950E+01 -0.78683837885E+01  0.10128291194E+02  0.51100000000E-03 0.  1.
        -12    1    3    3    0    0  0.16426921640E+02 -0.36640832354E+02  0.18379384967E+02  0.44161025146E+02  0.00000000000E+00 0.  1.
</event>
<event>
 7    1  0.2019557E-015  0.9000784E+02  0.7816164E-02  0.1186339E+00
        -11   -1    0    0    0    0  0.00000000000E+00  0.00000000000E+00  0.45593999997E+02  0.45594000000E+02  0.51100000000E-03 0. -1.
         11   -1    0    0    0    0 -0.00000000000E+00 -0.00000000000E+00 -0.45593999997E+02  0.45594000000E+02  0.51100000000E-03 0.  1.
    9900012    2    1    2    0    0 -0.42282547630E+00  0.10711728641E+01  0.25802434101E+00  0.90007843549E+02  0.90000106284E+02 0.  0.
        -12    1    1    2    0    0  0.42282547630E+00 -0.10711728641E+01 -0.25802434101E+00  0.11801564510E+01  0.00000000000E+00 0.  1.
         11    1    3    3    0    0  0.70780074826E+01 -0.64114336518E+01  0.12898083143E+01  0.96368188291E+01  0.51100000000E-03 0. -1.
        -11    1    3    3    0    0  0.29873296829E+02 -0.99001342507E+01 -0.17470617584E+02  0.35995124679E+02  0.51100000000E-03 0.  1.
         12    1    3    3    0    0 -0.37374129788E+02  0.17382740767E+02  0.16438833611E+02  0.44375900041E+02  0.00000000000E+00 0. -1.
</event>
<event>
 7    1  0.1654239E-015  0.9000769E+02  0.7816164E-02  0.1186339E+00
        -11   -1    0    0    0    0  0.00000000000E+00  0.00000000000E+00  0.45593999997E+02  0.45594000000E+02  0.51100000000E-03 0. -1.
         11   -1    0    0    0    0 -0.00000000000E+00 -0.00000000000E+00 -0.45593999997E+02  0.45594000000E+02  0.51100000000E-03 0.  1.
    9900012    2    1    2    0    0  0.72260875552E-01  0.11039869375E+01  0.41125849697E+00  0.90007685490E+02  0.89999946138E+02 0.  0.
        -12    1    1    2    0    0 -0.72260875552E-01 -0.11039869375E+01 -0.41125849697E+00  0.11803145104E+01  0.00000000000E+00 0.  1.
         11    1    3    3    0    0 -0.74377455200E+01  0.70878225637E+01  0.36644394122E+02  0.38057442214E+02  0.51100000000E-03 0. -1.
        -11    1    3    3    0    0  0.68862420926E+01 -0.12931842174E+01  0.61384720228E+01  0.93152291767E+01  0.51100000000E-03 0.  1.
        -12    1    3    3    0    0  0.62376430296E+00 -0.46906514088E+01 -0.42371607647E+02  0.42635014098E+02  0.00000000000E+00 0.  1.
</event>
<event>
 7    1  0.1654239E-015  0.9000787E+02  0.7816164E-02  0.1186339E+00
        -11   -1    0    0    0    0  0.00000000000E+00  0.00000000000E+00  0.45593999997E+02  0.45594000000E+02  0.51100000000E-03 0. -1.
         11   -1    0    0    0    0 -0.00000000000E+00 -0.00000000000E+00 -0.45593999997E+02  0.45594000000E+02  0.51100000000E-03 0.  1.
    9900012    2    1    2    0    0 -0.85291413279E+00 -0.71547044275E+00  0.39158252217E+00  0.90007874013E+02  0.90000137150E+02 0.  0.
        -12    1    1    2    0    0  0.85291413279E+00  0.71547044275E+00 -0.39158252217E+00  0.11801259865E+01  0.00000000000E+00 0.  1.
         11    1    3    3    0    0  0.90854424069E+01 -0.56819213650E+01 -0.17866931400E+01  0.10863782342E+02  0.51100000000E-03 0. -1.
        -11    1    3    3    0    0  0.23979057661E+02  0.36497767221E+00 -0.25588280219E+02  0.35069766179E+02  0.51100000000E-03 0.  1.
         12    1    3    3    0    0 -0.33917414201E+02  0.46014732500E+01  0.27766555881E+02  0.44074325493E+02  0.00000000000E+00 0. -1.
</event>
<event>
 7    1  0.1654239E-015  0.9000757E+02  0.7816164E-02  0.1186339E+00
        -11   -1    0    0    0    0  0.00000000000E+00  0.00000000000E+00  0.45593999997E+02  0.45594000000E+02  0.51100000000E-03 0.  1.
         11   -1    0    0    0    0 -0.00000000000E+00 -0.00000000000E+00 -0.45593999997E+02  0.45594000000E+02  0.51100000000E-03 0. -1.
    9900012    2    1    2    0    0  0.94465135831E-01 -0.94494078664E+00  0.70112039240E+00  0.90007573570E+02  0.89999832741E+02 0.  0.
        -12    1    1    2    0    0 -0.94465135831E-01  0.94494078664E+00 -0.70112039240E+00  0.11804264301E+01  0.00000000000E+00 0.  1.
         11    1    3    3    0    0  0.52477217539E+01 -0.27061202776E+02 -0.31457164720E+02  0.41825835219E+02  0.51100000000E-03 0. -1.
        -11    1    3    3    0    0  0.72042119451E+01  0.39024313061E+00  0.81678457362E+01  0.10898011914E+02  0.51100000000E-03 0.  1.
        -12    1    3    3    0    0 -0.12357468563E+02  0.25726018858E+02  0.23990439376E+02  0.37283726437E+02  0.00000000000E+00 0.  1.
</event>
<event>
 7    1  0.1654239E-015  0.9000775E+02  0.7816164E-02  0.1186339E+00
        -11   -1    0    0    0    0  0.00000000000E+00  0.00000000000E+00  0.45593999997E+02  0.45594000000E+02  0.51100000000E-03 0.  1.
         11   -1    0    0    0    0 -0.00000000000E+00 -0.00000000000E+00 -0.45593999997E+02  0.45594000000E+02  0.51100000000E-03 0. -1.
    9900012    2    1    2    0    0 -0.93895497694E+00  0.61613256734E+00 -0.36294252092E+00  0.90007752965E+02  0.90000014505E+02 0.  0.
        -12    1    1    2    0    0  0.93895497694E+00 -0.61613256734E+00  0.36294252092E+00  0.11802470346E+01  0.00000000000E+00 0.  1.
         11    1    3    3    0    0 -0.28248177662E+02  0.23857932036E+02 -0.24314000129E+02  0.44253034526E+02  0.51100000000E-03 0. -1.
        -11    1    3    3    0    0  0.54785007311E+01 -0.76968275956E+01 -0.52221392579E+00  0.94619148666E+01  0.51100000000E-03 0.  1.
        -12    1    3    3    0    0  0.21830721954E+02 -0.15544971873E+02  0.24473271534E+02  0.36292803572E+02  0.00000000000E+00 0.  1.
</event>
<event>
 7    1  0.1654239E-015  0.9000778E+02  0.7816164E-02  0.1186339E+00
        -11   -1    0    0    0    0  0.00000000000E+00  0.00000000000E+00  0.45593999997E+02  0.45594000000E+02  0.51100000000E-03 0.  1.
         11   -1    0    0    0    0 -0.00000000000E+00 -0.00000000000E+00 -0.45593999997E+02  0.45594000000E+02  0.51100000000E-03 0. -1.
    9900012    2    1    2    0    0 -0.18524310367E+00 -0.91953359779E+00  0.71629046445E+00  0.90007775837E+02  0.90000037678E+02 0.  0.
        -12    1    1    2    0    0  0.18524310367E+00  0.91953359779E+00 -0.71629046445E+00  0.11802241628E+01  0.00000000000E+00 0.  1.
         11    1    3    3    0    0  0.15953765947E+02  0.26757695777E+02 -0.19321166250E+02  0.36657937704E+02  0.51100000000E-03 0. -1.
        -11    1    3    3    0    0  0.76864519897E+01 -0.18476383218E+02 -0.13221445607E+01  0.20055082835E+02  0.51100000000E-03 0.  1.
        -12    1    3    3    0    0 -0.23825461040E+02 -0.92008461563E+01  0.21359601275E+02  0.33294755298E+02  0.00000000000E+00 0.  1.
</event>
<event>
 7    1  0.1654239E-015  0.9000774E+02  0.7816164E-02  0.1186339E+00
        -11   -1    0    0    0    0  0.00000000000E+00  0.00000000000E+00  0.45593999997E+02  0.45594000000E+02  0.51100000000E-03 0.  1.
         11   -1    0    0    0    0 -0.00000000000E+00 -0.00000000000E+00 -0.45593999997E+02  0.45594000000E+02  0.51100000000E-03 0. -1.
    9900012    2    1    2    0    0  0.18321787822E+00  0.10836911239E+01  0.43019430394E+00  0.90007736308E+02  0.89999997628E+02 0.  0.
        -12    1    1    2    0    0 -0.18321787822E+00 -0.10836911239E+01 -0.43019430394E+00  0.11802636917E+01  0.00000000000E+00 0.  1.
         11    1    3    3    0    0  0.27651930352E+02 -0.22544055460E+02 -0.61178140658E+01  0.36197946599E+02  0.51100000000E-03 0. -1.
        -11    1    3    3    0    0  0.95102545804E+01  0.33332483716E+00  0.29249892728E+01  0.99554814117E+01  0.51100000000E-03 0.  1.
        -12    1    3    3    0    0 -0.36978967054E+02  0.23294421747E+02  0.36230190969E+01  0.43854308298E+02  0.00000000000E+00 0.  1.
</event>
<event>
 7    1  0.1654239E-015  0.9000726E+02  0.7816164E-02  0.1186340E+00
        -11   -1    0    0    0    0  0.00000000000E+00  0.00000000000E+00  0.45593999997E+02  0.45594000000E+02  0.51100000000E-03 0.  1.
         11   -1    0    0    0    0 -0.00000000000E+00 -0.00000000000E+00 -0.45593999997E+02  0.45594000000E+02  0.51100000000E-03 0. -1.
    9900012    2    1    2    0    0  0.33526377296E+00  0.81784923954E+00 -0.78285626483E+00  0.90007261626E+02  0.89999516678E+02 0.  0.
        -12    1    1    2    0    0 -0.33526377296E+00 -0.81784923954E+00  0.78285626483E+00  0.11807383738E+01  0.00000000000E+00 0.  1.
         11    1    3    3    0    0 -0.23946564427E+01 -0.21355068066E+02 -0.29971642721E+02  0.36879163213E+02  0.51100000000E-03 0. -1.
        -11    1    3    3    0    0 -0.71055509388E+00 -0.88684838233E+01 -0.18598431913E+01  0.90892194837E+01  0.51100000000E-03 0.  1.
        -12    1    3    3    0    0  0.34404753095E+01  0.31041401129E+02  0.31048629648E+02  0.44038878930E+02  0.00000000000E+00 0.  1.
</event>
<event>
 7    1  0.1654239E-015  0.9000770E+02  0.7816164E-02  0.1186339E+00
        -11   -1    0    0    0    0  0.00000000000E+00  0.00000000000E+00  0.45593999997E+02  0.45594000000E+02  0.51100000000E-03 0.  1.
         11   -1    0    0    0    0 -0.00000000000E+00 -0.00000000000E+00 -0.45593999997E+02  0.45594000000E+02  0.51100000000E-03 0. -1.
    9900012    2    1    2    0    0 -0.65309464443E+00 -0.20534409834E+00 -0.96145997827E+00  0.90007701689E+02  0.89999962551E+02 0.  0.
        -12    1    1    2    0    0  0.65309464443E+00  0.20534409834E+00  0.96145997827E+00  0.11802983111E+01  0.00000000000E+00 0.  1.
         11    1    3    3    0    0  0.77543205480E+01  0.26389657873E+02 -0.10570427645E+02  0.29466548333E+02  0.51100000000E-03 0. -1.
        -11    1    3    3    0    0 -0.25877946071E+01  0.13966065070E+02  0.13222463824E+02  0.19405700304E+02  0.51100000000E-03 0.  1.
         12    1    3    3    0    0 -0.58196205853E+01 -0.40561067041E+02 -0.36134961574E+01  0.41135453052E+02  0.00000000000E+00 0. -1.
</event>
<event>
 7    1  0.1654239E-015  0.9000819E+02  0.7816164E-02  0.1186338E+00
        -11   -1    0    0    0    0  0.00000000000E+00  0.00000000000E+00  0.45593999997E+02  0.45594000000E+02  0.51100000000E-03 0. -1.
         11   -1    0    0    0    0 -0.00000000000E+00 -0.00000000000E+00 -0.45593999997E+02  0.45594000000E+02  0.51100000000E-03 0.  1.
    9900012    2    1    2    0    0  0.46851807097E+00 -0.96150471131E+00  0.49794400191E+00  0.90008191235E+02  0.90000458558E+02 0.  0.
        -12    1    1    2    0    0 -0.46851807097E+00  0.96150471131E+00 -0.49794400191E+00  0.11798087649E+01  0.00000000000E+00 0.  1.
         11    1    3    3    0    0 -0.70561217756E+01  0.17111231549E+02  0.38668804471E+02  0.42870264043E+02  0.51100000000E-03 0. -1.
        -11    1    3    3    0    0  0.84244977592E+01 -0.54498708127E+00 -0.55733016867E+01  0.10115871953E+02  0.51100000000E-03 0.  1.
        -12    1    3    3    0    0 -0.89985791262E+00 -0.17527749179E+02 -0.32597558783E+02  0.37022055239E+02  0.00000000000E+00 0.  1.
</event>
<event>
 7    1  0.1654239E-015  0.9000776E+02  0.7816164E-02  0.1186339E+00
        -11   -1    0    0    0    0  0.00000000000E+00  0.00000000000E+00  0.45593999997E+02  0.45594000000E+02  0.51100000000E-03 0. -1.
         11   -1    0    0    0    0 -0.00000000000E+00 -0.00000000000E+00 -0.45593999997E+02  0.45594000000E+02  0.51100000000E-03 0.  1.
    9900012    2    1    2    0    0 -0.11091280458E+00 -0.11131012948E+01  0.37639971986E+00  0.90007757274E+02  0.90000018870E+02 0.  0.
        -12    1    1    2    0    0  0.11091280458E+00  0.11131012948E+01 -0.37639971986E+00  0.11802427258E+01  0.00000000000E+00 0.  1.
         11    1    3    3    0    0 -0.83156306450E+01  0.35354376645E+00 -0.40336893344E+01  0.92490732577E+01  0.51100000000E-03 0. -1.
        -11    1    3    3    0    0 -0.18947340293E+02  0.14625265134E+02 -0.27102029311E+02  0.36158264304E+02  0.51100000000E-03 0.  1.
         12    1    3    3    0    0  0.27152058134E+02 -0.16091910196E+02  0.31512118365E+02  0.44600419712E+02  0.00000000000E+00 0. -1.
</event>
<event>
 7    1  0.1654239E-015  0.9000769E+02  0.7816164E-02  0.1186339E+00
        -11   -1    0    0    0    0  0.00000000000E+00  0.00000000000E+00  0.45593999997E+02  0.45594000000E+02  0.51100000000E-03 0.  1.
         11   -1    0    0    0    0 -0.00000000000E+00 -0.00000000000E+00 -0.45593999997E+02  0.45594000000E+02  0.51100000000E-03 0. -1.
    9900012    2    1    2    0    0  0.60187476039E+00  0.40392815595E+00  0.93151574463E+00  0.90007689547E+02  0.89999950249E+02 0.  0.
        -12    1    1    2    0    0 -0.60187476039E+00 -0.40392815595E+00 -0.93151574463E+00  0.11803104527E+01  0.00000000000E+00 0.  1.
         11    1    3    3    0    0  0.44443230575E+01 -0.51760061549E+01 -0.57199575794E+01  0.89028625804E+01  0.51100000000E-03 0. -1.
        -11    1    3    3    0    0  0.23076667489E+02  0.29501588872E+02  0.20288566800E+02  0.42596974909E+02  0.51100000000E-03 0.  1.
         12    1    3    3    0    0 -0.26919115786E+02 -0.23921654561E+02 -0.13637093476E+02  0.38507852058E+02  0.00000000000E+00 0. -1.
</event>
<event>
 7    1  0.1654239E-015  0.9000776E+02  0.7816164E-02  0.1186339E+00
        -11   -1    0    0    0    0  0.00000000000E+00  0.00000000000E+00  0.45593999997E+02  0.45594000000E+02  0.51100000000E-03 0. -1.
         11   -1    0    0    0    0 -0.00000000000E+00 -0.00000000000E+00 -0.45593999997E+02  0.45594000000E+02  0.51100000000E-03 0.  1.
    9900012    2    1    2    0    0  0.96444854186E+00 -0.57184718024E+00  0.36851014073E+00  0.90007758537E+02  0.90000020150E+02 0.  0.
        -12    1    1    2    0    0 -0.96444854186E+00  0.57184718024E+00 -0.36851014073E+00  0.11802414631E+01  0.00000000000E+00 0.  1.
         11    1    3    3    0    0  0.94423469408E+01  0.36486923112E+01  0.35068078768E+01  0.10713009525E+02  0.51100000000E-03 0. -1.
        -11    1    3    3    0    0 -0.10953588564E+00 -0.33947249101E+02 -0.24395343358E+02  0.41803833526E+02  0.51100000000E-03 0.  1.
         12    1    3    3    0    0 -0.83683625133E+01  0.29726709610E+02  0.21257045622E+02  0.37490915486E+02  0.00000000000E+00 0. -1.
</event>
<event>
 7    1  0.1654239E-015  0.9000764E+02  0.7816164E-02  0.1186339E+00
        -11   -1    0    0    0    0  0.00000000000E+00  0.00000000000E+00  0.45593999997E+02  0.45594000000E+02  0.51100000000E-03 0.  1.
         11   -1    0    0    0    0 -0.00000000000E+00 -0.00000000000E+00 -0.45593999997E+02  0.45594000000E+02  0.51100000000E-03 0. -1.
    9900012    2    1    2    0    0  0.85202949130E+00 -0.78697463035E+00  0.21899023041E+00  0.90007644103E+02  0.89999904205E+02 0.  0.
        -12    1    1    2    0    0 -0.85202949130E+00  0.78697463035E+00 -0.21899023041E+00  0.11803558971E+01  0.00000000000E+00 0.  1.
         11    1    3    3    0    0  0.52640309881E+00 -0.98288320751E+01  0.43267592970E+01  0.10751924779E+02  0.51100000000E-03 0. -1.
        -11    1    3    3    0    0 -0.48118423308E+01  0.81716015510E+01  0.36807757660E+02  0.38009734579E+02  0.51100000000E-03 0.  1.
         12    1    3    3    0    0  0.51374687233E+01  0.87025589372E+00 -0.40915526727E+02  0.41245984745E+02  0.00000000000E+00 0. -1.
</event>
<event>
 7    1  0.1654239E-015  0.9000776E+02  0.7816164E-02  0.1186339E+00
        -11   -1    0    0    0    0  0.00000000000E+00  0.00000000000E+00  0.45593999997E+02  0.45594000000E+02  0.51100000000E-03 0. -1.
         11   -1    0    0    0    0 -0.00000000000E+00 -0.00000000000E+00 -0.45593999997E+02  0.45594000000E+02  0.51100000000E-03 0.  1.
    9900012    2    1    2    0    0  0.33330163457E+00  0.35774429399E-01  0.11316382657E+01  0.90007756401E+02  0.90000017985E+02 0.  0.
        -12    1    1    2    0    0 -0.33330163457E+00 -0.35774429399E-01 -0.11316382657E+01  0.11802435994E+01  0.00000000000E+00 0.  1.
         11    1    3    3    0    0 -0.13536935946E+02 -0.30556758964E+02  0.34487599222E+01  0.33598483574E+02  0.51100000000E-03 0. -1.
        -11    1    3    3    0    0 -0.43279218632E+01 -0.59832450396E+01 -0.12307210623E+02  0.14352615177E+02  0.51100000000E-03 0.  1.
        -12    1    3    3    0    0  0.18198159444E+02  0.36575778433E+02  0.99900889661E+01  0.42056657650E+02  0.00000000000E+00 0.  1.
</event>
<event>
 7    1  0.1654239E-015  0.9000771E+02  0.7816164E-02  0.1186339E+00
        -11   -1    0    0    0    0  0.00000000000E+00  0.00000000000E+00  0.45593999997E+02  0.45594000000E+02  0.51100000000E-03 0. -1.
         11   -1    0    0    0    0 -0.00000000000E+00 -0.00000000000E+00 -0.45593999997E+02  0.45594000000E+02  0.51100000000E-03 0.  1.
    9900012    2    1    2    0    0  0.84116095386E+00 -0.59122583757E+00  0.57964510486E+00  0.90007708431E+02  0.89999969382E+02 0.  0.
        -12    1    1    2    0    0 -0.84116095386E+00  0.59122583757E+00 -0.57964510486E+00  0.11802915694E+01  0.00000000000E+00 0.  1.
         11    1    3    3    0    0  0.26380102953E+01  0.98484277924E+01  0.13664061522E+01  0.10286772785E+02  0.51100000000E-03 0. -1.
        -11    1    3    3    0    0  0.80944809573E+01 -0.76334758025E+01 -0.38788597597E+02  0.40352767918E+02  0.51100000000E-03 0.  1.
         12    1    3    3    0    0 -0.98913302987E+01 -0.28061778276E+01  0.38001836550E+02  0.39368167728E+02  0.00000000000E+00 0. -1.
</event>
<event>
 7    1  0.1654239E-015  0.9000774E+02  0.7816164E-02  0.1186339E+00
        -11   -1    0    0    0    0  0.00000000000E+00  0.00000000000E+00  0.45593999997E+02  0.45594000000E+02  0.51100000000E-03 0. -1.
         11   -1    0    0    0    0 -0.00000000000E+00 -0.00000000000E+00 -0.45593999997E+02  0.45594000000E+02  0.51100000000E-03 0.  1.
    9900012    2    1    2    0    0 -0.67672399876E+00  0.11342132206E+00 -0.96030956958E+00  0.90007739759E+02  0.90000001124E+02 0.  0.
        -12    1    1    2    0    0  0.67672399876E+00 -0.11342132206E+00  0.96030956958E+00  0.11802602409E+01  0.00000000000E+00 0.  1.
         11    1    3    3    0    0 -0.10346394812E+02  0.11164605839E+02  0.71975981469E+01  0.16837509569E+02  0.51100000000E-03 0. -1.
        -11    1    3    3    0    0  0.27377579135E+02 -0.53608469933E+01 -0.32309309374E+02  0.42686789435E+02  0.51100000000E-03 0.  1.
         12    1    3    3    0    0 -0.17707908322E+02 -0.56903375232E+01  0.24151401657E+02  0.30483440756E+02  0.00000000000E+00 0. -1.
</event>
<event>
 7    1  0.1654239E-015  0.9000775E+02  0.7816164E-02  0.1186339E+00
        -11   -1    0    0    0    0  0.00000000000E+00  0.00000000000E+00  0.45593999997E+02  0.45594000000E+02  0.51100000000E-03 0.  1.
         11   -1    0    0    0    0 -0.00000000000E+00 -0.00000000000E+00 -0.45593999997E+02  0.45594000000E+02  0.51100000000E-03 0. -1.
    9900012    2    1    2    0    0  0.55165636728E+00  0.97515625032E+00 -0.37111423019E+00  0.90007754165E+02  0.90000015720E+02 0.  0.
        -12    1    1    2    0    0 -0.55165636728E+00 -0.97515625032E+00  0.37111423019E+00  0.11802458354E+01  0.00000000000E+00 0.  1.
         11    1    3    3    0    0 -0.15457695011E+00 -0.84813465362E+01  0.35513774305E+01  0.91961630594E+01  0.51100000000E-03 0. -1.
        -11    1    3    3    0    0  0.25612975694E+02  0.35923364188E+02  0.10364023159E+01  0.44131471180E+02  0.51100000000E-03 0.  1.
         12    1    3    3    0    0 -0.24906742377E+02 -0.26466861401E+02 -0.49588939766E+01  0.36680119925E+02  0.00000000000E+00 0. -1.
</event>
<event>
 7    1  0.1654239E-015  0.9000775E+02  0.7816164E-02  0.1186339E+00
        -11   -1    0    0    0    0  0.00000000000E+00  0.00000000000E+00  0.45593999997E+02  0.45594000000E+02  0.51100000000E-03 0.  1.
         11   -1    0    0    0    0 -0.00000000000E+00 -0.00000000000E+00 -0.45593999997E+02  0.45594000000E+02  0.51100000000E-03 0. -1.
    9900012    2    1    2    0    0  0.85262702424E-02 -0.28377988076E+00 -0.11455958676E+01  0.90007748497E+02  0.90000009977E+02 0.  0.
        -12    1    1    2    0    0 -0.85262702424E-02  0.28377988076E+00  0.11455958676E+01  0.11802515028E+01  0.00000000000E+00 0.  1.
         11    1    3    3    0    0 -0.94375638663E+01 -0.29163120293E+01  0.41311034677E+01  0.10706937177E+02  0.51100000000E-03 0. -1.
        -11    1    3    3    0    0 -0.20954270591E+02 -0.18856941235E+02  0.19769518464E+02  0.34431084057E+02  0.51100000000E-03 0.  1.
         12    1    3    3    0    0  0.30400360728E+02  0.21489473384E+02 -0.25046217799E+02  0.44869727264E+02  0.00000000000E+00 0. -1.
</event>
<event>
 7    1  0.1654239E-015  0.9000776E+02  0.7816164E-02  0.1186339E+00
        -11   -1    0    0    0    0  0.00000000000E+00  0.00000000000E+00  0.45593999997E+02  0.45594000000E+02  0.51100000000E-03 0.  1.
         11   -1    0    0    0    0 -0.00000000000E+00 -0.00000000000E+00 -0.45593999997E+02  0.45594000000E+02  0.51100000000E-03 0. -1.
    9900012    2    1    2    0    0  0.80485551187E+00 -0.13625765022E+00 -0.85241782654E+00  0.90007756511E+02  0.90000018097E+02 0.  0.
        -12    1    1    2    0    0 -0.80485551187E+00  0.13625765022E+00  0.85241782654E+00  0.11802434890E+01  0.00000000000E+00 0.  1.
         11    1    3    3    0    0  0.38490564706E+02  0.11635034984E+02 -0.13400043328E+02  0.42384652552E+02  0.51100000000E-03 0. -1.
        -11    1    3    3    0    0 -0.38606596789E+01 -0.71538907606E+01 -0.46839389777E+01  0.93820110199E+01  0.51100000000E-03 0.  1.
        -12    1    3    3    0    0 -0.33825049515E+02 -0.46174018737E+01  0.17231564480E+02  0.38241092939E+02  0.00000000000E+00 0.  1.
</event>
<event>
 7    1  0.1654239E-015  0.9000774E+02  0.7816164E-02  0.1186339E+00
        -11   -1    0    0    0    0  0.00000000000E+00  0.00000000000E+00  0.45593999997E+02  0.45594000000E+02  0.51100000000E-03 0. -1.
         11   -1    0    0    0    0 -0.00000000000E+00 -0.00000000000E+00 -0.45593999997E+02  0.45594000000E+02  0.51100000000E-03 0.  1.
    9900012    2    1    2    0    0 -0.69322574631E+00 -0.63540397401E+00  0.71323592564E+00  0.90007743405E+02  0.90000004817E+02 0.  0.
        -12    1    1    2    0    0  0.69322574631E+00  0.63540397401E+00 -0.71323592564E+00  0.11802565955E+01  0.00000000000E+00 0.  1.
         11    1    3    3    0    0  0.30737810386E+02  0.13109586506E+02  0.14382823543E+02  0.36380487339E+02  0.51100000000E-03 0. -1.
        -11    1    3    3    0    0  0.36988396680E+01  0.75040347613E+01  0.35729073983E+01  0.90971215297E+01  0.51100000000E-03 0.  1.
        -12    1    3    3    0    0 -0.35129875800E+02 -0.21249025241E+02 -0.17242495016E+02  0.44530134536E+02  0.00000000000E+00 0.  1.
</event>
<event>
 7    1  0.1654239E-015  0.9000768E+02  0.7816164E-02  0.1186339E+00
        -11   -1    0    0    0    0  0.00000000000E+00  0.00000000000E+00  0.45593999997E+02  0.45594000000E+02  0.51100000000E-03 0. -1.
         11   -1    0    0    0    0 -0.00000000000E+00 -0.00000000000E+00 -0.45593999997E+02  0.45594000000E+02  0.51100000000E-03 0.  1.
    9900012    2    1    2    0    0 -0.90329680505E+00  0.22770987040E+00  0.72480984410E+00  0.90007683850E+02  0.89999944477E+02 0.  0.
        -12    1    1    2    0    0  0.90329680505E+00 -0.22770987040E+00 -0.72480984410E+00  0.11803161497E+01  0.00000000000E+00 0.  1.
         11    1    3    3    0    0  0.75559071974E+01  0.63369676353E+01  0.67946127874E+01  0.11975627565E+02  0.51100000000E-03 0. -1.
        -11    1    3    3    0    0 -0.12233145782E+02  0.33067140869E+02 -0.13907939576E+02  0.37901404255E+02  0.51100000000E-03 0.  1.
         12    1    3    3    0    0  0.37739417799E+01 -0.39176398634E+02  0.78381366330E+01  0.40130652030E+02  0.00000000000E+00 0. -1.
</event>
<event>
 7    1  0.1654239E-015  0.9000778E+02  0.7816164E-02  0.1186339E+00
        -11   -1    0    0    0    0  0.00000000000E+00  0.00000000000E+00  0.45593999997E+02  0.45594000000E+02  0.51100000000E-03 0.  1.
         11   -1    0    0    0    0 -0.00000000000E+00 -0.00000000000E+00 -0.45593999997E+02  0.45594000000E+02  0.51100000000E-03 0. -1.
    9900012    2    1    2    0    0 -0.91448124034E-01 -0.60700929375E+00 -0.10080166118E+01  0.90007779456E+02  0.90000041345E+02 0.  0.
        -12    1    1    2    0    0  0.91448124034E-01  0.60700929375E+00  0.10080166118E+01  0.11802205437E+01  0.00000000000E+00 0.  1.
         11    1    3    3    0    0  0.84755604223E+01 -0.10574461120E+01  0.59610483099E+01  0.10415729161E+02  0.51100000000E-03 0. -1.
        -11    1    3    3    0    0 -0.14414390578E+02 -0.49208292695E+01  0.34319207691E+02  0.37547266655E+02  0.51100000000E-03 0.  1.
         12    1    3    3    0    0  0.58473820318E+01  0.53712660877E+01 -0.41288272613E+02  0.42044783640E+02  0.00000000000E+00 0. -1.
</event>
<event>
 7    1  0.1654239E-015  0.9000801E+02  0.7816164E-02  0.1186339E+00
        -11   -1    0    0    0    0  0.00000000000E+00  0.00000000000E+00  0.45593999997E+02  0.45594000000E+02  0.51100000000E-03 0. -1.
         11   -1    0    0    0    0 -0.00000000000E+00 -0.00000000000E+00 -0.45593999997E+02  0.45594000000E+02  0.51100000000E-03 0.  1.
    9900012    2    1    2    0    0 -0.84891793212E-01 -0.11398325511E+01  0.29318984503E+00  0.90008006294E+02  0.90000271177E+02 0.  0.
        -12    1    1    2    0    0  0.84891793212E-01  0.11398325511E+01 -0.29318984503E+00  0.11799937060E+01  0.00000000000E+00 0.  1.
         11    1    3    3    0    0 -0.19590488423E+02 -0.61784212550E+01  0.13903070146E+02  0.24804344087E+02  0.51100000000E-03 0. -1.
        -11    1    3    3    0    0  0.15394947320E+01  0.15698895623E+02 -0.33078777508E+02  0.36647385848E+02  0.51100000000E-03 0.  1.
         12    1    3    3    0    0  0.17966101898E+02 -0.10660306919E+02  0.19468897208E+02  0.28556276359E+02  0.00000000000E+00 0. -1.
</event>
<event>
 7    1  0.1654239E-015  0.9000772E+02  0.7816164E-02  0.1186339E+00
        -11   -1    0    0    0    0  0.00000000000E+00  0.00000000000E+00  0.45593999997E+02  0.45594000000E+02  0.51100000000E-03 0. -1.
         11   -1    0    0    0    0 -0.00000000000E+00 -0.00000000000E+00 -0.45593999997E+02  0.45594000000E+02  0.51100000000E-03 0.  1.
    9900012    2    1    2    0    0 -0.34922460232E+00  0.52062343047E+00  0.10000304057E+01  0.90007717241E+02  0.89999978308E+02 0.  0.
        -12    1    1    2    0    0  0.34922460232E+00 -0.52062343047E+00 -0.10000304057E+01  0.11802827592E+01  0.00000000000E+00 0.  1.
         11    1    3    3    0    0 -0.33871190308E+02  0.26132437677E+02  0.38725424067E+01  0.42955307201E+02  0.51100000000E-03 0. -1.
        -11    1    3    3    0    0  0.49305844973E+01 -0.32424586052E+01 -0.84680380489E+01  0.10321427709E+02  0.51100000000E-03 0.  1.
        -12    1    3    3    0    0  0.28591381208E+02 -0.22369355642E+02  0.55955260479E+01  0.36730982330E+02  0.00000000000E+00 0.  1.
</event>
<event>
 7    1  0.1654239E-015  0.9000776E+02  0.7816164E-02  0.1186339E+00
        -11   -1    0    0    0    0  0.00000000000E+00  0.00000000000E+00  0.45593999997E+02  0.45594000000E+02  0.51100000000E-03 0.  1.
         11   -1    0    0    0    0 -0.00000000000E+00 -0.00000000000E+00 -0.45593999997E+02  0.45594000000E+02  0.51100000000E-03 0. -1.
    9900012    2    1    2    0    0  0.83903810571E-01  0.51534727952E+00 -0.10584594864E+01  0.90007763095E+02  0.90000024768E+02 0.  0.
        -12    1    1    2    0    0 -0.83903810571E-01 -0.51534727952E+00  0.10584594864E+01  0.11802369051E+01  0.00000000000E+00 0.  1.
         11    1    3    3    0    0  0.25467402308E+01 -0.34515076382E+01  0.73873170978E+01  0.85423208172E+01  0.51100000000E-03 0. -1.
        -11    1    3    3    0    0 -0.53041131217E+01  0.41650335214E+02  0.26774486899E+01  0.42071995094E+02  0.51100000000E-03 0.  1.
         12    1    3    3    0    0  0.28412767015E+01 -0.37683480296E+02 -0.11123225274E+02  0.39393447184E+02  0.00000000000E+00 0. -1.
</event>
<event>
 7    1  0.1654239E-015  0.9000769E+02  0.7816164E-02  0.1186339E+00
        -11   -1    0    0    0    0  0.00000000000E+00  0.00000000000E+00  0.45593999997E+02  0.45594000000E+02  0.51100000000E-03 0. -1.
         11   -1    0    0    0    0 -0.00000000000E+00 -0.00000000000E+00 -0.45593999997E+02  0.45594000000E+02  0.51100000000E-03 0.  1.
    9900012    2    1    2    0    0 -0.85890908610E+00 -0.45423451437E+00  0.67013204797E+00  0.90007690391E+02  0.89999951104E+02 0.  0.
        -12    1    1    2    0    0  0.85890908610E+00  0.45423451437E+00 -0.67013204797E+00  0.11803096094E+01  0.00000000000E+00 0.  1.
         11    1    3    3    0    0  0.27751515738E+02  0.81855211928E+01  0.22637330247E+02  0.36736876622E+02  0.51100000000E-03 0. -1.
        -11    1    3    3    0    0 -0.43973042079E+00 -0.13388176139E+01  0.99667346160E+01  0.10065862835E+02  0.51100000000E-03 0.  1.
        -12    1    3    3    0    0 -0.28170694403E+02 -0.73009380932E+01 -0.31933932815E+02  0.43204950934E+02  0.00000000000E+00 0.  1.
</event>
<event>
 7    1  0.1654239E-015  0.9000768E+02  0.7816164E-02  0.1186339E+00
        -11   -1    0    0    0    0  0.00000000000E+00  0.00000000000E+00  0.45593999997E+02  0.45594000000E+02  0.51100000000E-03 0.  1.
         11   -1    0    0    0    0 -0.00000000000E+00 -0.00000000000E+00 -0.45593999997E+02  0.45594000000E+02  0.51100000000E-03 0. -1.
    9900012    2    1    2    0    0 -0.53450317131E+00  0.50349328201E+00 -0.92409620413E+00  0.90007681009E+02  0.89999941599E+02 0.  0.
        -12    1    1    2    0    0  0.53450317131E+00 -0.50349328201E+00  0.92409620413E+00  0.11803189906E+01  0.00000000000E+00 0.  1.
         11    1    3    3    0    0  0.19316835985E+02  0.15171532416E+02  0.32879241283E+02  0.41040955836E+02  0.51100000000E-03 0. -1.
        -11    1    3    3    0    0 -0.51353797059E+01 -0.76908620480E+01  0.21520051508E+01  0.94948728372E+01  0.51100000000E-03 0.  1.
        -12    1    3    3    0    0 -0.14715959450E+02 -0.69771770855E+01 -0.35955342638E+02  0.39471852336E+02  0.00000000000E+00 0.  1.
</event>
<event>
 7    1  0.1654239E-015  0.9000781E+02  0.7816164E-02  0.1186339E+00
        -11   -1    0    0    0    0  0.00000000000E+00  0.00000000000E+00  0.45593999997E+02  0.45594000000E+02  0.51100000000E-03 0.  1.
         11   -1    0    0    0    0 -0.00000000000E+00 -0.00000000000E+00 -0.45593999997E+02  0.45594000000E+02  0.51100000000E-03 0. -1.
    9900012    2    1    2    0    0 -0.90251243739E+00  0.65710403730E+00 -0.38281186863E+00  0.90007805379E+02  0.90000067610E+02 0.  0.
        -12    1    1    2    0    0  0.90251243739E+00 -0.65710403730E+00  0.38281186863E+00  0.11801946205E+01  0.00000000000E+00 0.  1.
         11    1    3    3    0    0 -0.19784325523E+01  0.44640329555E+01 -0.77270163553E+01  0.91404905562E+01  0.51100000000E-03 0. -1.
        -11    1    3    3    0    0 -0.17373933934E+02  0.24047010655E+02  0.28649576243E+02  0.41242096466E+02  0.51100000000E-03 0.  1.
         12    1    3    3    0    0  0.18449854049E+02 -0.27853939573E+02 -0.21305371756E+02  0.39625218357E+02  0.00000000000E+00 0. -1.
</event>
<event>
 7    1  0.1654239E-015  0.9000774E+02  0.7816164E-02  0.1186339E+00
        -11   -1    0    0    0    0  0.00000000000E+00  0.00000000000E+00  0.45593999997E+02  0.45594000000E+02  0.51100000000E-03 0.  1.
         11   -1    0    0    0    0 -0.00000000000E+00 -0.00000000000E+00 -0.45593999997E+02  0.45594000000E+02  0.51100000000E-03 0. -1.
    9900012    2    1    2    0    0  0.11798577894E+01 -0.28061375665E-01 -0.13046522041E-01  0.90007736446E+02  0.89999997768E+02 0.  0.
        -12    1    1    2    0    0 -0.11798577894E+01  0.28061375665E-01  0.13046522041E-01  0.11802635535E+01  0.00000000000E+00 0.  1.
         11    1    3    3    0    0 -0.14147029164E+02  0.10604002199E+02 -0.33361963793E+02  0.37757170513E+02  0.51100000000E-03 0. -1.
        -11    1    3    3    0    0  0.31041324964E+01 -0.17943385721E+01 -0.77132334113E+01  0.85058367834E+01  0.51100000000E-03 0.  1.
        -12    1    3    3    0    0  0.12222754457E+02 -0.88377250026E+01  0.41062150682E+02  0.43744729150E+02  0.00000000000E+00 0.  1.
</event>
<event>
 7    1  0.1654239E-015  0.9000773E+02  0.7816164E-02  0.1186339E+00
        -11   -1    0    0    0    0  0.00000000000E+00  0.00000000000E+00  0.45593999997E+02  0.45594000000E+02  0.51100000000E-03 0.  1.
         11   -1    0    0    0    0 -0.00000000000E+00 -0.00000000000E+00 -0.45593999997E+02  0.45594000000E+02  0.51100000000E-03 0. -1.
    9900012    2    1    2    0    0  0.98695234620E+00  0.51019390261E+00 -0.39832956267E+00  0.90007729187E+02  0.89999990412E+02 0.  0.
        -12    1    1    2    0    0 -0.98695234620E+00 -0.51019390261E+00  0.39832956267E+00  0.11802708132E+01  0.00000000000E+00 0.  1.
         11    1    3    3    0    0 -0.12902448150E+02  0.75501888723E+01 -0.36470078863E+02  0.39415037395E+02  0.51100000000E-03 0. -1.
        -11    1    3    3    0    0 -0.92459337475E+01 -0.10596547247E+01  0.29736393677E+01  0.97699892707E+01  0.51100000000E-03 0.  1.
        -12    1    3    3    0    0  0.23135334244E+02 -0.59803402450E+01  0.33098109933E+02  0.40822702521E+02  0.00000000000E+00 0.  1.
</event>
<event>
 7    1  0.1654239E-015  0.9000775E+02  0.7816164E-02  0.1186339E+00
        -11   -1    0    0    0    0  0.00000000000E+00  0.00000000000E+00  0.45593999997E+02  0.45594000000E+02  0.51100000000E-03 0. -1.
         11   -1    0    0    0    0 -0.00000000000E+00 -0.00000000000E+00 -0.45593999997E+02  0.45594000000E+02  0.51100000000E-03 0.  1.
    9900012    2    1    2    0    0  0.80964780660E+00  0.40282456335E+00 -0.75840897130E+00  0.90007753684E+02  0.90000015232E+02 0.  0.
        -12    1    1    2    0    0 -0.80964780660E+00 -0.40282456335E+00  0.75840897130E+00  0.11802463164E+01  0.00000000000E+00 0.  1.
         11    1    3    3    0    0 -0.35343061819E+02 -0.22036622090E+01  0.12080946878E+02  0.37415737646E+02  0.51100000000E-03 0. -1.
        -11    1    3    3    0    0 -0.10522503268E+01 -0.99906215362E+01  0.26162609564E+01  0.10380971587E+02  0.51100000000E-03 0.  1.
        -12    1    3    3    0    0  0.37204959952E+02  0.12597108309E+02 -0.15455616806E+02  0.42211044451E+02  0.00000000000E+00 0.  1.
</event>
<event>
 7    1  0.1654239E-015  0.9000775E+02  0.7816164E-02  0.1186339E+00
        -11   -1    0    0    0    0  0.00000000000E+00  0.00000000000E+00  0.45593999997E+02  0.45594000000E+02  0.51100000000E-03 0. -1.
         11   -1    0    0    0    0 -0.00000000000E+00 -0.00000000000E+00 -0.45593999997E+02  0.45594000000E+02  0.51100000000E-03 0.  1.
    9900012    2    1    2    0    0  0.11038678250E+01  0.28724976224E+00 -0.30324424014E+00  0.90007748472E+02  0.90000009951E+02 0.  0.
        -12    1    1    2    0    0 -0.11038678250E+01 -0.28724976224E+00  0.30324424014E+00  0.11802515284E+01  0.00000000000E+00 0.  1.
         11    1    3    3    0    0 -0.73394253419E+01  0.53166940234E+01  0.30103652423E+01  0.95496962696E+01  0.51100000000E-03 0. -1.
        -11    1    3    3    0    0  0.28146624863E+02 -0.55714056388E+01  0.30149997908E+02  0.41620853260E+02  0.51100000000E-03 0.  1.
         12    1    3    3    0    0 -0.19703331696E+02  0.54196137762E+00 -0.33463607391E+02  0.38837198942E+02  0.00000000000E+00 0. -1.
</event>
<event>
 7    1  0.1654239E-015  0.9000769E+02  0.7816164E-02  0.1186339E+00
        -11   -1    0    0    0    0  0.00000000000E+00  0.00000000000E+00  0.45593999997E+02  0.45594000000E+02  0.51100000000E-03 0.  1.
         11   -1    0    0    0    0 -0.00000000000E+00 -0.00000000000E+00 -0.45593999997E+02  0.45594000000E+02  0.51100000000E-03 0. -1.
    9900012    2    1    2    0    0 -0.45601413999E+00  0.90308099892E+00  0.60797394822E+00  0.90007687962E+02  0.89999948643E+02 0.  0.
        -12    1    1    2    0    0  0.45601413999E+00 -0.90308099892E+00 -0.60797394822E+00  0.11803120385E+01  0.00000000000E+00 0.  1.
         11    1    3    3    0    0 -0.32571647425E+01  0.29145632558E+02 -0.22722357535E+02  0.37099630073E+02  0.51100000000E-03 0. -1.
        -11    1    3    3    0    0 -0.76421061522E+01  0.29793338790E+01 -0.48872395284E+01  0.95479488516E+01  0.51100000000E-03 0.  1.
        -12    1    3    3    0    0  0.10443256755E+02 -0.31221885438E+02  0.28217571011E+02  0.43360109037E+02  0.00000000000E+00 0.  1.
</event>
<event>
 7    1  0.1654239E-015  0.9000773E+02  0.7816164E-02  0.1186339E+00
        -11   -1    0    0    0    0  0.00000000000E+00  0.00000000000E+00  0.45593999997E+02  0.45594000000E+02  0.51100000000E-03 0. -1.
         11   -1    0    0    0    0 -0.00000000000E+00 -0.00000000000E+00 -0.45593999997E+02  0.45594000000E+02  0.51100000000E-03 0.  1.
    9900012    2    1    2    0    0  0.11160519751E+01  0.17718206195E+00 -0.34069099671E+00  0.90007730603E+02  0.89999991847E+02 0.  0.
        -12    1    1    2    0    0 -0.11160519751E+01 -0.17718206195E+00  0.34069099671E+00  0.11802693970E+01  0.00000000000E+00 0.  1.
         11    1    3    3    0    0 -0.44673460793E+01 -0.89192132705E+01  0.34998079021E+01  0.10571575189E+02  0.51100000000E-03 0. -1.
        -11    1    3    3    0    0 -0.15019298523E+02 -0.26252188406E+02 -0.19097370631E+02  0.35769628032E+02  0.51100000000E-03 0.  1.
         12    1    3    3    0    0  0.20602696578E+02  0.35348583738E+02  0.15256871733E+02  0.43666527383E+02  0.00000000000E+00 0. -1.
</event>
<event>
 7    1  0.1654239E-015  0.9000776E+02  0.7816164E-02  0.1186339E+00
        -11   -1    0    0    0    0  0.00000000000E+00  0.00000000000E+00  0.45593999997E+02  0.45594000000E+02  0.51100000000E-03 0.  1.
         11   -1    0    0    0    0 -0.00000000000E+00 -0.00000000000E+00 -0.45593999997E+02  0.45594000000E+02  0.51100000000E-03 0. -1.
    9900012    2    1    2    0    0 -0.13975653223E+00 -0.29418945835E+00 -0.11344154742E+01  0.90007755197E+02  0.90000016766E+02 0.  0.
        -12    1    1    2    0    0  0.13975653223E+00  0.29418945835E+00  0.11344154742E+01  0.11802448025E+01  0.00000000000E+00 0.  1.
         11    1    3    3    0    0 -0.19646026681E+02 -0.23893865366E+02 -0.19117047569E+02  0.36364057453E+02  0.51100000000E-03 0. -1.
        -11    1    3    3    0    0  0.43783986743E-01 -0.80794446797E+01 -0.54038202871E+01  0.97201140593E+01  0.51100000000E-03 0.  1.
        -12    1    3    3    0    0  0.19462486162E+02  0.31679120587E+02  0.23386452382E+02  0.43923583685E+02  0.00000000000E+00 0.  1.
</event>
<event>
 7    1  0.1654239E-015  0.9000754E+02  0.7816164E-02  0.1186339E+00
        -11   -1    0    0    0    0  0.00000000000E+00  0.00000000000E+00  0.45593999997E+02  0.45594000000E+02  0.51100000000E-03 0.  1.
         11   -1    0    0    0    0 -0.00000000000E+00 -0.00000000000E+00 -0.45593999997E+02  0.45594000000E+02  0.51100000000E-03 0. -1.
    9900012    2    1    2    0    0 -0.24427287359E+00  0.73739805617E+00 -0.88885966428E+00  0.90007535417E+02  0.89999794084E+02 0.  0.
        -12    1    1    2    0    0  0.24427287359E+00 -0.73739805617E+00  0.88885966428E+00  0.11804645835E+01  0.00000000000E+00 0.  1.
         11    1    3    3    0    0  0.22967470654E+02  0.20664786266E+02  0.23482264961E+02  0.38806634325E+02  0.51100000000E-03 0. -1.
        -11    1    3    3    0    0 -0.34011107248E+01  0.56119580357E+01  0.44227379175E+01  0.79134213906E+01  0.51100000000E-03 0.  1.
        -12    1    3    3    0    0 -0.19810632803E+02 -0.25539346246E+02 -0.28793862543E+02  0.43287479701E+02  0.00000000000E+00 0.  1.
</event>
<event>
 7    1  0.1654239E-015  0.9000771E+02  0.7816164E-02  0.1186339E+00
        -11   -1    0    0    0    0  0.00000000000E+00  0.00000000000E+00  0.45593999997E+02  0.45594000000E+02  0.51100000000E-03 0.  1.
         11   -1    0    0    0    0 -0.00000000000E+00 -0.00000000000E+00 -0.45593999997E+02  0.45594000000E+02  0.51100000000E-03 0. -1.
    9900012    2    1    2    0    0  0.35580772966E+00  0.27225747014E+00 -0.10919575080E+01  0.90007705770E+02  0.89999966686E+02 0.  0.
        -12    1    1    2    0    0 -0.35580772966E+00 -0.27225747014E+00  0.10919575080E+01  0.11802942302E+01  0.00000000000E+00 0.  1.
         11    1    3    3    0    0  0.27699407901E+02 -0.17792751407E+02  0.11521421230E+02  0.34879540538E+02  0.51100000000E-03 0. -1.
        -11    1    3    3    0    0  0.64818561035E+01 -0.84559018667E+01 -0.17916122191E+01  0.10804008956E+02  0.51100000000E-03 0.  1.
        -12    1    3    3    0    0 -0.33825456275E+02  0.26520910744E+02 -0.10821766519E+02  0.44324156275E+02  0.00000000000E+00 0.  1.
</event>
<event>
 7    1  0.2100942E-015  0.9000777E+02  0.7816164E-02  0.1186339E+00
        -11   -1    0    0    0    0  0.00000000000E+00  0.00000000000E+00  0.45593999997E+02  0.45594000000E+02  0.51100000000E-03 0. -1.
         11   -1    0    0    0    0 -0.00000000000E+00 -0.00000000000E+00 -0.45593999997E+02  0.45594000000E+02  0.51100000000E-03 0.  1.
    9900012    2    1    2    0    0 -0.59409689388E+00  0.10115368931E+01  0.12952346115E+00  0.90007773610E+02  0.90000035421E+02 0.  0.
        -12    1    1    2    0    0  0.59409689388E+00 -0.10115368931E+01 -0.12952346115E+00  0.11802263903E+01  0.00000000000E+00 0.  1.
         11    1    3    3    0    0 -0.54206977164E+01 -0.78647796301E+01 -0.25676124465E+01  0.98909734758E+01  0.51100000000E-03 0. -1.
        -11    1    3    3    0    0  0.33327459732E+02 -0.14140889561E+02 -0.15295989832E+02  0.39302056371E+02  0.51100000000E-03 0.  1.
         12    1    3    3    0    0 -0.28500858910E+02  0.23017206084E+02  0.17993125740E+02  0.40814743763E+02  0.00000000000E+00 0. -1.
</event>
<event>
 7    1  0.1654239E-015  0.9000787E+02  0.7816164E-02  0.1186339E+00
        -11   -1    0    0    0    0  0.00000000000E+00  0.00000000000E+00  0.45593999997E+02  0.45594000000E+02  0.51100000000E-03 0.  1.
         11   -1    0    0    0    0 -0.00000000000E+00 -0.00000000000E+00 -0.45593999997E+02  0.45594000000E+02  0.51100000000E-03 0. -1.
    9900012    2    1    2    0    0  0.84653149317E+00  0.82154769319E+00 -0.34077578493E-01  0.90007865490E+02  0.90000128514E+02 0.  0.
        -12    1    1    2    0    0 -0.84653149317E+00 -0.82154769319E+00  0.34077578493E-01  0.11801345103E+01  0.00000000000E+00 0.  1.
         11    1    3    3    0    0 -0.83032368364E+00 -0.41533565262E+02  0.45521934211E+00  0.41544358290E+02  0.51100000000E-03 0. -1.
        -11    1    3    3    0    0  0.78171793726E+00  0.53394341470E+01  0.87695951582E+01  0.10296914074E+02  0.51100000000E-03 0.  1.
        -12    1    3    3    0    0  0.89513723955E+00  0.37015678808E+02 -0.92588920788E+01  0.38166593126E+02  0.00000000000E+00 0.  1.
</event>
<event>
 7    1  0.1654239E-015  0.9000773E+02  0.7816164E-02  0.1186339E+00
        -11   -1    0    0    0    0  0.00000000000E+00  0.00000000000E+00  0.45593999997E+02  0.45594000000E+02  0.51100000000E-03 0.  1.
         11   -1    0    0    0    0 -0.00000000000E+00 -0.00000000000E+00 -0.45593999997E+02  0.45594000000E+02  0.51100000000E-03 0. -1.
    9900012    2    1    2    0    0  0.18487265684E+00  0.11529604537E+01 -0.17187193504E+00  0.90007730679E+02  0.89999991924E+02 0.  0.
        -12    1    1    2    0    0 -0.18487265684E+00 -0.11529604537E+01  0.17187193504E+00  0.11802693205E+01  0.00000000000E+00 0.  1.
         11    1    3    3    0    0  0.32553942559E+02  0.65245619210E+00  0.15351141558E+02  0.35997811359E+02  0.51100000000E-03 0. -1.
        -11    1    3    3    0    0  0.78455707651E+01  0.73457193079E+01 -0.13860344537E+01  0.10836681436E+02  0.51100000000E-03 0.  1.
        -12    1    3    3    0    0 -0.40214640668E+02 -0.68452150463E+01 -0.14136979039E+02  0.43173237884E+02  0.00000000000E+00 0.  1.
</event>
<event>
 7    1  0.1654239E-015  0.9000661E+02  0.7816164E-02  0.1186341E+00
        -11   -1    0    0    0    0  0.00000000000E+00  0.00000000000E+00  0.45593999997E+02  0.45594000000E+02  0.51100000000E-03 0.  1.
         11   -1    0    0    0    0 -0.00000000000E+00 -0.00000000000E+00 -0.45593999997E+02  0.45594000000E+02  0.51100000000E-03 0. -1.
    9900012    2    1    2    0    0 -0.11717871455E+01  0.14693417730E+00  0.31645333962E-01  0.90006612598E+02  0.89998859077E+02 0.  0.
        -12    1    1    2    0    0  0.11717871455E+01 -0.14693417730E+00 -0.31645333962E-01  0.11813874021E+01  0.00000000000E+00 0.  1.
         11    1    3    3    0    0  0.14157585233E+02  0.33841838252E+02 -0.77240813339E+01  0.37488247073E+02  0.51100000000E-03 0. -1.
        -11    1    3    3    0    0  0.63888063176E+01  0.13221435270E+01 -0.62135273652E+01  0.90095966752E+01  0.51100000000E-03 0.  1.
        -12    1    3    3    0    0 -0.21718178696E+02 -0.35017047601E+02  0.13969254033E+02  0.43508768850E+02  0.00000000000E+00 0.  1.
</event>
<event>
 7    1  0.1654239E-015  0.9000778E+02  0.7816164E-02  0.1186339E+00
        -11   -1    0    0    0    0  0.00000000000E+00  0.00000000000E+00  0.45593999997E+02  0.45594000000E+02  0.51100000000E-03 0. -1.
         11   -1    0    0    0    0 -0.00000000000E+00 -0.00000000000E+00 -0.45593999997E+02  0.45594000000E+02  0.51100000000E-03 0.  1.
    9900012    2    1    2    0    0 -0.78429321834E+00 -0.50153032775E+00  0.72544748503E+00  0.90007778590E+02  0.90000040468E+02 0.  0.
        -12    1    1    2    0    0  0.78429321834E+00  0.50153032775E+00 -0.72544748503E+00  0.11802214095E+01  0.00000000000E+00 0.  1.
         11    1    3    3    0    0 -0.63157198451E+01  0.59987825027E+01 -0.56178584913E+01  0.10365039458E+02  0.51100000000E-03 0. -1.
        -11    1    3    3    0    0  0.44693191141E+01  0.73703258419E+01 -0.34987483132E+02  0.36033602270E+02  0.51100000000E-03 0.  1.
         12    1    3    3    0    0  0.10621075127E+01 -0.13870638672E+02  0.41330789109E+02  0.43609136862E+02  0.00000000000E+00 0. -1.
</event>
<event>
 7    1  0.1654239E-015  0.9000771E+02  0.7816164E-02  0.1186339E+00
        -11   -1    0    0    0    0  0.00000000000E+00  0.00000000000E+00  0.45593999997E+02  0.45594000000E+02  0.51100000000E-03 0.  1.
         11   -1    0    0    0    0 -0.00000000000E+00 -0.00000000000E+00 -0.45593999997E+02  0.45594000000E+02  0.51100000000E-03 0. -1.
    9900012    2    1    2    0    0  0.52797097925E-01 -0.74148061993E+00  0.91679045890E+00  0.90007709447E+02  0.89999970412E+02 0.  0.
        -12    1    1    2    0    0 -0.52797097925E-01  0.74148061993E+00 -0.91679045890E+00  0.11802905527E+01  0.00000000000E+00 0.  1.
         11    1    3    3    0    0  0.33070457742E+02  0.16783477887E+02 -0.92744216098E+01  0.38227675861E+02  0.51100000000E-03 0. -1.
        -11    1    3    3    0    0  0.72513481945E+01 -0.14350390568E+01  0.11096656024E+01  0.74748074051E+01  0.51100000000E-03 0.  1.
        -12    1    3    3    0    0 -0.40269008839E+02 -0.16089919451E+02  0.90815464662E+01  0.44305226181E+02  0.00000000000E+00 0.  1.
</event>
<event>
 7    1  0.1654239E-015  0.9000769E+02  0.7816164E-02  0.1186339E+00
        -11   -1    0    0    0    0  0.00000000000E+00  0.00000000000E+00  0.45593999997E+02  0.45594000000E+02  0.51100000000E-03 0. -1.
         11   -1    0    0    0    0 -0.00000000000E+00 -0.00000000000E+00 -0.45593999997E+02  0.45594000000E+02  0.51100000000E-03 0.  1.
    9900012    2    1    2    0    0  0.12262822039E+00 -0.68386794063E+00  0.95416427257E+00  0.90007685423E+02  0.89999946071E+02 0.  0.
        -12    1    1    2    0    0 -0.12262822039E+00  0.68386794063E+00 -0.95416427257E+00  0.11803145766E+01  0.00000000000E+00 0.  1.
         11    1    3    3    0    0  0.13372650315E+02 -0.14959456926E+02  0.33758721328E+02  0.39271674193E+02  0.51100000000E-03 0. -1.
        -11    1    3    3    0    0 -0.30403089990E+01 -0.29343695611E+01  0.58456743052E+01  0.72128989924E+01  0.51100000000E-03 0.  1.
        -12    1    3    3    0    0 -0.10209713096E+02  0.17209958547E+02 -0.38650231360E+02  0.43523112238E+02  0.00000000000E+00 0.  1.
</event>
<event>
 7    1  0.1654239E-015  0.9000779E+02  0.7816164E-02  0.1186339E+00
        -11   -1    0    0    0    0  0.00000000000E+00  0.00000000000E+00  0.45593999997E+02  0.45594000000E+02  0.51100000000E-03 0.  1.
         11   -1    0    0    0    0 -0.00000000000E+00 -0.00000000000E+00 -0.45593999997E+02  0.45594000000E+02  0.51100000000E-03 0. -1.
    9900012    2    1    2    0    0  0.94738294698E+00  0.25681255017E-01 -0.70334340260E+00  0.90007794121E+02  0.90000056203E+02 0.  0.
        -12    1    1    2    0    0 -0.94738294698E+00 -0.25681255017E-01  0.70334340260E+00  0.11802058791E+01  0.00000000000E+00 0.  1.
         11    1    3    3    0    0  0.35861241103E+02  0.19128936891E+02 -0.67414997837E+01  0.41199425477E+02  0.51100000000E-03 0. -1.
        -11    1    3    3    0    0 -0.45137377322E+01  0.64917544805E+01  0.43684009597E+01  0.90332514498E+01  0.51100000000E-03 0.  1.
        -12    1    3    3    0    0 -0.30400120424E+02 -0.25595010117E+02  0.16697554214E+01  0.39775117194E+02  0.00000000000E+00 0.  1.
</event>
<event>
 7    1  0.1654239E-015  0.9000773E+02  0.7816164E-02  0.1186339E+00
        -11   -1    0    0    0    0  0.00000000000E+00  0.00000000000E+00  0.45593999997E+02  0.45594000000E+02  0.51100000000E-03 0. -1.
         11   -1    0    0    0    0 -0.00000000000E+00 -0.00000000000E+00 -0.45593999997E+02  0.45594000000E+02  0.51100000000E-03 0.  1.
    9900012    2    1    2    0    0  0.60729728512E+00  0.38328683553E+00  0.93665053457E+00  0.90007731804E+02  0.89999993064E+02 0.  0.
        -12    1    1    2    0    0 -0.60729728512E+00 -0.38328683553E+00 -0.93665053457E+00  0.11802681961E+01  0.00000000000E+00 0.  1.
         11    1    3    3    0    0  0.25374276030E+02  0.24492944210E+02 -0.36839192375E+01  0.35458841794E+02  0.51100000000E-03 0. -1.
        -11    1    3    3    0    0  0.79970308700E+01  0.57049766701E+01  0.27911166292E+01  0.10212227663E+02  0.51100000000E-03 0.  1.
        -12    1    3    3    0    0 -0.32764009615E+02 -0.29814634045E+02  0.18294531428E+01  0.44336662347E+02  0.00000000000E+00 0.  1.
</event>
<event>
 7    1  0.1654239E-015  0.9000765E+02  0.7816164E-02  0.1186339E+00
        -11   -1    0    0    0    0  0.00000000000E+00  0.00000000000E+00  0.45593999997E+02  0.45594000000E+02  0.51100000000E-03 0.  1.
         11   -1    0    0    0    0 -0.00000000000E+00 -0.00000000000E+00 -0.45593999997E+02  0.45594000000E+02  0.51100000000E-03 0. -1.
    9900012    2    1    2    0    0  0.41858488113E+00  0.25085827408E+00 -0.10747527233E+01  0.90007645565E+02  0.89999905686E+02 0.  0.
        -12    1    1    2    0    0 -0.41858488113E+00 -0.25085827408E+00  0.10747527233E+01  0.11803544352E+01  0.00000000000E+00 0.  1.
         11    1    3    3    0    0  0.43704600289E+02  0.95642219613E+01 -0.52943603649E+01  0.45051045272E+02  0.51100000000E-03 0. -1.
        -11    1    3    3    0    0 -0.91458028840E+01 -0.37280403140E+01 -0.11689264056E+01  0.99453699870E+01  0.51100000000E-03 0.  1.
        -12    1    3    3    0    0 -0.34140212524E+02 -0.55853233732E+01  0.53885340472E+01  0.35011230306E+02  0.00000000000E+00 0.  1.
</event>
<event>
 7    1  0.1654239E-015  0.9000777E+02  0.7816164E-02  0.1186339E+00
        -11   -1    0    0    0    0  0.00000000000E+00  0.00000000000E+00  0.45593999997E+02  0.45594000000E+02  0.51100000000E-03 0.  1.
         11   -1    0    0    0    0 -0.00000000000E+00 -0.00000000000E+00 -0.45593999997E+02  0.45594000000E+02  0.51100000000E-03 0. -1.
    9900012    2    1    2    0    0 -0.30778217158E+00  0.10132997547E+01 -0.52099517461E+00  0.90007770264E+02  0.90000032031E+02 0.  0.
        -12    1    1    2    0    0  0.30778217158E+00 -0.10132997547E+01  0.52099517461E+00  0.11802297361E+01  0.00000000000E+00 0.  1.
         11    1    3    3    0    0  0.18314819255E+02 -0.84789655391E+01 -0.27291270416E+02  0.33943171657E+02  0.51100000000E-03 0. -1.
        -11    1    3    3    0    0  0.46633079514E+01 -0.28693166472E+01 -0.96551256289E+01  0.11099588742E+02  0.51100000000E-03 0.  1.
        -12    1    3    3    0    0 -0.23285909378E+02  0.12361581941E+02  0.36425400870E+02  0.44965009865E+02  0.00000000000E+00 0.  1.
</event>
<event>
 7    1  0.1654239E-015  0.9000772E+02  0.7816164E-02  0.1186339E+00
        -11   -1    0    0    0    0  0.00000000000E+00  0.00000000000E+00  0.45593999997E+02  0.45594000000E+02  0.51100000000E-03 0.  1.
         11   -1    0    0    0    0 -0.00000000000E+00 -0.00000000000E+00 -0.45593999997E+02  0.45594000000E+02  0.51100000000E-03 0. -1.
    9900012    2    1    2    0    0 -0.46444692875E+00  0.88242276543E+00 -0.63141559242E+00  0.90007717603E+02  0.89999978675E+02 0.  0.
        -12    1    1    2    0    0  0.46444692875E+00 -0.88242276543E+00  0.63141559242E+00  0.11802823971E+01  0.00000000000E+00 0.  1.
         11    1    3    3    0    0 -0.20039976020E+02 -0.26225429498E+02 -0.18667526389E+01  0.33058411288E+02  0.51100000000E-03 0. -1.
        -11    1    3    3    0    0 -0.14091413192E+02  0.21324603084E+01 -0.37435061356E+01  0.14735302887E+02  0.51100000000E-03 0.  1.
        -12    1    3    3    0    0  0.33666942283E+02  0.24975391955E+02  0.49788431821E+01  0.42214003428E+02  0.00000000000E+00 0.  1.
</event>
<event>
 7    1  0.1728548E-015  0.9000760E+02  0.7816164E-02  0.1186339E+00
        -11   -1    0    0    0    0  0.00000000000E+00  0.00000000000E+00  0.45593999997E+02  0.45594000000E+02  0.51100000000E-03 0.  1.
         11   -1    0    0    0    0 -0.00000000000E+00 -0.00000000000E+00 -0.45593999997E+02  0.45594000000E+02  0.51100000000E-03 0. -1.
    9900012    2    1    2    0    0 -0.10242480360E+01 -0.74708439514E-01 -0.58197126934E+00  0.90007595007E+02  0.89999854460E+02 0.  0.
        -12    1    1    2    0    0  0.10242480360E+01  0.74708439514E-01  0.58197126934E+00  0.11804049935E+01  0.00000000000E+00 0.  1.
         11    1    3    3    0    0  0.80083382546E+01  0.62773838850E+01 -0.26049699672E+01  0.10503566005E+02  0.51100000000E-03 0. -1.
        -11    1    3    3    0    0 -0.22621348544E+02  0.24660343050E+02  0.22134826659E+02  0.40122418681E+02  0.51100000000E-03 0.  1.
         12    1    3    3    0    0  0.13588762253E+02 -0.31012435375E+02 -0.20111827962E+02  0.39381610320E+02  0.00000000000E+00 0. -1.
</event>
<event>
 7    1  0.1654239E-015  0.9000767E+02  0.7816164E-02  0.1186339E+00
        -11   -1    0    0    0    0  0.00000000000E+00  0.00000000000E+00  0.45593999997E+02  0.45594000000E+02  0.51100000000E-03 0. -1.
         11   -1    0    0    0    0 -0.00000000000E+00 -0.00000000000E+00 -0.45593999997E+02  0.45594000000E+02  0.51100000000E-03 0.  1.
    9900012    2    1    2    0    0  0.44482300660E+00 -0.99743252661E+00  0.44771234793E+00  0.90007667208E+02  0.89999927616E+02 0.  0.
        -12    1    1    2    0    0 -0.44482300660E+00  0.99743252661E+00 -0.44771234793E+00  0.11803327916E+01  0.00000000000E+00 0.  1.
         11    1    3    3    0    0 -0.88684749139E+01 -0.26835161584E+01 -0.11291438264E+01  0.93341347918E+01  0.51100000000E-03 0. -1.
        -11    1    3    3    0    0  0.29030371186E+02 -0.73731172330E+01 -0.29978744004E+02  0.42377475164E+02  0.51100000000E-03 0.  1.
         12    1    3    3    0    0 -0.19717073265E+02  0.90592008648E+01  0.31555600179E+02  0.38296057253E+02  0.00000000000E+00 0. -1.
</event>
<event>
 7    1  0.1654239E-015  0.9000766E+02  0.7816164E-02  0.1186339E+00
        -11   -1    0    0    0    0  0.00000000000E+00  0.00000000000E+00  0.45593999997E+02  0.45594000000E+02  0.51100000000E-03 0.  1.
         11   -1    0    0    0    0 -0.00000000000E+00 -0.00000000000E+00 -0.45593999997E+02  0.45594000000E+02  0.51100000000E-03 0. -1.
    9900012    2    1    2    0    0 -0.10987921701E+01  0.42442495611E+00 -0.75652494484E-01  0.90007659339E+02  0.89999919642E+02 0.  0.
        -12    1    1    2    0    0  0.10987921701E+01 -0.42442495611E+00  0.75652494484E-01  0.11803406612E+01  0.00000000000E+00 0.  1.
         11    1    3    3    0    0  0.54336176262E+01  0.26010767225E+02  0.29057047128E+02  0.39375070796E+02  0.51100000000E-03 0. -1.
        -11    1    3    3    0    0 -0.83875164282E+01  0.12515364921E+01  0.27514289602E+01  0.89155559002E+01  0.51100000000E-03 0.  1.
        -12    1    3    3    0    0  0.18551066319E+01 -0.26837878761E+02 -0.31884128583E+02  0.41717032642E+02  0.00000000000E+00 0.  1.
</event>
<event>
 7    1  0.1654239E-015  0.9000771E+02  0.7816164E-02  0.1186339E+00
        -11   -1    0    0    0    0  0.00000000000E+00  0.00000000000E+00  0.45593999997E+02  0.45594000000E+02  0.51100000000E-03 0. -1.
         11   -1    0    0    0    0 -0.00000000000E+00 -0.00000000000E+00 -0.45593999997E+02  0.45594000000E+02  0.51100000000E-03 0.  1.
    9900012    2    1    2    0    0 -0.98362449977E+00  0.30634662587E+00  0.57595283935E+00  0.90007708898E+02  0.89999969856E+02 0.  0.
        -12    1    1    2    0    0  0.98362449977E+00 -0.30634662587E+00 -0.57595283935E+00  0.11802911018E+01  0.00000000000E+00 0.  1.
         11    1    3    3    0    0  0.30600964978E+02  0.10576570472E+02  0.22769500854E+02  0.39581979106E+02  0.51100000000E-03 0. -1.
        -11    1    3    3    0    0  0.40646488986E+01 -0.47953883031E+01  0.24463008672E+01  0.67454805492E+01  0.51100000000E-03 0.  1.
        -12    1    3    3    0    0 -0.35649238376E+02 -0.54748355433E+01 -0.24639848882E+02  0.43680249243E+02  0.00000000000E+00 0.  1.
</event>
<event>
 7    1  0.1654239E-015  0.9000773E+02  0.7816164E-02  0.1186339E+00
        -11   -1    0    0    0    0  0.00000000000E+00  0.00000000000E+00  0.45593999997E+02  0.45594000000E+02  0.51100000000E-03 0.  1.
         11   -1    0    0    0    0 -0.00000000000E+00 -0.00000000000E+00 -0.45593999997E+02  0.45594000000E+02  0.51100000000E-03 0. -1.
    9900012    2    1    2    0    0  0.43383702174E-01  0.17367050854E-01 -0.11793411541E+01  0.90007733370E+02  0.89999994650E+02 0.  0.
        -12    1    1    2    0    0 -0.43383702174E-01 -0.17367050854E-01  0.11793411541E+01  0.11802666300E+01  0.00000000000E+00 0.  1.
         11    1    3    3    0    0  0.10238596285E+02 -0.14958971682E+02 -0.33585429159E+02  0.38165177056E+02  0.51100000000E-03 0. -1.
        -11    1    3    3    0    0  0.11542624717E+02 -0.21082722294E+01  0.45213761093E+01  0.12574571139E+02  0.51100000000E-03 0.  1.
        -12    1    3    3    0    0 -0.21737837300E+02  0.17084610962E+02  0.27884711896E+02  0.39267985175E+02  0.00000000000E+00 0.  1.
</event>
<event>
 7    1  0.1654239E-015  0.9000773E+02  0.7816164E-02  0.1186339E+00
        -11   -1    0    0    0    0  0.00000000000E+00  0.00000000000E+00  0.45593999997E+02  0.45594000000E+02  0.51100000000E-03 0. -1.
         11   -1    0    0    0    0 -0.00000000000E+00 -0.00000000000E+00 -0.45593999997E+02  0.45594000000E+02  0.51100000000E-03 0.  1.
    9900012    2    1    2    0    0  0.64273146663E+00 -0.96141041935E+00 -0.23584832417E+00  0.90007729622E+02  0.89999990853E+02 0.  0.
        -12    1    1    2    0    0 -0.64273146663E+00  0.96141041935E+00  0.23584832417E+00  0.11802703778E+01  0.00000000000E+00 0.  1.
         11    1    3    3    0    0  0.70711246753E+01 -0.16377053403E+02  0.34664777596E+02  0.38985324013E+02  0.51100000000E-03 0. -1.
        -11    1    3    3    0    0 -0.13649685986E+01 -0.98111987326E+01 -0.36838982422E+01  0.10568531893E+02  0.51100000000E-03 0.  1.
        -12    1    3    3    0    0 -0.50634246101E+01  0.25226841716E+02 -0.31216727678E+02  0.40453873717E+02  0.00000000000E+00 0.  1.
</event>
<event>
 7    1  0.1654239E-015  0.9000758E+02  0.7816164E-02  0.1186339E+00
        -11   -1    0    0    0    0  0.00000000000E+00  0.00000000000E+00  0.45593999997E+02  0.45594000000E+02  0.51100000000E-03 0. -1.
         11   -1    0    0    0    0 -0.00000000000E+00 -0.00000000000E+00 -0.45593999997E+02  0.45594000000E+02  0.51100000000E-03 0.  1.
    9900012    2    1    2    0    0 -0.52686692099E+00 -0.88041080891E+00  0.58368354413E+00  0.90007577015E+02  0.89999836231E+02 0.  0.
        -12    1    1    2    0    0  0.52686692099E+00  0.88041080891E+00 -0.58368354413E+00  0.11804229854E+01  0.00000000000E+00 0.  1.
         11    1    3    3    0    0  0.77392578637E+01 -0.31714219163E+01  0.39951153893E+01  0.92690332014E+01  0.51100000000E-03 0. -1.
        -11    1    3    3    0    0  0.11522574950E+02  0.26252595053E+02 -0.28779201223E+02  0.40622787986E+02  0.51100000000E-03 0.  1.
         12    1    3    3    0    0 -0.19788699735E+02 -0.23961583946E+02  0.25367769377E+02  0.40115755827E+02  0.00000000000E+00 0. -1.
</event>
<event>
 7    1  0.1654239E-015  0.9000777E+02  0.7816164E-02  0.1186339E+00
        -11   -1    0    0    0    0  0.00000000000E+00  0.00000000000E+00  0.45593999997E+02  0.45594000000E+02  0.51100000000E-03 0.  1.
         11   -1    0    0    0    0 -0.00000000000E+00 -0.00000000000E+00 -0.45593999997E+02  0.45594000000E+02  0.51100000000E-03 0. -1.
    9900012    2    1    2    0    0 -0.13871654726E+00 -0.11575452594E+01 -0.18382769232E+00  0.90007768697E+02  0.90000030444E+02 0.  0.
        -12    1    1    2    0    0  0.13871654725E+00  0.11575452594E+01  0.18382769232E+00  0.11802313030E+01  0.00000000000E+00 0.  1.
         11    1    3    3    0    0 -0.34834093295E+02  0.41048630652E+01 -0.56750136721E+01  0.35531250145E+02  0.51100000000E-03 0. -1.
        -11    1    3    3    0    0 -0.66164612438E+01  0.23923066127E+00 -0.82636527839E+01  0.10588802968E+02  0.51100000000E-03 0.  1.
        -12    1    3    3    0    0  0.41311837991E+02 -0.55016389859E+01  0.13754838764E+02  0.43887715584E+02  0.00000000000E+00 0.  1.
</event>
<event>
 7    1  0.1654239E-015  0.9000776E+02  0.7816164E-02  0.1186339E+00
        -11   -1    0    0    0    0  0.00000000000E+00  0.00000000000E+00  0.45593999997E+02  0.45594000000E+02  0.51100000000E-03 0.  1.
         11   -1    0    0    0    0 -0.00000000000E+00 -0.00000000000E+00 -0.45593999997E+02  0.45594000000E+02  0.51100000000E-03 0. -1.
    9900012    2    1    2    0    0 -0.62837783279E+00  0.99859040009E+00 -0.30456087586E-01  0.90007758897E+02  0.90000020514E+02 0.  0.
        -12    1    1    2    0    0  0.62837783279E+00 -0.99859040009E+00  0.30456087586E-01  0.11802411030E+01  0.00000000000E+00 0.  1.
         11    1    3    3    0    0  0.22106828892E+02  0.27056363691E+02 -0.84960159347E+01  0.35957488606E+02  0.51100000000E-03 0. -1.
        -11    1    3    3    0    0 -0.49010416847E+00  0.24637389773E+01 -0.12156861472E+02  0.12413681684E+02  0.51100000000E-03 0.  1.
        -12    1    3    3    0    0 -0.22245102557E+02 -0.28521512268E+02  0.20622421319E+02  0.41636588607E+02  0.00000000000E+00 0.  1.
</event>
<event>
 7    1  0.1654239E-015  0.9000766E+02  0.7816164E-02  0.1186339E+00
        -11   -1    0    0    0    0  0.00000000000E+00  0.00000000000E+00  0.45593999997E+02  0.45594000000E+02  0.51100000000E-03 0.  1.
         11   -1    0    0    0    0 -0.00000000000E+00 -0.00000000000E+00 -0.45593999997E+02  0.45594000000E+02  0.51100000000E-03 0. -1.
    9900012    2    1    2    0    0 -0.44045602802E+00 -0.97307414266E+00 -0.50231854448E+00  0.90007661608E+02  0.89999921941E+02 0.  0.
        -12    1    1    2    0    0  0.44045602802E+00  0.97307414266E+00  0.50231854448E+00  0.11803383921E+01  0.00000000000E+00 0.  1.
         11    1    3    3    0    0  0.21630740446E+02 -0.31419078456E+02  0.85929819392E+01  0.39100981601E+02  0.51100000000E-03 0. -1.
        -11    1    3    3    0    0 -0.28089661125E+01 -0.56627844341E+01 -0.76936725901E+01  0.99574101228E+01  0.51100000000E-03 0.  1.
        -12    1    3    3    0    0 -0.19262230362E+02  0.36108788747E+02 -0.14016278935E+01  0.40949269884E+02  0.00000000000E+00 0.  1.
</event>
<event>
 7    1  0.1654239E-015  0.9000771E+02  0.7816164E-02  0.1186339E+00
        -11   -1    0    0    0    0  0.00000000000E+00  0.00000000000E+00  0.45593999997E+02  0.45594000000E+02  0.51100000000E-03 0.  1.
         11   -1    0    0    0    0 -0.00000000000E+00 -0.00000000000E+00 -0.45593999997E+02  0.45594000000E+02  0.51100000000E-03 0. -1.
    9900012    2    1    2    0    0 -0.85504472584E+00 -0.61132658346E+00  0.53689460764E+00  0.90007712961E+02  0.89999973972E+02 0.  0.
        -12    1    1    2    0    0  0.85504472584E+00  0.61132658346E+00 -0.53689460764E+00  0.11802870390E+01  0.00000000000E+00 0.  1.
         11    1    3    3    0    0 -0.62191213485E+01  0.72088094048E+01 -0.50324542483E+01  0.10768936782E+02  0.51100000000E-03 0. -1.
        -11    1    3    3    0    0 -0.25693033140E+02  0.39044214338E+01  0.28746201885E+02  0.38752039711E+02  0.51100000000E-03 0.  1.
         12    1    3    3    0    0  0.31057109763E+02 -0.11724557422E+02 -0.23176853029E+02  0.40486736469E+02  0.00000000000E+00 0. -1.
</event>
<event>
 7    1  0.1654239E-015  0.9000771E+02  0.7816164E-02  0.1186339E+00
        -11   -1    0    0    0    0  0.00000000000E+00  0.00000000000E+00  0.45593999997E+02  0.45594000000E+02  0.51100000000E-03 0.  1.
         11   -1    0    0    0    0 -0.00000000000E+00 -0.00000000000E+00 -0.45593999997E+02  0.45594000000E+02  0.51100000000E-03 0. -1.
    9900012    2    1    2    0    0  0.83161456399E+00 -0.82076913604E+00 -0.16688115415E+00  0.90007705936E+02  0.89999966854E+02 0.  0.
        -12    1    1    2    0    0 -0.83161456399E+00  0.82076913604E+00  0.16688115415E+00  0.11802940639E+01  0.00000000000E+00 0.  1.
         11    1    3    3    0    0  0.66931628794E+01 -0.62434909977E+01 -0.42513305850E+01  0.10092245596E+02  0.51100000000E-03 0. -1.
        -11    1    3    3    0    0 -0.48392520795E+01  0.22512147475E+02  0.36558054718E+02  0.43205399080E+02  0.51100000000E-03 0.  1.
         12    1    3    3    0    0 -0.10222962360E+01 -0.17089425613E+02 -0.32473605287E+02  0.36710061260E+02  0.00000000000E+00 0. -1.
</event>
<event>
 7    1  0.1654239E-015  0.9000778E+02  0.7816164E-02  0.1186339E+00
        -11   -1    0    0    0    0  0.00000000000E+00  0.00000000000E+00  0.45593999997E+02  0.45594000000E+02  0.51100000000E-03 0. -1.
         11   -1    0    0    0    0 -0.00000000000E+00 -0.00000000000E+00 -0.45593999997E+02  0.45594000000E+02  0.51100000000E-03 0.  1.
    9900012    2    1    2    0    0  0.82033142515E+00  0.66434567407E+00 -0.52785523506E+00  0.90007775457E+02  0.90000037293E+02 0.  0.
        -12    1    1    2    0    0 -0.82033142515E+00 -0.66434567407E+00  0.52785523506E+00  0.11802245426E+01  0.00000000000E+00 0.  1.
         11    1    3    3    0    0 -0.21644688815E+02  0.27857313823E+02 -0.73799323402E+01  0.36041446821E+02  0.51100000000E-03 0. -1.
        -11    1    3    3    0    0 -0.11224833439E+01  0.96717651890E+01  0.57764743645E+00  0.97538037478E+01  0.51100000000E-03 0.  1.
        -12    1    3    3    0    0  0.23587503584E+02 -0.36864733338E+02  0.62744296687E+01  0.44212524889E+02  0.00000000000E+00 0.  1.
</event>
<event>
 7    1  0.1654239E-015  0.9000774E+02  0.7816164E-02  0.1186339E+00
        -11   -1    0    0    0    0  0.00000000000E+00  0.00000000000E+00  0.45593999997E+02  0.45594000000E+02  0.51100000000E-03 0.  1.
         11   -1    0    0    0    0 -0.00000000000E+00 -0.00000000000E+00 -0.45593999997E+02  0.45594000000E+02  0.51100000000E-03 0. -1.
    9900012    2    1    2    0    0  0.56942225747E-01  0.97264783741E+00 -0.66612413896E+00  0.90007742570E+02  0.90000003972E+02 0.  0.
        -12    1    1    2    0    0 -0.56942225747E-01 -0.97264783741E+00  0.66612413896E+00  0.11802574301E+01  0.00000000000E+00 0.  1.
         11    1    3    3    0    0 -0.28553451792E+02  0.10412160156E+02 -0.24969604160E+02  0.39334384710E+02  0.51100000000E-03 0. -1.
        -11    1    3    3    0    0  0.76897185652E+01  0.49418977518E+01 -0.61566942220E+01  0.11020844296E+02  0.51100000000E-03 0.  1.
        -12    1    3    3    0    0  0.20920675453E+02 -0.14381410071E+02  0.30460174243E+02  0.39652513564E+02  0.00000000000E+00 0.  1.
</event>
<event>
 7    1  0.1654239E-015  0.9000777E+02  0.7816164E-02  0.1186339E+00
        -11   -1    0    0    0    0  0.00000000000E+00  0.00000000000E+00  0.45593999997E+02  0.45594000000E+02  0.51100000000E-03 0.  1.
         11   -1    0    0    0    0 -0.00000000000E+00 -0.00000000000E+00 -0.45593999997E+02  0.45594000000E+02  0.51100000000E-03 0. -1.
    9900012    2    1    2    0    0  0.56523719569E+00 -0.15080988303E+00 -0.10250431302E+01  0.90007766918E+02  0.90000028642E+02 0.  0.
        -12    1    1    2    0    0 -0.56523719569E+00  0.15080988303E+00  0.10250431302E+01  0.11802330817E+01  0.00000000000E+00 0.  1.
         11    1    3    3    0    0  0.12476270463E+02  0.54718753669E+01 -0.26539017853E+02  0.29831497005E+02  0.51100000000E-03 0. -1.
        -11    1    3    3    0    0  0.19817336089E+02 -0.79958716263E+01  0.16813645042E+02  0.27191164606E+02  0.51100000000E-03 0.  1.
         12    1    3    3    0    0 -0.31728369356E+02  0.23731863764E+01  0.87003296807E+01  0.32985105307E+02  0.00000000000E+00 0. -1.
</event>
<event>
 7    1  0.1654239E-015  0.9000800E+02  0.7816164E-02  0.1186339E+00
        -11   -1    0    0    0    0  0.00000000000E+00  0.00000000000E+00  0.45593999997E+02  0.45594000000E+02  0.51100000000E-03 0.  1.
         11   -1    0    0    0    0 -0.00000000000E+00 -0.00000000000E+00 -0.45593999997E+02  0.45594000000E+02  0.51100000000E-03 0. -1.
    9900012    2    1    2    0    0 -0.86693626207E+00  0.51486426481E+00 -0.61297339992E+00  0.90007999965E+02  0.90000264764E+02 0.  0.
        -12    1    1    2    0    0  0.86693626207E+00 -0.51486426481E+00  0.61297339992E+00  0.11800000350E+01  0.00000000000E+00 0.  1.
         11    1    3    3    0    0 -0.61132746827E+01  0.47653818832E+01 -0.68394563175E+01  0.10337270182E+02  0.51100000000E-03 0. -1.
        -11    1    3    3    0    0 -0.19647976984E+02  0.22396836639E+02  0.24783457774E+02  0.38754110369E+02  0.51100000000E-03 0.  1.
         12    1    3    3    0    0  0.24894315405E+02 -0.26647354257E+02 -0.18556974857E+02  0.40916619413E+02  0.00000000000E+00 0. -1.
</event>
<event>
 7    1  0.1654239E-015  0.9000768E+02  0.7816164E-02  0.1186339E+00
        -11   -1    0    0    0    0  0.00000000000E+00  0.00000000000E+00  0.45593999997E+02  0.45594000000E+02  0.51100000000E-03 0.  1.
         11   -1    0    0    0    0 -0.00000000000E+00 -0.00000000000E+00 -0.45593999997E+02  0.45594000000E+02  0.51100000000E-03 0. -1.
    9900012    2    1    2    0    0  0.30680878673E-01 -0.11365653253E+01 -0.31692228377E+00  0.90007677252E+02  0.89999937792E+02 0.  0.
        -12    1    1    2    0    0 -0.30680878673E-01  0.11365653253E+01  0.31692228377E+00  0.11803227478E+01  0.00000000000E+00 0.  1.
         11    1    3    3    0    0 -0.40547438451E+01 -0.93705878887E+01  0.41519631242E+01  0.11022144214E+02  0.51100000000E-03 0. -1.
        -11    1    3    3    0    0  0.53549894040E+01 -0.26272732868E+02  0.22634186844E+02  0.35089012785E+02  0.51100000000E-03 0.  1.
         12    1    3    3    0    0 -0.12695646802E+01  0.34506755431E+02 -0.27103072252E+02  0.43896520253E+02  0.00000000000E+00 0. -1.
</event>
<event>
 7    1  0.3615243E-015  0.9000775E+02  0.7816164E-02  0.1186339E+00
        -11   -1    0    0    0    0  0.00000000000E+00  0.00000000000E+00  0.45593999997E+02  0.45594000000E+02  0.51100000000E-03 0.  1.
         11   -1    0    0    0    0 -0.00000000000E+00 -0.00000000000E+00 -0.45593999997E+02  0.45594000000E+02  0.51100000000E-03 0. -1.
    9900012    2    1    2    0    0  0.10727857557E+01  0.46714903026E+00  0.15456889421E+00  0.90007750434E+02  0.90000011940E+02 0.  0.
        -12    1    1    2    0    0 -0.10727857557E+01 -0.46714903026E+00 -0.15456889421E+00  0.11802495656E+01  0.00000000000E+00 0.  1.
         11    1    3    3    0    0 -0.29505370469E+01 -0.88103006655E+01 -0.16863825913E+01  0.94430372861E+01  0.51100000000E-03 0. -1.
        -11    1    3    3    0    0  0.22150432978E+02 -0.20393408059E+02  0.24708210716E+02  0.38949049416E+02  0.51100000000E-03 0.  1.
         12    1    3    3    0    0 -0.18127110175E+02  0.29670857754E+02 -0.22867259231E+02  0.41615663732E+02  0.00000000000E+00 0. -1.
</event>
<event>
 7    1  0.1654239E-015  0.9000775E+02  0.7816164E-02  0.1186339E+00
        -11   -1    0    0    0    0  0.00000000000E+00  0.00000000000E+00  0.45593999997E+02  0.45594000000E+02  0.51100000000E-03 0. -1.
         11   -1    0    0    0    0 -0.00000000000E+00 -0.00000000000E+00 -0.45593999997E+02  0.45594000000E+02  0.51100000000E-03 0.  1.
    9900012    2    1    2    0    0  0.94134078954E-01  0.82784833633E+00  0.83593816544E+00  0.90007751421E+02  0.90000012939E+02 0.  0.
        -12    1    1    2    0    0 -0.94134078954E-01 -0.82784833633E+00 -0.83593816544E+00  0.11802485794E+01  0.00000000000E+00 0.  1.
         11    1    3    3    0    0  0.48156647485E+01 -0.34043658934E+01 -0.96183516621E+01  0.11282420975E+02  0.51100000000E-03 0. -1.
        -11    1    3    3    0    0  0.13281497871E+01  0.40846474312E+02  0.68770154709E+01  0.41442632490E+02  0.51100000000E-03 0.  1.
         12    1    3    3    0    0 -0.60496804567E+01 -0.36614260083E+02  0.35772743566E+01  0.37282697956E+02  0.00000000000E+00 0. -1.
</event>
<event>
 7    1  0.1654239E-015  0.9000795E+02  0.7816164E-02  0.1186339E+00
        -11   -1    0    0    0    0  0.00000000000E+00  0.00000000000E+00  0.45593999997E+02  0.45594000000E+02  0.51100000000E-03 0.  1.
         11   -1    0    0    0    0 -0.00000000000E+00 -0.00000000000E+00 -0.45593999997E+02  0.45594000000E+02  0.51100000000E-03 0. -1.
    9900012    2    1    2    0    0  0.83307357118E+00 -0.60247066573E+00 -0.57924822663E+00  0.90007952973E+02  0.90000217152E+02 0.  0.
        -12    1    1    2    0    0 -0.83307357118E+00  0.60247066573E+00  0.57924822663E+00  0.11800470271E+01  0.00000000000E+00 0.  1.
         11    1    3    3    0    0  0.15985204169E+02  0.29970105358E+02 -0.21126686232E+02  0.40000885476E+02  0.51100000000E-03 0. -1.
        -11    1    3    3    0    0 -0.52639439479E+01 -0.27761808134E+01 -0.73130155863E+01  0.94284931470E+01  0.51100000000E-03 0.  1.
        -12    1    3    3    0    0 -0.98881866503E+01 -0.27796395210E+02  0.27860453591E+02  0.40578574350E+02  0.00000000000E+00 0.  1.
</event>
<event>
 7    1  0.1654239E-015  0.9000769E+02  0.7816164E-02  0.1186339E+00
        -11   -1    0    0    0    0  0.00000000000E+00  0.00000000000E+00  0.45593999997E+02  0.45594000000E+02  0.51100000000E-03 0.  1.
         11   -1    0    0    0    0 -0.00000000000E+00 -0.00000000000E+00 -0.45593999997E+02  0.45594000000E+02  0.51100000000E-03 0. -1.
    9900012    2    1    2    0    0  0.19443556346E+00 -0.11547903634E+01  0.14756875892E+00  0.90007693891E+02  0.89999954651E+02 0.  0.
        -12    1    1    2    0    0 -0.19443556346E+00  0.11547903634E+01 -0.14756875892E+00  0.11803061088E+01  0.00000000000E+00 0.  1.
         11    1    3    3    0    0 -0.49385451355E+01  0.68879459514E+01 -0.11165815977E+01  0.85486713710E+01  0.51100000000E-03 0. -1.
        -11    1    3    3    0    0  0.72846117328E+01 -0.45347252790E+01  0.40808621410E+02  0.41700993791E+02  0.51100000000E-03 0.  1.
         12    1    3    3    0    0 -0.21516310338E+01 -0.35080110358E+01 -0.39544471054E+02  0.39758028729E+02  0.00000000000E+00 0. -1.
</event>
<event>
 7    1  0.1654239E-015  0.9000771E+02  0.7816164E-02  0.1186339E+00
        -11   -1    0    0    0    0  0.00000000000E+00  0.00000000000E+00  0.45593999997E+02  0.45594000000E+02  0.51100000000E-03 0. -1.
         11   -1    0    0    0    0 -0.00000000000E+00 -0.00000000000E+00 -0.45593999997E+02  0.45594000000E+02  0.51100000000E-03 0.  1.
    9900012    2    1    2    0    0 -0.17280084248E-01 -0.11508385364E+01  0.26144411219E+00  0.90007711492E+02  0.89999972484E+02 0.  0.
        -12    1    1    2    0    0  0.17280084248E-01  0.11508385364E+01 -0.26144411219E+00  0.11802885080E+01  0.00000000000E+00 0.  1.
         11    1    3    3    0    0  0.35838004521E+02  0.12691839478E+02  0.81834107685E+01  0.38889761756E+02  0.51100000000E-03 0. -1.
        -11    1    3    3    0    0  0.52853082658E+01 -0.54560223095E+01 -0.48639565501E+01  0.90200186523E+01  0.51100000000E-03 0.  1.
        -12    1    3    3    0    0 -0.41140592871E+02 -0.83866557047E+01 -0.30580101062E+01  0.42097931083E+02  0.00000000000E+00 0.  1.
</event>
<event>
 7    1  0.1654239E-015  0.9000775E+02  0.7816164E-02  0.1186339E+00
        -11   -1    0    0    0    0  0.00000000000E+00  0.00000000000E+00  0.45593999997E+02  0.45594000000E+02  0.51100000000E-03 0. -1.
         11   -1    0    0    0    0 -0.00000000000E+00 -0.00000000000E+00 -0.45593999997E+02  0.45594000000E+02  0.51100000000E-03 0.  1.
    9900012    2    1    2    0    0  0.80869299980E+00 -0.73671527472E-01  0.85648708477E+00  0.90007753421E+02  0.90000014966E+02 0.  0.
        -12    1    1    2    0    0 -0.80869299980E+00  0.73671527472E-01 -0.85648708477E+00  0.11802465794E+01  0.00000000000E+00 0.  1.
         11    1    3    3    0    0 -0.10774962386E+01  0.57600882238E+01  0.85081765737E+01  0.10330957524E+02  0.51100000000E-03 0. -1.
        -11    1    3    3    0    0  0.12596148087E+02  0.33425380607E+02  0.70493881621E+01  0.36408967152E+02  0.51100000000E-03 0.  1.
        -12    1    3    3    0    0 -0.10709958848E+02 -0.39259140358E+02 -0.14701077651E+02  0.43267828745E+02  0.00000000000E+00 0.  1.
</event>
<event>
 7    1  0.1654239E-015  0.9000769E+02  0.7816164E-02  0.1186339E+00
        -11   -1    0    0    0    0  0.00000000000E+00  0.00000000000E+00  0.45593999997E+02  0.45594000000E+02  0.51100000000E-03 0.  1.
         11   -1    0    0    0    0 -0.00000000000E+00 -0.00000000000E+00 -0.45593999997E+02  0.45594000000E+02  0.51100000000E-03 0. -1.
    9900012    2    1    2    0    0  0.84336385486E+00  0.34497992119E+00 -0.75023878077E+00  0.90007689886E+02  0.89999950592E+02 0.  0.
        -12    1    1    2    0    0 -0.84336385486E+00 -0.34497992119E+00  0.75023878077E+00  0.11803101143E+01  0.00000000000E+00 0.  1.
         11    1    3    3    0    0 -0.31864155574E+02  0.48385636227E+01  0.18260218189E+02  0.37042835703E+02  0.51100000000E-03 0. -1.
        -11    1    3    3    0    0 -0.75843589379E+01  0.30138466028E+01 -0.53690897113E+01  0.97689762223E+01  0.51100000000E-03 0.  1.
        -12    1    3    3    0    0  0.40291878366E+02 -0.75074303044E+01 -0.13641367259E+02  0.43195877960E+02  0.00000000000E+00 0.  1.
</event>
<event>
 7    1  0.1654239E-015  0.9000776E+02  0.7816164E-02  0.1186339E+00
        -11   -1    0    0    0    0  0.00000000000E+00  0.00000000000E+00  0.45593999997E+02  0.45594000000E+02  0.51100000000E-03 0.  1.
         11   -1    0    0    0    0 -0.00000000000E+00 -0.00000000000E+00 -0.45593999997E+02  0.45594000000E+02  0.51100000000E-03 0. -1.
    9900012    2    1    2    0    0 -0.15510576073E-01 -0.52394585531E+00 -0.10574569172E+01  0.90007756394E+02  0.90000017979E+02 0.  0.
        -12    1    1    2    0    0  0.15510576073E-01  0.52394585531E+00  0.10574569172E+01  0.11802436058E+01  0.00000000000E+00 0.  1.
         11    1    3    3    0    0  0.17323529066E+01 -0.55705713374E+01  0.56021233526E+01  0.80880218804E+01  0.51100000000E-03 0. -1.
        -11    1    3    3    0    0 -0.23496491740E+02  0.14686499758E+02  0.28317748019E+02  0.39619102115E+02  0.51100000000E-03 0.  1.
         12    1    3    3    0    0  0.21748628258E+02 -0.96398742754E+01 -0.34977328289E+02  0.42300632399E+02  0.00000000000E+00 0. -1.
</event>
<event>
 7    1  0.1654239E-015  0.9000767E+02  0.7816164E-02  0.1186339E+00
        -11   -1    0    0    0    0  0.00000000000E+00  0.00000000000E+00  0.45593999997E+02  0.45594000000E+02  0.51100000000E-03 0. -1.
         11   -1    0    0    0    0 -0.00000000000E+00 -0.00000000000E+00 -0.45593999997E+02  0.45594000000E+02  0.51100000000E-03 0.  1.
    9900012    2    1    2    0    0 -0.58098805447E+00  0.92437803884E+00  0.44850297632E+00  0.90007670894E+02  0.89999931350E+02 0.  0.
        -12    1    1    2    0    0  0.58098805447E+00 -0.92437803884E+00 -0.44850297632E+00  0.11803291058E+01  0.00000000000E+00 0.  1.
         11    1    3    3    0    0 -0.86327054658E+01  0.15912078542E+01  0.70591621707E+01  0.11264427056E+02  0.51100000000E-03 0. -1.
        -11    1    3    3    0    0 -0.22701280187E+02 -0.61791277929E+01 -0.31134969306E+02  0.39024557093E+02  0.51100000000E-03 0.  1.
         12    1    3    3    0    0  0.30752997598E+02  0.55122979776E+01  0.24524310112E+02  0.39718686744E+02  0.00000000000E+00 0. -1.
</event>
<event>
 7    1  0.1654239E-015  0.9000781E+02  0.7816164E-02  0.1186339E+00
        -11   -1    0    0    0    0  0.00000000000E+00  0.00000000000E+00  0.45593999997E+02  0.45594000000E+02  0.51100000000E-03 0.  1.
         11   -1    0    0    0    0 -0.00000000000E+00 -0.00000000000E+00 -0.45593999997E+02  0.45594000000E+02  0.51100000000E-03 0. -1.
    9900012    2    1    2    0    0 -0.76852541670E+00 -0.71646263640E+00 -0.53749434750E+00  0.90007809253E+02  0.90000071535E+02 0.  0.
        -12    1    1    2    0    0  0.76852541670E+00  0.71646263640E+00  0.53749434750E+00  0.11801907469E+01  0.00000000000E+00 0.  1.
         11    1    3    3    0    0  0.13091790434E+02 -0.26483928975E+02 -0.91147399954E+01  0.30917178981E+02  0.51100000000E-03 0. -1.
        -11    1    3    3    0    0 -0.22880893219E+01 -0.44103191680E+01 -0.17102952674E+02  0.17810032520E+02  0.51100000000E-03 0.  1.
        -12    1    3    3    0    0 -0.11572226529E+02  0.30177785506E+02  0.25680198322E+02  0.41280597752E+02  0.00000000000E+00 0.  1.
</event>
<event>
 7    1  0.1654239E-015  0.9000778E+02  0.7816164E-02  0.1186339E+00
        -11   -1    0    0    0    0  0.00000000000E+00  0.00000000000E+00  0.45593999997E+02  0.45594000000E+02  0.51100000000E-03 0.  1.
         11   -1    0    0    0    0 -0.00000000000E+00 -0.00000000000E+00 -0.45593999997E+02  0.45594000000E+02  0.51100000000E-03 0. -1.
    9900012    2    1    2    0    0 -0.68036055394E+00 -0.96016725849E+00 -0.90105474136E-01  0.90007775172E+02  0.90000037004E+02 0.  0.
        -12    1    1    2    0    0  0.68036055394E+00  0.96016725849E+00  0.90105474136E-01  0.11802248278E+01  0.00000000000E+00 0.  1.
         11    1    3    3    0    0  0.34104577511E+02 -0.11774471267E+02  0.35631554058E+00  0.36081675984E+02  0.51100000000E-03 0. -1.
        -11    1    3    3    0    0  0.83960629161E+01  0.52564674047E+01 -0.28948467510E+01  0.10320099808E+02  0.51100000000E-03 0.  1.
        -12    1    3    3    0    0 -0.43181000981E+02  0.55578366036E+01  0.24484257362E+01  0.43605999381E+02  0.00000000000E+00 0.  1.
</event>
<event>
 7    1  0.1654239E-015  0.9000777E+02  0.7816164E-02  0.1186339E+00
        -11   -1    0    0    0    0  0.00000000000E+00  0.00000000000E+00  0.45593999997E+02  0.45594000000E+02  0.51100000000E-03 0.  1.
         11   -1    0    0    0    0 -0.00000000000E+00 -0.00000000000E+00 -0.45593999997E+02  0.45594000000E+02  0.51100000000E-03 0. -1.
    9900012    2    1    2    0    0 -0.36924101020E+00  0.11209856475E+01  0.23926195127E-02  0.90007765502E+02  0.90000027207E+02 0.  0.
        -12    1    1    2    0    0  0.36924101020E+00 -0.11209856475E+01 -0.23926195127E-02  0.11802344979E+01  0.00000000000E+00 0.  1.
         11    1    3    3    0    0 -0.20917975678E+02 -0.17935026875E+02 -0.18356993930E+02  0.33109003638E+02  0.51100000000E-03 0. -1.
        -11    1    3    3    0    0 -0.63538110162E+01 -0.11399413088E+01 -0.10666424491E+02  0.12467677903E+02  0.51100000000E-03 0.  1.
        -12    1    3    3    0    0  0.26902545684E+02  0.20195953831E+02  0.29025811040E+02  0.44431083961E+02  0.00000000000E+00 0.  1.
</event>
<event>
 7    1  0.1654239E-015  0.9000771E+02  0.7816164E-02  0.1186339E+00
        -11   -1    0    0    0    0  0.00000000000E+00  0.00000000000E+00  0.45593999997E+02  0.45594000000E+02  0.51100000000E-03 0.  1.
         11   -1    0    0    0    0 -0.00000000000E+00 -0.00000000000E+00 -0.45593999997E+02  0.45594000000E+02  0.51100000000E-03 0. -1.
    9900012    2    1    2    0    0  0.73564093477E+00  0.91201507885E+00 -0.14195384053E+00  0.90007707671E+02  0.89999968612E+02 0.  0.
        -12    1    1    2    0    0 -0.73564093477E+00 -0.91201507885E+00  0.14195384053E+00  0.11802923290E+01  0.00000000000E+00 0.  1.
         11    1    3    3    0    0  0.47760925085E+01  0.53429742534E+01 -0.34753815051E+02  0.35485012250E+02  0.51100000000E-03 0. -1.
        -11    1    3    3    0    0  0.71376417054E+01 -0.17893471303E+00 -0.77308151064E+01  0.10523471348E+02  0.51100000000E-03 0.  1.
        -12    1    3    3    0    0 -0.11178093279E+02 -0.42520244615E+01  0.42342676317E+02  0.43999224073E+02  0.00000000000E+00 0.  1.
</event>
<event>
 7    1  0.1654239E-015  0.9000789E+02  0.7816164E-02  0.1186339E+00
        -11   -1    0    0    0    0  0.00000000000E+00  0.00000000000E+00  0.45593999997E+02  0.45594000000E+02  0.51100000000E-03 0.  1.
         11   -1    0    0    0    0 -0.00000000000E+00 -0.00000000000E+00 -0.45593999997E+02  0.45594000000E+02  0.51100000000E-03 0. -1.
    9900012    2    1    2    0    0  0.61085471393E-01 -0.10941689429E+01  0.43784988870E+00  0.90007894227E+02  0.90000157631E+02 0.  0.
        -12    1    1    2    0    0 -0.61085471393E-01  0.10941689429E+01 -0.43784988870E+00  0.11801057730E+01  0.00000000000E+00 0.  1.
         11    1    3    3    0    0  0.75356895279E+01  0.14667662838E+01 -0.40209360656E+02  0.40935689863E+02  0.51100000000E-03 0. -1.
        -11    1    3    3    0    0  0.70300841359E+01  0.45585711341E+01  0.45746074573E+01  0.95461870604E+01  0.51100000000E-03 0.  1.
        -12    1    3    3    0    0 -0.14504688192E+02 -0.71195063609E+01  0.36072603087E+02  0.39526017303E+02  0.00000000000E+00 0.  1.
</event>
<event>
 7    1  0.1654239E-015  0.9000768E+02  0.7816164E-02  0.1186339E+00
        -11   -1    0    0    0    0  0.00000000000E+00  0.00000000000E+00  0.45593999997E+02  0.45594000000E+02  0.51100000000E-03 0. -1.
         11   -1    0    0    0    0 -0.00000000000E+00 -0.00000000000E+00 -0.45593999997E+02  0.45594000000E+02  0.51100000000E-03 0.  1.
    9900012    2    1    2    0    0  0.96761149748E+00  0.44650874965E+00  0.50746384737E+00  0.90007677320E+02  0.89999937860E+02 0.  0.
        -12    1    1    2    0    0 -0.96761149748E+00 -0.44650874965E+00 -0.50746384737E+00  0.11803226804E+01  0.00000000000E+00 0.  1.
         11    1    3    3    0    0 -0.23427974034E+02 -0.73032554804E+01  0.26241076245E+02  0.35927727325E+02  0.51100000000E-03 0. -1.
        -11    1    3    3    0    0 -0.31622160976E+01 -0.76055165048E+01  0.53262786942E+01  0.98088091500E+01  0.51100000000E-03 0.  1.
        -12    1    3    3    0    0  0.27557801629E+02  0.15355280735E+02 -0.31059891092E+02  0.44271140845E+02  0.00000000000E+00 0.  1.
</event>
<event>
 7    1  0.1654239E-015  0.9000769E+02  0.7816164E-02  0.1186339E+00
        -11   -1    0    0    0    0  0.00000000000E+00  0.00000000000E+00  0.45593999997E+02  0.45594000000E+02  0.51100000000E-03 0.  1.
         11   -1    0    0    0    0 -0.00000000000E+00 -0.00000000000E+00 -0.45593999997E+02  0.45594000000E+02  0.51100000000E-03 0. -1.
    9900012    2    1    2    0    0  0.37332956830E+00  0.11172159650E+01 -0.74789378502E-01  0.90007686512E+02  0.89999947174E+02 0.  0.
        -12    1    1    2    0    0 -0.37332956830E+00 -0.11172159650E+01  0.74789378502E-01  0.11803134881E+01  0.00000000000E+00 0.  1.
         11    1    3    3    0    0  0.25096108701E+02  0.19679118008E+02 -0.19700504125E+02  0.37485893621E+02  0.51100000000E-03 0. -1.
        -11    1    3    3    0    0  0.60749492276E+01  0.61105285364E+01  0.39983859853E+00  0.86257427667E+01  0.51100000000E-03 0.  1.
        -12    1    3    3    0    0 -0.30797728360E+02 -0.24672430579E+02  0.19225876148E+02  0.43896050124E+02  0.00000000000E+00 0.  1.
</event>
<event>
 7    1  0.1654239E-015  0.9000766E+02  0.7816164E-02  0.1186339E+00
        -11   -1    0    0    0    0  0.00000000000E+00  0.00000000000E+00  0.45593999997E+02  0.45594000000E+02  0.51100000000E-03 0.  1.
         11   -1    0    0    0    0 -0.00000000000E+00 -0.00000000000E+00 -0.45593999997E+02  0.45594000000E+02  0.51100000000E-03 0. -1.
    9900012    2    1    2    0    0 -0.39853329482E+00  0.15073505238E+00 -0.11007513785E+01  0.90007659608E+02  0.89999919915E+02 0.  0.
        -12    1    1    2    0    0  0.39853329482E+00 -0.15073505238E+00  0.11007513785E+01  0.11803403918E+01  0.00000000000E+00 0.  1.
         11    1    3    3    0    0  0.21973172847E+02 -0.85100528364E+01 -0.27898052745E+02  0.36517703535E+02  0.51100000000E-03 0. -1.
        -11    1    3    3    0    0  0.23415893155E+01 -0.35356316344E+01 -0.80280733658E+01  0.90793002926E+01  0.51100000000E-03 0.  1.
        -12    1    3    3    0    0 -0.24713295458E+02  0.12196419523E+02  0.34825374733E+02  0.44410655780E+02  0.00000000000E+00 0.  1.
</event>
<event>
 7    1  0.1654239E-015  0.9000776E+02  0.7816164E-02  0.1186339E+00
        -11   -1    0    0    0    0  0.00000000000E+00  0.00000000000E+00  0.45593999997E+02  0.45594000000E+02  0.51100000000E-03 0. -1.
         11   -1    0    0    0    0 -0.00000000000E+00 -0.00000000000E+00 -0.45593999997E+02  0.45594000000E+02  0.51100000000E-03 0.  1.
    9900012    2    1    2    0    0  0.93026138994E+00 -0.45866675648E+00  0.56321551205E+00  0.90007757161E+02  0.90000018755E+02 0.  0.
        -12    1    1    2    0    0 -0.93026138994E+00  0.45866675648E+00 -0.56321551205E+00  0.11802428395E+01  0.00000000000E+00 0.  1.
         11    1    3    3    0    0 -0.11183110161E+02  0.49239449808E+01 -0.49364318858E+01  0.13178601864E+02  0.51100000000E-03 0. -1.
        -11    1    3    3    0    0 -0.65367827699E+01 -0.15243792927E+02 -0.30720997391E+02  0.34912496799E+02  0.51100000000E-03 0.  1.
         12    1    3    3    0    0  0.18650154321E+02  0.98611811896E+01  0.36220644789E+02  0.41916658498E+02  0.00000000000E+00 0. -1.
</event>
<event>
 7    1  0.1654239E-015  0.9000778E+02  0.7816164E-02  0.1186339E+00
        -11   -1    0    0    0    0  0.00000000000E+00  0.00000000000E+00  0.45593999997E+02  0.45594000000E+02  0.51100000000E-03 0.  1.
         11   -1    0    0    0    0 -0.00000000000E+00 -0.00000000000E+00 -0.45593999997E+02  0.45594000000E+02  0.51100000000E-03 0. -1.
    9900012    2    1    2    0    0 -0.22723338077E+00  0.16781417182E+00 -0.11459190178E+01  0.90007776716E+02  0.90000038568E+02 0.  0.
        -12    1    1    2    0    0  0.22723338077E+00 -0.16781417182E+00  0.11459190178E+01  0.11802232844E+01  0.00000000000E+00 0.  1.
         11    1    3    3    0    0 -0.47157706749E+01 -0.55201390306E+01 -0.38655723687E+02  0.39331608180E+02  0.51100000000E-03 0. -1.
        -11    1    3    3    0    0 -0.13829845787E+01  0.63668667924E+01 -0.47132508862E+01  0.80414161237E+01  0.51100000000E-03 0.  1.
        -12    1    3    3    0    0  0.58715218729E+01 -0.67891359001E+00  0.42223055556E+02  0.42634752412E+02  0.00000000000E+00 0.  1.
</event>
<event>
 7    1  0.1654239E-015  0.9000774E+02  0.7816164E-02  0.1186339E+00
        -11   -1    0    0    0    0  0.00000000000E+00  0.00000000000E+00  0.45593999997E+02  0.45594000000E+02  0.51100000000E-03 0. -1.
         11   -1    0    0    0    0 -0.00000000000E+00 -0.00000000000E+00 -0.45593999997E+02  0.45594000000E+02  0.51100000000E-03 0.  1.
    9900012    2    1    2    0    0  0.10171204472E+01 -0.50417545912E+00  0.32293601357E+00  0.90007739619E+02  0.90000000982E+02 0.  0.
        -12    1    1    2    0    0 -0.10171204472E+01  0.50417545912E+00 -0.32293601357E+00  0.11802603808E+01  0.00000000000E+00 0.  1.
         11    1    3    3    0    0  0.32838646145E+01 -0.18877390970E+01 -0.83733092137E+01  0.91901922262E+01  0.51100000000E-03 0. -1.
        -11    1    3    3    0    0  0.28651143160E+02 -0.17862249254E+02 -0.15440873789E+02  0.37126385986E+02  0.51100000000E-03 0.  1.
         12    1    3    3    0    0 -0.30917887327E+02  0.19245812892E+02  0.24137119016E+02  0.43691161407E+02  0.00000000000E+00 0. -1.
</event>
<event>
 7    1  0.1654239E-015  0.9000798E+02  0.7816164E-02  0.1186339E+00
        -11   -1    0    0    0    0  0.00000000000E+00  0.00000000000E+00  0.45593999997E+02  0.45594000000E+02  0.51100000000E-03 0.  1.
         11   -1    0    0    0    0 -0.00000000000E+00 -0.00000000000E+00 -0.45593999997E+02  0.45594000000E+02  0.51100000000E-03 0. -1.
    9900012    2    1    2    0    0  0.57015686782E+00  0.58280977151E+00 -0.85305356937E+00  0.90007980307E+02  0.90000244847E+02 0.  0.
        -12    1    1    2    0    0 -0.57015686782E+00 -0.58280977151E+00  0.85305356937E+00  0.11800196930E+01  0.00000000000E+00 0.  1.
         11    1    3    3    0    0 -0.17918291244E+02  0.34727779198E+02 -0.41129110643E+01  0.39293763460E+02  0.51100000000E-03 0. -1.
        -11    1    3    3    0    0  0.64688110721E+01 -0.35909956314E+01 -0.12320927742E+02  0.14371709258E+02  0.51100000000E-03 0.  1.
        -12    1    3    3    0    0  0.12019637040E+02 -0.30553973795E+02  0.15580785237E+02  0.36342507589E+02  0.00000000000E+00 0.  1.
</event>
<event>
 7    1  0.1654239E-015  0.9000778E+02  0.7816164E-02  0.1186339E+00
        -11   -1    0    0    0    0  0.00000000000E+00  0.00000000000E+00  0.45593999997E+02  0.45594000000E+02  0.51100000000E-03 0. -1.
         11   -1    0    0    0    0 -0.00000000000E+00 -0.00000000000E+00 -0.45593999997E+02  0.45594000000E+02  0.51100000000E-03 0.  1.
    9900012    2    1    2    0    0 -0.14162218378E+00 -0.11599670884E+01 -0.16532327552E+00  0.90007782955E+02  0.90000044889E+02 0.  0.
        -12    1    1    2    0    0  0.14162218378E+00  0.11599670884E+01  0.16532327552E+00  0.11802170455E+01  0.00000000000E+00 0.  1.
         11    1    3    3    0    0 -0.63507048126E+01  0.10769487292E+01 -0.76570349751E+01  0.10006070910E+02  0.51100000000E-03 0. -1.
        -11    1    3    3    0    0 -0.22456808382E+02  0.28371552715E+02 -0.43036157061E+01  0.36438638210E+02  0.51100000000E-03 0.  1.
         12    1    3    3    0    0  0.28665891011E+02 -0.30608468533E+02  0.11795327406E+02  0.43563073835E+02  0.00000000000E+00 0. -1.
</event>
<event>
 7    1  0.1654239E-015  0.9000779E+02  0.7816164E-02  0.1186339E+00
        -11   -1    0    0    0    0  0.00000000000E+00  0.00000000000E+00  0.45593999997E+02  0.45594000000E+02  0.51100000000E-03 0.  1.
         11   -1    0    0    0    0 -0.00000000000E+00 -0.00000000000E+00 -0.45593999997E+02  0.45594000000E+02  0.51100000000E-03 0. -1.
    9900012    2    1    2    0    0  0.43069084465E+00 -0.79064379584E+00 -0.76306842691E+00  0.90007794238E+02  0.90000056322E+02 0.  0.
        -12    1    1    2    0    0 -0.43069084465E+00  0.79064379584E+00  0.76306842691E+00  0.11802057616E+01  0.00000000000E+00 0.  1.
         11    1    3    3    0    0 -0.29562575376E+02 -0.10354216601E+02  0.24604460335E+02  0.39831333557E+02  0.51100000000E-03 0. -1.
        -11    1    3    3    0    0 -0.18643694482E+01  0.10720646723E+02 -0.31802840627E+01  0.11336769671E+02  0.51100000000E-03 0.  1.
        -12    1    3    3    0    0  0.31857635669E+02 -0.11570739181E+01 -0.22187244700E+02  0.38839691011E+02  0.00000000000E+00 0.  1.
</event>
<event>
 7    1  0.1654239E-015  0.9000777E+02  0.7816164E-02  0.1186339E+00
        -11   -1    0    0    0    0  0.00000000000E+00  0.00000000000E+00  0.45593999997E+02  0.45594000000E+02  0.51100000000E-03 0.  1.
         11   -1    0    0    0    0 -0.00000000000E+00 -0.00000000000E+00 -0.45593999997E+02  0.45594000000E+02  0.51100000000E-03 0. -1.
    9900012    2    1    2    0    0  0.39833108688E+00  0.10591737373E+01  0.33530130573E+00  0.90007769672E+02  0.90000031432E+02 0.  0.
        -12    1    1    2    0    0 -0.39833108688E+00 -0.10591737373E+01 -0.33530130573E+00  0.11802303276E+01  0.00000000000E+00 0.  1.
         11    1    3    3    0    0 -0.15335021564E+00  0.29031772362E+02 -0.29176871055E+02  0.41160140034E+02  0.51100000000E-03 0. -1.
        -11    1    3    3    0    0  0.83227333302E+01  0.12360049276E+01  0.41012634974E+01  0.93603397803E+01  0.51100000000E-03 0.  1.
        -12    1    3    3    0    0 -0.77710520277E+01 -0.29208603553E+02  0.25410908863E+02  0.39487289858E+02  0.00000000000E+00 0.  1.
</event>
<event>
 7    1  0.1654239E-015  0.9000772E+02  0.7816164E-02  0.1186339E+00
        -11   -1    0    0    0    0  0.00000000000E+00  0.00000000000E+00  0.45593999997E+02  0.45594000000E+02  0.51100000000E-03 0. -1.
         11   -1    0    0    0    0 -0.00000000000E+00 -0.00000000000E+00 -0.45593999997E+02  0.45594000000E+02  0.51100000000E-03 0.  1.
    9900012    2    1    2    0    0  0.81161570646E+00  0.30808697487E+00  0.79964013030E+00  0.90007719535E+02  0.89999980632E+02 0.  0.
        -12    1    1    2    0    0 -0.81161570646E+00 -0.30808697487E+00 -0.79964013030E+00  0.11802804654E+01  0.00000000000E+00 0.  1.
         11    1    3    3    0    0  0.70658285104E+00  0.77006530005E+01 -0.66015241257E+01  0.10167567900E+02  0.51100000000E-03 0. -1.
        -11    1    3    3    0    0  0.27814531361E+02  0.24618570500E+02  0.41925721449E+01  0.37380473910E+02  0.51100000000E-03 0.  1.
         12    1    3    3    0    0 -0.27709498506E+02 -0.32011136526E+02  0.32085921110E+01  0.42459677724E+02  0.00000000000E+00 0. -1.
</event>
<event>
 7    1  0.1654239E-015  0.9000767E+02  0.7816164E-02  0.1186339E+00
        -11   -1    0    0    0    0  0.00000000000E+00  0.00000000000E+00  0.45593999997E+02  0.45594000000E+02  0.51100000000E-03 0. -1.
         11   -1    0    0    0    0 -0.00000000000E+00 -0.00000000000E+00 -0.45593999997E+02  0.45594000000E+02  0.51100000000E-03 0.  1.
    9900012    2    1    2    0    0  0.33475070488E+00 -0.21500583600E+00  0.11112599508E+01  0.90007667749E+02  0.89999928163E+02 0.  0.
        -12    1    1    2    0    0 -0.33475070488E+00  0.21500583600E+00 -0.11112599508E+01  0.11803322508E+01  0.00000000000E+00 0.  1.
         11    1    3    3    0    0 -0.44128711875E+01  0.46619621326E+01 -0.80423717310E+01  0.10290144137E+02  0.51100000000E-03 0. -1.
        -11    1    3    3    0    0 -0.12112638153E+02 -0.10071777701E+02 -0.31600093726E+02  0.35308959668E+02  0.51100000000E-03 0.  1.
         12    1    3    3    0    0  0.16860260045E+02  0.51948097321E+01  0.40753725408E+02  0.44408563944E+02  0.00000000000E+00 0. -1.
</event>
<event>
 7    1  0.1654239E-015  0.9000773E+02  0.7816164E-02  0.1186339E+00
        -11   -1    0    0    0    0  0.00000000000E+00  0.00000000000E+00  0.45593999997E+02  0.45594000000E+02  0.51100000000E-03 0.  1.
         11   -1    0    0    0    0 -0.00000000000E+00 -0.00000000000E+00 -0.45593999997E+02  0.45594000000E+02  0.51100000000E-03 0. -1.
    9900012    2    1    2    0    0 -0.10841685198E+01  0.30096199334E+00 -0.35643944375E+00  0.90007725211E+02  0.89999986384E+02 0.  0.
        -12    1    1    2    0    0  0.10841685198E+01 -0.30096199334E+00  0.35643944375E+00  0.11802747891E+01  0.00000000000E+00 0.  1.
         11    1    3    3    0    0 -0.80643208604E+01 -0.33732166973E+01 -0.16296434383E+01  0.88919963913E+01  0.51100000000E-03 0. -1.
        -11    1    3    3    0    0 -0.14032626485E+02 -0.33041677168E+02  0.11310566243E+02  0.37637693143E+02  0.51100000000E-03 0.  1.
         12    1    3    3    0    0  0.21012778825E+02  0.36715855858E+02 -0.10037362249E+02  0.43478035677E+02  0.00000000000E+00 0. -1.
</event>
<event>
 7    1  0.1654239E-015  0.9000776E+02  0.7816164E-02  0.1186339E+00
        -11   -1    0    0    0    0  0.00000000000E+00  0.00000000000E+00  0.45593999997E+02  0.45594000000E+02  0.51100000000E-03 0.  1.
         11   -1    0    0    0    0 -0.00000000000E+00 -0.00000000000E+00 -0.45593999997E+02  0.45594000000E+02  0.51100000000E-03 0. -1.
    9900012    2    1    2    0    0  0.61167191391E+00  0.69829237385E+00  0.72884564800E+00  0.90007758182E+02  0.90000019790E+02 0.  0.
        -12    1    1    2    0    0 -0.61167191391E+00 -0.69829237385E+00 -0.72884564800E+00  0.11802418177E+01  0.00000000000E+00 0.  1.
         11    1    3    3    0    0  0.16163986216E+02 -0.70121683658E+01 -0.18426368723E+02  0.25494627280E+02  0.51100000000E-03 0. -1.
        -11    1    3    3    0    0  0.21246808255E+02  0.11527960577E+02  0.38577109884E+01  0.24478616596E+02  0.51100000000E-03 0.  1.
         12    1    3    3    0    0 -0.36799122557E+02 -0.38174998377E+01  0.15297503383E+02  0.40034514306E+02  0.00000000000E+00 0. -1.
</event>
<event>
 7    1  0.1654239E-015  0.9000775E+02  0.7816164E-02  0.1186339E+00
        -11   -1    0    0    0    0  0.00000000000E+00  0.00000000000E+00  0.45593999997E+02  0.45594000000E+02  0.51100000000E-03 0. -1.
         11   -1    0    0    0    0 -0.00000000000E+00 -0.00000000000E+00 -0.45593999997E+02  0.45594000000E+02  0.51100000000E-03 0.  1.
    9900012    2    1    2    0    0 -0.82216016749E+00  0.93528838091E-01  0.84160228686E+00  0.90007750283E+02  0.90000011787E+02 0.  0.
        -12    1    1    2    0    0  0.82216016749E+00 -0.93528838091E-01 -0.84160228686E+00  0.11802497167E+01  0.00000000000E+00 0.  1.
         11    1    3    3    0    0  0.31259195090E+02  0.77622811277E+01  0.10307170078E+02  0.33817570008E+02  0.51100000000E-03 0. -1.
        -11    1    3    3    0    0 -0.81025303532E+01  0.37406900621E+00 -0.25152914839E+02  0.26428394785E+02  0.51100000000E-03 0.  1.
         12    1    3    3    0    0 -0.23978824904E+02 -0.80428212958E+01  0.15687347047E+02  0.29761785490E+02  0.00000000000E+00 0. -1.
</event>
<event>
 7    1  0.1654239E-015  0.9000719E+02  0.7816164E-02  0.1186340E+00
        -11   -1    0    0    0    0  0.00000000000E+00  0.00000000000E+00  0.45593999997E+02  0.45594000000E+02  0.51100000000E-03 0. -1.
         11   -1    0    0    0    0 -0.00000000000E+00 -0.00000000000E+00 -0.45593999997E+02  0.45594000000E+02  0.51100000000E-03 0.  1.
    9900012    2    1    2    0    0 -0.54411580597E+00  0.11482946793E+00  0.10416698674E+01  0.90007185057E+02  0.89999439098E+02 0.  0.
        -12    1    1    2    0    0  0.54411580597E+00 -0.11482946793E+00 -0.10416698674E+01  0.11808149430E+01  0.00000000000E+00 0.  1.
         11    1    3    3    0    0 -0.13609285054E+02  0.32373441910E+02 -0.16519316358E+01  0.35156525129E+02  0.51100000000E-03 0. -1.
        -11    1    3    3    0    0 -0.64689293600E+01  0.73234373992E+01  0.43136434263E+01  0.10681165773E+02  0.51100000000E-03 0.  1.
        -12    1    3    3    0    0  0.19534098608E+02 -0.39582049841E+02 -0.16200419232E+01  0.44169494155E+02  0.00000000000E+00 0.  1.
</event>
<event>
 7    1  0.1654239E-015  0.9000772E+02  0.7816164E-02  0.1186339E+00
        -11   -1    0    0    0    0  0.00000000000E+00  0.00000000000E+00  0.45593999997E+02  0.45594000000E+02  0.51100000000E-03 0.  1.
         11   -1    0    0    0    0 -0.00000000000E+00 -0.00000000000E+00 -0.45593999997E+02  0.45594000000E+02  0.51100000000E-03 0. -1.
    9900012    2    1    2    0    0  0.16657488129E+00 -0.39806300860E+00 -0.10985715609E+01  0.90007720023E+02  0.89999981127E+02 0.  0.
        -12    1    1    2    0    0 -0.16657488129E+00  0.39806300860E+00  0.10985715609E+01  0.11802799771E+01  0.00000000000E+00 0.  1.
         11    1    3    3    0    0  0.67420753138E+01  0.27278576947E+02 -0.27769431850E+02  0.39505919624E+02  0.51100000000E-03 0. -1.
        -11    1    3    3    0    0 -0.11713269280E+00  0.71222774288E+01  0.21369553022E+01  0.74368766337E+01  0.51100000000E-03 0.  1.
        -12    1    3    3    0    0 -0.64583677397E+01 -0.34798917385E+02  0.24533904987E+02  0.43064923765E+02  0.00000000000E+00 0.  1.
</event>
<event>
 7    1  0.1654239E-015  0.9000778E+02  0.7816164E-02  0.1186339E+00
        -11   -1    0    0    0    0  0.00000000000E+00  0.00000000000E+00  0.45593999997E+02  0.45594000000E+02  0.51100000000E-03 0.  1.
         11   -1    0    0    0    0 -0.00000000000E+00 -0.00000000000E+00 -0.45593999997E+02  0.45594000000E+02  0.51100000000E-03 0. -1.
    9900012    2    1    2    0    0  0.75064431701E+00  0.19447509104E+00 -0.88973461173E+00  0.90007781744E+02  0.90000043663E+02 0.  0.
        -12    1    1    2    0    0 -0.75064431701E+00 -0.19447509104E+00  0.88973461173E+00  0.11802182557E+01  0.00000000000E+00 0.  1.
         11    1    3    3    0    0 -0.35176774358E+02  0.21458871436E+02 -0.12808453646E+02  0.43150261906E+02  0.51100000000E-03 0. -1.
        -11    1    3    3    0    0  0.19848871229E+01 -0.77074444847E+01  0.56830024589E+01  0.97796213927E+01  0.51100000000E-03 0.  1.
        -12    1    3    3    0    0  0.33942531552E+02 -0.13556951860E+02  0.62357165754E+01  0.37077898445E+02  0.00000000000E+00 0.  1.
</event>
<event>
 7    1  0.1654239E-015  0.9000782E+02  0.7816164E-02  0.1186339E+00
        -11   -1    0    0    0    0  0.00000000000E+00  0.00000000000E+00  0.45593999997E+02  0.45594000000E+02  0.51100000000E-03 0. -1.
         11   -1    0    0    0    0 -0.00000000000E+00 -0.00000000000E+00 -0.45593999997E+02  0.45594000000E+02  0.51100000000E-03 0.  1.
    9900012    2    1    2    0    0 -0.46319822434E+00  0.48986445156E+00 -0.96866603399E+00  0.90007816260E+02  0.90000078634E+02 0.  0.
        -12    1    1    2    0    0  0.46319822434E+00 -0.48986445156E+00  0.96866603399E+00  0.11801837405E+01  0.00000000000E+00 0.  1.
         11    1    3    3    0    0  0.22951599330E+02 -0.13824496139E+02  0.29680573225E+02  0.39985360227E+02  0.51100000000E-03 0. -1.
        -11    1    3    3    0    0 -0.13863934504E+01 -0.44581336662E+01  0.30683388767E+01  0.55867473818E+01  0.51100000000E-03 0.  1.
        -12    1    3    3    0    0 -0.22028404104E+02  0.18772494257E+02 -0.33717578135E+02  0.44435708651E+02  0.00000000000E+00 0.  1.
</event>
<event>
 7    1  0.1654239E-015  0.9000783E+02  0.7816164E-02  0.1186339E+00
        -11   -1    0    0    0    0  0.00000000000E+00  0.00000000000E+00  0.45593999997E+02  0.45594000000E+02  0.51100000000E-03 0.  1.
         11   -1    0    0    0    0 -0.00000000000E+00 -0.00000000000E+00 -0.45593999997E+02  0.45594000000E+02  0.51100000000E-03 0. -1.
    9900012    2    1    2    0    0  0.69179842485E+00 -0.40301753301E-01 -0.95529201721E+00  0.90007833855E+02  0.90000096462E+02 0.  0.
        -12    1    1    2    0    0 -0.69179842485E+00  0.40301753301E-01  0.95529201721E+00  0.11801661451E+01  0.00000000000E+00 0.  1.
         11    1    3    3    0    0  0.11069214989E+01  0.83449398332E+01 -0.52989593142E+01  0.99469727103E+01  0.51100000000E-03 0. -1.
        -11    1    3    3    0    0 -0.12128852384E+02  0.33930427228E+02  0.22931783271E+01  0.36105977609E+02  0.51100000000E-03 0.  1.
         12    1    3    3    0    0  0.11713729310E+02 -0.42315668815E+02  0.20504889698E+01  0.43954883535E+02  0.00000000000E+00 0. -1.
</event>
<event>
 7    1  0.1654239E-015  0.9000806E+02  0.7816164E-02  0.1186338E+00
        -11   -1    0    0    0    0  0.00000000000E+00  0.00000000000E+00  0.45593999997E+02  0.45594000000E+02  0.51100000000E-03 0.  1.
         11   -1    0    0    0    0 -0.00000000000E+00 -0.00000000000E+00 -0.45593999997E+02  0.45594000000E+02  0.51100000000E-03 0. -1.
    9900012    2    1    2    0    0  0.19319205172E+00  0.99436288380E+00 -0.60512153843E+00  0.90008062379E+02  0.90000328002E+02 0.  0.
        -12    1    1    2    0    0 -0.19319205172E+00 -0.99436288380E+00  0.60512153843E+00  0.11799376211E+01  0.00000000000E+00 0.  1.
         11    1    3    3    0    0 -0.21266467158E+01 -0.10141171760E+02  0.30375765915E+01  0.10797817499E+02  0.51100000000E-03 0. -1.
        -11    1    3    3    0    0  0.10159008042E+02  0.13941258477E+02  0.35352247380E+02  0.39336313089E+02  0.51100000000E-03 0.  1.
         12    1    3    3    0    0 -0.78391692745E+01 -0.28057238327E+01 -0.38994945510E+02  0.39873931791E+02  0.00000000000E+00 0. -1.
</event>
<event>
 7    1  0.1654239E-015  0.9000767E+02  0.7816164E-02  0.1186339E+00
        -11   -1    0    0    0    0  0.00000000000E+00  0.00000000000E+00  0.45593999997E+02  0.45594000000E+02  0.51100000000E-03 0.  1.
         11   -1    0    0    0    0 -0.00000000000E+00 -0.00000000000E+00 -0.45593999997E+02  0.45594000000E+02  0.51100000000E-03 0. -1.
    9900012    2    1    2    0    0  0.52370074879E+00 -0.49476978662E+00 -0.93494604311E+00  0.90007667962E+02  0.89999928379E+02 0.  0.
        -12    1    1    2    0    0 -0.52370074879E+00  0.49476978662E+00  0.93494604311E+00  0.11803320378E+01  0.00000000000E+00 0.  1.
         11    1    3    3    0    0 -0.39532437328E+01  0.51071886638E+01 -0.76360786835E+01  0.10001060443E+02  0.51100000000E-03 0. -1.
        -11    1    3    3    0    0 -0.11245265695E+02 -0.31147834754E+02 -0.20969736677E+02  0.39196600196E+02  0.51100000000E-03 0.  1.
         12    1    3    3    0    0  0.15722210176E+02  0.25545876303E+02  0.27670869317E+02  0.40810007323E+02  0.00000000000E+00 0. -1.
</event>
<event>
 7    1  0.1654239E-015  0.9000819E+02  0.7816164E-02  0.1186338E+00
        -11   -1    0    0    0    0  0.00000000000E+00  0.00000000000E+00  0.45593999997E+02  0.45594000000E+02  0.51100000000E-03 0.  1.
         11   -1    0    0    0    0 -0.00000000000E+00 -0.00000000000E+00 -0.45593999997E+02  0.45594000000E+02  0.51100000000E-03 0. -1.
    9900012    2    1    2    0    0 -0.32085910358E+00 -0.14949312823E+00 -0.11254540898E+01  0.90008192529E+02  0.90000459869E+02 0.  0.
        -12    1    1    2    0    0  0.32085910358E+00  0.14949312823E+00  0.11254540898E+01  0.11798074707E+01  0.00000000000E+00 0.  1.
         11    1    3    3    0    0 -0.26158314676E+02 -0.24783121322E+02 -0.22183209720E+02  0.42314953892E+02  0.51100000000E-03 0. -1.
        -11    1    3    3    0    0  0.81912021104E+01  0.16032767982E+01 -0.40928378251E+01  0.92961072621E+01  0.51100000000E-03 0.  1.
        -12    1    3    3    0    0  0.17646253462E+02  0.23030351396E+02  0.25150593455E+02  0.38397131375E+02  0.00000000000E+00 0.  1.
</event>
<event>
 7    1  0.1654239E-015  0.9000772E+02  0.7816164E-02  0.1186339E+00
        -11   -1    0    0    0    0  0.00000000000E+00  0.00000000000E+00  0.45593999997E+02  0.45594000000E+02  0.51100000000E-03 0. -1.
         11   -1    0    0    0    0 -0.00000000000E+00 -0.00000000000E+00 -0.45593999997E+02  0.45594000000E+02  0.51100000000E-03 0.  1.
    9900012    2    1    2    0    0  0.52420550214E+00 -0.99927784713E+00  0.34601218189E+00  0.90007715266E+02  0.89999976307E+02 0.  0.
        -12    1    1    2    0    0 -0.52420550214E+00  0.99927784713E+00 -0.34601218189E+00  0.11802847344E+01  0.00000000000E+00 0.  1.
         11    1    3    3    0    0  0.19723342709E+02 -0.33007426605E+02  0.82962778204E-01  0.38451363329E+02  0.51100000000E-03 0. -1.
        -11    1    3    3    0    0 -0.16217111722E+01 -0.74538231435E+01  0.31662681914E+01  0.82592179474E+01  0.51100000000E-03 0.  1.
        -12    1    3    3    0    0 -0.17577426035E+02  0.39461971902E+02 -0.29032187877E+01  0.43297133990E+02  0.00000000000E+00 0.  1.
</event>
<event>
 7    1  0.1654239E-015  0.9000770E+02  0.7816164E-02  0.1186339E+00
        -11   -1    0    0    0    0  0.00000000000E+00  0.00000000000E+00  0.45593999997E+02  0.45594000000E+02  0.51100000000E-03 0. -1.
         11   -1    0    0    0    0 -0.00000000000E+00 -0.00000000000E+00 -0.45593999997E+02  0.45594000000E+02  0.51100000000E-03 0.  1.
    9900012    2    1    2    0    0 -0.14410465097E+00  0.79902936592E+00  0.85667630611E+00  0.90007699881E+02  0.89999960719E+02 0.  0.
        -12    1    1    2    0    0  0.14410465097E+00 -0.79902936592E+00 -0.85667630611E+00  0.11803001192E+01  0.00000000000E+00 0.  1.
         11    1    3    3    0    0 -0.47974736702E+01 -0.49786201713E+01 -0.67181937295E+01  0.96403599349E+01  0.51100000000E-03 0. -1.
        -11    1    3    3    0    0  0.11306920098E+01 -0.37027296621E+02  0.42930846832E+01  0.37292489000E+02  0.51100000000E-03 0.  1.
         12    1    3    3    0    0  0.35226770094E+01  0.42804946158E+02  0.32817853525E+01  0.43074850946E+02  0.00000000000E+00 0. -1.
</event>
<event>
 7    1  0.1654239E-015  0.9000776E+02  0.7816164E-02  0.1186339E+00
        -11   -1    0    0    0    0  0.00000000000E+00  0.00000000000E+00  0.45593999997E+02  0.45594000000E+02  0.51100000000E-03 0.  1.
         11   -1    0    0    0    0 -0.00000000000E+00 -0.00000000000E+00 -0.45593999997E+02  0.45594000000E+02  0.51100000000E-03 0. -1.
    9900012    2    1    2    0    0 -0.11062556355E+00 -0.10593297280E+01  0.50847423448E+00  0.90007761238E+02  0.90000022886E+02 0.  0.
        -12    1    1    2    0    0  0.11062556355E+00  0.10593297280E+01 -0.50847423448E+00  0.11802387619E+01  0.00000000000E+00 0.  1.
         11    1    3    3    0    0 -0.23279238791E+02 -0.25062394436E+02 -0.19946969388E+02  0.39597072639E+02  0.51100000000E-03 0. -1.
        -11    1    3    3    0    0 -0.45396142956E+01  0.61032196261E+01 -0.46867986478E+01  0.89343981097E+01  0.51100000000E-03 0.  1.
        -12    1    3    3    0    0  0.27708227523E+02  0.17899845082E+02  0.25142242270E+02  0.41476290490E+02  0.00000000000E+00 0.  1.
</event>
<event>
 7    1  0.1654239E-015  0.9000776E+02  0.7816164E-02  0.1186339E+00
        -11   -1    0    0    0    0  0.00000000000E+00  0.00000000000E+00  0.45593999997E+02  0.45594000000E+02  0.51100000000E-03 0.  1.
         11   -1    0    0    0    0 -0.00000000000E+00 -0.00000000000E+00 -0.45593999997E+02  0.45594000000E+02  0.51100000000E-03 0. -1.
    9900012    2    1    2    0    0 -0.10477738184E+01 -0.49376571837E+00 -0.22658036669E+00  0.90007757134E+02  0.90000018729E+02 0.  0.
        -12    1    1    2    0    0  0.10477738184E+01  0.49376571837E+00  0.22658036669E+00  0.11802428655E+01  0.00000000000E+00 0.  1.
         11    1    3    3    0    0 -0.10492093384E+02  0.39595663994E+02 -0.53493617710E+00  0.40965678167E+02  0.51100000000E-03 0. -1.
        -11    1    3    3    0    0  0.53521114100E+01 -0.52184857283E+00 -0.67624346597E+01  0.86399042394E+01  0.51100000000E-03 0.  1.
        -12    1    3    3    0    0  0.40922081558E+01 -0.39567581140E+02  0.70707904701E+01  0.40402174728E+02  0.00000000000E+00 0.  1.
</event>
<event>
 7    1  0.1654239E-015  0.9000775E+02  0.7816164E-02  0.1186339E+00
        -11   -1    0    0    0    0  0.00000000000E+00  0.00000000000E+00  0.45593999997E+02  0.45594000000E+02  0.51100000000E-03 0. -1.
         11   -1    0    0    0    0 -0.00000000000E+00 -0.00000000000E+00 -0.45593999997E+02  0.45594000000E+02  0.51100000000E-03 0.  1.
    9900012    2    1    2    0    0  0.50457442874E+00  0.62823642162E+00  0.86238776066E+00  0.90007750448E+02  0.90000011954E+02 0.  0.
        -12    1    1    2    0    0 -0.50457442874E+00 -0.62823642162E+00 -0.86238776066E+00  0.11802495521E+01  0.00000000000E+00 0.  1.
         11    1    3    3    0    0  0.65865475872E+01 -0.30820388709E+02  0.22568920558E+02  0.38763838106E+02  0.51100000000E-03 0. -1.
        -11    1    3    3    0    0  0.11464641293E+02  0.61320627001E+01  0.90460449305E+00  0.13032977499E+02  0.51100000000E-03 0.  1.
        -12    1    3    3    0    0 -0.17546614452E+02  0.25316562430E+02 -0.22611137290E+02  0.38210934843E+02  0.00000000000E+00 0.  1.
</event>
<event>
 7    1  0.1654239E-015  0.9000759E+02  0.7816164E-02  0.1186339E+00
        -11   -1    0    0    0    0  0.00000000000E+00  0.00000000000E+00  0.45593999997E+02  0.45594000000E+02  0.51100000000E-03 0.  1.
         11   -1    0    0    0    0 -0.00000000000E+00 -0.00000000000E+00 -0.45593999997E+02  0.45594000000E+02  0.51100000000E-03 0. -1.
    9900012    2    1    2    0    0  0.35941239962E+00 -0.18293257000E+00 -0.11093809445E+01  0.90007590038E+02  0.89999849426E+02 0.  0.
        -12    1    1    2    0    0 -0.35941239962E+00  0.18293257000E+00  0.11093809445E+01  0.11804099619E+01  0.00000000000E+00 0.  1.
         11    1    3    3    0    0 -0.43664716416E+01  0.21201920578E+02 -0.78189633111E+00  0.21660998891E+02  0.51100000000E-03 0. -1.
        -11    1    3    3    0    0  0.71909317242E+01 -0.61758440194E+01  0.31548762161E+02  0.32941993604E+02  0.51100000000E-03 0.  1.
         12    1    3    3    0    0 -0.24650476830E+01 -0.15209009129E+02 -0.31876246775E+02  0.35404597543E+02  0.00000000000E+00 0. -1.
</event>
<event>
 7    1  0.1654239E-015  0.9000771E+02  0.7816164E-02  0.1186339E+00
        -11   -1    0    0    0    0  0.00000000000E+00  0.00000000000E+00  0.45593999997E+02  0.45594000000E+02  0.51100000000E-03 0. -1.
         11   -1    0    0    0    0 -0.00000000000E+00 -0.00000000000E+00 -0.45593999997E+02  0.45594000000E+02  0.51100000000E-03 0.  1.
    9900012    2    1    2    0    0 -0.61885271519E+00 -0.21709257257E+00  0.98131309687E+00  0.90007710518E+02  0.89999971496E+02 0.  0.
        -12    1    1    2    0    0  0.61885271519E+00  0.21709257257E+00 -0.98131309687E+00  0.11802894824E+01  0.00000000000E+00 0.  1.
         11    1    3    3    0    0  0.12032782708E+02  0.28968835957E+01  0.35880088578E+02  0.37954717110E+02  0.51100000000E-03 0. -1.
        -11    1    3    3    0    0  0.43412157937E+01  0.84804300205E+01  0.20670105695E+01  0.97486604647E+01  0.51100000000E-03 0.  1.
        -12    1    3    3    0    0 -0.16992851217E+02 -0.11594406189E+02 -0.36965786051E+02  0.42304332943E+02  0.00000000000E+00 0.  1.
</event>
<event>
 7    1  0.1654239E-015  0.9000765E+02  0.7816164E-02  0.1186339E+00
        -11   -1    0    0    0    0  0.00000000000E+00  0.00000000000E+00  0.45593999997E+02  0.45594000000E+02  0.51100000000E-03 0.  1.
         11   -1    0    0    0    0 -0.00000000000E+00 -0.00000000000E+00 -0.45593999997E+02  0.45594000000E+02  0.51100000000E-03 0. -1.
    9900012    2    1    2    0    0 -0.10219811924E+01  0.31373585774E+00 -0.50033997232E+00  0.90007654358E+02  0.89999914596E+02 0.  0.
        -12    1    1    2    0    0  0.10219811924E+01 -0.31373585774E+00  0.50033997232E+00  0.11803456417E+01  0.00000000000E+00 0.  1.
         11    1    3    3    0    0 -0.21271035581E+02  0.82890889095E+01 -0.24198516627E+02  0.33267614234E+02  0.51100000000E-03 0. -1.
        -11    1    3    3    0    0 -0.14577022441E+02 -0.31341829896E+01  0.11158800131E+01  0.14951851883E+02  0.51100000000E-03 0.  1.
        -12    1    3    3    0    0  0.34826076829E+02 -0.48411700622E+01  0.22582296641E+02  0.41788188241E+02  0.00000000000E+00 0.  1.
</event>
<event>
 7    1  0.1654239E-015  0.9000768E+02  0.7816164E-02  0.1186339E+00
        -11   -1    0    0    0    0  0.00000000000E+00  0.00000000000E+00  0.45593999997E+02  0.45594000000E+02  0.51100000000E-03 0.  1.
         11   -1    0    0    0    0 -0.00000000000E+00 -0.00000000000E+00 -0.45593999997E+02  0.45594000000E+02  0.51100000000E-03 0. -1.
    9900012    2    1    2    0    0 -0.11278624776E+01 -0.61402068862E-01 -0.34249033438E+00  0.90007684952E+02  0.89999945594E+02 0.  0.
        -12    1    1    2    0    0  0.11278624776E+01  0.61402068862E-01  0.34249033438E+00  0.11803150476E+01  0.00000000000E+00 0.  1.
         11    1    3    3    0    0 -0.10683625932E+02 -0.10521962531E+01  0.37660443736E+01  0.11376733736E+02  0.51100000000E-03 0. -1.
        -11    1    3    3    0    0 -0.50123818984E+01  0.27726701592E+02  0.24135931944E+02  0.37100366097E+02  0.51100000000E-03 0.  1.
         12    1    3    3    0    0  0.14568145353E+02 -0.26735907408E+02 -0.28244466652E+02  0.41530585120E+02  0.00000000000E+00 0. -1.
</event>
<event>
 7    1  0.1654239E-015  0.9000793E+02  0.7816164E-02  0.1186339E+00
        -11   -1    0    0    0    0  0.00000000000E+00  0.00000000000E+00  0.45593999997E+02  0.45594000000E+02  0.51100000000E-03 0. -1.
         11   -1    0    0    0    0 -0.00000000000E+00 -0.00000000000E+00 -0.45593999997E+02  0.45594000000E+02  0.51100000000E-03 0.  1.
    9900012    2    1    2    0    0 -0.25879099546E+00  0.10420708220E+01  0.48957180683E+00  0.90007930116E+02  0.90000193993E+02 0.  0.
        -12    1    1    2    0    0  0.25879099546E+00 -0.10420708220E+01 -0.48957180683E+00  0.11800698841E+01  0.00000000000E+00 0.  1.
         11    1    3    3    0    0  0.93619569900E+01  0.36917656348E+02  0.14035149574E+02  0.40589961970E+02  0.51100000000E-03 0. -1.
        -11    1    3    3    0    0  0.18236967882E+01 -0.20439892649E+01  0.74854552174E+01  0.79709348362E+01  0.51100000000E-03 0.  1.
        -12    1    3    3    0    0 -0.11444444774E+02 -0.33831596261E+02 -0.21031032984E+02  0.41447033309E+02  0.00000000000E+00 0.  1.
</event>
<event>
 7    1  0.1654239E-015  0.9000768E+02  0.7816164E-02  0.1186339E+00
        -11   -1    0    0    0    0  0.00000000000E+00  0.00000000000E+00  0.45593999997E+02  0.45594000000E+02  0.51100000000E-03 0.  1.
         11   -1    0    0    0    0 -0.00000000000E+00 -0.00000000000E+00 -0.45593999997E+02  0.45594000000E+02  0.51100000000E-03 0. -1.
    9900012    2    1    2    0    0  0.10679398679E+01 -0.49019170010E+00  0.11120376939E+00  0.90007682355E+02  0.89999942962E+02 0.  0.
        -12    1    1    2    0    0 -0.10679398679E+01  0.49019170010E+00 -0.11120376939E+00  0.11803176448E+01  0.00000000000E+00 0.  1.
         11    1    3    3    0    0 -0.11486624167E+02 -0.73843918324E+01  0.52628516107E+01  0.14634527147E+02  0.51100000000E-03 0. -1.
        -11    1    3    3    0    0  0.32848463543E+02 -0.42422917925E+01  0.21947425001E+02  0.39732959382E+02  0.51100000000E-03 0.  1.
         12    1    3    3    0    0 -0.20293899508E+02  0.11136491925E+02 -0.27099072842E+02  0.35640195827E+02  0.00000000000E+00 0. -1.
</event>
<event>
 7    1  0.1654239E-015  0.9000775E+02  0.7816164E-02  0.1186339E+00
        -11   -1    0    0    0    0  0.00000000000E+00  0.00000000000E+00  0.45593999997E+02  0.45594000000E+02  0.51100000000E-03 0.  1.
         11   -1    0    0    0    0 -0.00000000000E+00 -0.00000000000E+00 -0.45593999997E+02  0.45594000000E+02  0.51100000000E-03 0. -1.
    9900012    2    1    2    0    0 -0.79529383895E+00 -0.45380475681E+00 -0.74469413042E+00  0.90007745623E+02  0.90000007065E+02 0.  0.
        -12    1    1    2    0    0  0.79529383895E+00  0.45380475681E+00  0.74469413042E+00  0.11802543774E+01  0.00000000000E+00 0.  1.
         11    1    3    3    0    0 -0.16142727094E+02  0.12475598030E+02 -0.34961257261E+02  0.40478607853E+02  0.51100000000E-03 0. -1.
        -11    1    3    3    0    0  0.33848389797E+01  0.71340385715E+01 -0.24124596455E+00  0.78999899452E+01  0.51100000000E-03 0.  1.
        -12    1    3    3    0    0  0.11962594276E+02 -0.20063441358E+02  0.34457809095E+02  0.41629147824E+02  0.00000000000E+00 0.  1.
</event>
<event>
 7    1  0.1654239E-015  0.9000758E+02  0.7816164E-02  0.1186339E+00
        -11   -1    0    0    0    0  0.00000000000E+00  0.00000000000E+00  0.45593999997E+02  0.45594000000E+02  0.51100000000E-03 0. -1.
         11   -1    0    0    0    0 -0.00000000000E+00 -0.00000000000E+00 -0.45593999997E+02  0.45594000000E+02  0.51100000000E-03 0.  1.
    9900012    2    1    2    0    0 -0.97171116506E-01  0.51889206073E+00  0.10557931738E+01  0.90007580404E+02  0.89999839665E+02 0.  0.
        -12    1    1    2    0    0  0.97171116506E-01 -0.51889206073E+00 -0.10557931738E+01  0.11804195959E+01  0.00000000000E+00 0.  1.
         11    1    3    3    0    0 -0.15985458953E+02 -0.34902205991E+02  0.16910720418E+01  0.38426014702E+02  0.51100000000E-03 0. -1.
        -11    1    3    3    0    0 -0.15557267531E+01 -0.15642981683E+01  0.92512815140E+01  0.95107057783E+01  0.51100000000E-03 0.  1.
        -12    1    3    3    0    0  0.17444014590E+02  0.36985396220E+02 -0.98865603820E+01  0.42070859924E+02  0.00000000000E+00 0.  1.
</event>
<event>
 7    1  0.1654239E-015  0.9000774E+02  0.7816164E-02  0.1186339E+00
        -11   -1    0    0    0    0  0.00000000000E+00  0.00000000000E+00  0.45593999997E+02  0.45594000000E+02  0.51100000000E-03 0. -1.
         11   -1    0    0    0    0 -0.00000000000E+00 -0.00000000000E+00 -0.45593999997E+02  0.45594000000E+02  0.51100000000E-03 0.  1.
    9900012    2    1    2    0    0  0.10875848542E+01 -0.22538985779E+00  0.39920431096E+00  0.90007743466E+02  0.90000004880E+02 0.  0.
        -12    1    1    2    0    0 -0.10875848542E+01  0.22538985779E+00 -0.39920431096E+00  0.11802565336E+01  0.00000000000E+00 0.  1.
         11    1    3    3    0    0  0.15371904931E+01  0.91438095635E+01 -0.52932605691E+01  0.10676648147E+02  0.51100000000E-03 0. -1.
        -11    1    3    3    0    0 -0.27182443683E+02  0.64303841020E+01 -0.23656123907E+02  0.36603924418E+02  0.51100000000E-03 0.  1.
         12    1    3    3    0    0  0.26732838044E+02 -0.15799583523E+02  0.29348588787E+02  0.42727170901E+02  0.00000000000E+00 0. -1.
</event>
<event>
 7    1  0.1654239E-015  0.9000774E+02  0.7816164E-02  0.1186339E+00
        -11   -1    0    0    0    0  0.00000000000E+00  0.00000000000E+00  0.45593999997E+02  0.45594000000E+02  0.51100000000E-03 0. -1.
         11   -1    0    0    0    0 -0.00000000000E+00 -0.00000000000E+00 -0.45593999997E+02  0.45594000000E+02  0.51100000000E-03 0.  1.
    9900012    2    1    2    0    0  0.96005391248E+00  0.48480838144E+00 -0.48606887461E+00  0.90007743404E+02  0.90000004817E+02 0.  0.
        -12    1    1    2    0    0 -0.96005391248E+00 -0.48480838144E+00  0.48606887461E+00  0.11802565960E+01  0.00000000000E+00 0.  1.
         11    1    3    3    0    0 -0.34597463755E+02 -0.55133092261E+01  0.18910675511E+02  0.39811992231E+02  0.51100000000E-03 0. -1.
        -11    1    3    3    0    0  0.60241064593E+01  0.97267992153E+01  0.42228489024E+01  0.12195611289E+02  0.51100000000E-03 0.  1.
        -12    1    3    3    0    0  0.29533411208E+02 -0.37286816077E+01 -0.23619593288E+02  0.38000139884E+02  0.00000000000E+00 0.  1.
</event>
<event>
 7    1  0.1654239E-015  0.9000776E+02  0.7816164E-02  0.1186339E+00
        -11   -1    0    0    0    0  0.00000000000E+00  0.00000000000E+00  0.45593999997E+02  0.45594000000E+02  0.51100000000E-03 0.  1.
         11   -1    0    0    0    0 -0.00000000000E+00 -0.00000000000E+00 -0.45593999997E+02  0.45594000000E+02  0.51100000000E-03 0. -1.
    9900012    2    1    2    0    0 -0.93277842962E+00  0.33653358211E+00 -0.64002291092E+00  0.90007762830E+02  0.90000024499E+02 0.  0.
        -12    1    1    2    0    0  0.93277842962E+00 -0.33653358211E+00  0.64002291092E+00  0.11802371699E+01  0.00000000000E+00 0.  1.
         11    1    3    3    0    0 -0.18763284038E+02 -0.33107747604E+02 -0.51678224714E+01  0.38404298830E+02  0.51100000000E-03 0. -1.
        -11    1    3    3    0    0 -0.30552893244E+01 -0.38580417220E+01  0.72533568905E+01  0.87652989239E+01  0.51100000000E-03 0.  1.
        -12    1    3    3    0    0  0.20885794933E+02  0.37302322908E+02 -0.27255573300E+01  0.42838165076E+02  0.00000000000E+00 0.  1.
</event>
<event>
 7    1  0.1654239E-015  0.9000775E+02  0.7816164E-02  0.1186339E+00
        -11   -1    0    0    0    0  0.00000000000E+00  0.00000000000E+00  0.45593999997E+02  0.45594000000E+02  0.51100000000E-03 0.  1.
         11   -1    0    0    0    0 -0.00000000000E+00 -0.00000000000E+00 -0.45593999997E+02  0.45594000000E+02  0.51100000000E-03 0. -1.
    9900012    2    1    2    0    0 -0.90336560420E+00 -0.19089873356E+00 -0.73516954686E+00  0.90007751719E+02  0.90000013242E+02 0.  0.
        -12    1    1    2    0    0  0.90336560420E+00  0.19089873356E+00  0.73516954686E+00  0.11802482806E+01  0.00000000000E+00 0.  1.
         11    1    3    3    0    0  0.22169638807E+02  0.61277235035E+01 -0.26353181609E+02  0.34979023162E+02  0.51100000000E-03 0. -1.
        -11    1    3    3    0    0  0.37242796951E+01  0.76417670836E+01 -0.66717105974E+01  0.10806414112E+02  0.51100000000E-03 0.  1.
        -12    1    3    3    0    0 -0.26797284107E+02 -0.13960389321E+02  0.32289722659E+02  0.44222314445E+02  0.00000000000E+00 0.  1.
</event>
<event>
 7    1  0.1654239E-015  0.9000890E+02  0.7816164E-02  0.1186337E+00
        -11   -1    0    0    0    0  0.00000000000E+00  0.00000000000E+00  0.45593999997E+02  0.45594000000E+02  0.51100000000E-03 0. -1.
         11   -1    0    0    0    0 -0.00000000000E+00 -0.00000000000E+00 -0.45593999997E+02  0.45594000000E+02  0.51100000000E-03 0.  1.
    9900012    2    1    2    0    0 -0.28728777078E+00  0.17799117836E-01  0.11434288814E+01  0.90008898359E+02  0.90001175010E+02 0.  0.
        -12    1    1    2    0    0  0.28728777078E+00 -0.17799117836E-01 -0.11434288814E+01  0.11791016405E+01  0.00000000000E+00 0.  1.
         11    1    3    3    0    0 -0.66808108093E+01 -0.16192138565E+02  0.33207433730E+02  0.37544004043E+02  0.51100000000E-03 0. -1.
        -11    1    3    3    0    0 -0.16388600088E+01  0.17037345028E+01  0.84047144341E+01  0.87308532438E+01  0.51100000000E-03 0.  1.
        -12    1    3    3    0    0  0.80323830474E+01  0.14506203180E+02 -0.40468719283E+02  0.43734041072E+02  0.00000000000E+00 0.  1.
</event>
<event>
 7    1  0.1654239E-015  0.9000771E+02  0.7816164E-02  0.1186339E+00
        -11   -1    0    0    0    0  0.00000000000E+00  0.00000000000E+00  0.45593999997E+02  0.45594000000E+02  0.51100000000E-03 0.  1.
         11   -1    0    0    0    0 -0.00000000000E+00 -0.00000000000E+00 -0.45593999997E+02  0.45594000000E+02  0.51100000000E-03 0. -1.
    9900012    2    1    2    0    0  0.55271833832E+00  0.88782538528E+00 -0.54714081564E+00  0.90007705737E+02  0.89999966652E+02 0.  0.
        -12    1    1    2    0    0 -0.55271833832E+00 -0.88782538528E+00  0.54714081564E+00  0.11802942635E+01  0.00000000000E+00 0.  1.
         11    1    3    3    0    0  0.34206505956E+01 -0.44545907168E+01 -0.87140226989E+01  0.10367179983E+02  0.51100000000E-03 0. -1.
        -11    1    3    3    0    0 -0.25793764033E+02  0.33179945483E+02 -0.23004038689E+01  0.42089415575E+02  0.51100000000E-03 0.  1.
         12    1    3    3    0    0  0.22925831775E+02 -0.27837529381E+02  0.10467285752E+02  0.37551110178E+02  0.00000000000E+00 0. -1.
</event>
<event>
 7    1  0.1654239E-015  0.9000784E+02  0.7816164E-02  0.1186339E+00
        -11   -1    0    0    0    0  0.00000000000E+00  0.00000000000E+00  0.45593999997E+02  0.45594000000E+02  0.51100000000E-03 0. -1.
         11   -1    0    0    0    0 -0.00000000000E+00 -0.00000000000E+00 -0.45593999997E+02  0.45594000000E+02  0.51100000000E-03 0.  1.
    9900012    2    1    2    0    0  0.11225870393E+01  0.34104647945E+00 -0.12752863326E+00  0.90007839878E+02  0.90000102564E+02 0.  0.
        -12    1    1    2    0    0 -0.11225870393E+01 -0.34104647945E+00  0.12752863326E+00  0.11801601223E+01  0.00000000000E+00 0.  1.
         11    1    3    3    0    0  0.34099795418E+01  0.23880084487E+02 -0.30376916403E+01  0.24312835424E+02  0.51100000000E-03 0. -1.
        -11    1    3    3    0    0 -0.28010500226E+02 -0.37420739290E+01  0.13811789101E+02  0.31454042008E+02  0.51100000000E-03 0.  1.
         12    1    3    3    0    0  0.25723107723E+02 -0.19796964079E+02 -0.10901626094E+02  0.34240962446E+02  0.00000000000E+00 0. -1.
</event>
<event>
 7    1  0.1654239E-015  0.9000780E+02  0.7816164E-02  0.1186339E+00
        -11   -1    0    0    0    0  0.00000000000E+00  0.00000000000E+00  0.45593999997E+02  0.45594000000E+02  0.51100000000E-03 0.  1.
         11   -1    0    0    0    0 -0.00000000000E+00 -0.00000000000E+00 -0.45593999997E+02  0.45594000000E+02  0.51100000000E-03 0. -1.
    9900012    2    1    2    0    0  0.22819146010E+00  0.93693230706E-01 -0.11541288248E+01  0.90007803784E+02  0.90000065994E+02 0.  0.
        -12    1    1    2    0    0 -0.22819146010E+00 -0.93693230706E-01  0.11541288248E+01  0.11801962160E+01  0.00000000000E+00 0.  1.
         11    1    3    3    0    0  0.15811164702E+02  0.23750195657E+02 -0.73333788555E+01  0.29459178004E+02  0.51100000000E-03 0. -1.
        -11    1    3    3    0    0 -0.14684482960E+02  0.10460704546E+02  0.16964590984E+02  0.24755963461E+02  0.51100000000E-03 0.  1.
        -12    1    3    3    0    0 -0.89849028266E+00 -0.34117206972E+02 -0.10785340953E+02  0.35792662319E+02  0.00000000000E+00 0.  1.
</event>
<event>
 7    1  0.1654239E-015  0.9000771E+02  0.7816164E-02  0.1186339E+00
        -11   -1    0    0    0    0  0.00000000000E+00  0.00000000000E+00  0.45593999997E+02  0.45594000000E+02  0.51100000000E-03 0.  1.
         11   -1    0    0    0    0 -0.00000000000E+00 -0.00000000000E+00 -0.45593999997E+02  0.45594000000E+02  0.51100000000E-03 0. -1.
    9900012    2    1    2    0    0  0.11038314721E+01  0.40998679655E+00  0.80896928990E-01  0.90007712999E+02  0.89999974010E+02 0.  0.
        -12    1    1    2    0    0 -0.11038314721E+01 -0.40998679655E+00 -0.80896928990E-01  0.11802870013E+01  0.00000000000E+00 0.  1.
         11    1    3    3    0    0  0.40574658006E+01  0.67404037176E+01 -0.32860471361E+01  0.85260880268E+01  0.51100000000E-03 0. -1.
        -11    1    3    3    0    0 -0.14362333699E+02  0.14093428729E+02  0.36051795255E+02  0.41287205088E+02  0.51100000000E-03 0.  1.
         12    1    3    3    0    0  0.11408699371E+02 -0.20423845650E+02 -0.32684851190E+02  0.40194419884E+02  0.00000000000E+00 0. -1.
</event>
<event>
 7    1  0.1654239E-015  0.9000763E+02  0.7816164E-02  0.1186339E+00
        -11   -1    0    0    0    0  0.00000000000E+00  0.00000000000E+00  0.45593999997E+02  0.45594000000E+02  0.51100000000E-03 0.  1.
         11   -1    0    0    0    0 -0.00000000000E+00 -0.00000000000E+00 -0.45593999997E+02  0.45594000000E+02  0.51100000000E-03 0. -1.
    9900012    2    1    2    0    0 -0.10388343459E+01 -0.17025136685E+00 -0.53395225063E+00  0.90007632544E+02  0.89999892493E+02 0.  0.
        -12    1    1    2    0    0  0.10388343459E+01  0.17025136685E+00  0.53395225063E+00  0.11803674563E+01  0.00000000000E+00 0.  1.
         11    1    3    3    0    0 -0.73338058462E+01  0.95486778406E+01 -0.33324040129E+02  0.35432380776E+02  0.51100000000E-03 0. -1.
        -11    1    3    3    0    0 -0.47463528730E+01  0.69019798249E+01 -0.64373921368E+01  0.10564336651E+02  0.51100000000E-03 0.  1.
        -12    1    3    3    0    0  0.11041324373E+02 -0.16620909032E+02  0.39227480015E+02  0.44010915116E+02  0.00000000000E+00 0.  1.
</event>
<event>
 7    1  0.1654239E-015  0.9000784E+02  0.7816164E-02  0.1186339E+00
        -11   -1    0    0    0    0  0.00000000000E+00  0.00000000000E+00  0.45593999997E+02  0.45594000000E+02  0.51100000000E-03 0.  1.
         11   -1    0    0    0    0 -0.00000000000E+00 -0.00000000000E+00 -0.45593999997E+02  0.45594000000E+02  0.51100000000E-03 0. -1.
    9900012    2    1    2    0    0 -0.53025998081E+00  0.68814766157E+00 -0.79878161740E+00  0.90007841145E+02  0.90000103848E+02 0.  0.
        -12    1    1    2    0    0  0.53025998081E+00 -0.68814766157E+00  0.79878161740E+00  0.11801588553E+01  0.00000000000E+00 0.  1.
         11    1    3    3    0    0 -0.43360057812E+01  0.43676471942E+01  0.53984953922E+01  0.81866379489E+01  0.51100000000E-03 0. -1.
        -11    1    3    3    0    0 -0.34274573038E+02 -0.16106557955E+02  0.90906822945E+01  0.38946220239E+02  0.51100000000E-03 0.  1.
         12    1    3    3    0    0  0.38080318838E+02  0.12427058422E+02 -0.15287959304E+02  0.42874982957E+02  0.00000000000E+00 0. -1.
</event>
<event>
 7    1  0.1654239E-015  0.9000779E+02  0.7816164E-02  0.1186339E+00
        -11   -1    0    0    0    0  0.00000000000E+00  0.00000000000E+00  0.45593999997E+02  0.45594000000E+02  0.51100000000E-03 0.  1.
         11   -1    0    0    0    0 -0.00000000000E+00 -0.00000000000E+00 -0.45593999997E+02  0.45594000000E+02  0.51100000000E-03 0. -1.
    9900012    2    1    2    0    0 -0.10443980730E+01  0.30978845471E+00 -0.45405233617E+00  0.90007788262E+02  0.90000050267E+02 0.  0.
        -12    1    1    2    0    0  0.10443980730E+01 -0.30978845471E+00  0.45405233617E+00  0.11802117376E+01  0.00000000000E+00 0.  1.
         11    1    3    3    0    0 -0.11116963368E+02 -0.24475198993E+01  0.48342461101E+01  0.12367180919E+02  0.51100000000E-03 0. -1.
        -11    1    3    3    0    0 -0.22081986244E+02 -0.22529459196E+02  0.11284978693E+02  0.33504348860E+02  0.51100000000E-03 0.  1.
         12    1    3    3    0    0  0.32154551539E+02  0.25286767550E+02 -0.16573277139E+02  0.44136258484E+02  0.00000000000E+00 0. -1.
</event>
<event>
 7    1  0.1654239E-015  0.9000772E+02  0.7816164E-02  0.1186339E+00
        -11   -1    0    0    0    0  0.00000000000E+00  0.00000000000E+00  0.45593999997E+02  0.45594000000E+02  0.51100000000E-03 0. -1.
         11   -1    0    0    0    0 -0.00000000000E+00 -0.00000000000E+00 -0.45593999997E+02  0.45594000000E+02  0.51100000000E-03 0.  1.
    9900012    2    1    2    0    0 -0.33036727274E+00  0.19343205434E+00  0.11164684223E+01  0.90007720274E+02  0.89999981381E+02 0.  0.
        -12    1    1    2    0    0  0.33036727274E+00 -0.19343205434E+00 -0.11164684223E+01  0.11802797264E+01  0.00000000000E+00 0.  1.
         11    1    3    3    0    0 -0.32159126892E+01 -0.85891997210E+01  0.22641373425E+01  0.94468388596E+01  0.51100000000E-03 0. -1.
        -11    1    3    3    0    0 -0.37388156499E+02  0.54405249748E+00  0.84780982545E+01  0.38341210072E+02  0.51100000000E-03 0.  1.
         12    1    3    3    0    0  0.40273701916E+02  0.82385792778E+01 -0.96257671748E+01  0.42219671342E+02  0.00000000000E+00 0. -1.
</event>
<event>
 7    1  0.1654239E-015  0.9000772E+02  0.7816164E-02  0.1186339E+00
        -11   -1    0    0    0    0  0.00000000000E+00  0.00000000000E+00  0.45593999997E+02  0.45594000000E+02  0.51100000000E-03 0. -1.
         11   -1    0    0    0    0 -0.00000000000E+00 -0.00000000000E+00 -0.45593999997E+02  0.45594000000E+02  0.51100000000E-03 0.  1.
    9900012    2    1    2    0    0 -0.62000332783E+00  0.52646993757E-01  0.10029348082E+01  0.90007722888E+02  0.89999984030E+02 0.  0.
        -12    1    1    2    0    0  0.62000332783E+00 -0.52646993757E-01 -0.10029348082E+01  0.11802771123E+01  0.00000000000E+00 0.  1.
         11    1    3    3    0    0  0.82641783650E+01 -0.25843045995E+01  0.42894740202E+01  0.96630669015E+01  0.51100000000E-03 0. -1.
        -11    1    3    3    0    0  0.27629266866E+02  0.12320315052E+02  0.19722822649E+02  0.36113104049E+02  0.51100000000E-03 0.  1.
         12    1    3    3    0    0 -0.36513448559E+02 -0.96833634592E+01 -0.23009361861E+02  0.44231551937E+02  0.00000000000E+00 0. -1.
</event>
<event>
 7    1  0.1654239E-015  0.9000775E+02  0.7816164E-02  0.1186339E+00
        -11   -1    0    0    0    0  0.00000000000E+00  0.00000000000E+00  0.45593999997E+02  0.45594000000E+02  0.51100000000E-03 0. -1.
         11   -1    0    0    0    0 -0.00000000000E+00 -0.00000000000E+00 -0.45593999997E+02  0.45594000000E+02  0.51100000000E-03 0.  1.
    9900012    2    1    2    0    0  0.58558914356E+00  0.22776756785E+00  0.99910399433E+00  0.90007745154E+02  0.90000006590E+02 0.  0.
        -12    1    1    2    0    0 -0.58558914356E+00 -0.22776756785E+00 -0.99910399433E+00  0.11802548460E+01  0.00000000000E+00 0.  1.
         11    1    3    3    0    0  0.17438055259E+01 -0.17334171059E+00 -0.10477901808E+02  0.10623433137E+02  0.51100000000E-03 0. -1.
        -11    1    3    3    0    0  0.32924111987E+02  0.71424570755E-01 -0.15043386292E+02  0.36198145298E+02  0.51100000000E-03 0.  1.
         12    1    3    3    0    0 -0.34082328370E+02  0.32968470768E+00  0.26520392094E+02  0.43186166719E+02  0.00000000000E+00 0. -1.
</event>
<event>
 7    1  0.1654239E-015  0.9000700E+02  0.7816164E-02  0.1186341E+00
        -11   -1    0    0    0    0  0.00000000000E+00  0.00000000000E+00  0.45593999997E+02  0.45594000000E+02  0.51100000000E-03 0.  1.
         11   -1    0    0    0    0 -0.00000000000E+00 -0.00000000000E+00 -0.45593999997E+02  0.45594000000E+02  0.51100000000E-03 0. -1.
    9900012    2    1    2    0    0  0.22497845437E-01  0.14439066959E-02 -0.11807844547E+01  0.90007000353E+02  0.89999251954E+02 0.  0.
        -12    1    1    2    0    0 -0.22497845437E-01 -0.14439066959E-02  0.11807844547E+01  0.11809996471E+01  0.00000000000E+00 0.  1.
         11    1    3    3    0    0  0.12085750461E+02  0.37795150161E+02  0.18907241277E+01  0.39725477693E+02  0.51100000000E-03 0. -1.
        -11    1    3    3    0    0  0.12158115425E+01 -0.24003247075E+00  0.86673296411E+01  0.87554792366E+01  0.51100000000E-03 0.  1.
        -12    1    3    3    0    0 -0.13279064158E+02 -0.37553673784E+02 -0.11738838224E+02  0.41526043424E+02  0.00000000000E+00 0.  1.
</event>
<event>
 7    1  0.1767641E-015  0.9000779E+02  0.7816164E-02  0.1186339E+00
        -11   -1    0    0    0    0  0.00000000000E+00  0.00000000000E+00  0.45593999997E+02  0.45594000000E+02  0.51100000000E-03 0.  1.
         11   -1    0    0    0    0 -0.00000000000E+00 -0.00000000000E+00 -0.45593999997E+02  0.45594000000E+02  0.51100000000E-03 0. -1.
    9900012    2    1    2    0    0 -0.35922373458E+00  0.95569389897E+00 -0.59203666589E+00  0.90007788183E+02  0.90000050187E+02 0.  0.
        -12    1    1    2    0    0  0.35922373458E+00 -0.95569389897E+00  0.59203666589E+00  0.11802118173E+01  0.00000000000E+00 0.  1.
         11    1    3    3    0    0  0.64878219006E+01 -0.49469123694E+01 -0.19708665184E+01  0.83933360531E+01  0.51100000000E-03 0. -1.
        -11    1    3    3    0    0  0.91765931612E+01 -0.12211596056E+02  0.36158608427E+02  0.39252743903E+02  0.51100000000E-03 0.  1.
         12    1    3    3    0    0 -0.16023638796E+02  0.18114202325E+02 -0.34779778575E+02  0.42361708226E+02  0.00000000000E+00 0. -1.
</event>
<event>
 7    1  0.1654239E-015  0.9000799E+02  0.7816164E-02  0.1186339E+00
        -11   -1    0    0    0    0  0.00000000000E+00  0.00000000000E+00  0.45593999997E+02  0.45594000000E+02  0.51100000000E-03 0.  1.
         11   -1    0    0    0    0 -0.00000000000E+00 -0.00000000000E+00 -0.45593999997E+02  0.45594000000E+02  0.51100000000E-03 0. -1.
    9900012    2    1    2    0    0  0.82824570229E+00 -0.22815042694E-01 -0.84018547974E+00  0.90007990208E+02  0.90000254878E+02 0.  0.
        -12    1    1    2    0    0 -0.82824570229E+00  0.22815042694E-01  0.84018547974E+00  0.11800097923E+01  0.00000000000E+00 0.  1.
         11    1    3    3    0    0 -0.23626132635E+02  0.10175728664E+02 -0.28752062588E+02  0.38580055734E+02  0.51100000000E-03 0. -1.
        -11    1    3    3    0    0 -0.14107498182E+01  0.93557209650E+01  0.14420971371E+01  0.95707561999E+01  0.51100000000E-03 0.  1.
        -12    1    3    3    0    0  0.25865128156E+02 -0.19554264671E+02  0.26469779971E+02  0.41857178274E+02  0.00000000000E+00 0.  1.
</event>
<event>
 7    1  0.1654239E-015  0.9000770E+02  0.7816164E-02  0.1186339E+00
        -11   -1    0    0    0    0  0.00000000000E+00  0.00000000000E+00  0.45593999997E+02  0.45594000000E+02  0.51100000000E-03 0. -1.
         11   -1    0    0    0    0 -0.00000000000E+00 -0.00000000000E+00 -0.45593999997E+02  0.45594000000E+02  0.51100000000E-03 0.  1.
    9900012    2    1    2    0    0  0.28110256392E+00 -0.28728817969E+00  0.11097554250E+01  0.90007699084E+02  0.89999959912E+02 0.  0.
        -12    1    1    2    0    0 -0.28110256392E+00  0.28728817969E+00 -0.11097554250E+01  0.11803009163E+01  0.00000000000E+00 0.  1.
         11    1    3    3    0    0  0.94409646758E+01  0.30196188948E+01 -0.65435506039E+01  0.11877203671E+02  0.51100000000E-03 0. -1.
        -11    1    3    3    0    0  0.24293136137E+02 -0.10468794539E+02 -0.20786020695E+02  0.33642395561E+02  0.51100000000E-03 0.  1.
         12    1    3    3    0    0 -0.33452998249E+02  0.71618874642E+01  0.28439326724E+02  0.44488099852E+02  0.00000000000E+00 0. -1.
</event>
<event>
 7    1  0.2506214E-015  0.9000765E+02  0.7816164E-02  0.1186339E+00
        -11   -1    0    0    0    0  0.00000000000E+00  0.00000000000E+00  0.45593999997E+02  0.45594000000E+02  0.51100000000E-03 0. -1.
         11   -1    0    0    0    0 -0.00000000000E+00 -0.00000000000E+00 -0.45593999997E+02  0.45594000000E+02  0.51100000000E-03 0.  1.
    9900012    2    1    2    0    0  0.70048889412E+00 -0.33416587471E+00  0.88930588623E+00  0.90007654084E+02  0.89999914318E+02 0.  0.
        -12    1    1    2    0    0 -0.70048889412E+00  0.33416587471E+00 -0.88930588623E+00  0.11803459162E+01  0.00000000000E+00 0.  1.
         11    1    3    3    0    0  0.53744622978E+01  0.39556602174E+01 -0.63846564414E+01  0.92355796181E+01  0.51100000000E-03 0. -1.
        -11    1    3    3    0    0 -0.27697482547E+02  0.18006647888E+02 -0.20059395605E+02  0.38649311248E+02  0.51100000000E-03 0.  1.
         12    1    3    3    0    0  0.23023509144E+02 -0.22296473980E+02  0.27333357933E+02  0.42122763218E+02  0.00000000000E+00 0. -1.
</event>
<event>
 7    1  0.2079470E-015  0.9000772E+02  0.7816164E-02  0.1186339E+00
        -11   -1    0    0    0    0  0.00000000000E+00  0.00000000000E+00  0.45593999997E+02  0.45594000000E+02  0.51100000000E-03 0.  1.
         11   -1    0    0    0    0 -0.00000000000E+00 -0.00000000000E+00 -0.45593999997E+02  0.45594000000E+02  0.51100000000E-03 0. -1.
    9900012    2    1    2    0    0  0.81027180734E+00 -0.58183052985E+00 -0.63086627332E+00  0.90007720617E+02  0.89999981729E+02 0.  0.
        -12    1    1    2    0    0 -0.81027180734E+00  0.58183052985E+00  0.63086627332E+00  0.11802793831E+01  0.00000000000E+00 0.  1.
         11    1    3    3    0    0  0.63038739988E+01 -0.40519207271E+01  0.61452046969E+01  0.96912553366E+01  0.51100000000E-03 0. -1.
        -11    1    3    3    0    0  0.63076492445E+01 -0.28831995048E+01  0.35394345083E+02  0.36067422177E+02  0.51100000000E-03 0.  1.
         12    1    3    3    0    0 -0.11801251436E+02  0.63532897020E+01 -0.42170416053E+02  0.44249043104E+02  0.00000000000E+00 0. -1.
</event>
<event>
 7    1  0.1654239E-015  0.9000774E+02  0.7816164E-02  0.1186339E+00
        -11   -1    0    0    0    0  0.00000000000E+00  0.00000000000E+00  0.45593999997E+02  0.45594000000E+02  0.51100000000E-03 0.  1.
         11   -1    0    0    0    0 -0.00000000000E+00 -0.00000000000E+00 -0.45593999997E+02  0.45594000000E+02  0.51100000000E-03 0. -1.
    9900012    2    1    2    0    0 -0.56420401476E+00 -0.94799218494E+00 -0.41951705280E+00  0.90007741592E+02  0.90000002981E+02 0.  0.
        -12    1    1    2    0    0  0.56420401476E+00  0.94799218494E+00  0.41951705280E+00  0.11802584084E+01  0.00000000000E+00 0.  1.
         11    1    3    3    0    0  0.44502968965E+01  0.80653625939E+01  0.75191018166E+01  0.11890841376E+02  0.51100000000E-03 0. -1.
        -11    1    3    3    0    0  0.35419185289E+02  0.27946556169E+01 -0.20959022780E+01  0.35591032483E+02  0.51100000000E-03 0.  1.
         12    1    3    3    0    0 -0.40433686200E+02 -0.11808010396E+02 -0.58427165914E+01  0.42525867733E+02  0.00000000000E+00 0. -1.
</event>
<event>
 7    1  0.1654239E-015  0.9000775E+02  0.7816164E-02  0.1186339E+00
        -11   -1    0    0    0    0  0.00000000000E+00  0.00000000000E+00  0.45593999997E+02  0.45594000000E+02  0.51100000000E-03 0.  1.
         11   -1    0    0    0    0 -0.00000000000E+00 -0.00000000000E+00 -0.45593999997E+02  0.45594000000E+02  0.51100000000E-03 0. -1.
    9900012    2    1    2    0    0 -0.11031478108E+01  0.34978076008E+00 -0.23177129565E+00  0.90007745957E+02  0.90000007404E+02 0.  0.
        -12    1    1    2    0    0  0.11031478108E+01 -0.34978076008E+00  0.23177129565E+00  0.11802540431E+01  0.00000000000E+00 0.  1.
         11    1    3    3    0    0 -0.10100700008E+02 -0.34955404280E+02  0.19754812377E+01  0.36439085546E+02  0.51100000000E-03 0. -1.
        -11    1    3    3    0    0  0.32507362360E+01 -0.83726869828E+01 -0.31108552180E+01  0.95050825266E+01  0.51100000000E-03 0.  1.
        -12    1    3    3    0    0  0.57468159609E+01  0.43677872023E+02  0.90360268461E+00  0.44063577884E+02  0.00000000000E+00 0.  1.
</event>
<event>
 7    1  0.1875967E-015  0.9000768E+02  0.7816164E-02  0.1186339E+00
        -11   -1    0    0    0    0  0.00000000000E+00  0.00000000000E+00  0.45593999997E+02  0.45594000000E+02  0.51100000000E-03 0. -1.
         11   -1    0    0    0    0 -0.00000000000E+00 -0.00000000000E+00 -0.45593999997E+02  0.45594000000E+02  0.51100000000E-03 0.  1.
    9900012    2    1    2    0    0 -0.39053266668E+00 -0.13933950212E+00  0.11050907852E+01  0.90007679321E+02  0.89999939888E+02 0.  0.
        -12    1    1    2    0    0  0.39053266668E+00  0.13933950212E+00 -0.11050907852E+01  0.11803206785E+01  0.00000000000E+00 0.  1.
         11    1    3    3    0    0  0.12700740231E+01  0.51382991669E+01  0.85683469589E+01  0.10071334381E+02  0.51100000000E-03 0. -1.
        -11    1    3    3    0    0  0.27215356480E+02  0.40928259399E+01 -0.31050562140E+02  0.41491737273E+02  0.51100000000E-03 0.  1.
         12    1    3    3    0    0 -0.28875963169E+02 -0.93704646090E+01  0.23587305966E+02  0.38444607667E+02  0.00000000000E+00 0. -1.
</event>
<event>
 7    1  0.1654239E-015  0.9000795E+02  0.7816164E-02  0.1186339E+00
        -11   -1    0    0    0    0  0.00000000000E+00  0.00000000000E+00  0.45593999997E+02  0.45594000000E+02  0.51100000000E-03 0. -1.
         11   -1    0    0    0    0 -0.00000000000E+00 -0.00000000000E+00 -0.45593999997E+02  0.45594000000E+02  0.51100000000E-03 0.  1.
    9900012    2    1    2    0    0  0.54872418427E+00 -0.63986262765E+00 -0.82583479806E+00  0.90007946812E+02  0.90000210910E+02 0.  0.
        -12    1    1    2    0    0 -0.54872418427E+00  0.63986262765E+00  0.82583479806E+00  0.11800531879E+01  0.00000000000E+00 0.  1.
         11    1    3    3    0    0  0.27414067011E+02 -0.27313071558E+02 -0.91031354446E+01  0.39754270502E+02  0.51100000000E-03 0. -1.
        -11    1    3    3    0    0 -0.31142326781E+01 -0.55331952689E+01 -0.50103697462E+01  0.80881703933E+01  0.51100000000E-03 0.  1.
        -12    1    3    3    0    0 -0.23751110148E+02  0.32206404199E+02  0.13287670393E+02  0.42165505916E+02  0.00000000000E+00 0.  1.
</event>
<event>
 7    1  0.1654239E-015  0.9000771E+02  0.7816164E-02  0.1186339E+00
        -11   -1    0    0    0    0  0.00000000000E+00  0.00000000000E+00  0.45593999997E+02  0.45594000000E+02  0.51100000000E-03 0.  1.
         11   -1    0    0    0    0 -0.00000000000E+00 -0.00000000000E+00 -0.45593999997E+02  0.45594000000E+02  0.51100000000E-03 0. -1.
    9900012    2    1    2    0    0 -0.11142493611E+01 -0.38830992817E+00 -0.27447892659E-01  0.90007707822E+02  0.89999968765E+02 0.  0.
        -12    1    1    2    0    0  0.11142493611E+01  0.38830992817E+00  0.27447892659E-01  0.11802921781E+01  0.00000000000E+00 0.  1.
         11    1    3    3    0    0  0.71339878156E+01  0.70533920862E+00  0.45751689610E+01  0.85043198926E+01  0.51100000000E-03 0. -1.
        -11    1    3    3    0    0  0.10471651650E+02  0.12457283290E+02  0.33326990797E+02  0.37088107407E+02  0.51100000000E-03 0.  1.
         12    1    3    3    0    0 -0.18719888827E+02 -0.13550932427E+02 -0.37929607650E+02  0.44415280522E+02  0.00000000000E+00 0. -1.
</event>
<event>
 7    1  0.1654239E-015  0.9000773E+02  0.7816164E-02  0.1186339E+00
        -11   -1    0    0    0    0  0.00000000000E+00  0.00000000000E+00  0.45593999997E+02  0.45594000000E+02  0.51100000000E-03 0.  1.
         11   -1    0    0    0    0 -0.00000000000E+00 -0.00000000000E+00 -0.45593999997E+02  0.45594000000E+02  0.51100000000E-03 0. -1.
    9900012    2    1    2    0    0  0.42797820319E-01 -0.22991553691E+00 -0.11568673127E+01  0.90007731053E+02  0.89999992303E+02 0.  0.
        -12    1    1    2    0    0 -0.42797820319E-01  0.22991553691E+00  0.11568673127E+01  0.11802689468E+01  0.00000000000E+00 0.  1.
         11    1    3    3    0    0  0.30434878210E+02  0.19715590761E+02 -0.11760650957E+01  0.36281806186E+02  0.51100000000E-03 0. -1.
        -11    1    3    3    0    0  0.52911718234E+01  0.47623812436E+01 -0.67364473098E+01  0.98008416472E+01  0.51100000000E-03 0.  1.
        -12    1    3    3    0    0 -0.35683252213E+02 -0.24707887542E+02  0.67556450929E+01  0.43925083220E+02  0.00000000000E+00 0.  1.
</event>
<event>
 7    1  0.1654239E-015  0.9000768E+02  0.7816164E-02  0.1186339E+00
        -11   -1    0    0    0    0  0.00000000000E+00  0.00000000000E+00  0.45593999997E+02  0.45594000000E+02  0.51100000000E-03 0. -1.
         11   -1    0    0    0    0 -0.00000000000E+00 -0.00000000000E+00 -0.45593999997E+02  0.45594000000E+02  0.51100000000E-03 0.  1.
    9900012    2    1    2    0    0 -0.64057263822E+00 -0.93256351813E+00 -0.33637815098E+00  0.90007678738E+02  0.89999939298E+02 0.  0.
        -12    1    1    2    0    0  0.64057263822E+00  0.93256351813E+00  0.33637815098E+00  0.11803212616E+01  0.00000000000E+00 0.  1.
         11    1    3    3    0    0  0.70868753281E+01  0.40483133689E+01  0.46886101093E+01  0.94125293129E+01  0.51100000000E-03 0. -1.
        -11    1    3    3    0    0  0.43786029102E+01 -0.15933214747E+02 -0.39299109631E+02  0.42631672659E+02  0.51100000000E-03 0.  1.
         12    1    3    3    0    0 -0.12106050877E+02  0.10952337860E+02  0.34274121371E+02  0.37963476766E+02  0.00000000000E+00 0. -1.
</event>
<event>
 7    1  0.1654239E-015  0.9000752E+02  0.7816164E-02  0.1186339E+00
        -11   -1    0    0    0    0  0.00000000000E+00  0.00000000000E+00  0.45593999997E+02  0.45594000000E+02  0.51100000000E-03 0.  1.
         11   -1    0    0    0    0 -0.00000000000E+00 -0.00000000000E+00 -0.45593999997E+02  0.45594000000E+02  0.51100000000E-03 0. -1.
    9900012    2    1    2    0    0  0.19948105641E+00 -0.85979655980E+00 -0.78389697708E+00  0.90007518197E+02  0.89999776637E+02 0.  0.
        -12    1    1    2    0    0 -0.19948105641E+00  0.85979655980E+00  0.78389697708E+00  0.11804818028E+01  0.00000000000E+00 0.  1.
         11    1    3    3    0    0  0.75273533339E+01 -0.19679968235E+02  0.24216557217E+02  0.32099904075E+02  0.51100000000E-03 0. -1.
        -11    1    3    3    0    0  0.66817971517E+01 -0.22243675705E+01  0.11513074793E+02  0.13496114838E+02  0.51100000000E-03 0.  1.
         12    1    3    3    0    0 -0.14009669429E+02  0.21044539246E+02 -0.36513528987E+02  0.44411499284E+02  0.00000000000E+00 0. -1.
</event>
<event>
 7    1  0.1654239E-015  0.9000767E+02  0.7816164E-02  0.1186339E+00
        -11   -1    0    0    0    0  0.00000000000E+00  0.00000000000E+00  0.45593999997E+02  0.45594000000E+02  0.51100000000E-03 0.  1.
         11   -1    0    0    0    0 -0.00000000000E+00 -0.00000000000E+00 -0.45593999997E+02  0.45594000000E+02  0.51100000000E-03 0. -1.
    9900012    2    1    2    0    0  0.41960506462E+00 -0.10526437109E+01 -0.33023035080E+00  0.90007669844E+02  0.89999930286E+02 0.  0.
        -12    1    1    2    0    0 -0.41960506462E+00  0.10526437109E+01  0.33023035080E+00  0.11803301559E+01  0.00000000000E+00 0.  1.
         11    1    3    3    0    0 -0.22248550835E+02 -0.20877102885E+02 -0.21931651758E+02  0.37574576354E+02  0.51100000000E-03 0. -1.
        -11    1    3    3    0    0 -0.68691457103E+01 -0.40496917804E+01  0.98586976675E+01  0.12679869332E+02  0.51100000000E-03 0.  1.
        -12    1    3    3    0    0  0.29537301610E+02  0.23874150954E+02  0.11742723740E+02  0.39753224158E+02  0.00000000000E+00 0.  1.
</event>
<event>
 7    1  0.1654239E-015  0.9000791E+02  0.7816164E-02  0.1186339E+00
        -11   -1    0    0    0    0  0.00000000000E+00  0.00000000000E+00  0.45593999997E+02  0.45594000000E+02  0.51100000000E-03 0. -1.
         11   -1    0    0    0    0 -0.00000000000E+00 -0.00000000000E+00 -0.45593999997E+02  0.45594000000E+02  0.51100000000E-03 0.  1.
    9900012    2    1    2    0    0 -0.32811093843E-01  0.11600214820E+01 -0.21420189552E+00  0.90007911504E+02  0.90000175136E+02 0.  0.
        -12    1    1    2    0    0  0.32811093843E-01 -0.11600214820E+01  0.21420189552E+00  0.11800884961E+01  0.00000000000E+00 0.  1.
         11    1    3    3    0    0  0.21781366159E+02  0.30568980991E+02  0.32778481838E+01  0.37678041344E+02  0.51100000000E-03 0. -1.
        -11    1    3    3    0    0  0.58170085954E+01  0.23754676135E+01  0.65048299208E+01  0.90439619604E+01  0.51100000000E-03 0.  1.
        -12    1    3    3    0    0 -0.27631185848E+02 -0.31784427122E+02 -0.99968800001E+01  0.43285908199E+02  0.00000000000E+00 0.  1.
</event>
<event>
 7    1  0.1654239E-015  0.9000734E+02  0.7816164E-02  0.1186340E+00
        -11   -1    0    0    0    0  0.00000000000E+00  0.00000000000E+00  0.45593999997E+02  0.45594000000E+02  0.51100000000E-03 0.  1.
         11   -1    0    0    0    0 -0.00000000000E+00 -0.00000000000E+00 -0.45593999997E+02  0.45594000000E+02  0.51100000000E-03 0. -1.
    9900012    2    1    2    0    0  0.61370294562E+00 -0.59685868401E+00 -0.81307779780E+00  0.90007336162E+02  0.89999592198E+02 0.  0.
        -12    1    1    2    0    0 -0.61370294562E+00  0.59685868401E+00  0.81307779780E+00  0.11806638384E+01  0.00000000000E+00 0.  1.
         11    1    3    3    0    0 -0.20129824185E+02  0.32501444264E+02 -0.10690236238E+01  0.38245215554E+02  0.51100000000E-03 0. -1.
        -11    1    3    3    0    0 -0.83772873495E+01 -0.52497259539E+01  0.51932091951E+01  0.11167273075E+02  0.51100000000E-03 0.  1.
        -12    1    3    3    0    0  0.29120814480E+02 -0.27848576994E+02 -0.49372633691E+01  0.40594847533E+02  0.00000000000E+00 0.  1.
</event>
<event>
 7    1  0.1654239E-015  0.9000775E+02  0.7816164E-02  0.1186339E+00
        -11   -1    0    0    0    0  0.00000000000E+00  0.00000000000E+00  0.45593999997E+02  0.45594000000E+02  0.51100000000E-03 0. -1.
         11   -1    0    0    0    0 -0.00000000000E+00 -0.00000000000E+00 -0.45593999997E+02  0.45594000000E+02  0.51100000000E-03 0.  1.
    9900012    2    1    2    0    0 -0.36449227136E+00 -0.97954006679E+00  0.54830212921E+00  0.90007750627E+02  0.90000012135E+02 0.  0.
        -12    1    1    2    0    0  0.36449227136E+00  0.97954006679E+00 -0.54830212921E+00  0.11802493733E+01  0.00000000000E+00 0.  1.
         11    1    3    3    0    0 -0.13142378905E+02  0.17120806708E+02  0.30974256066E+02  0.37752465942E+02  0.51100000000E-03 0. -1.
        -11    1    3    3    0    0  0.96742968934E+00 -0.33797734222E+01  0.83887187165E+01  0.90955698312E+01  0.51100000000E-03 0.  1.
        -12    1    3    3    0    0  0.11810456944E+02 -0.14720573353E+02 -0.38814672653E+02  0.43159714853E+02  0.00000000000E+00 0.  1.
</event>
<event>
 7    1  0.1654239E-015  0.9000773E+02  0.7816164E-02  0.1186339E+00
        -11   -1    0    0    0    0  0.00000000000E+00  0.00000000000E+00  0.45593999997E+02  0.45594000000E+02  0.51100000000E-03 0.  1.
         11   -1    0    0    0    0 -0.00000000000E+00 -0.00000000000E+00 -0.45593999997E+02  0.45594000000E+02  0.51100000000E-03 0. -1.
    9900012    2    1    2    0    0  0.13683294600E+00 -0.11486069107E+01 -0.23455771133E+00  0.90007729518E+02  0.89999990748E+02 0.  0.
        -12    1    1    2    0    0 -0.13683294600E+00  0.11486069107E+01  0.23455771133E+00  0.11802704818E+01  0.00000000000E+00 0.  1.
         11    1    3    3    0    0  0.66223004098E+01 -0.16029825197E+02  0.17225701237E+02  0.24444527852E+02  0.51100000000E-03 0. -1.
        -11    1    3    3    0    0  0.22109936182E+01 -0.21418294225E+02  0.48577027098E+01  0.22073266549E+02  0.51100000000E-03 0.  1.
         12    1    3    3    0    0 -0.86964610820E+01  0.36299512511E+02 -0.22317961658E+02  0.43489935117E+02  0.00000000000E+00 0. -1.
</event>
<event>
 7    1  0.1654239E-015  0.9000780E+02  0.7816164E-02  0.1186339E+00
        -11   -1    0    0    0    0  0.00000000000E+00  0.00000000000E+00  0.45593999997E+02  0.45594000000E+02  0.51100000000E-03 0.  1.
         11   -1    0    0    0    0 -0.00000000000E+00 -0.00000000000E+00 -0.45593999997E+02  0.45594000000E+02  0.51100000000E-03 0. -1.
    9900012    2    1    2    0    0  0.92542874967E+00  0.73211222492E+00 -0.21706194112E-01  0.90007797543E+02  0.90000059671E+02 0.  0.
        -12    1    1    2    0    0 -0.92542874967E+00 -0.73211222492E+00  0.21706194112E-01  0.11802024570E+01  0.00000000000E+00 0.  1.
         11    1    3    3    0    0  0.78198139285E+01  0.39290700472E+01 -0.27475881923E+01  0.91725853743E+01  0.51100000000E-03 0. -1.
        -11    1    3    3    0    0 -0.70373869844E+01 -0.29514916260E+02 -0.27364484791E+02  0.40859149839E+02  0.51100000000E-03 0.  1.
         12    1    3    3    0    0  0.14300180550E+00  0.26317958438E+02  0.30090366789E+02  0.39976062330E+02  0.00000000000E+00 0. -1.
</event>
<event>
 7    1  0.1654239E-015  0.9000771E+02  0.7816164E-02  0.1186339E+00
        -11   -1    0    0    0    0  0.00000000000E+00  0.00000000000E+00  0.45593999997E+02  0.45594000000E+02  0.51100000000E-03 0.  1.
         11   -1    0    0    0    0 -0.00000000000E+00 -0.00000000000E+00 -0.45593999997E+02  0.45594000000E+02  0.51100000000E-03 0. -1.
    9900012    2    1    2    0    0 -0.11712046744E+01 -0.72486887936E-01 -0.12694715258E+00  0.90007707529E+02  0.89999968468E+02 0.  0.
        -12    1    1    2    0    0  0.11712046744E+01  0.72486887936E-01  0.12694715258E+00  0.11802924713E+01  0.00000000000E+00 0.  1.
         11    1    3    3    0    0  0.20160359379E+02 -0.25395875359E+02 -0.11910227112E+02  0.34543365292E+02  0.51100000000E-03 0. -1.
        -11    1    3    3    0    0  0.11241686571E+02 -0.20973465426E+01  0.64789852599E+00  0.11454001582E+02  0.51100000000E-03 0.  1.
        -12    1    3    3    0    0 -0.32573250624E+02  0.27420735014E+02  0.11135381433E+02  0.44010340655E+02  0.00000000000E+00 0.  1.
</event>
<event>
 7    1  0.1654239E-015  0.9000743E+02  0.7816164E-02  0.1186340E+00
        -11   -1    0    0    0    0  0.00000000000E+00  0.00000000000E+00  0.45593999997E+02  0.45594000000E+02  0.51100000000E-03 0. -1.
         11   -1    0    0    0    0 -0.00000000000E+00 -0.00000000000E+00 -0.45593999997E+02  0.45594000000E+02  0.51100000000E-03 0.  1.
    9900012    2    1    2    0    0  0.11389047373E+01 -0.26194173362E+00  0.16742605489E+00  0.90007428547E+02  0.89999685803E+02 0.  0.
        -12    1    1    2    0    0 -0.11389047373E+01  0.26194173362E+00 -0.16742605489E+00  0.11805714532E+01  0.00000000000E+00 0.  1.
         11    1    3    3    0    0  0.87253810783E+01 -0.86354260531E+01  0.20733237681E+01  0.12449961036E+02  0.51100000000E-03 0. -1.
        -11    1    3    3    0    0  0.12856351330E+02  0.37898341530E+02 -0.88361502419E+01  0.40983504141E+02  0.51100000000E-03 0.  1.
         12    1    3    3    0    0 -0.20442827671E+02 -0.29524857211E+02  0.69302525287E+01  0.36573963371E+02  0.00000000000E+00 0. -1.
</event>
<event>
 7    1  0.1654239E-015  0.9000767E+02  0.7816164E-02  0.1186339E+00
        -11   -1    0    0    0    0  0.00000000000E+00  0.00000000000E+00  0.45593999997E+02  0.45594000000E+02  0.51100000000E-03 0. -1.
         11   -1    0    0    0    0 -0.00000000000E+00 -0.00000000000E+00 -0.45593999997E+02  0.45594000000E+02  0.51100000000E-03 0.  1.
    9900012    2    1    2    0    0  0.31588254662E+00 -0.19576723149E-01  0.11371069885E+01  0.90007670667E+02  0.89999931120E+02 0.  0.
        -12    1    1    2    0    0 -0.31588254662E+00  0.19576723149E-01 -0.11371069885E+01  0.11803293332E+01  0.00000000000E+00 0.  1.
         11    1    3    3    0    0 -0.43612235960E+01  0.75486691946E+01 -0.37221497613E+01  0.94792972825E+01  0.51100000000E-03 0. -1.
        -11    1    3    3    0    0  0.26215600540E+02  0.98792572876E+01  0.31449421309E+02  0.42117971665E+02  0.51100000000E-03 0.  1.
         12    1    3    3    0    0 -0.21538494397E+02 -0.17447503205E+02 -0.26590164559E+02  0.38410401720E+02  0.00000000000E+00 0. -1.
</event>
<event>
 7    1  0.1654239E-015  0.9000775E+02  0.7816164E-02  0.1186339E+00
        -11   -1    0    0    0    0  0.00000000000E+00  0.00000000000E+00  0.45593999997E+02  0.45594000000E+02  0.51100000000E-03 0. -1.
         11   -1    0    0    0    0 -0.00000000000E+00 -0.00000000000E+00 -0.45593999997E+02  0.45594000000E+02  0.51100000000E-03 0.  1.
    9900012    2    1    2    0    0  0.96732677437E+00  0.59700656323E+00 -0.31757289340E+00  0.90007749828E+02  0.90000011326E+02 0.  0.
        -12    1    1    2    0    0 -0.96732677437E+00 -0.59700656323E+00  0.31757289340E+00  0.11802501716E+01  0.00000000000E+00 0.  1.
         11    1    3    3    0    0 -0.32002407493E+01  0.54243092758E+01  0.77227662884E+01  0.99652291183E+01  0.51100000000E-03 0. -1.
        -11    1    3    3    0    0  0.29305463535E+02 -0.32049670001E+00  0.24833840664E+02  0.38413963002E+02  0.51100000000E-03 0.  1.
         12    1    3    3    0    0 -0.25137896011E+02 -0.45068060126E+01 -0.32874179846E+02  0.41628557708E+02  0.00000000000E+00 0. -1.
</event>
<event>
 7    1  0.1654239E-015  0.9000776E+02  0.7816164E-02  0.1186339E+00
        -11   -1    0    0    0    0  0.00000000000E+00  0.00000000000E+00  0.45593999997E+02  0.45594000000E+02  0.51100000000E-03 0.  1.
         11   -1    0    0    0    0 -0.00000000000E+00 -0.00000000000E+00 -0.45593999997E+02  0.45594000000E+02  0.51100000000E-03 0. -1.
    9900012    2    1    2    0    0 -0.73740515892E-01  0.11076151531E+01 -0.40090918446E+00  0.90007755464E+02  0.90000017036E+02 0.  0.
        -12    1    1    2    0    0  0.73740515892E-01 -0.11076151531E+01  0.40090918446E+00  0.11802445362E+01  0.00000000000E+00 0.  1.
         11    1    3    3    0    0 -0.29406765314E+02 -0.20559387738E+02  0.81199517391E+01  0.36788311825E+02  0.51100000000E-03 0. -1.
        -11    1    3    3    0    0 -0.92312763602E+01  0.44898973980E+01 -0.26005216435E+01  0.10589539884E+02  0.51100000000E-03 0.  1.
        -12    1    3    3    0    0  0.38564301158E+02  0.17177105493E+02 -0.59203392800E+01  0.42629903755E+02  0.00000000000E+00 0.  1.
</event>
<event>
 7    1  0.1654239E-015  0.9000772E+02  0.7816164E-02  0.1186339E+00
        -11   -1    0    0    0    0  0.00000000000E+00  0.00000000000E+00  0.45593999997E+02  0.45594000000E+02  0.51100000000E-03 0.  1.
         11   -1    0    0    0    0 -0.00000000000E+00 -0.00000000000E+00 -0.45593999997E+02  0.45594000000E+02  0.51100000000E-03 0. -1.
    9900012    2    1    2    0    0  0.61097144381E+00  0.94772161752E+00  0.34872121416E+00  0.90007716621E+02  0.89999977680E+02 0.  0.
        -12    1    1    2    0    0 -0.61097144381E+00 -0.94772161752E+00 -0.34872121416E+00  0.11802833790E+01  0.00000000000E+00 0.  1.
         11    1    3    3    0    0  0.94690364082E+01  0.87853343731E+00 -0.90271102621E+00  0.95524530335E+01  0.51100000000E-03 0. -1.
        -11    1    3    3    0    0  0.93064371952E+01 -0.11303329971E+02  0.36430367691E+02  0.39262535986E+02  0.51100000000E-03 0.  1.
         12    1    3    3    0    0 -0.18164502160E+02  0.11372518151E+02 -0.35178935450E+02  0.41192727601E+02  0.00000000000E+00 0. -1.
</event>
<event>
 7    1  0.1654239E-015  0.9000775E+02  0.7816164E-02  0.1186339E+00
        -11   -1    0    0    0    0  0.00000000000E+00  0.00000000000E+00  0.45593999997E+02  0.45594000000E+02  0.51100000000E-03 0. -1.
         11   -1    0    0    0    0 -0.00000000000E+00 -0.00000000000E+00 -0.45593999997E+02  0.45594000000E+02  0.51100000000E-03 0.  1.
    9900012    2    1    2    0    0  0.90514837267E+00 -0.12014766494E+00  0.74783777305E+00  0.90007749869E+02  0.90000011367E+02 0.  0.
        -12    1    1    2    0    0 -0.90514837267E+00  0.12014766494E+00 -0.74783777305E+00  0.11802501314E+01  0.00000000000E+00 0.  1.
         11    1    3    3    0    0  0.50919999205E+01  0.65576448567E+01  0.12867848786E+02  0.15313807558E+02  0.51100000000E-03 0. -1.
        -11    1    3    3    0    0 -0.12005039906E+02  0.26998824558E+02 -0.24074217257E+02  0.38113323753E+02  0.51100000000E-03 0.  1.
         12    1    3    3    0    0  0.78181883581E+01 -0.33676617080E+02  0.11954206244E+02  0.36580618558E+02  0.00000000000E+00 0. -1.
</event>
<event>
 7    1  0.1654239E-015  0.9000754E+02  0.7816164E-02  0.1186339E+00
        -11   -1    0    0    0    0  0.00000000000E+00  0.00000000000E+00  0.45593999997E+02  0.45594000000E+02  0.51100000000E-03 0. -1.
         11   -1    0    0    0    0 -0.00000000000E+00 -0.00000000000E+00 -0.45593999997E+02  0.45594000000E+02  0.51100000000E-03 0.  1.
    9900012    2    1    2    0    0 -0.11753135015E+01 -0.10663357075E+00  0.27275200328E-01  0.90007543952E+02  0.89999802732E+02 0.  0.
        -12    1    1    2    0    0  0.11753135015E+01  0.10663357075E+00 -0.27275200328E-01  0.11804560482E+01  0.00000000000E+00 0.  1.
         11    1    3    3    0    0  0.62028176478E+01 -0.48174998192E+01  0.39271107263E+01  0.87809709143E+01  0.51100000000E-03 0. -1.
        -11    1    3    3    0    0 -0.27594075215E+02  0.13658030467E+02 -0.32703796714E+02  0.44916735222E+02  0.51100000000E-03 0.  1.
         12    1    3    3    0    0  0.20215944066E+02 -0.89471642186E+01  0.28803961188E+02  0.36309837815E+02  0.00000000000E+00 0. -1.
</event>
<event>
 7    1  0.1654239E-015  0.9000776E+02  0.7816164E-02  0.1186339E+00
        -11   -1    0    0    0    0  0.00000000000E+00  0.00000000000E+00  0.45593999997E+02  0.45594000000E+02  0.51100000000E-03 0.  1.
         11   -1    0    0    0    0 -0.00000000000E+00 -0.00000000000E+00 -0.45593999997E+02  0.45594000000E+02  0.51100000000E-03 0. -1.
    9900012    2    1    2    0    0  0.30780380356E-01  0.21098229867E+00 -0.11608239653E+01  0.90007757126E+02  0.90000018720E+02 0.  0.
        -12    1    1    2    0    0 -0.30780380356E-01 -0.21098229867E+00  0.11608239653E+01  0.11802428736E+01  0.00000000000E+00 0.  1.
         11    1    3    3    0    0 -0.78053672490E+01 -0.42017562700E+01 -0.77721276825E+01  0.11789168021E+02  0.51100000000E-03 0. -1.
        -11    1    3    3    0    0  0.76838754545E+01  0.40235707044E+02 -0.31659666918E+01  0.41085002235E+02  0.51100000000E-03 0.  1.
         12    1    3    3    0    0  0.15227217480E+00 -0.35822968475E+02  0.97772704090E+01  0.37133586870E+02  0.00000000000E+00 0. -1.
</event>
<event>
 7    1  0.1654239E-015  0.9000777E+02  0.7816164E-02  0.1186339E+00
        -11   -1    0    0    0    0  0.00000000000E+00  0.00000000000E+00  0.45593999997E+02  0.45594000000E+02  0.51100000000E-03 0.  1.
         11   -1    0    0    0    0 -0.00000000000E+00 -0.00000000000E+00 -0.45593999997E+02  0.45594000000E+02  0.51100000000E-03 0. -1.
    9900012    2    1    2    0    0  0.65632237202E+00  0.97908007173E+00  0.59911695425E-01  0.90007768559E+02  0.90000030304E+02 0.  0.
        -12    1    1    2    0    0 -0.65632237202E+00 -0.97908007173E+00 -0.59911695425E-01  0.11802314409E+01  0.00000000000E+00 0.  1.
         11    1    3    3    0    0  0.30434359828E+02 -0.68524827938E+01  0.20163609510E+02  0.37145362124E+02  0.51100000000E-03 0. -1.
        -11    1    3    3    0    0  0.90501706963E+01  0.37236785028E+01 -0.30013464544E+01  0.10236183470E+02  0.51100000000E-03 0.  1.
        -12    1    3    3    0    0 -0.38828208152E+02  0.41078843627E+01 -0.17102351360E+02  0.42626222965E+02  0.00000000000E+00 0.  1.
</event>
<event>
 7    1  0.1654239E-015  0.9000789E+02  0.7816164E-02  0.1186339E+00
        -11   -1    0    0    0    0  0.00000000000E+00  0.00000000000E+00  0.45593999997E+02  0.45594000000E+02  0.51100000000E-03 0.  1.
         11   -1    0    0    0    0 -0.00000000000E+00 -0.00000000000E+00 -0.45593999997E+02  0.45594000000E+02  0.51100000000E-03 0. -1.
    9900012    2    1    2    0    0  0.62382311077E+00 -0.72708105548E+00  0.68909725970E+00  0.90007891036E+02  0.90000154397E+02 0.  0.
        -12    1    1    2    0    0 -0.62382311077E+00  0.72708105548E+00 -0.68909725970E+00  0.11801089645E+01  0.00000000000E+00 0.  1.
         11    1    3    3    0    0 -0.35144283862E+01 -0.64452104433E+01  0.89607869151E+01  0.11583939181E+02  0.51100000000E-03 0. -1.
        -11    1    3    3    0    0  0.30415238299E+02 -0.15045005534E+02  0.15549617507E+02  0.37325989836E+02  0.51100000000E-03 0.  1.
         12    1    3    3    0    0 -0.26276986802E+02  0.20763134922E+02 -0.23821307162E+02  0.41097962019E+02  0.00000000000E+00 0. -1.
</event>
<event>
 7    1  0.1654239E-015  0.9000773E+02  0.7816164E-02  0.1186339E+00
        -11   -1    0    0    0    0  0.00000000000E+00  0.00000000000E+00  0.45593999997E+02  0.45594000000E+02  0.51100000000E-03 0. -1.
         11   -1    0    0    0    0 -0.00000000000E+00 -0.00000000000E+00 -0.45593999997E+02  0.45594000000E+02  0.51100000000E-03 0.  1.
    9900012    2    1    2    0    0 -0.11032904470E+01  0.41893670519E+00 -0.16377674805E-01  0.90007734775E+02  0.89999996074E+02 0.  0.
        -12    1    1    2    0    0  0.11032904470E+01 -0.41893670519E+00  0.16377674805E-01  0.11802652251E+01  0.00000000000E+00 0.  1.
         11    1    3    3    0    0 -0.10868502793E+01  0.51130198476E+01  0.36360619424E+02  0.36734436986E+02  0.51100000000E-03 0. -1.
        -11    1    3    3    0    0  0.27082577061E+01 -0.56390791746E+01  0.72359017245E+01  0.95651527833E+01  0.51100000000E-03 0.  1.
        -12    1    3    3    0    0 -0.27246978737E+01  0.94499603217E+00 -0.43612898824E+02  0.43708145005E+02  0.00000000000E+00 0.  1.
</event>
<event>
 7    1  0.1728642E-015  0.9000781E+02  0.7816164E-02  0.1186339E+00
        -11   -1    0    0    0    0  0.00000000000E+00  0.00000000000E+00  0.45593999997E+02  0.45594000000E+02  0.51100000000E-03 0. -1.
         11   -1    0    0    0    0 -0.00000000000E+00 -0.00000000000E+00 -0.45593999997E+02  0.45594000000E+02  0.51100000000E-03 0.  1.
    9900012    2    1    2    0    0  0.28539308346E+00 -0.11020943167E+01  0.31109014866E+00  0.90007814347E+02  0.90000076696E+02 0.  0.
        -12    1    1    2    0    0 -0.28539308346E+00  0.11020943167E+01 -0.31109014866E+00  0.11801856530E+01  0.00000000000E+00 0.  1.
         11    1    3    3    0    0 -0.33893700020E+01  0.90613935146E+01  0.14201216971E+01  0.97782118678E+01  0.51100000000E-03 0. -1.
        -11    1    3    3    0    0 -0.15057193021E+02  0.20056814757E+02 -0.26540471995E+02  0.36515634102E+02  0.51100000000E-03 0.  1.
         12    1    3    3    0    0  0.18731956106E+02 -0.30220302589E+02  0.25431440446E+02  0.43713968377E+02  0.00000000000E+00 0. -1.
</event>
<event>
 7    1  0.1654239E-015  0.9000741E+02  0.7816164E-02  0.1186340E+00
        -11   -1    0    0    0    0  0.00000000000E+00  0.00000000000E+00  0.45593999997E+02  0.45594000000E+02  0.51100000000E-03 0.  1.
         11   -1    0    0    0    0 -0.00000000000E+00 -0.00000000000E+00 -0.45593999997E+02  0.45594000000E+02  0.51100000000E-03 0. -1.
    9900012    2    1    2    0    0 -0.59712711460E+00  0.98601877813E+00 -0.25494663648E+00  0.90007410482E+02  0.89999667500E+02 0.  0.
        -12    1    1    2    0    0  0.59712711460E+00 -0.98601877813E+00  0.25494663648E+00  0.11805895177E+01  0.00000000000E+00 0.  1.
         11    1    3    3    0    0 -0.31730982032E+02 -0.96836378570E+01 -0.21100915602E+02  0.39317638565E+02  0.51100000000E-03 0. -1.
        -11    1    3    3    0    0 -0.46945014339E+01 -0.48023654337E+01  0.57654578964E+01  0.88510769112E+01  0.51100000000E-03 0.  1.
        -12    1    3    3    0    0  0.35828356351E+02  0.15472022069E+02  0.15080511069E+02  0.41838695006E+02  0.00000000000E+00 0.  1.
</event>
<event>
 7    1  0.1654239E-015  0.9000769E+02  0.7816164E-02  0.1186339E+00
        -11   -1    0    0    0    0  0.00000000000E+00  0.00000000000E+00  0.45593999997E+02  0.45594000000E+02  0.51100000000E-03 0.  1.
         11   -1    0    0    0    0 -0.00000000000E+00 -0.00000000000E+00 -0.45593999997E+02  0.45594000000E+02  0.51100000000E-03 0. -1.
    9900012    2    1    2    0    0 -0.18653132368E+00 -0.89123949541E+00 -0.75102170662E+00  0.90007688441E+02  0.89999949128E+02 0.  0.
        -12    1    1    2    0    0  0.18653132368E+00  0.89123949541E+00  0.75102170662E+00  0.11803115592E+01  0.00000000000E+00 0.  1.
         11    1    3    3    0    0  0.42935308192E+01 -0.74949862951E+01  0.42611505243E+01  0.96315435165E+01  0.51100000000E-03 0. -1.
        -11    1    3    3    0    0  0.29173383086E+02  0.13818101320E+02  0.19870146100E+02  0.37905789941E+02  0.51100000000E-03 0.  1.
         12    1    3    3    0    0 -0.33653445229E+02 -0.72143545200E+01 -0.24882318331E+02  0.42470354983E+02  0.00000000000E+00 0. -1.
</event>
<event>
 7    1  0.1654239E-015  0.9000773E+02  0.7816164E-02  0.1186339E+00
        -11   -1    0    0    0    0  0.00000000000E+00  0.00000000000E+00  0.45593999997E+02  0.45594000000E+02  0.51100000000E-03 0.  1.
         11   -1    0    0    0    0 -0.00000000000E+00 -0.00000000000E+00 -0.45593999997E+02  0.45594000000E+02  0.51100000000E-03 0. -1.
    9900012    2    1    2    0    0 -0.33462083843E+00 -0.97754444749E+00 -0.57049686287E+00  0.90007732690E+02  0.89999993962E+02 0.  0.
        -12    1    1    2    0    0  0.33462083843E+00  0.97754444749E+00  0.57049686287E+00  0.11802673099E+01  0.00000000000E+00 0.  1.
         11    1    3    3    0    0  0.64297085715E+01  0.79200031716E+00  0.89208623338E+01  0.11024980810E+02  0.51100000000E-03 0. -1.
        -11    1    3    3    0    0 -0.16855958948E+02 -0.83020936156E+01  0.31272578387E+02  0.36483177900E+02  0.51100000000E-03 0.  1.
         12    1    3    3    0    0  0.10091629538E+02  0.65325488510E+01 -0.40763937583E+02  0.42499573980E+02  0.00000000000E+00 0. -1.
</event>
<event>
 7    1  0.1654239E-015  0.9000767E+02  0.7816164E-02  0.1186339E+00
        -11   -1    0    0    0    0  0.00000000000E+00  0.00000000000E+00  0.45593999997E+02  0.45594000000E+02  0.51100000000E-03 0. -1.
         11   -1    0    0    0    0 -0.00000000000E+00 -0.00000000000E+00 -0.45593999997E+02  0.45594000000E+02  0.51100000000E-03 0.  1.
    9900012    2    1    2    0    0  0.28557952041E+00  0.14521640572E+00  0.11360190273E+01  0.90007668395E+02  0.89999928818E+02 0.  0.
        -12    1    1    2    0    0 -0.28557952041E+00 -0.14521640572E+00 -0.11360190273E+01  0.11803316048E+01  0.00000000000E+00 0.  1.
         11    1    3    3    0    0  0.67737049797E+01 -0.39175429618E+01  0.38638741926E+01  0.87269551418E+01  0.51100000000E-03 0. -1.
        -11    1    3    3    0    0  0.13644321791E+02  0.36125375650E+02 -0.15081665803E+02  0.41456807965E+02  0.51100000000E-03 0.  1.
         12    1    3    3    0    0 -0.20132447250E+02 -0.32062616283E+02  0.12353810637E+02  0.39823905288E+02  0.00000000000E+00 0. -1.
</event>
<event>
 7    1  0.1654239E-015  0.9000769E+02  0.7816164E-02  0.1186339E+00
        -11   -1    0    0    0    0  0.00000000000E+00  0.00000000000E+00  0.45593999997E+02  0.45594000000E+02  0.51100000000E-03 0. -1.
         11   -1    0    0    0    0 -0.00000000000E+00 -0.00000000000E+00 -0.45593999997E+02  0.45594000000E+02  0.51100000000E-03 0.  1.
    9900012    2    1    2    0    0 -0.64367173853E+00 -0.77626630405E+00  0.61338242139E+00  0.90007686196E+02  0.89999946853E+02 0.  0.
        -12    1    1    2    0    0  0.64367173853E+00  0.77626630405E+00 -0.61338242139E+00  0.11803138043E+01  0.00000000000E+00 0.  1.
         11    1    3    3    0    0  0.36193627335E+02 -0.26488625488E+01 -0.18626196379E+02  0.40791302066E+02  0.51100000000E-03 0. -1.
        -11    1    3    3    0    0 -0.13582508148E+02  0.12971188879E+02  0.12570414345E+02  0.22599813839E+02  0.51100000000E-03 0.  1.
        -12    1    3    3    0    0 -0.23254790926E+02 -0.11098592634E+02  0.66691644555E+01  0.26616570290E+02  0.00000000000E+00 0.  1.
</event>
<event>
 7    1  0.1654239E-015  0.9000778E+02  0.7816164E-02  0.1186339E+00
        -11   -1    0    0    0    0  0.00000000000E+00  0.00000000000E+00  0.45593999997E+02  0.45594000000E+02  0.51100000000E-03 0.  1.
         11   -1    0    0    0    0 -0.00000000000E+00 -0.00000000000E+00 -0.45593999997E+02  0.45594000000E+02  0.51100000000E-03 0. -1.
    9900012    2    1    2    0    0 -0.98382731720E+00  0.20645647665E+00 -0.61837550762E+00  0.90007775981E+02  0.90000037824E+02 0.  0.
        -12    1    1    2    0    0  0.98382731720E+00 -0.20645647665E+00  0.61837550762E+00  0.11802240191E+01  0.00000000000E+00 0.  1.
         11    1    3    3    0    0  0.17818534503E+01 -0.63467715847E+00  0.97192842711E+01  0.99016313715E+01  0.51100000000E-03 0. -1.
        -11    1    3    3    0    0 -0.35748324894E+02 -0.17636120508E+02  0.31026373012E+01  0.39982519152E+02  0.51100000000E-03 0.  1.
         12    1    3    3    0    0  0.32982644126E+02  0.18477254143E+02 -0.13440297080E+02  0.40123625457E+02  0.00000000000E+00 0. -1.
</event>
<event>
 7    1  0.1654239E-015  0.9000777E+02  0.7816164E-02  0.1186339E+00
        -11   -1    0    0    0    0  0.00000000000E+00  0.00000000000E+00  0.45593999997E+02  0.45594000000E+02  0.51100000000E-03 0.  1.
         11   -1    0    0    0    0 -0.00000000000E+00 -0.00000000000E+00 -0.45593999997E+02  0.45594000000E+02  0.51100000000E-03 0. -1.
    9900012    2    1    2    0    0 -0.36606446732E+00 -0.43750082137E+00 -0.10332151788E+01  0.90007769612E+02  0.90000031371E+02 0.  0.
        -12    1    1    2    0    0  0.36606446732E+00  0.43750082137E+00  0.10332151788E+01  0.11802303880E+01  0.00000000000E+00 0.  1.
         11    1    3    3    0    0 -0.29913753774E+02  0.18567055365E+01 -0.25541522302E+02  0.39378285667E+02  0.51100000000E-03 0. -1.
        -11    1    3    3    0    0 -0.35571137553E+01 -0.40821379795E+01 -0.41380078922E+01  0.68146913597E+01  0.51100000000E-03 0.  1.
        -12    1    3    3    0    0  0.33104803062E+02  0.17879316216E+01  0.28646315016E+02  0.43814792585E+02  0.00000000000E+00 0.  1.
</event>
<event>
 7    1  0.1654239E-015  0.9000768E+02  0.7816164E-02  0.1186339E+00
        -11   -1    0    0    0    0  0.00000000000E+00  0.00000000000E+00  0.45593999997E+02  0.45594000000E+02  0.51100000000E-03 0.  1.
         11   -1    0    0    0    0 -0.00000000000E+00 -0.00000000000E+00 -0.45593999997E+02  0.45594000000E+02  0.51100000000E-03 0. -1.
    9900012    2    1    2    0    0  0.26325820021E+00 -0.83700531205E+00  0.78947443448E+00  0.90007681121E+02  0.89999941712E+02 0.  0.
        -12    1    1    2    0    0 -0.26325820021E+00  0.83700531205E+00 -0.78947443448E+00  0.11803188786E+01  0.00000000000E+00 0.  1.
         11    1    3    3    0    0 -0.35434512240E+02 -0.83970353903E+00  0.11409700036E+02  0.37235614872E+02  0.51100000000E-03 0. -1.
        -11    1    3    3    0    0 -0.19163425660E+01  0.13133867611E+01  0.97177165863E+01  0.99915649188E+01  0.51100000000E-03 0.  1.
        -12    1    3    3    0    0  0.37614113006E+02 -0.13106885342E+01 -0.20337942188E+02  0.42780501331E+02  0.00000000000E+00 0.  1.
</event>
<event>
 7    1  0.1654239E-015  0.9000773E+02  0.7816164E-02  0.1186339E+00
        -11   -1    0    0    0    0  0.00000000000E+00  0.00000000000E+00  0.45593999997E+02  0.45594000000E+02  0.51100000000E-03 0. -1.
         11   -1    0    0    0    0 -0.00000000000E+00 -0.00000000000E+00 -0.45593999997E+02  0.45594000000E+02  0.51100000000E-03 0.  1.
    9900012    2    1    2    0    0  0.75623971102E+00  0.27664710005E+00  0.86290117412E+00  0.90007732846E+02  0.89999994120E+02 0.  0.
        -12    1    1    2    0    0 -0.75623971102E+00 -0.27664710005E+00 -0.86290117412E+00  0.11802671540E+01  0.00000000000E+00 0.  1.
         11    1    3    3    0    0  0.12778651136E+02  0.36955856391E+02 -0.61066321271E+01  0.39576763418E+02  0.51100000000E-03 0. -1.
        -11    1    3    3    0    0 -0.91452058877E+01  0.23124648771E+01  0.62705237553E+01  0.11327036372E+02  0.51100000000E-03 0.  1.
        -12    1    3    3    0    0 -0.28772055370E+01 -0.38991674168E+02  0.69900954598E+00  0.39103933056E+02  0.00000000000E+00 0.  1.
</event>
<event>
 7    1  0.1654239E-015  0.9000775E+02  0.7816164E-02  0.1186339E+00
        -11   -1    0    0    0    0  0.00000000000E+00  0.00000000000E+00  0.45593999997E+02  0.45594000000E+02  0.51100000000E-03 0. -1.
         11   -1    0    0    0    0 -0.00000000000E+00 -0.00000000000E+00 -0.45593999997E+02  0.45594000000E+02  0.51100000000E-03 0.  1.
    9900012    2    1    2    0    0 -0.81782705292E+00  0.29321776002E+00  0.79884957355E+00  0.90007754947E+02  0.90000016513E+02 0.  0.
        -12    1    1    2    0    0  0.81782705292E+00 -0.29321776002E+00 -0.79884957355E+00  0.11802450527E+01  0.00000000000E+00 0.  1.
         11    1    3    3    0    0  0.25462802400E+02  0.75786949953E+01 -0.31401537986E+02  0.41132074006E+02  0.51100000000E-03 0. -1.
        -11    1    3    3    0    0  0.43097505417E+01 -0.26624237838E+01  0.85324071258E+01  0.99229240528E+01  0.51100000000E-03 0.  1.
        -12    1    3    3    0    0 -0.30590379994E+02 -0.46230534515E+01  0.23667980434E+02  0.38952756889E+02  0.00000000000E+00 0.  1.
</event>
<event>
 7    1  0.1654239E-015  0.9000779E+02  0.7816164E-02  0.1186339E+00
        -11   -1    0    0    0    0  0.00000000000E+00  0.00000000000E+00  0.45593999997E+02  0.45594000000E+02  0.51100000000E-03 0. -1.
         11   -1    0    0    0    0 -0.00000000000E+00 -0.00000000000E+00 -0.45593999997E+02  0.45594000000E+02  0.51100000000E-03 0.  1.
    9900012    2    1    2    0    0  0.11391328880E+01  0.29723805889E+00  0.83245141596E-01  0.90007786480E+02  0.90000048461E+02 0.  0.
        -12    1    1    2    0    0 -0.11391328880E+01 -0.29723805889E+00 -0.83245141596E-01  0.11802135204E+01  0.00000000000E+00 0.  1.
         11    1    3    3    0    0  0.36698724906E+02 -0.35983576565E+01  0.68734624629E+01  0.37509853026E+02  0.51100000000E-03 0. -1.
        -11    1    3    3    0    0  0.73504082213E+01 -0.20623747683E+01 -0.50264149633E+01  0.91403904922E+01  0.51100000000E-03 0.  1.
        -12    1    3    3    0    0 -0.42910000240E+02  0.59579704837E+01 -0.17638023580E+01  0.43357542961E+02  0.00000000000E+00 0.  1.
</event>
<event>
 7    1  0.1654239E-015  0.9000772E+02  0.7816164E-02  0.1186339E+00
        -11   -1    0    0    0    0  0.00000000000E+00  0.00000000000E+00  0.45593999997E+02  0.45594000000E+02  0.51100000000E-03 0.  1.
         11   -1    0    0    0    0 -0.00000000000E+00 -0.00000000000E+00 -0.45593999997E+02  0.45594000000E+02  0.51100000000E-03 0. -1.
    9900012    2    1    2    0    0  0.68537849686E+00 -0.16516899551E+00 -0.94658737724E+00  0.90007723700E+02  0.89999984853E+02 0.  0.
        -12    1    1    2    0    0 -0.68537849686E+00  0.16516899551E+00  0.94658737724E+00  0.11802762998E+01  0.00000000000E+00 0.  1.
         11    1    3    3    0    0 -0.56628729773E+01 -0.16992687697E+02 -0.24620753732E+02  0.30446692433E+02  0.51100000000E-03 0. -1.
        -11    1    3    3    0    0 -0.23235499746E+01 -0.17656502674E+02  0.20058460281E+01  0.17921338949E+02  0.51100000000E-03 0.  1.
        -12    1    3    3    0    0  0.86718014488E+01  0.34484021375E+02  0.21668320327E+02  0.41639692318E+02  0.00000000000E+00 0.  1.
</event>
<event>
 7    1  0.1654239E-015  0.9000764E+02  0.7816164E-02  0.1186339E+00
        -11   -1    0    0    0    0  0.00000000000E+00  0.00000000000E+00  0.45593999997E+02  0.45594000000E+02  0.51100000000E-03 0.  1.
         11   -1    0    0    0    0 -0.00000000000E+00 -0.00000000000E+00 -0.45593999997E+02  0.45594000000E+02  0.51100000000E-03 0. -1.
    9900012    2    1    2    0    0  0.13370910368E+00 -0.50031343808E+00 -0.10606831297E+01  0.90007643968E+02  0.89999904068E+02 0.  0.
        -12    1    1    2    0    0 -0.13370910368E+00  0.50031343808E+00  0.10606831297E+01  0.11803560320E+01  0.00000000000E+00 0.  1.
         11    1    3    3    0    0 -0.17373799513E+02 -0.22227726159E+02 -0.32938748842E+02  0.43369135284E+02  0.51100000000E-03 0. -1.
        -11    1    3    3    0    0  0.11679014862E+01  0.60299422407E+01 -0.14753918215E+01  0.63167221401E+01  0.51100000000E-03 0.  1.
        -12    1    3    3    0    0  0.16339607130E+02  0.15697470480E+02  0.33353457534E+02  0.40321786544E+02  0.00000000000E+00 0.  1.
</event>
<event>
 7    1  0.1654239E-015  0.9000777E+02  0.7816164E-02  0.1186339E+00
        -11   -1    0    0    0    0  0.00000000000E+00  0.00000000000E+00  0.45593999997E+02  0.45594000000E+02  0.51100000000E-03 0.  1.
         11   -1    0    0    0    0 -0.00000000000E+00 -0.00000000000E+00 -0.45593999997E+02  0.45594000000E+02  0.51100000000E-03 0. -1.
    9900012    2    1    2    0    0  0.12306380735E+00  0.18381220396E+00 -0.11593192843E+01  0.90007765773E+02  0.90000027481E+02 0.  0.
        -12    1    1    2    0    0 -0.12306380735E+00 -0.18381220396E+00  0.11593192843E+01  0.11802342268E+01  0.00000000000E+00 0.  1.
         11    1    3    3    0    0 -0.64649506049E+01 -0.34601111517E+02 -0.13568633100E+02  0.37724531925E+02  0.51100000000E-03 0. -1.
        -11    1    3    3    0    0 -0.87309814067E+01 -0.19906107843E+01 -0.31803230220E+01  0.95030007053E+01  0.51100000000E-03 0.  1.
        -12    1    3    3    0    0  0.15318995819E+02  0.36775534505E+02  0.15589636838E+02  0.42780233143E+02  0.00000000000E+00 0.  1.
</event>
<event>
 7    1  0.1654239E-015  0.9000746E+02  0.7816164E-02  0.1186340E+00
        -11   -1    0    0    0    0  0.00000000000E+00  0.00000000000E+00  0.45593999997E+02  0.45594000000E+02  0.51100000000E-03 0.  1.
         11   -1    0    0    0    0 -0.00000000000E+00 -0.00000000000E+00 -0.45593999997E+02  0.45594000000E+02  0.51100000000E-03 0. -1.
    9900012    2    1    2    0    0  0.41613865048E+00 -0.73221509236E+00 -0.82726619575E+00  0.90007457889E+02  0.89999715532E+02 0.  0.
        -12    1    1    2    0    0 -0.41613865048E+00  0.73221509236E+00  0.82726619575E+00  0.11805421113E+01  0.00000000000E+00 0.  1.
         11    1    3    3    0    0  0.15475689763E+02 -0.68251041569E+01 -0.39859924179E+02  0.43300029748E+02  0.51100000000E-03 0. -1.
        -11    1    3    3    0    0 -0.42183944050E+01  0.77812731950E+01  0.34977227636E+01  0.95172017255E+01  0.51100000000E-03 0.  1.
        -12    1    3    3    0    0 -0.10841156707E+02 -0.16883841305E+01  0.35534935220E+02  0.37190226415E+02  0.00000000000E+00 0.  1.
</event>
<event>
 7    1  0.1654239E-015  0.9000774E+02  0.7816164E-02  0.1186339E+00
        -11   -1    0    0    0    0  0.00000000000E+00  0.00000000000E+00  0.45593999997E+02  0.45594000000E+02  0.51100000000E-03 0.  1.
         11   -1    0    0    0    0 -0.00000000000E+00 -0.00000000000E+00 -0.45593999997E+02  0.45594000000E+02  0.51100000000E-03 0. -1.
    9900012    2    1    2    0    0 -0.11718752513E+01  0.97231814997E-01  0.10138075541E+00  0.90007735755E+02  0.89999997067E+02 0.  0.
        -12    1    1    2    0    0  0.11718752513E+01 -0.97231814997E-01 -0.10138075541E+00  0.11802642450E+01  0.00000000000E+00 0.  1.
         11    1    3    3    0    0 -0.15002498993E+02  0.40188144355E+01  0.51882802407E+00  0.15540110305E+02  0.51100000000E-03 0. -1.
        -11    1    3    3    0    0  0.14401767970E+02  0.28957705078E+02 -0.18171611834E+02  0.37096726014E+02  0.51100000000E-03 0.  1.
         12    1    3    3    0    0 -0.57114422878E+00 -0.32879287698E+02  0.17754164566E+02  0.37370899436E+02  0.00000000000E+00 0. -1.
</event>
<event>
 7    1  0.1654239E-015  0.9000777E+02  0.7816164E-02  0.1186339E+00
        -11   -1    0    0    0    0  0.00000000000E+00  0.00000000000E+00  0.45593999997E+02  0.45594000000E+02  0.51100000000E-03 0. -1.
         11   -1    0    0    0    0 -0.00000000000E+00 -0.00000000000E+00 -0.45593999997E+02  0.45594000000E+02  0.51100000000E-03 0.  1.
    9900012    2    1    2    0    0 -0.11566127732E+01 -0.22116919183E+00 -0.79211640431E-01  0.90007769767E+02  0.90000031528E+02 0.  0.
        -12    1    1    2    0    0  0.11566127732E+01  0.22116919183E+00  0.79211640431E-01  0.11802302328E+01  0.00000000000E+00 0.  1.
         11    1    3    3    0    0 -0.77187735167E+01 -0.64357642007E+01 -0.28342776096E+01  0.10441822412E+02  0.51100000000E-03 0. -1.
        -11    1    3    3    0    0 -0.30152198496E+02 -0.14647126220E+02  0.13264277643E+02  0.36050443026E+02  0.51100000000E-03 0.  1.
         12    1    3    3    0    0  0.36714359240E+02  0.20861721229E+02 -0.10509211674E+02  0.43515504330E+02  0.00000000000E+00 0. -1.
</event>
<event>
 7    1  0.1654239E-015  0.9000815E+02  0.7816164E-02  0.1186338E+00
        -11   -1    0    0    0    0  0.00000000000E+00  0.00000000000E+00  0.45593999997E+02  0.45594000000E+02  0.51100000000E-03 0.  1.
         11   -1    0    0    0    0 -0.00000000000E+00 -0.00000000000E+00 -0.45593999997E+02  0.45594000000E+02  0.51100000000E-03 0. -1.
    9900012    2    1    2    0    0  0.82571571732E-01 -0.10036042758E+01 -0.61481838912E+00  0.90008152019E+02  0.90000418825E+02 0.  0.
        -12    1    1    2    0    0 -0.82571571732E-01  0.10036042758E+01  0.61481838912E+00  0.11798479810E+01  0.00000000000E+00 0.  1.
         11    1    3    3    0    0 -0.39951031820E+01 -0.30485078176E+01 -0.81204078162E+01  0.95496216004E+01  0.51100000000E-03 0. -1.
        -11    1    3    3    0    0  0.30696031759E+01 -0.38494777040E+02 -0.24749252478E+01  0.38696195915E+02  0.51100000000E-03 0.  1.
         12    1    3    3    0    0  0.10080715778E+01  0.40539680582E+02  0.99805146749E+01  0.41762334504E+02  0.00000000000E+00 0. -1.
</event>
<event>
 7    1  0.1654239E-015  0.9000776E+02  0.7816164E-02  0.1186339E+00
        -11   -1    0    0    0    0  0.00000000000E+00  0.00000000000E+00  0.45593999997E+02  0.45594000000E+02  0.51100000000E-03 0. -1.
         11   -1    0    0    0    0 -0.00000000000E+00 -0.00000000000E+00 -0.45593999997E+02  0.45594000000E+02  0.51100000000E-03 0.  1.
    9900012    2    1    2    0    0  0.55271109087E+00  0.74580608428E+00 -0.72887279981E+00  0.90007757727E+02  0.90000019329E+02 0.  0.
        -12    1    1    2    0    0 -0.55271109087E+00 -0.74580608428E+00  0.72887279981E+00  0.11802422733E+01  0.00000000000E+00 0.  1.
         11    1    3    3    0    0  0.49418764597E+01 -0.38494828995E+02 -0.12458456334E+02  0.40761343658E+02  0.51100000000E-03 0. -1.
        -11    1    3    3    0    0  0.89696688652E+01  0.47576193157E+01 -0.84088170378E+00  0.10188080457E+02  0.51100000000E-03 0.  1.
        -12    1    3    3    0    0 -0.13358834234E+02  0.34483015763E+02  0.12570465238E+02  0.39058333612E+02  0.00000000000E+00 0.  1.
</event>
<event>
 7    1  0.1654239E-015  0.9000764E+02  0.7816164E-02  0.1186339E+00
        -11   -1    0    0    0    0  0.00000000000E+00  0.00000000000E+00  0.45593999997E+02  0.45594000000E+02  0.51100000000E-03 0. -1.
         11   -1    0    0    0    0 -0.00000000000E+00 -0.00000000000E+00 -0.45593999997E+02  0.45594000000E+02  0.51100000000E-03 0.  1.
    9900012    2    1    2    0    0  0.55224860727E+00  0.98557492351E+00  0.34193696264E+00  0.90007636776E+02  0.89999896781E+02 0.  0.
        -12    1    1    2    0    0 -0.55224860727E+00 -0.98557492351E+00 -0.34193696264E+00  0.11803632240E+01  0.00000000000E+00 0.  1.
         11    1    3    3    0    0  0.26061571889E+01  0.13416385537E+02 -0.43330736984E+01  0.14337607335E+02  0.51100000000E-03 0. -1.
        -11    1    3    3    0    0 -0.19428731831E+02  0.24742818851E+02  0.12581067697E+02  0.33881646506E+02  0.51100000000E-03 0.  1.
         12    1    3    3    0    0  0.17374823249E+02 -0.37173629464E+02 -0.79060570358E+01  0.41788382935E+02  0.00000000000E+00 0. -1.
</event>
<event>
 7    1  0.1654239E-015  0.9000773E+02  0.7816164E-02  0.1186339E+00
        -11   -1    0    0    0    0  0.00000000000E+00  0.00000000000E+00  0.45593999997E+02  0.45594000000E+02  0.51100000000E-03 0.  1.
         11   -1    0    0    0    0 -0.00000000000E+00 -0.00000000000E+00 -0.45593999997E+02  0.45594000000E+02  0.51100000000E-03 0. -1.
    9900012    2    1    2    0    0 -0.65418933014E+00 -0.83876017742E+00 -0.51143125152E+00  0.90007727049E+02  0.89999988246E+02 0.  0.
        -12    1    1    2    0    0  0.65418933014E+00  0.83876017742E+00  0.51143125152E+00  0.11802729515E+01  0.00000000000E+00 0.  1.
         11    1    3    3    0    0 -0.50637750956E+01 -0.82710237051E+01  0.35949060852E+01  0.10342872008E+02  0.51100000000E-03 0. -1.
        -11    1    3    3    0    0 -0.34781121613E+02  0.16615566015E+02 -0.75029023833E+01  0.39269542893E+02  0.51100000000E-03 0.  1.
         12    1    3    3    0    0  0.39190707378E+02 -0.91833024873E+01  0.33965650465E+01  0.40395312147E+02  0.00000000000E+00 0. -1.
</event>
<event>
 7    1  0.1654239E-015  0.9000776E+02  0.7816164E-02  0.1186339E+00
        -11   -1    0    0    0    0  0.00000000000E+00  0.00000000000E+00  0.45593999997E+02  0.45594000000E+02  0.51100000000E-03 0.  1.
         11   -1    0    0    0    0 -0.00000000000E+00 -0.00000000000E+00 -0.45593999997E+02  0.45594000000E+02  0.51100000000E-03 0. -1.
    9900012    2    1    2    0    0  0.23968212829E+00 -0.51711978053E+00 -0.10334870173E+01  0.90007764513E+02  0.90000026205E+02 0.  0.
        -12    1    1    2    0    0 -0.23968212829E+00  0.51711978053E+00  0.10334870173E+01  0.11802354871E+01  0.00000000000E+00 0.  1.
         11    1    3    3    0    0  0.54926755376E+01 -0.37837066185E+01  0.58923616394E+01  0.88997666423E+01  0.51100000000E-03 0. -1.
        -11    1    3    3    0    0  0.31331123745E+02  0.18681332471E+02  0.10193176256E+02  0.37875220666E+02  0.51100000000E-03 0.  1.
         12    1    3    3    0    0 -0.36584117154E+02 -0.15414745633E+02 -0.17119024913E+02  0.43232777205E+02  0.00000000000E+00 0. -1.
</event>
<event>
 7    1  0.1654239E-015  0.9000774E+02  0.7816164E-02  0.1186339E+00
        -11   -1    0    0    0    0  0.00000000000E+00  0.00000000000E+00  0.45593999997E+02  0.45594000000E+02  0.51100000000E-03 0.  1.
         11   -1    0    0    0    0 -0.00000000000E+00 -0.00000000000E+00 -0.45593999997E+02  0.45594000000E+02  0.51100000000E-03 0. -1.
    9900012    2    1    2    0    0  0.64261912109E+00  0.39605905640E+00 -0.90729748368E+00  0.90007741200E+02  0.90000002584E+02 0.  0.
        -12    1    1    2    0    0 -0.64261912109E+00 -0.39605905640E+00  0.90729748368E+00  0.11802587999E+01  0.00000000000E+00 0.  1.
         11    1    3    3    0    0 -0.29043846900E+01  0.74680532046E+01 -0.35197117069E+02  0.36097705181E+02  0.51100000000E-03 0. -1.
        -11    1    3    3    0    0 -0.55171353872E+01 -0.46450415335E+00 -0.82392038540E+01  0.99266825978E+01  0.51100000000E-03 0.  1.
        -12    1    3    3    0    0  0.90641391984E+01 -0.66074899948E+01  0.42529023440E+02  0.43983353421E+02  0.00000000000E+00 0.  1.
</event>
<event>
 7    1  0.1654239E-015  0.9000762E+02  0.7816164E-02  0.1186339E+00
        -11   -1    0    0    0    0  0.00000000000E+00  0.00000000000E+00  0.45593999997E+02  0.45594000000E+02  0.51100000000E-03 0.  1.
         11   -1    0    0    0    0 -0.00000000000E+00 -0.00000000000E+00 -0.45593999997E+02  0.45594000000E+02  0.51100000000E-03 0. -1.
    9900012    2    1    2    0    0 -0.17728866603E+00 -0.11437131563E+01 -0.23190299384E+00  0.90007622919E+02  0.89999882741E+02 0.  0.
        -12    1    1    2    0    0  0.17728866603E+00  0.11437131563E+01  0.23190299384E+00  0.11803770811E+01  0.00000000000E+00 0.  1.
         11    1    3    3    0    0  0.32218743994E+01  0.91317566841E+01  0.61146995679E+01  0.11452467239E+02  0.51100000000E-03 0. -1.
        -11    1    3    3    0    0 -0.12293026191E+02  0.13103660445E+02  0.29680905046E+02  0.34695540558E+02  0.51100000000E-03 0.  1.
         12    1    3    3    0    0  0.88938631256E+01 -0.23379130286E+02 -0.36027507608E+02  0.43859615122E+02  0.00000000000E+00 0. -1.
</event>
<event>
 7    1  0.1654239E-015  0.9000779E+02  0.7816164E-02  0.1186339E+00
        -11   -1    0    0    0    0  0.00000000000E+00  0.00000000000E+00  0.45593999997E+02  0.45594000000E+02  0.51100000000E-03 0.  1.
         11   -1    0    0    0    0 -0.00000000000E+00 -0.00000000000E+00 -0.45593999997E+02  0.45594000000E+02  0.51100000000E-03 0. -1.
    9900012    2    1    2    0    0 -0.94514450326E+00  0.53954382714E+00 -0.45659443941E+00  0.90007794867E+02  0.90000056959E+02 0.  0.
        -12    1    1    2    0    0  0.94514450326E+00 -0.53954382714E+00  0.45659443941E+00  0.11802051328E+01  0.00000000000E+00 0.  1.
         11    1    3    3    0    0 -0.85305299159E+01 -0.21820811044E+01 -0.11573245724E+01  0.88809244462E+01  0.51100000000E-03 0. -1.
        -11    1    3    3    0    0 -0.50344000773E+01  0.40336577329E+02 -0.53235264955E+01  0.40996641196E+02  0.51100000000E-03 0.  1.
         12    1    3    3    0    0  0.12619785490E+02 -0.37614952398E+02  0.60242566284E+01  0.40130229225E+02  0.00000000000E+00 0. -1.
</event>
<event>
 7    1  0.1654239E-015  0.9000772E+02  0.7816164E-02  0.1186339E+00
        -11   -1    0    0    0    0  0.00000000000E+00  0.00000000000E+00  0.45593999997E+02  0.45594000000E+02  0.51100000000E-03 0.  1.
         11   -1    0    0    0    0 -0.00000000000E+00 -0.00000000000E+00 -0.45593999997E+02  0.45594000000E+02  0.51100000000E-03 0. -1.
    9900012    2    1    2    0    0 -0.35955129065E+00  0.11037736641E+01 -0.21325772291E+00  0.90007715166E+02  0.89999976207E+02 0.  0.
        -12    1    1    2    0    0  0.35955129065E+00 -0.11037736641E+01  0.21325772291E+00  0.11802848336E+01  0.00000000000E+00 0.  1.
         11    1    3    3    0    0 -0.34147867092E+01  0.64907676717E+01 -0.32802897032E+02  0.33612808380E+02  0.51100000000E-03 0. -1.
        -11    1    3    3    0    0 -0.58244608763E+01 -0.25896165018E+01 -0.10515091166E+02  0.12296243354E+02  0.51100000000E-03 0.  1.
        -12    1    3    3    0    0  0.88796962949E+01 -0.27973775058E+01  0.43104730475E+02  0.44098663433E+02  0.00000000000E+00 0.  1.
</event>
<event>
 7    1  0.1654239E-015  0.9000779E+02  0.7816164E-02  0.1186339E+00
        -11   -1    0    0    0    0  0.00000000000E+00  0.00000000000E+00  0.45593999997E+02  0.45594000000E+02  0.51100000000E-03 0.  1.
         11   -1    0    0    0    0 -0.00000000000E+00 -0.00000000000E+00 -0.45593999997E+02  0.45594000000E+02  0.51100000000E-03 0. -1.
    9900012    2    1    2    0    0 -0.18837502773E+00 -0.69210279061E+00 -0.93723711129E+00  0.90007786110E+02  0.90000048086E+02 0.  0.
        -12    1    1    2    0    0  0.18837502773E+00  0.69210279061E+00  0.93723711129E+00  0.11802138902E+01  0.00000000000E+00 0.  1.
         11    1    3    3    0    0  0.22166095714E+01  0.95188182540E+01  0.35900635437E+01  0.10412003431E+02  0.51100000000E-03 0. -1.
        -11    1    3    3    0    0 -0.19464537689E+01  0.34457795430E+01  0.36314114914E+02  0.36529125656E+02  0.51100000000E-03 0.  1.
         12    1    3    3    0    0 -0.45853083030E+00 -0.13656700588E+02 -0.40841415569E+02  0.43066657023E+02  0.00000000000E+00 0. -1.
</event>
<event>
 7    1  0.1654239E-015  0.9000769E+02  0.7816164E-02  0.1186339E+00
        -11   -1    0    0    0    0  0.00000000000E+00  0.00000000000E+00  0.45593999997E+02  0.45594000000E+02  0.51100000000E-03 0.  1.
         11   -1    0    0    0    0 -0.00000000000E+00 -0.00000000000E+00 -0.45593999997E+02  0.45594000000E+02  0.51100000000E-03 0. -1.
    9900012    2    1    2    0    0  0.11416014258E+01  0.53685443298E-02 -0.29974170787E+00  0.90007691681E+02  0.89999952411E+02 0.  0.
        -12    1    1    2    0    0 -0.11416014258E+01 -0.53685443298E-02  0.29974170787E+00  0.11803083191E+01  0.00000000000E+00 0.  1.
         11    1    3    3    0    0 -0.21029182859E+01 -0.77365842786E+01  0.77551142976E+00  0.80547141387E+01  0.51100000000E-03 0. -1.
        -11    1    3    3    0    0  0.29508259317E+02 -0.22932058265E+02  0.12411858012E+02  0.39378558680E+02  0.51100000000E-03 0.  1.
         12    1    3    3    0    0 -0.26263739605E+02  0.30674011088E+02 -0.13487111149E+02  0.42574418862E+02  0.00000000000E+00 0. -1.
</event>
<event>
 7    1  0.2036484E-015  0.9000754E+02  0.7816164E-02  0.1186339E+00
        -11   -1    0    0    0    0  0.00000000000E+00  0.00000000000E+00  0.45593999997E+02  0.45594000000E+02  0.51100000000E-03 0.  1.
         11   -1    0    0    0    0 -0.00000000000E+00 -0.00000000000E+00 -0.45593999997E+02  0.45594000000E+02  0.51100000000E-03 0. -1.
    9900012    2    1    2    0    0 -0.67768075360E+00 -0.44262702987E+00 -0.85925593682E+00  0.90007537948E+02  0.89999796649E+02 0.  0.
        -12    1    1    2    0    0  0.67768075360E+00  0.44262702987E+00  0.85925593682E+00  0.11804620521E+01  0.00000000000E+00 0.  1.
         11    1    3    3    0    0 -0.69028067109E+01  0.49613962893E+01  0.42670490973E+01  0.95116718766E+01  0.51100000000E-03 0. -1.
        -11    1    3    3    0    0  0.87614668676E+00  0.48690446484E+01  0.36732536685E+02  0.37064194048E+02  0.51100000000E-03 0.  1.
         12    1    3    3    0    0  0.53489792706E+01 -0.10273067968E+02 -0.41858841719E+02  0.43431672024E+02  0.00000000000E+00 0. -1.
</event>
<event>
 7    1  0.1654239E-015  0.9000771E+02  0.7816164E-02  0.1186339E+00
        -11   -1    0    0    0    0  0.00000000000E+00  0.00000000000E+00  0.45593999997E+02  0.45594000000E+02  0.51100000000E-03 0. -1.
         11   -1    0    0    0    0 -0.00000000000E+00 -0.00000000000E+00 -0.45593999997E+02  0.45594000000E+02  0.51100000000E-03 0.  1.
    9900012    2    1    2    0    0 -0.10021286932E+00 -0.93663675699E+00  0.71115684022E+00  0.90007713982E+02  0.89999975006E+02 0.  0.
        -12    1    1    2    0    0  0.10021286932E+00  0.93663675699E+00 -0.71115684022E+00  0.11802860183E+01  0.00000000000E+00 0.  1.
         11    1    3    3    0    0 -0.32692632657E+01  0.68634424499E-01 -0.25944001057E+01  0.41741711937E+01  0.51100000000E-03 0. -1.
        -11    1    3    3    0    0 -0.18926504601E+02  0.30872290949E+02 -0.19203463710E+02  0.40988827058E+02  0.51100000000E-03 0.  1.
         12    1    3    3    0    0  0.22095554998E+02 -0.31877562130E+02  0.22509020656E+02  0.44844715730E+02  0.00000000000E+00 0. -1.
</event>
<event>
 7    1  0.1654239E-015  0.9000780E+02  0.7816164E-02  0.1186339E+00
        -11   -1    0    0    0    0  0.00000000000E+00  0.00000000000E+00  0.45593999997E+02  0.45594000000E+02  0.51100000000E-03 0. -1.
         11   -1    0    0    0    0 -0.00000000000E+00 -0.00000000000E+00 -0.45593999997E+02  0.45594000000E+02  0.51100000000E-03 0.  1.
    9900012    2    1    2    0    0  0.77651837334E+00 -0.81029852748E+00  0.36510552288E+00  0.90007802334E+02  0.90000064525E+02 0.  0.
        -12    1    1    2    0    0 -0.77651837334E+00  0.81029852748E+00 -0.36510552288E+00  0.11801976659E+01  0.00000000000E+00 0.  1.
         11    1    3    3    0    0  0.45929754363E+01 -0.74010672110E+01  0.51249437132E+01  0.10106248935E+02  0.51100000000E-03 0. -1.
        -11    1    3    3    0    0  0.24847547052E+01 -0.35580207674E+02  0.53878582056E+01  0.36071515082E+02  0.51100000000E-03 0.  1.
         12    1    3    3    0    0 -0.63012117682E+01  0.42170976357E+02 -0.10147696396E+02  0.43830038316E+02  0.00000000000E+00 0. -1.
</event>
<event>
 7    1  0.1654239E-015  0.9000780E+02  0.7816164E-02  0.1186339E+00
        -11   -1    0    0    0    0  0.00000000000E+00  0.00000000000E+00  0.45593999997E+02  0.45594000000E+02  0.51100000000E-03 0. -1.
         11   -1    0    0    0    0 -0.00000000000E+00 -0.00000000000E+00 -0.45593999997E+02  0.45594000000E+02  0.51100000000E-03 0.  1.
    9900012    2    1    2    0    0  0.95283430212E+00  0.68487983032E+00 -0.12618551136E+00  0.90007798164E+02  0.90000060300E+02 0.  0.
        -12    1    1    2    0    0 -0.95283430212E+00 -0.68487983032E+00  0.12618551136E+00  0.11802018355E+01  0.00000000000E+00 0.  1.
         11    1    3    3    0    0 -0.79860707798E+01  0.43327906378E+02 -0.17520483966E+01  0.44092567077E+02  0.51100000000E-03 0. -1.
        -11    1    3    3    0    0 -0.22262292023E+00 -0.68145685870E+01  0.54611087246E+01  0.87356519365E+01  0.51100000000E-03 0.  1.
        -12    1    3    3    0    0  0.91615280022E+01 -0.35828457961E+02 -0.38352458394E+01  0.37179579151E+02  0.00000000000E+00 0.  1.
</event>
<event>
 7    1  0.1654239E-015  0.9000780E+02  0.7816164E-02  0.1186339E+00
        -11   -1    0    0    0    0  0.00000000000E+00  0.00000000000E+00  0.45593999997E+02  0.45594000000E+02  0.51100000000E-03 0.  1.
         11   -1    0    0    0    0 -0.00000000000E+00 -0.00000000000E+00 -0.45593999997E+02  0.45594000000E+02  0.51100000000E-03 0. -1.
    9900012    2    1    2    0    0  0.24384983733E+00  0.11065753129E+01 -0.32998428391E+00  0.90007804553E+02  0.90000066773E+02 0.  0.
        -12    1    1    2    0    0 -0.24384983733E+00 -0.11065753129E+01  0.32998428391E+00  0.11801954474E+01  0.00000000000E+00 0.  1.
         11    1    3    3    0    0 -0.75932273337E+01  0.70003470792E+01 -0.60687455836E+01  0.11978799347E+02  0.51100000000E-03 0. -1.
        -11    1    3    3    0    0 -0.23982802792E+02  0.23612045290E+02  0.79362789130E+01  0.34578722299E+02  0.51100000000E-03 0.  1.
         12    1    3    3    0    0  0.31819879963E+02 -0.29505817056E+02 -0.21975176133E+01  0.43450282907E+02  0.00000000000E+00 0. -1.
</event>
<event>
 7    1  0.1654239E-015  0.9000778E+02  0.7816164E-02  0.1186339E+00
        -11   -1    0    0    0    0  0.00000000000E+00  0.00000000000E+00  0.45593999997E+02  0.45594000000E+02  0.51100000000E-03 0.  1.
         11   -1    0    0    0    0 -0.00000000000E+00 -0.00000000000E+00 -0.45593999997E+02  0.45594000000E+02  0.51100000000E-03 0. -1.
    9900012    2    1    2    0    0 -0.69435646851E+00  0.93583250574E+00 -0.18708500921E+00  0.90007782145E+02  0.90000044069E+02 0.  0.
        -12    1    1    2    0    0  0.69435646851E+00 -0.93583250574E+00  0.18708500921E+00  0.11802178548E+01  0.00000000000E+00 0.  1.
         11    1    3    3    0    0 -0.13067201672E+01  0.58792244420E+01 -0.12417560538E+02  0.13801036469E+02  0.51100000000E-03 0. -1.
        -11    1    3    3    0    0  0.16918888362E+02 -0.28356956351E+02 -0.15447579199E+02  0.36455362572E+02  0.51100000000E-03 0.  1.
         12    1    3    3    0    0 -0.16306524664E+02  0.23413564414E+02  0.27678054728E+02  0.39751383104E+02  0.00000000000E+00 0. -1.
</event>
<event>
 7    1  0.1654239E-015  0.9000774E+02  0.7816164E-02  0.1186339E+00
        -11   -1    0    0    0    0  0.00000000000E+00  0.00000000000E+00  0.45593999997E+02  0.45594000000E+02  0.51100000000E-03 0. -1.
         11   -1    0    0    0    0 -0.00000000000E+00 -0.00000000000E+00 -0.45593999997E+02  0.45594000000E+02  0.51100000000E-03 0.  1.
    9900012    2    1    2    0    0 -0.79378854552E+00 -0.99364025835E-01  0.86778071643E+00  0.90007738658E+02  0.90000000008E+02 0.  0.
        -12    1    1    2    0    0  0.79378854552E+00  0.99364025835E-01 -0.86778071643E+00  0.11802613424E+01  0.00000000000E+00 0.  1.
         11    1    3    3    0    0  0.16876051638E+02 -0.30557335164E+02  0.27362920940E+02  0.44354044842E+02  0.51100000000E-03 0. -1.
        -11    1    3    3    0    0 -0.90928839733E+01  0.11820473146E+02 -0.18185459588E+02  0.23518398437E+02  0.51100000000E-03 0.  1.
        -12    1    3    3    0    0 -0.85769562104E+01  0.18637497992E+02 -0.83096806353E+01  0.22135295379E+02  0.00000000000E+00 0.  1.
</event>
<event>
 7    1  0.1654239E-015  0.9000767E+02  0.7816164E-02  0.1186339E+00
        -11   -1    0    0    0    0  0.00000000000E+00  0.00000000000E+00  0.45593999997E+02  0.45594000000E+02  0.51100000000E-03 0.  1.
         11   -1    0    0    0    0 -0.00000000000E+00 -0.00000000000E+00 -0.45593999997E+02  0.45594000000E+02  0.51100000000E-03 0. -1.
    9900012    2    1    2    0    0  0.29502585925E+00 -0.11428555463E+01 -0.42245980992E-02  0.90007670849E+02  0.89999931304E+02 0.  0.
        -12    1    1    2    0    0 -0.29502585925E+00  0.11428555463E+01  0.42245980992E-02  0.11803291509E+01  0.00000000000E+00 0.  1.
         11    1    3    3    0    0 -0.10479316242E+02  0.40266109389E+01  0.36087142824E+01  0.11792051713E+02  0.51100000000E-03 0. -1.
        -11    1    3    3    0    0 -0.21369073141E+02 -0.13477091167E+02  0.24140725072E+02  0.34943438303E+02  0.51100000000E-03 0.  1.
         12    1    3    3    0    0  0.32143415242E+02  0.83076246817E+01 -0.27753663952E+02  0.43272180833E+02  0.00000000000E+00 0. -1.
</event>
<event>
 7    1  0.1654239E-015  0.9000775E+02  0.7816164E-02  0.1186339E+00
        -11   -1    0    0    0    0  0.00000000000E+00  0.00000000000E+00  0.45593999997E+02  0.45594000000E+02  0.51100000000E-03 0. -1.
         11   -1    0    0    0    0 -0.00000000000E+00 -0.00000000000E+00 -0.45593999997E+02  0.45594000000E+02  0.51100000000E-03 0.  1.
    9900012    2    1    2    0    0  0.16963415314E+00 -0.16875912610E+00  0.11557379260E+01  0.90007751915E+02  0.90000013440E+02 0.  0.
        -12    1    1    2    0    0 -0.16963415314E+00  0.16875912610E+00 -0.11557379260E+01  0.11802480850E+01  0.00000000000E+00 0.  1.
         11    1    3    3    0    0  0.85378190873E+01 -0.13672769209E+02  0.16461050822E+02  0.23039209340E+02  0.51100000000E-03 0. -1.
        -11    1    3    3    0    0 -0.84442595323E+01 -0.21616711026E+01  0.23529952449E+02  0.25092568691E+02  0.51100000000E-03 0.  1.
        -12    1    3    3    0    0  0.76074598131E-01  0.15665681185E+02 -0.38835265344E+02  0.41875973884E+02  0.00000000000E+00 0.  1.
</event>
<event>
 7    1  0.1654239E-015  0.9000789E+02  0.7816164E-02  0.1186339E+00
        -11   -1    0    0    0    0  0.00000000000E+00  0.00000000000E+00  0.45593999997E+02  0.45594000000E+02  0.51100000000E-03 0.  1.
         11   -1    0    0    0    0 -0.00000000000E+00 -0.00000000000E+00 -0.45593999997E+02  0.45594000000E+02  0.51100000000E-03 0. -1.
    9900012    2    1    2    0    0  0.28371136246E+00 -0.46040351924E+00 -0.10489017165E+01  0.90007890535E+02  0.90000153890E+02 0.  0.
        -12    1    1    2    0    0 -0.28371136246E+00  0.46040351924E+00  0.10489017165E+01  0.11801094647E+01  0.00000000000E+00 0.  1.
         11    1    3    3    0    0  0.40244578499E+01  0.94038864961E+01 -0.24687237667E+01  0.10522544346E+02  0.51100000000E-03 0. -1.
        -11    1    3    3    0    0 -0.30886219599E+02  0.58940355229E+01 -0.23625177479E+02  0.39329978732E+02  0.51100000000E-03 0.  1.
         12    1    3    3    0    0  0.27145473112E+02 -0.15758325538E+02  0.25044999529E+02  0.40155367457E+02  0.00000000000E+00 0. -1.
</event>
<event>
 7    1  0.1654239E-015  0.9000773E+02  0.7816164E-02  0.1186339E+00
        -11   -1    0    0    0    0  0.00000000000E+00  0.00000000000E+00  0.45593999997E+02  0.45594000000E+02  0.51100000000E-03 0. -1.
         11   -1    0    0    0    0 -0.00000000000E+00 -0.00000000000E+00 -0.45593999997E+02  0.45594000000E+02  0.51100000000E-03 0.  1.
    9900012    2    1    2    0    0 -0.43161066696E+00  0.10142226427E+01 -0.42201066296E+00  0.90007733786E+02  0.89999995072E+02 0.  0.
        -12    1    1    2    0    0  0.43161066696E+00 -0.10142226427E+01  0.42201066296E+00  0.11802662143E+01  0.00000000000E+00 0.  1.
         11    1    3    3    0    0 -0.16129510635E+02 -0.76899124825E+01  0.33622163014E+02  0.38075526435E+02  0.51100000000E-03 0. -1.
        -11    1    3    3    0    0  0.81282465630E+01 -0.49735183715E+00  0.60243917097E+01  0.10129612370E+02  0.51100000000E-03 0.  1.
        -12    1    3    3    0    0  0.75696534055E+01  0.92014869624E+01 -0.40068565386E+02  0.41802594981E+02  0.00000000000E+00 0.  1.
</event>
<event>
 7    1  0.1654239E-015  0.9000790E+02  0.7816164E-02  0.1186339E+00
        -11   -1    0    0    0    0  0.00000000000E+00  0.00000000000E+00  0.45593999997E+02  0.45594000000E+02  0.51100000000E-03 0.  1.
         11   -1    0    0    0    0 -0.00000000000E+00 -0.00000000000E+00 -0.45593999997E+02  0.45594000000E+02  0.51100000000E-03 0. -1.
    9900012    2    1    2    0    0 -0.31191951679E+00 -0.52729301567E+00 -0.10086135428E+01  0.90007901280E+02  0.90000164777E+02 0.  0.
        -12    1    1    2    0    0  0.31191951679E+00  0.52729301567E+00  0.10086135428E+01  0.11800987196E+01  0.00000000000E+00 0.  1.
         11    1    3    3    0    0 -0.33604343615E+02  0.23050651646E+02  0.46686453979E+00  0.40752943622E+02  0.51100000000E-03 0. -1.
        -11    1    3    3    0    0  0.22458446158E+01 -0.10268676399E+01 -0.97013957761E+01  0.10010761982E+02  0.51100000000E-03 0.  1.
        -12    1    3    3    0    0  0.31046579483E+02 -0.22551077021E+02  0.82259176935E+01  0.39244195677E+02  0.00000000000E+00 0.  1.
</event>
<event>
 7    1  0.1654239E-015  0.9000776E+02  0.7816164E-02  0.1186339E+00
        -11   -1    0    0    0    0  0.00000000000E+00  0.00000000000E+00  0.45593999997E+02  0.45594000000E+02  0.51100000000E-03 0.  1.
         11   -1    0    0    0    0 -0.00000000000E+00 -0.00000000000E+00 -0.45593999997E+02  0.45594000000E+02  0.51100000000E-03 0. -1.
    9900012    2    1    2    0    0  0.45536349983E+00 -0.75796682174E+00 -0.78171955320E+00  0.90007764820E+02  0.90000026516E+02 0.  0.
        -12    1    1    2    0    0 -0.45536349983E+00  0.75796682174E+00  0.78171955320E+00  0.11802351798E+01  0.00000000000E+00 0.  1.
         11    1    3    3    0    0 -0.48905505944E+01  0.39078242836E+01  0.61700891350E+01  0.87896857704E+01  0.51100000000E-03 0. -1.
        -11    1    3    3    0    0 -0.28744722479E+02  0.22628092056E+02  0.20081624918E+01  0.36637717414E+02  0.51100000000E-03 0.  1.
         12    1    3    3    0    0  0.34090636573E+02 -0.27293883161E+02 -0.89599711800E+01  0.44580361635E+02  0.00000000000E+00 0. -1.
</event>
<event>
 7    1  0.1654239E-015  0.9000769E+02  0.7816164E-02  0.1186339E+00
        -11   -1    0    0    0    0  0.00000000000E+00  0.00000000000E+00  0.45593999997E+02  0.45594000000E+02  0.51100000000E-03 0. -1.
         11   -1    0    0    0    0 -0.00000000000E+00 -0.00000000000E+00 -0.45593999997E+02  0.45594000000E+02  0.51100000000E-03 0.  1.
    9900012    2    1    2    0    0  0.28252607844E+00 -0.96086012792E+00 -0.62454140984E+00  0.90007692776E+02  0.89999953521E+02 0.  0.
        -12    1    1    2    0    0 -0.28252607844E+00  0.96086012792E+00  0.62454140984E+00  0.11803072240E+01  0.00000000000E+00 0.  1.
         11    1    3    3    0    0 -0.41206872712E+01  0.60528840490E+01  0.33017712229E+01  0.80323821104E+01  0.51100000000E-03 0. -1.
        -11    1    3    3    0    0 -0.33737367942E+02 -0.21902877526E+02 -0.73460461619E+01  0.40889001382E+02  0.51100000000E-03 0.  1.
         12    1    3    3    0    0  0.38140581291E+02  0.14889133349E+02  0.34197335292E+01  0.41086309283E+02  0.00000000000E+00 0. -1.
</event>
<event>
 7    1  0.1654239E-015  0.9000772E+02  0.7816164E-02  0.1186339E+00
        -11   -1    0    0    0    0  0.00000000000E+00  0.00000000000E+00  0.45593999997E+02  0.45594000000E+02  0.51100000000E-03 0.  1.
         11   -1    0    0    0    0 -0.00000000000E+00 -0.00000000000E+00 -0.45593999997E+02  0.45594000000E+02  0.51100000000E-03 0. -1.
    9900012    2    1    2    0    0 -0.58547058188E-01  0.30795913516E+00 -0.11378889407E+01  0.90007721292E+02  0.89999982413E+02 0.  0.
        -12    1    1    2    0    0  0.58547058188E-01 -0.30795913516E+00  0.11378889407E+01  0.11802787079E+01  0.00000000000E+00 0.  1.
         11    1    3    3    0    0 -0.35458296937E+02  0.22596732565E+01 -0.25125484376E+01  0.35618953449E+02  0.51100000000E-03 0. -1.
        -11    1    3    3    0    0 -0.78322735650E+01  0.11387272114E+01 -0.66164174210E+01  0.10315919184E+02  0.51100000000E-03 0.  1.
        -12    1    3    3    0    0  0.43232023443E+02 -0.30904413327E+01  0.79910769179E+01  0.44072848659E+02  0.00000000000E+00 0.  1.
</event>
<event>
 7    1  0.1654239E-015  0.9000755E+02  0.7816164E-02  0.1186339E+00
        -11   -1    0    0    0    0  0.00000000000E+00  0.00000000000E+00  0.45593999997E+02  0.45594000000E+02  0.51100000000E-03 0.  1.
         11   -1    0    0    0    0 -0.00000000000E+00 -0.00000000000E+00 -0.45593999997E+02  0.45594000000E+02  0.51100000000E-03 0. -1.
    9900012    2    1    2    0    0  0.88316481988E+00 -0.87177010625E-01 -0.77838807395E+00  0.90007547577E+02  0.89999806404E+02 0.  0.
        -12    1    1    2    0    0 -0.88316481988E+00  0.87177010625E-01  0.77838807395E+00  0.11804524234E+01  0.00000000000E+00 0.  1.
         11    1    3    3    0    0  0.59299898399E+01 -0.50744629233E+01 -0.31075462398E+02  0.32040588586E+02  0.51100000000E-03 0. -1.
        -11    1    3    3    0    0  0.11276725351E+01  0.50375880275E+01 -0.13127263399E+02  0.14105813805E+02  0.51100000000E-03 0.  1.
        -12    1    3    3    0    0 -0.61744975551E+01 -0.50302114810E-01  0.43424337723E+02  0.43861145186E+02  0.00000000000E+00 0.  1.
</event>
<event>
 7    1  0.1654239E-015  0.9000760E+02  0.7816164E-02  0.1186339E+00
        -11   -1    0    0    0    0  0.00000000000E+00  0.00000000000E+00  0.45593999997E+02  0.45594000000E+02  0.51100000000E-03 0.  1.
         11   -1    0    0    0    0 -0.00000000000E+00 -0.00000000000E+00 -0.45593999997E+02  0.45594000000E+02  0.51100000000E-03 0. -1.
    9900012    2    1    2    0    0  0.68436756190E+00 -0.73018796394E+00 -0.62595629817E+00  0.90007595531E+02  0.89999854992E+02 0.  0.
        -12    1    1    2    0    0 -0.68436756190E+00  0.73018796394E+00  0.62595629817E+00  0.11804044687E+01  0.00000000000E+00 0.  1.
         11    1    3    3    0    0  0.13497342678E+00  0.23870221448E+01  0.70520750768E+01  0.74463316939E+01  0.51100000000E-03 0. -1.
        -11    1    3    3    0    0  0.61342545591E+00 -0.22910384179E+02  0.31330536913E+02  0.38818353102E+02  0.51100000000E-03 0.  1.
         12    1    3    3    0    0 -0.64031320797E-01  0.19793174070E+02 -0.39008568288E+02  0.43742910736E+02  0.00000000000E+00 0. -1.
</event>
<event>
 7    1  0.1654239E-015  0.9000771E+02  0.7816164E-02  0.1186339E+00
        -11   -1    0    0    0    0  0.00000000000E+00  0.00000000000E+00  0.45593999997E+02  0.45594000000E+02  0.51100000000E-03 0. -1.
         11   -1    0    0    0    0 -0.00000000000E+00 -0.00000000000E+00 -0.45593999997E+02  0.45594000000E+02  0.51100000000E-03 0.  1.
    9900012    2    1    2    0    0 -0.74223493264E+00 -0.85368894690E+00  0.33673989494E+00  0.90007707125E+02  0.89999968059E+02 0.  0.
        -12    1    1    2    0    0  0.74223493264E+00  0.85368894690E+00 -0.33673989494E+00  0.11802928747E+01  0.00000000000E+00 0.  1.
         11    1    3    3    0    0  0.29739408822E+02 -0.16129409310E+00  0.22768982889E+02  0.37455106927E+02  0.51100000000E-03 0. -1.
        -11    1    3    3    0    0  0.80865556182E+01 -0.16359711751E+01 -0.71744262731E+00  0.82815160228E+01  0.51100000000E-03 0.  1.
        -12    1    3    3    0    0 -0.38568199373E+02  0.94357632132E+00 -0.21714800367E+02  0.44271084176E+02  0.00000000000E+00 0.  1.
</event>
<event>
 7    1  0.1654239E-015  0.9000767E+02  0.7816164E-02  0.1186339E+00
        -11   -1    0    0    0    0  0.00000000000E+00  0.00000000000E+00  0.45593999997E+02  0.45594000000E+02  0.51100000000E-03 0. -1.
         11   -1    0    0    0    0 -0.00000000000E+00 -0.00000000000E+00 -0.45593999997E+02  0.45594000000E+02  0.51100000000E-03 0.  1.
    9900012    2    1    2    0    0 -0.44402576060E+00  0.59341758196E+00  0.91862772732E+00  0.90007669451E+02  0.89999929888E+02 0.  0.
        -12    1    1    2    0    0  0.44402576060E+00 -0.59341758196E+00 -0.91862772732E+00  0.11803305486E+01  0.00000000000E+00 0.  1.
         11    1    3    3    0    0  0.55233320135E+01 -0.55693399074E+01 -0.28037100883E+02  0.29113635460E+02  0.51100000000E-03 0. -1.
        -11    1    3    3    0    0 -0.21010743990E+02 -0.90129555560E+01 -0.23586714710E+01  0.22983647714E+02  0.51100000000E-03 0.  1.
         12    1    3    3    0    0  0.15043386216E+02  0.15175713045E+02  0.31314400081E+02  0.37910386277E+02  0.00000000000E+00 0. -1.
</event>
<event>
 7    1  0.1654239E-015  0.9000782E+02  0.7816164E-02  0.1186339E+00
        -11   -1    0    0    0    0  0.00000000000E+00  0.00000000000E+00  0.45593999997E+02  0.45594000000E+02  0.51100000000E-03 0.  1.
         11   -1    0    0    0    0 -0.00000000000E+00 -0.00000000000E+00 -0.45593999997E+02  0.45594000000E+02  0.51100000000E-03 0. -1.
    9900012    2    1    2    0    0  0.75815877093E+00  0.63861401629E+00  0.64046937079E+00  0.90007816286E+02  0.90000078661E+02 0.  0.
        -12    1    1    2    0    0 -0.75815877093E+00 -0.63861401629E+00 -0.64046937079E+00  0.11801837139E+01  0.00000000000E+00 0.  1.
         11    1    3    3    0    0 -0.80354141822E+01  0.10554656988E+01  0.24723869527E+01  0.84731686178E+01  0.51100000000E-03 0. -1.
        -11    1    3    3    0    0 -0.23816089498E+02 -0.20436962874E+02  0.20256265253E+02  0.37352267037E+02  0.51100000000E-03 0.  1.
         12    1    3    3    0    0  0.32609662451E+02  0.20020111191E+02 -0.22088182835E+02  0.44182380632E+02  0.00000000000E+00 0. -1.
</event>
<event>
 7    1  0.1654239E-015  0.9000767E+02  0.7816164E-02  0.1186339E+00
        -11   -1    0    0    0    0  0.00000000000E+00  0.00000000000E+00  0.45593999997E+02  0.45594000000E+02  0.51100000000E-03 0. -1.
         11   -1    0    0    0    0 -0.00000000000E+00 -0.00000000000E+00 -0.45593999997E+02  0.45594000000E+02  0.51100000000E-03 0.  1.
    9900012    2    1    2    0    0 -0.11618127590E+01  0.19596462507E+00  0.70465144334E-01  0.90007671081E+02  0.89999931539E+02 0.  0.
        -12    1    1    2    0    0  0.11618127590E+01 -0.19596462507E+00 -0.70465144334E-01  0.11803289193E+01  0.00000000000E+00 0.  1.
         11    1    3    3    0    0 -0.42701048500E+01  0.36188154458E+02  0.75411071426E+01  0.37211350630E+02  0.51100000000E-03 0. -1.
        -11    1    3    3    0    0 -0.10209951573E+02  0.14462778240E+01  0.45644897785E+01  0.11276940980E+02  0.51100000000E-03 0.  1.
        -12    1    3    3    0    0  0.13318243664E+02 -0.37438467657E+02 -0.12035131777E+02  0.41519379471E+02  0.00000000000E+00 0.  1.
</event>
<event>
 7    1  0.1654239E-015  0.9000759E+02  0.7816164E-02  0.1186339E+00
        -11   -1    0    0    0    0  0.00000000000E+00  0.00000000000E+00  0.45593999997E+02  0.45594000000E+02  0.51100000000E-03 0.  1.
         11   -1    0    0    0    0 -0.00000000000E+00 -0.00000000000E+00 -0.45593999997E+02  0.45594000000E+02  0.51100000000E-03 0. -1.
    9900012    2    1    2    0    0  0.94426610451E+00 -0.69672933172E+00  0.12766779542E+00  0.90007589350E+02  0.89999848729E+02 0.  0.
        -12    1    1    2    0    0 -0.94426610451E+00  0.69672933172E+00 -0.12766779542E+00  0.11804106505E+01  0.00000000000E+00 0.  1.
         11    1    3    3    0    0 -0.26835021539E+02 -0.40231053084E+00 -0.30988022266E+02  0.40994362527E+02  0.51100000000E-03 0. -1.
        -11    1    3    3    0    0 -0.45362601947E+01  0.10718789003E+01  0.79961158627E+01  0.92555091746E+01  0.51100000000E-03 0.  1.
        -12    1    3    3    0    0  0.32315547838E+02 -0.13662977012E+01  0.23119574199E+02  0.39757717648E+02  0.00000000000E+00 0.  1.
</event>
<event>
 7    1  0.1654239E-015  0.9000776E+02  0.7816164E-02  0.1186339E+00
        -11   -1    0    0    0    0  0.00000000000E+00  0.00000000000E+00  0.45593999997E+02  0.45594000000E+02  0.51100000000E-03 0.  1.
         11   -1    0    0    0    0 -0.00000000000E+00 -0.00000000000E+00 -0.45593999997E+02  0.45594000000E+02  0.51100000000E-03 0. -1.
    9900012    2    1    2    0    0  0.41054992604E+00 -0.88056049073E+00 -0.67009810201E+00  0.90007758717E+02  0.90000020332E+02 0.  0.
        -12    1    1    2    0    0 -0.41054992604E+00  0.88056049073E+00  0.67009810201E+00  0.11802412829E+01  0.00000000000E+00 0.  1.
         11    1    3    3    0    0 -0.26657523053E+02 -0.14750964748E+02 -0.20073288619E+02  0.36484947754E+02  0.51100000000E-03 0. -1.
        -11    1    3    3    0    0 -0.21731841059E+01 -0.40507712250E+01 -0.82651159872E+01  0.94574636778E+01  0.51100000000E-03 0.  1.
        -12    1    3    3    0    0  0.29241257085E+02  0.17921175482E+02  0.27668306505E+02  0.44065347286E+02  0.00000000000E+00 0.  1.
</event>
<event>
 7    1  0.1654239E-015  0.9000760E+02  0.7816164E-02  0.1186339E+00
        -11   -1    0    0    0    0  0.00000000000E+00  0.00000000000E+00  0.45593999997E+02  0.45594000000E+02  0.51100000000E-03 0.  1.
         11   -1    0    0    0    0 -0.00000000000E+00 -0.00000000000E+00 -0.45593999997E+02  0.45594000000E+02  0.51100000000E-03 0. -1.
    9900012    2    1    2    0    0 -0.85004911627E-01 -0.63966224770E+00 -0.98841245662E+00  0.90007596336E+02  0.89999855807E+02 0.  0.
        -12    1    1    2    0    0  0.85004911627E-01  0.63966224770E+00  0.98841245662E+00  0.11804036642E+01  0.00000000000E+00 0.  1.
         11    1    3    3    0    0 -0.29853873608E+02 -0.13127231661E+02 -0.16771756836E+02  0.36672466622E+02  0.51100000000E-03 0. -1.
        -11    1    3    3    0    0  0.12397331780E+01 -0.87916541948E+01 -0.68003897950E+01  0.11183712418E+02  0.51100000000E-03 0.  1.
        -12    1    3    3    0    0  0.28529135519E+02  0.21279223608E+02  0.22583734174E+02  0.42151417296E+02  0.00000000000E+00 0.  1.
</event>
<event>
 7    1  0.1654239E-015  0.9000772E+02  0.7816164E-02  0.1186339E+00
        -11   -1    0    0    0    0  0.00000000000E+00  0.00000000000E+00  0.45593999997E+02  0.45594000000E+02  0.51100000000E-03 0. -1.
         11   -1    0    0    0    0 -0.00000000000E+00 -0.00000000000E+00 -0.45593999997E+02  0.45594000000E+02  0.51100000000E-03 0.  1.
    9900012    2    1    2    0    0 -0.54586604849E+00 -0.75347319328E+00  0.72619669367E+00  0.90007723238E+02  0.89999984385E+02 0.  0.
        -12    1    1    2    0    0  0.54586604849E+00  0.75347319328E+00 -0.72619669367E+00  0.11802767615E+01  0.00000000000E+00 0.  1.
         11    1    3    3    0    0 -0.27501263534E+02  0.29536632272E+02  0.74864548977E+01  0.41046061311E+02  0.51100000000E-03 0. -1.
        -11    1    3    3    0    0  0.47717455757E+01  0.46476644664E+00  0.71172705495E+01  0.85814395077E+01  0.51100000000E-03 0.  1.
        -12    1    3    3    0    0  0.22183651910E+02 -0.30754871912E+02 -0.13877528754E+02  0.40380222420E+02  0.00000000000E+00 0.  1.
</event>
<event>
 7    1  0.1654239E-015  0.9000805E+02  0.7816164E-02  0.1186338E+00
        -11   -1    0    0    0    0  0.00000000000E+00  0.00000000000E+00  0.45593999997E+02  0.45594000000E+02  0.51100000000E-03 0. -1.
         11   -1    0    0    0    0 -0.00000000000E+00 -0.00000000000E+00 -0.45593999997E+02  0.45594000000E+02  0.51100000000E-03 0.  1.
    9900012    2    1    2    0    0 -0.11691621948E+01 -0.15275887568E+00 -0.44792383104E-01  0.90008050056E+02  0.90000315517E+02 0.  0.
        -12    1    1    2    0    0  0.11691621948E+01  0.15275887568E+00  0.44792383104E-01  0.11799499436E+01  0.00000000000E+00 0.  1.
         11    1    3    3    0    0 -0.25233358521E+02  0.15616195586E+02  0.25556900082E+02  0.39163032172E+02  0.51100000000E-03 0. -1.
        -11    1    3    3    0    0 -0.72626411995E+01 -0.82186818033E+01 -0.26513252091E+01  0.11283714521E+02  0.51100000000E-03 0.  1.
        -12    1    3    3    0    0  0.31326837526E+02 -0.75502726581E+01 -0.22950367256E+02  0.39561303363E+02  0.00000000000E+00 0.  1.
</event>
<event>
 7    1  0.1654239E-015  0.9000774E+02  0.7816164E-02  0.1186339E+00
        -11   -1    0    0    0    0  0.00000000000E+00  0.00000000000E+00  0.45593999997E+02  0.45594000000E+02  0.51100000000E-03 0.  1.
         11   -1    0    0    0    0 -0.00000000000E+00 -0.00000000000E+00 -0.45593999997E+02  0.45594000000E+02  0.51100000000E-03 0. -1.
    9900012    2    1    2    0    0  0.72470536424E+00 -0.59412853220E+00 -0.71750666870E+00  0.90007744774E+02  0.90000006206E+02 0.  0.
        -12    1    1    2    0    0 -0.72470536424E+00  0.59412853220E+00  0.71750666870E+00  0.11802552255E+01  0.00000000000E+00 0.  1.
         11    1    3    3    0    0  0.51918119015E+01 -0.86977954608E+01  0.56732030419E+01  0.11609986637E+02  0.51100000000E-03 0. -1.
        -11    1    3    3    0    0  0.12202451694E+02  0.12062699003E+02  0.32026450502E+02  0.36333208867E+02  0.51100000000E-03 0.  1.
         12    1    3    3    0    0 -0.16669558231E+02 -0.39590320742E+01 -0.38417160212E+02  0.42064549271E+02  0.00000000000E+00 0. -1.
</event>
<event>
 7    1  0.1654239E-015  0.9000782E+02  0.7816164E-02  0.1186339E+00
        -11   -1    0    0    0    0  0.00000000000E+00  0.00000000000E+00  0.45593999997E+02  0.45594000000E+02  0.51100000000E-03 0.  1.
         11   -1    0    0    0    0 -0.00000000000E+00 -0.00000000000E+00 -0.45593999997E+02  0.45594000000E+02  0.51100000000E-03 0. -1.
    9900012    2    1    2    0    0  0.45331922586E+00  0.10395350799E+01 -0.32665675013E+00  0.90007815211E+02  0.90000077572E+02 0.  0.
        -12    1    1    2    0    0 -0.45331922586E+00 -0.10395350799E+01  0.32665675013E+00  0.11801847887E+01  0.00000000000E+00 0.  1.
         11    1    3    3    0    0  0.10540271256E+02  0.87155795415E+01 -0.36517950840E+02  0.38995119935E+02  0.51100000000E-03 0. -1.
        -11    1    3    3    0    0  0.70207216327E+01 -0.63983874824E+01 -0.14851992160E+01  0.96143492547E+01  0.51100000000E-03 0.  1.
        -12    1    3    3    0    0 -0.17107673662E+02 -0.12776569791E+01  0.37676493306E+02  0.41398346022E+02  0.00000000000E+00 0.  1.
</event>
<event>
 7    1  0.1654239E-015  0.9000782E+02  0.7816164E-02  0.1186339E+00
        -11   -1    0    0    0    0  0.00000000000E+00  0.00000000000E+00  0.45593999997E+02  0.45594000000E+02  0.51100000000E-03 0. -1.
         11   -1    0    0    0    0 -0.00000000000E+00 -0.00000000000E+00 -0.45593999997E+02  0.45594000000E+02  0.51100000000E-03 0.  1.
    9900012    2    1    2    0    0 -0.10870025590E+01  0.39265194046E+00  0.23892148487E+00  0.90007816292E+02  0.90000078667E+02 0.  0.
        -12    1    1    2    0    0  0.10870025590E+01 -0.39265194046E+00 -0.23892148487E+00  0.11801837084E+01  0.00000000000E+00 0.  1.
         11    1    3    3    0    0  0.53612028478E+01 -0.31040789832E+01  0.33450857056E+01  0.70404119870E+01  0.51100000000E-03 0. -1.
        -11    1    3    3    0    0  0.33925671350E+02  0.78127678188E+01 -0.18644555363E+02  0.39491897428E+02  0.51100000000E-03 0.  1.
         12    1    3    3    0    0 -0.40373876757E+02 -0.43160368952E+01  0.15538391143E+02  0.43475506876E+02  0.00000000000E+00 0. -1.
</event>
<event>
 7    1  0.1654239E-015  0.9000779E+02  0.7816164E-02  0.1186339E+00
        -11   -1    0    0    0    0  0.00000000000E+00  0.00000000000E+00  0.45593999997E+02  0.45594000000E+02  0.51100000000E-03 0.  1.
         11   -1    0    0    0    0 -0.00000000000E+00 -0.00000000000E+00 -0.45593999997E+02  0.45594000000E+02  0.51100000000E-03 0. -1.
    9900012    2    1    2    0    0 -0.25405397068E+00 -0.16662658080E+00 -0.11404350144E+01  0.90007788214E+02  0.90000050219E+02 0.  0.
        -12    1    1    2    0    0  0.25405397068E+00  0.16662658080E+00  0.11404350144E+01  0.11802117858E+01  0.00000000000E+00 0.  1.
         11    1    3    3    0    0 -0.44092899163E+00  0.92792999763E+01  0.38856107315E+01  0.10069647335E+02  0.51100000000E-03 0. -1.
        -11    1    3    3    0    0 -0.22849927483E+02  0.24761492473E+02 -0.15945005214E+02  0.37275915643E+02  0.51100000000E-03 0.  1.
         12    1    3    3    0    0  0.23036802504E+02 -0.34207419030E+02  0.10918959468E+02  0.42662225237E+02  0.00000000000E+00 0. -1.
</event>
<event>
 7    1  0.1654239E-015  0.9000781E+02  0.7816164E-02  0.1186339E+00
        -11   -1    0    0    0    0  0.00000000000E+00  0.00000000000E+00  0.45593999997E+02  0.45594000000E+02  0.51100000000E-03 0. -1.
         11   -1    0    0    0    0 -0.00000000000E+00 -0.00000000000E+00 -0.45593999997E+02  0.45594000000E+02  0.51100000000E-03 0.  1.
    9900012    2    1    2    0    0 -0.87138595413E+00  0.79172086572E+00  0.81998652170E-01  0.90007805444E+02  0.90000067676E+02 0.  0.
        -12    1    1    2    0    0  0.87138595413E+00 -0.79172086572E+00 -0.81998652170E-01  0.11801945557E+01  0.00000000000E+00 0.  1.
         11    1    3    3    0    0  0.15707873820E+02  0.18440983254E+01  0.38094674955E+02  0.41247330323E+02  0.51100000000E-03 0. -1.
        -11    1    3    3    0    0 -0.13681751131E+01 -0.96660988245E+01 -0.40619854598E+01  0.10573792875E+02  0.51100000000E-03 0.  1.
        -12    1    3    3    0    0 -0.15211084661E+02  0.86137213648E+01 -0.33950690843E+02  0.38186682247E+02  0.00000000000E+00 0.  1.
</event>
<event>
 7    1  0.1654239E-015  0.9000775E+02  0.7816164E-02  0.1186339E+00
        -11   -1    0    0    0    0  0.00000000000E+00  0.00000000000E+00  0.45593999997E+02  0.45594000000E+02  0.51100000000E-03 0. -1.
         11   -1    0    0    0    0 -0.00000000000E+00 -0.00000000000E+00 -0.45593999997E+02  0.45594000000E+02  0.51100000000E-03 0.  1.
    9900012    2    1    2    0    0  0.11196496408E+00 -0.11554261704E+01 -0.21320223146E+00  0.90007745375E+02  0.90000006814E+02 0.  0.
        -12    1    1    2    0    0 -0.11196496408E+00  0.11554261704E+01  0.21320223146E+00  0.11802546251E+01  0.00000000000E+00 0.  1.
         11    1    3    3    0    0  0.13707486199E+01 -0.21099910148E+01  0.38012576619E+02  0.38095760857E+02  0.51100000000E-03 0. -1.
        -11    1    3    3    0    0  0.88447680894E+01 -0.26985470330E+01  0.26728099407E+01  0.96257982466E+01  0.51100000000E-03 0.  1.
        -12    1    3    3    0    0 -0.10103551745E+02  0.36531118773E+01 -0.40898588791E+02  0.42286186271E+02  0.00000000000E+00 0.  1.
</event>
<event>
 7    1  0.1759932E-015  0.9000775E+02  0.7816164E-02  0.1186339E+00
        -11   -1    0    0    0    0  0.00000000000E+00  0.00000000000E+00  0.45593999997E+02  0.45594000000E+02  0.51100000000E-03 0.  1.
         11   -1    0    0    0    0 -0.00000000000E+00 -0.00000000000E+00 -0.45593999997E+02  0.45594000000E+02  0.51100000000E-03 0. -1.
    9900012    2    1    2    0    0 -0.94265479211E+00  0.57895756516E+00 -0.41133462120E+00  0.90007751683E+02  0.90000013205E+02 0.  0.
        -12    1    1    2    0    0  0.94265479211E+00 -0.57895756516E+00  0.41133462120E+00  0.11802483171E+01  0.00000000000E+00 0.  1.
         11    1    3    3    0    0  0.88695745846E+01 -0.36369010130E+00 -0.33252045336E+01  0.94793781048E+01  0.51100000000E-03 0. -1.
        -11    1    3    3    0    0  0.11569674508E+02 -0.35527228371E+02  0.71476638328E+01  0.38041167470E+02  0.51100000000E-03 0.  1.
         12    1    3    3    0    0 -0.21381903885E+02  0.36469876038E+02 -0.42337939204E+01  0.42487206108E+02  0.00000000000E+00 0. -1.
</event>
<event>
 7    1  0.1654239E-015  0.9000892E+02  0.7816164E-02  0.1186337E+00
        -11   -1    0    0    0    0  0.00000000000E+00  0.00000000000E+00  0.45593999997E+02  0.45594000000E+02  0.51100000000E-03 0. -1.
         11   -1    0    0    0    0 -0.00000000000E+00 -0.00000000000E+00 -0.45593999997E+02  0.45594000000E+02  0.51100000000E-03 0.  1.
    9900012    2    1    2    0    0 -0.10510789124E+01 -0.26071434632E+00  0.46635649156E+00  0.90008921026E+02  0.90001197975E+02 0.  0.
        -12    1    1    2    0    0  0.10510789124E+01  0.26071434632E+00 -0.46635649156E+00  0.11790789743E+01  0.00000000000E+00 0.  1.
         11    1    3    3    0    0  0.87799972605E+01  0.71448492254E+01 -0.57876244176E+01  0.12713528975E+02  0.51100000000E-03 0. -1.
        -11    1    3    3    0    0 -0.62908370185E+01  0.14234606314E+02 -0.30646343907E+02  0.34371456798E+02  0.51100000000E-03 0.  1.
         12    1    3    3    0    0 -0.35402391544E+01 -0.21640169885E+02  0.36900324816E+02  0.42923935252E+02  0.00000000000E+00 0. -1.
</event>
<event>
 7    1  0.1654239E-015  0.9000771E+02  0.7816164E-02  0.1186339E+00
        -11   -1    0    0    0    0  0.00000000000E+00  0.00000000000E+00  0.45593999997E+02  0.45594000000E+02  0.51100000000E-03 0. -1.
         11   -1    0    0    0    0 -0.00000000000E+00 -0.00000000000E+00 -0.45593999997E+02  0.45594000000E+02  0.51100000000E-03 0.  1.
    9900012    2    1    2    0    0 -0.47746046349E+00 -0.17384186265E+00  0.10653106426E+01  0.90007713487E+02  0.89999974505E+02 0.  0.
        -12    1    1    2    0    0  0.47746046349E+00  0.17384186265E+00 -0.10653106426E+01  0.11802865129E+01  0.00000000000E+00 0.  1.
         11    1    3    3    0    0  0.71260731712E+00 -0.62506736595E+01  0.35615939371E+02  0.36167303852E+02  0.51100000000E-03 0. -1.
        -11    1    3    3    0    0 -0.95160951501E+01 -0.97778062862E+01  0.13605827663E+01  0.13711774079E+02  0.51100000000E-03 0.  1.
        -12    1    3    3    0    0  0.83260273695E+01  0.15854638083E+02 -0.35911211495E+02  0.40128635555E+02  0.00000000000E+00 0.  1.
</event>
<event>
 7    1  0.1654239E-015  0.9000769E+02  0.7816164E-02  0.1186339E+00
        -11   -1    0    0    0    0  0.00000000000E+00  0.00000000000E+00  0.45593999997E+02  0.45594000000E+02  0.51100000000E-03 0.  1.
         11   -1    0    0    0    0 -0.00000000000E+00 -0.00000000000E+00 -0.45593999997E+02  0.45594000000E+02  0.51100000000E-03 0. -1.
    9900012    2    1    2    0    0 -0.51443312499E+00  0.10277314403E+01  0.26879436189E+00  0.90007693361E+02  0.89999954113E+02 0.  0.
        -12    1    1    2    0    0  0.51443312499E+00 -0.10277314403E+01 -0.26879436189E+00  0.11803066392E+01  0.00000000000E+00 0.  1.
         11    1    3    3    0    0 -0.66251476920E+01 -0.37262179537E+02 -0.11544632812E+01  0.37864170287E+02  0.51100000000E-03 0. -1.
        -11    1    3    3    0    0  0.38907982834E+00 -0.20060037597E+01 -0.97305190014E+01  0.99427578918E+01  0.51100000000E-03 0.  1.
        -12    1    3    3    0    0  0.57216347386E+01  0.40295914737E+02  0.11153776645E+02  0.42200765182E+02  0.00000000000E+00 0.  1.
</event>
<event>
 7    1  0.1654239E-015  0.9000772E+02  0.7816164E-02  0.1186339E+00
        -11   -1    0    0    0    0  0.00000000000E+00  0.00000000000E+00  0.45593999997E+02  0.45594000000E+02  0.51100000000E-03 0.  1.
         11   -1    0    0    0    0 -0.00000000000E+00 -0.00000000000E+00 -0.45593999997E+02  0.45594000000E+02  0.51100000000E-03 0. -1.
    9900012    2    1    2    0    0 -0.11255819053E+01  0.11301172030E+00 -0.33666615287E+00  0.90007724450E+02  0.89999985613E+02 0.  0.
        -12    1    1    2    0    0  0.11255819053E+01 -0.11301172030E+00  0.33666615287E+00  0.11802755496E+01  0.00000000000E+00 0.  1.
         11    1    3    3    0    0  0.13080993493E+01 -0.43668273583E+01  0.90412734633E+01  0.10125459554E+02  0.51100000000E-03 0. -1.
        -11    1    3    3    0    0 -0.15094872686E+02 -0.12739941919E+02  0.29508335621E+02  0.35509198427E+02  0.51100000000E-03 0.  1.
         12    1    3    3    0    0  0.12661191432E+02  0.17219780997E+02 -0.38886275237E+02  0.44373066469E+02  0.00000000000E+00 0. -1.
</event>
<event>
 7    1  0.1654239E-015  0.9000777E+02  0.7816164E-02  0.1186339E+00
        -11   -1    0    0    0    0  0.00000000000E+00  0.00000000000E+00  0.45593999997E+02  0.45594000000E+02  0.51100000000E-03 0. -1.
         11   -1    0    0    0    0 -0.00000000000E+00 -0.00000000000E+00 -0.45593999997E+02  0.45594000000E+02  0.51100000000E-03 0.  1.
    9900012    2    1    2    0    0  0.45486060364E+00  0.47433000251E+00  0.98033804283E+00  0.90007767058E+02  0.90000028783E+02 0.  0.
        -12    1    1    2    0    0 -0.45486060364E+00 -0.47433000251E+00 -0.98033804283E+00  0.11802329424E+01  0.00000000000E+00 0.  1.
         11    1    3    3    0    0  0.90659143193E+01  0.75343661072E+01 -0.28689191901E-01  0.11788057449E+02  0.51100000000E-03 0. -1.
        -11    1    3    3    0    0 -0.25926171094E+02  0.51592790865E+01 -0.30427734272E+02  0.40306718068E+02  0.51100000000E-03 0.  1.
         12    1    3    3    0    0  0.17315117378E+02 -0.12219315191E+02  0.31436761506E+02  0.37912991541E+02  0.00000000000E+00 0. -1.
</event>
<event>
 7    1  0.1654239E-015  0.9000777E+02  0.7816164E-02  0.1186339E+00
        -11   -1    0    0    0    0  0.00000000000E+00  0.00000000000E+00  0.45593999997E+02  0.45594000000E+02  0.51100000000E-03 0. -1.
         11   -1    0    0    0    0 -0.00000000000E+00 -0.00000000000E+00 -0.45593999997E+02  0.45594000000E+02  0.51100000000E-03 0.  1.
    9900012    2    1    2    0    0 -0.12171561234E+00 -0.59408520087E+00  0.10125155334E+01  0.90007771369E+02  0.90000033151E+02 0.  0.
        -12    1    1    2    0    0  0.12171561234E+00  0.59408520087E+00 -0.10125155334E+01  0.11802286310E+01  0.00000000000E+00 0.  1.
         11    1    3    3    0    0 -0.48310425474E+01  0.86451365078E+00  0.36186557695E+02  0.36517849253E+02  0.51100000000E-03 0. -1.
        -11    1    3    3    0    0 -0.41665124708E+01  0.49016005704E+01  0.72444567005E+01  0.96885327820E+01  0.51100000000E-03 0.  1.
        -12    1    3    3    0    0  0.88758394058E+01 -0.63601994221E+01 -0.42418498863E+02  0.43801389334E+02  0.00000000000E+00 0.  1.
</event>
<event>
 7    1  0.1654239E-015  0.9000797E+02  0.7816164E-02  0.1186339E+00
        -11   -1    0    0    0    0  0.00000000000E+00  0.00000000000E+00  0.45593999997E+02  0.45594000000E+02  0.51100000000E-03 0.  1.
         11   -1    0    0    0    0 -0.00000000000E+00 -0.00000000000E+00 -0.45593999997E+02  0.45594000000E+02  0.51100000000E-03 0. -1.
    9900012    2    1    2    0    0 -0.12278793130E+00 -0.59844009253E+00 -0.10095898764E+01  0.90007966467E+02  0.90000230824E+02 0.  0.
        -12    1    1    2    0    0  0.12278793130E+00  0.59844009253E+00  0.10095898764E+01  0.11800335330E+01  0.00000000000E+00 0.  1.
         11    1    3    3    0    0 -0.20531969284E+01 -0.83692790765E+01  0.74593022887E+01  0.11397440098E+02  0.51100000000E-03 0. -1.
        -11    1    3    3    0    0 -0.17043735543E+01 -0.33553379164E+01  0.34179004976E+02  0.34385572020E+02  0.51100000000E-03 0.  1.
         12    1    3    3    0    0  0.36347825514E+01  0.11126176900E+02 -0.42647897141E+02  0.44224954349E+02  0.00000000000E+00 0. -1.
</event>
<event>
 7    1  0.1673731E-015  0.9000776E+02  0.7816164E-02  0.1186339E+00
        -11   -1    0    0    0    0  0.00000000000E+00  0.00000000000E+00  0.45593999997E+02  0.45594000000E+02  0.51100000000E-03 0. -1.
         11   -1    0    0    0    0 -0.00000000000E+00 -0.00000000000E+00 -0.45593999997E+02  0.45594000000E+02  0.51100000000E-03 0.  1.
    9900012    2    1    2    0    0  0.91180464969E+00 -0.58622015226E+00  0.46683321203E+00  0.90007756367E+02  0.90000017951E+02 0.  0.
        -12    1    1    2    0    0 -0.91180464969E+00  0.58622015226E+00 -0.46683321203E+00  0.11802436333E+01  0.00000000000E+00 0.  1.
         11    1    3    3    0    0 -0.55949984281E+01 -0.28454099303E+01 -0.68190813533E+01  0.92682380120E+01  0.51100000000E-03 0. -1.
        -11    1    3    3    0    0 -0.23748493867E+02  0.14578395590E+02 -0.23046407054E+02  0.36161546666E+02  0.51100000000E-03 0.  1.
         12    1    3    3    0    0  0.30255296945E+02 -0.12319205812E+02  0.30332321619E+02  0.44577971689E+02  0.00000000000E+00 0. -1.
</event>
<event>
 7    1  0.1654239E-015  0.9000774E+02  0.7816164E-02  0.1186339E+00
        -11   -1    0    0    0    0  0.00000000000E+00  0.00000000000E+00  0.45593999997E+02  0.45594000000E+02  0.51100000000E-03 0.  1.
         11   -1    0    0    0    0 -0.00000000000E+00 -0.00000000000E+00 -0.45593999997E+02  0.45594000000E+02  0.51100000000E-03 0. -1.
    9900012    2    1    2    0    0  0.31749362791E+00  0.94593590581E+00  0.63040667755E+00  0.90007741757E+02  0.90000003148E+02 0.  0.
        -12    1    1    2    0    0 -0.31749362791E+00 -0.94593590581E+00 -0.63040667755E+00  0.11802582433E+01  0.00000000000E+00 0.  1.
         11    1    3    3    0    0 -0.31170240066E+01 -0.32148567714E+02  0.16549199068E+02  0.36292178700E+02  0.51100000000E-03 0. -1.
        -11    1    3    3    0    0 -0.92904740122E+01 -0.31269687614E+01  0.38518868874E+01  0.10532230242E+02  0.51100000000E-03 0.  1.
        -12    1    3    3    0    0  0.12724991647E+02  0.36221472382E+02 -0.19770679278E+02  0.43183332815E+02  0.00000000000E+00 0.  1.
</event>
<event>
 7    1  0.1654239E-015  0.9000768E+02  0.7816164E-02  0.1186339E+00
        -11   -1    0    0    0    0  0.00000000000E+00  0.00000000000E+00  0.45593999997E+02  0.45594000000E+02  0.51100000000E-03 0.  1.
         11   -1    0    0    0    0 -0.00000000000E+00 -0.00000000000E+00 -0.45593999997E+02  0.45594000000E+02  0.51100000000E-03 0. -1.
    9900012    2    1    2    0    0  0.67777748558E+00 -0.52278553413E+00 -0.81269402972E+00  0.90007678594E+02  0.89999939152E+02 0.  0.
        -12    1    1    2    0    0 -0.67777748558E+00  0.52278553413E+00  0.81269402972E+00  0.11803214056E+01  0.00000000000E+00 0.  1.
         11    1    3    3    0    0  0.53854281014E+01  0.74355807417E+01 -0.28476469423E+01  0.96124809581E+01  0.51100000000E-03 0. -1.
        -11    1    3    3    0    0  0.33720077709E+02  0.10146638122E+00  0.17745872929E+02  0.38104723361E+02  0.51100000000E-03 0.  1.
         12    1    3    3    0    0 -0.38427728325E+02 -0.80598326571E+01 -0.15710920016E+02  0.42290474275E+02  0.00000000000E+00 0. -1.
</event>
<event>
 7    1  0.1654239E-015  0.9000775E+02  0.7816164E-02  0.1186339E+00
        -11   -1    0    0    0    0  0.00000000000E+00  0.00000000000E+00  0.45593999997E+02  0.45594000000E+02  0.51100000000E-03 0.  1.
         11   -1    0    0    0    0 -0.00000000000E+00 -0.00000000000E+00 -0.45593999997E+02  0.45594000000E+02  0.51100000000E-03 0. -1.
    9900012    2    1    2    0    0  0.12655564000E+00  0.22075303529E+00 -0.11524915284E+01  0.90007752163E+02  0.90000013692E+02 0.  0.
        -12    1    1    2    0    0 -0.12655564000E+00 -0.22075303529E+00  0.11524915284E+01  0.11802478366E+01  0.00000000000E+00 0.  1.
         11    1    3    3    0    0 -0.81735317002E+01  0.38229204295E+01 -0.11886170493E+01  0.91013269261E+01  0.51100000000E-03 0. -1.
        -11    1    3    3    0    0  0.61803933040E+01  0.37836404971E+02 -0.65526485311E+01  0.38893804205E+02  0.51100000000E-03 0.  1.
         12    1    3    3    0    0  0.21196940363E+01 -0.41438572365E+02  0.65887740520E+01  0.42012621032E+02  0.00000000000E+00 0. -1.
</event>
<event>
 7    1  0.1654239E-015  0.9000772E+02  0.7816164E-02  0.1186339E+00
        -11   -1    0    0    0    0  0.00000000000E+00  0.00000000000E+00  0.45593999997E+02  0.45594000000E+02  0.51100000000E-03 0. -1.
         11   -1    0    0    0    0 -0.00000000000E+00 -0.00000000000E+00 -0.45593999997E+02  0.45594000000E+02  0.51100000000E-03 0.  1.
    9900012    2    1    2    0    0 -0.93891327719E+00  0.31934937056E+00  0.63993874525E+00  0.90007718779E+02  0.89999979867E+02 0.  0.
        -12    1    1    2    0    0  0.93891327719E+00 -0.31934937056E+00 -0.63993874525E+00  0.11802812208E+01  0.00000000000E+00 0.  1.
         11    1    3    3    0    0  0.25864994301E+02  0.25618426342E+02  0.27147116649E+01  0.36505771573E+02  0.51100000000E-03 0. -1.
        -11    1    3    3    0    0  0.16966998446E+01  0.72287253880E+01 -0.67086286248E+01  0.10006945557E+02  0.51100000000E-03 0.  1.
        -12    1    3    3    0    0 -0.28500607422E+02 -0.32527802360E+02  0.46338557051E+01  0.43495001649E+02  0.00000000000E+00 0.  1.
</event>
<event>
 7    1  0.1654239E-015  0.9000788E+02  0.7816164E-02  0.1186339E+00
        -11   -1    0    0    0    0  0.00000000000E+00  0.00000000000E+00  0.45593999997E+02  0.45594000000E+02  0.51100000000E-03 0.  1.
         11   -1    0    0    0    0 -0.00000000000E+00 -0.00000000000E+00 -0.45593999997E+02  0.45594000000E+02  0.51100000000E-03 0. -1.
    9900012    2    1    2    0    0 -0.70359626713E+00 -0.94652331792E+00 -0.41660655279E-01  0.90007877248E+02  0.90000140428E+02 0.  0.
        -12    1    1    2    0    0  0.70359626713E+00  0.94652331792E+00  0.41660655279E-01  0.11801227515E+01  0.00000000000E+00 0.  1.
         11    1    3    3    0    0 -0.28882104819E+02 -0.17720517448E+02  0.18731779216E+02  0.38717854670E+02  0.51100000000E-03 0. -1.
        -11    1    3    3    0    0  0.50763315555E+01 -0.94779085507E+01  0.15199838552E+01  0.10858648338E+02  0.51100000000E-03 0.  1.
        -12    1    3    3    0    0  0.23102176996E+02  0.26251902681E+02 -0.20293423727E+02  0.40431374240E+02  0.00000000000E+00 0.  1.
</event>
<event>
 7    1  0.1654239E-015  0.9000780E+02  0.7816164E-02  0.1186339E+00
        -11   -1    0    0    0    0  0.00000000000E+00  0.00000000000E+00  0.45593999997E+02  0.45594000000E+02  0.51100000000E-03 0.  1.
         11   -1    0    0    0    0 -0.00000000000E+00 -0.00000000000E+00 -0.45593999997E+02  0.45594000000E+02  0.51100000000E-03 0. -1.
    9900012    2    1    2    0    0 -0.21541772977E+00 -0.11180209529E+01 -0.31062562400E+00  0.90007803437E+02  0.90000065642E+02 0.  0.
        -12    1    1    2    0    0  0.21541772977E+00  0.11180209529E+01  0.31062562400E+00  0.11801965631E+01  0.00000000000E+00 0.  1.
         11    1    3    3    0    0 -0.43025056370E+01 -0.48898529292E+01  0.12582493255E+02  0.14168322173E+02  0.51100000000E-03 0. -1.
        -11    1    3    3    0    0 -0.19722078073E+01 -0.35196876524E+02 -0.47514728647E+01  0.35570861886E+02  0.51100000000E-03 0.  1.
         12    1    3    3    0    0  0.60592957146E+01  0.38968708501E+02 -0.81416460140E+01  0.40268619378E+02  0.00000000000E+00 0. -1.
</event>
<event>
 7    1  0.1654239E-015  0.9000749E+02  0.7816164E-02  0.1186340E+00
        -11   -1    0    0    0    0  0.00000000000E+00  0.00000000000E+00  0.45593999997E+02  0.45594000000E+02  0.51100000000E-03 0.  1.
         11   -1    0    0    0    0 -0.00000000000E+00 -0.00000000000E+00 -0.45593999997E+02  0.45594000000E+02  0.51100000000E-03 0. -1.
    9900012    2    1    2    0    0  0.33075984393E+00  0.87534772151E+00  0.71970527312E+00  0.90007486812E+02  0.89999744837E+02 0.  0.
        -12    1    1    2    0    0 -0.33075984393E+00 -0.87534772151E+00 -0.71970527312E+00  0.11805131884E+01  0.00000000000E+00 0.  1.
         11    1    3    3    0    0 -0.11584111847E+01 -0.75307698826E+01 -0.34887141436E+02  0.35709481225E+02  0.51100000000E-03 0. -1.
        -11    1    3    3    0    0  0.52588081668E+01 -0.48070814424E+01 -0.67217157761E+01  0.97951293286E+01  0.51100000000E-03 0.  1.
        -12    1    3    3    0    0 -0.37696371381E+01  0.13213199047E+02  0.42328562485E+02  0.44502876258E+02  0.00000000000E+00 0.  1.
</event>
<event>
 7    1  0.1654239E-015  0.9000769E+02  0.7816164E-02  0.1186339E+00
        -11   -1    0    0    0    0  0.00000000000E+00  0.00000000000E+00  0.45593999997E+02  0.45594000000E+02  0.51100000000E-03 0. -1.
         11   -1    0    0    0    0 -0.00000000000E+00 -0.00000000000E+00 -0.45593999997E+02  0.45594000000E+02  0.51100000000E-03 0.  1.
    9900012    2    1    2    0    0 -0.29306352097E+00 -0.81014516690E+00  0.80679375171E+00  0.90007687509E+02  0.89999948184E+02 0.  0.
        -12    1    1    2    0    0  0.29306352097E+00  0.81014516690E+00 -0.80679375171E+00  0.11803124911E+01  0.00000000000E+00 0.  1.
         11    1    3    3    0    0  0.41840991241E+01 -0.10148863690E+02  0.35616144534E+02  0.37269503235E+02  0.51100000000E-03 0. -1.
        -11    1    3    3    0    0  0.27525013529E+01  0.67798205311E+01  0.70626044282E+01  0.10169690836E+02  0.51100000000E-03 0.  1.
        -12    1    3    3    0    0 -0.72296639980E+01  0.25588979918E+01 -0.41871955210E+02  0.42568493438E+02  0.00000000000E+00 0.  1.
</event>
<event>
 7    1  0.1654239E-015  0.9000791E+02  0.7816164E-02  0.1186339E+00
        -11   -1    0    0    0    0  0.00000000000E+00  0.00000000000E+00  0.45593999997E+02  0.45594000000E+02  0.51100000000E-03 0.  1.
         11   -1    0    0    0    0 -0.00000000000E+00 -0.00000000000E+00 -0.45593999997E+02  0.45594000000E+02  0.51100000000E-03 0. -1.
    9900012    2    1    2    0    0 -0.66975026118E+00 -0.79953599658E+00  0.55208067014E+00  0.90007908356E+02  0.90000171946E+02 0.  0.
        -12    1    1    2    0    0  0.66975026118E+00  0.79953599658E+00 -0.55208067014E+00  0.11800916441E+01  0.00000000000E+00 0.  1.
         11    1    3    3    0    0 -0.74519223461E+01  0.25055502665E+02 -0.29742391047E+02  0.39596959301E+02  0.51100000000E-03 0. -1.
        -11    1    3    3    0    0  0.88813302284E+01  0.12789893111E+00 -0.18011736148E+01  0.90630354416E+01  0.51100000000E-03 0.  1.
        -12    1    3    3    0    0 -0.20991581436E+01 -0.25982937593E+02  0.32095645332E+02  0.41347913613E+02  0.00000000000E+00 0.  1.
</event>
<event>
 7    1  0.1654239E-015  0.9000779E+02  0.7816164E-02  0.1186339E+00
        -11   -1    0    0    0    0  0.00000000000E+00  0.00000000000E+00  0.45593999997E+02  0.45594000000E+02  0.51100000000E-03 0. -1.
         11   -1    0    0    0    0 -0.00000000000E+00 -0.00000000000E+00 -0.45593999997E+02  0.45594000000E+02  0.51100000000E-03 0.  1.
    9900012    2    1    2    0    0  0.69502801413E+00  0.89672821719E+00 -0.32512405467E+00  0.90007791931E+02  0.90000053984E+02 0.  0.
        -12    1    1    2    0    0 -0.69502801413E+00 -0.89672821719E+00  0.32512405467E+00  0.11802080693E+01  0.00000000000E+00 0.  1.
         11    1    3    3    0    0  0.93620971047E+01  0.91366305653E-01 -0.52995608584E+01  0.10758371417E+02  0.51100000000E-03 0. -1.
        -11    1    3    3    0    0  0.27833149348E+02 -0.18378706666E+02 -0.10862930063E+02  0.35077974730E+02  0.51100000000E-03 0.  1.
         12    1    3    3    0    0 -0.36500218439E+02  0.19184068578E+02  0.15837366867E+02  0.44171445783E+02  0.00000000000E+00 0. -1.
</event>
<event>
 7    1  0.1654239E-015  0.9000770E+02  0.7816164E-02  0.1186339E+00
        -11   -1    0    0    0    0  0.00000000000E+00  0.00000000000E+00  0.45593999997E+02  0.45594000000E+02  0.51100000000E-03 0.  1.
         11   -1    0    0    0    0 -0.00000000000E+00 -0.00000000000E+00 -0.45593999997E+02  0.45594000000E+02  0.51100000000E-03 0. -1.
    9900012    2    1    2    0    0  0.47978531728E+00 -0.82142311840E+00 -0.69869273873E+00  0.90007702820E+02  0.89999963697E+02 0.  0.
        -12    1    1    2    0    0 -0.47978531728E+00  0.82142311840E+00  0.69869273873E+00  0.11802971801E+01  0.00000000000E+00 0.  1.
         11    1    3    3    0    0  0.27089749851E+02  0.63262928542E+01 -0.22667263531E+02  0.35884277400E+02  0.51100000000E-03 0. -1.
        -11    1    3    3    0    0  0.21374433220E+01 -0.45924059784E+00 -0.10220056177E+02  0.10451273339E+02  0.51100000000E-03 0.  1.
        -12    1    3    3    0    0 -0.28747407855E+02 -0.66884753748E+01  0.32188626969E+02  0.43672152081E+02  0.00000000000E+00 0.  1.
</event>
<event>
 7    1  0.1654239E-015  0.9000774E+02  0.7816164E-02  0.1186339E+00
        -11   -1    0    0    0    0  0.00000000000E+00  0.00000000000E+00  0.45593999997E+02  0.45594000000E+02  0.51100000000E-03 0.  1.
         11   -1    0    0    0    0 -0.00000000000E+00 -0.00000000000E+00 -0.45593999997E+02  0.45594000000E+02  0.51100000000E-03 0. -1.
    9900012    2    1    2    0    0  0.11017126085E+01 -0.30225542769E+00 -0.29643901578E+00  0.90007743627E+02  0.90000005043E+02 0.  0.
        -12    1    1    2    0    0 -0.11017126085E+01  0.30225542769E+00  0.29643901578E+00  0.11802563727E+01  0.00000000000E+00 0.  1.
         11    1    3    3    0    0 -0.17275066581E+02  0.29293014677E+02 -0.26049174392E+02  0.42837695095E+02  0.51100000000E-03 0. -1.
        -11    1    3    3    0    0  0.88326416429E+00 -0.34453716798E+01  0.12560585061E+02  0.13054464329E+02  0.51100000000E-03 0.  1.
        -12    1    3    3    0    0  0.17493515025E+02 -0.26149898425E+02  0.13192150315E+02  0.34115584203E+02  0.00000000000E+00 0.  1.
</event>
<event>
 7    1  0.1654239E-015  0.9000730E+02  0.7816164E-02  0.1186340E+00
        -11   -1    0    0    0    0  0.00000000000E+00  0.00000000000E+00  0.45593999997E+02  0.45594000000E+02  0.51100000000E-03 0.  1.
         11   -1    0    0    0    0 -0.00000000000E+00 -0.00000000000E+00 -0.45593999997E+02  0.45594000000E+02  0.51100000000E-03 0. -1.
    9900012    2    1    2    0    0  0.40816244396E+00  0.87679675342E+00 -0.67726712656E+00  0.90007296867E+02  0.89999552385E+02 0.  0.
        -12    1    1    2    0    0 -0.40816244396E+00 -0.87679675342E+00  0.67726712656E+00  0.11807031330E+01  0.00000000000E+00 0.  1.
         11    1    3    3    0    0  0.22939032599E+01 -0.78241409366E+01  0.20327125505E+01  0.84030407672E+01  0.51100000000E-03 0. -1.
        -11    1    3    3    0    0 -0.13852752317E+02 -0.16972645633E+02  0.30755334567E+02  0.37760562114E+02  0.51100000000E-03 0.  1.
         12    1    3    3    0    0  0.11967011501E+02  0.25673583323E+02 -0.33465314244E+02  0.43843693986E+02  0.00000000000E+00 0. -1.
</event>
<event>
 7    1  0.1654239E-015  0.9000775E+02  0.7816164E-02  0.1186339E+00
        -11   -1    0    0    0    0  0.00000000000E+00  0.00000000000E+00  0.45593999997E+02  0.45594000000E+02  0.51100000000E-03 0.  1.
         11   -1    0    0    0    0 -0.00000000000E+00 -0.00000000000E+00 -0.45593999997E+02  0.45594000000E+02  0.51100000000E-03 0. -1.
    9900012    2    1    2    0    0  0.11021101063E+01  0.73089679286E-01 -0.41594479358E+00  0.90007746274E+02  0.90000007724E+02 0.  0.
        -12    1    1    2    0    0 -0.11021101063E+01 -0.73089679286E-01  0.41594479358E+00  0.11802537265E+01  0.00000000000E+00 0.  1.
         11    1    3    3    0    0 -0.58351914341E+01 -0.53696244738E+01 -0.60924606975E+01  0.10000020184E+02  0.51100000000E-03 0. -1.
        -11    1    3    3    0    0 -0.14372345005E+02 -0.31835266802E+02  0.11278489954E+02  0.36704943117E+02  0.51100000000E-03 0.  1.
         12    1    3    3    0    0  0.21309646545E+02  0.37277980955E+02 -0.56019740501E+01  0.43302782973E+02  0.00000000000E+00 0. -1.
</event>
<event>
 7    1  0.1654239E-015  0.9000775E+02  0.7816164E-02  0.1186339E+00
        -11   -1    0    0    0    0  0.00000000000E+00  0.00000000000E+00  0.45593999997E+02  0.45594000000E+02  0.51100000000E-03 0. -1.
         11   -1    0    0    0    0 -0.00000000000E+00 -0.00000000000E+00 -0.45593999997E+02  0.45594000000E+02  0.51100000000E-03 0.  1.
    9900012    2    1    2    0    0  0.45398703271E+00 -0.10295154900E+01 -0.35633764450E+00  0.90007753040E+02  0.90000014580E+02 0.  0.
        -12    1    1    2    0    0 -0.45398703271E+00  0.10295154900E+01  0.35633764450E+00  0.11802469602E+01  0.00000000000E+00 0.  1.
         11    1    3    3    0    0  0.18777592410E+02  0.12413356838E+02  0.29527267546E+02  0.37128815410E+02  0.51100000000E-03 0. -1.
        -11    1    3    3    0    0 -0.10025493746E+01  0.19920051459E+01  0.80829612106E+01  0.83849539023E+01  0.51100000000E-03 0.  1.
        -12    1    3    3    0    0 -0.17321056003E+02 -0.15434877473E+02 -0.37966566401E+02  0.44493983728E+02  0.00000000000E+00 0.  1.
</event>
<event>
 7    1  0.1654239E-015  0.9000782E+02  0.7816164E-02  0.1186339E+00
        -11   -1    0    0    0    0  0.00000000000E+00  0.00000000000E+00  0.45593999997E+02  0.45594000000E+02  0.51100000000E-03 0. -1.
         11   -1    0    0    0    0 -0.00000000000E+00 -0.00000000000E+00 -0.45593999997E+02  0.45594000000E+02  0.51100000000E-03 0.  1.
    9900012    2    1    2    0    0 -0.53198594894E+00 -0.79282446202E+00  0.69371809329E+00  0.90007820153E+02  0.90000082579E+02 0.  0.
        -12    1    1    2    0    0  0.53198594894E+00  0.79282446202E+00 -0.69371809329E+00  0.11801798466E+01  0.00000000000E+00 0.  1.
         11    1    3    3    0    0  0.43232274216E+01 -0.33039653284E+02  0.16284119695E+02  0.37087484937E+02  0.51100000000E-03 0. -1.
        -11    1    3    3    0    0  0.49867871247E+01 -0.36791037082E+01  0.70054071678E+01  0.93530518961E+01  0.51100000000E-03 0.  1.
        -12    1    3    3    0    0 -0.98420004952E+01  0.35925932530E+02 -0.22595808770E+02  0.43567283320E+02  0.00000000000E+00 0.  1.
</event>
<event>
 7    1  0.1654239E-015  0.9000770E+02  0.7816164E-02  0.1186339E+00
        -11   -1    0    0    0    0  0.00000000000E+00  0.00000000000E+00  0.45593999997E+02  0.45594000000E+02  0.51100000000E-03 0.  1.
         11   -1    0    0    0    0 -0.00000000000E+00 -0.00000000000E+00 -0.45593999997E+02  0.45594000000E+02  0.51100000000E-03 0. -1.
    9900012    2    1    2    0    0 -0.79215672239E+00  0.76950253900E+00  0.41647383011E+00  0.90007704748E+02  0.89999965651E+02 0.  0.
        -12    1    1    2    0    0  0.79215672239E+00 -0.76950253900E+00 -0.41647383011E+00  0.11802952518E+01  0.00000000000E+00 0.  1.
         11    1    3    3    0    0  0.12085469828E+02 -0.69206390277E+00 -0.40160743696E+02  0.41945474940E+02  0.51100000000E-03 0. -1.
        -11    1    3    3    0    0 -0.88470140272E+01  0.32937588828E+01  0.25506361325E+01  0.97787652451E+01  0.51100000000E-03 0.  1.
        -12    1    3    3    0    0 -0.40306125236E+01 -0.18321924410E+01  0.38026581394E+02  0.38283464563E+02  0.00000000000E+00 0.  1.
</event>
<event>
 7    1  0.1654239E-015  0.9000777E+02  0.7816164E-02  0.1186339E+00
        -11   -1    0    0    0    0  0.00000000000E+00  0.00000000000E+00  0.45593999997E+02  0.45594000000E+02  0.51100000000E-03 0. -1.
         11   -1    0    0    0    0 -0.00000000000E+00 -0.00000000000E+00 -0.45593999997E+02  0.45594000000E+02  0.51100000000E-03 0.  1.
    9900012    2    1    2    0    0 -0.97864243620E+00 -0.31880232706E+00 -0.57755311721E+00  0.90007769707E+02  0.90000031467E+02 0.  0.
        -12    1    1    2    0    0  0.97864243620E+00  0.31880232706E+00  0.57755311721E+00  0.11802302932E+01  0.00000000000E+00 0.  1.
         11    1    3    3    0    0  0.24996093654E+02  0.20614264528E+02  0.54613502414E+01  0.32856946704E+02  0.51100000000E-03 0. -1.
        -11    1    3    3    0    0  0.10326108494E+02  0.20701591670E+01  0.65092271196E+01  0.12380796161E+02  0.51100000000E-03 0.  1.
        -12    1    3    3    0    0 -0.36300844585E+02 -0.23003226022E+02 -0.12548130478E+02  0.44770026842E+02  0.00000000000E+00 0.  1.
</event>
<event>
 7    1  0.1654239E-015  0.9000755E+02  0.7816164E-02  0.1186339E+00
        -11   -1    0    0    0    0  0.00000000000E+00  0.00000000000E+00  0.45593999997E+02  0.45594000000E+02  0.51100000000E-03 0. -1.
         11   -1    0    0    0    0 -0.00000000000E+00 -0.00000000000E+00 -0.45593999997E+02  0.45594000000E+02  0.51100000000E-03 0.  1.
    9900012    2    1    2    0    0 -0.69349017959E-01  0.11457126439E+01  0.27567601198E+00  0.90007549233E+02  0.89999808083E+02 0.  0.
        -12    1    1    2    0    0  0.69349017959E-01 -0.11457126439E+01 -0.27567601198E+00  0.11804507665E+01  0.00000000000E+00 0.  1.
         11    1    3    3    0    0  0.33906049701E+02  0.55540177237E+01  0.12489345234E+01  0.34380621823E+02  0.51100000000E-03 0. -1.
        -11    1    3    3    0    0  0.96901594045E+01  0.89616005869E+00 -0.58760773924E+01  0.11367962787E+02  0.51100000000E-03 0.  1.
        -12    1    3    3    0    0 -0.43665558123E+02 -0.53044651385E+01  0.49028188810E+01  0.44258964624E+02  0.00000000000E+00 0.  1.
</event>
<event>
 7    1  0.1654239E-015  0.9000786E+02  0.7816164E-02  0.1186339E+00
        -11   -1    0    0    0    0  0.00000000000E+00  0.00000000000E+00  0.45593999997E+02  0.45594000000E+02  0.51100000000E-03 0. -1.
         11   -1    0    0    0    0 -0.00000000000E+00 -0.00000000000E+00 -0.45593999997E+02  0.45594000000E+02  0.51100000000E-03 0.  1.
    9900012    2    1    2    0    0  0.73949806416E+00 -0.90643616311E+00  0.15569368359E+00  0.90007862539E+02  0.90000125524E+02 0.  0.
        -12    1    1    2    0    0 -0.73949806416E+00  0.90643616311E+00 -0.15569368359E+00  0.11801374614E+01  0.00000000000E+00 0.  1.
         11    1    3    3    0    0  0.37225471567E+02  0.67570090158E+00  0.24902021462E+02  0.44791773556E+02  0.51100000000E-03 0. -1.
        -11    1    3    3    0    0 -0.52168908555E+01 -0.33011306653E+01 -0.65330573660E+01  0.89885623253E+01  0.51100000000E-03 0.  1.
        -12    1    3    3    0    0 -0.31269082647E+02  0.17189936006E+01 -0.18213270412E+02  0.36227526658E+02  0.00000000000E+00 0.  1.
</event>
<event>
 7    1  0.1654239E-015  0.9000775E+02  0.7816164E-02  0.1186339E+00
        -11   -1    0    0    0    0  0.00000000000E+00  0.00000000000E+00  0.45593999997E+02  0.45594000000E+02  0.51100000000E-03 0.  1.
         11   -1    0    0    0    0 -0.00000000000E+00 -0.00000000000E+00 -0.45593999997E+02  0.45594000000E+02  0.51100000000E-03 0. -1.
    9900012    2    1    2    0    0 -0.75047240523E-01  0.71731892378E-01 -0.11756773889E+01  0.90007747961E+02  0.90000009434E+02 0.  0.
        -12    1    1    2    0    0  0.75047240523E-01 -0.71731892378E-01  0.11756773889E+01  0.11802520389E+01  0.00000000000E+00 0.  1.
         11    1    3    3    0    0 -0.68575778729E+00  0.15359419421E+00  0.78166448855E+01  0.78481712804E+01  0.51100000000E-03 0. -1.
        -11    1    3    3    0    0 -0.27195551622E+02 -0.26284762817E+02  0.10521142013E+02  0.39257880914E+02  0.51100000000E-03 0.  1.
         12    1    3    3    0    0  0.27806262169E+02  0.26202900515E+02 -0.19513464287E+02  0.42901695767E+02  0.00000000000E+00 0. -1.
</event>
<event>
 7    1  0.1654239E-015  0.9000778E+02  0.7816164E-02  0.1186339E+00
        -11   -1    0    0    0    0  0.00000000000E+00  0.00000000000E+00  0.45593999997E+02  0.45594000000E+02  0.51100000000E-03 0.  1.
         11   -1    0    0    0    0 -0.00000000000E+00 -0.00000000000E+00 -0.45593999997E+02  0.45594000000E+02  0.51100000000E-03 0. -1.
    9900012    2    1    2    0    0  0.65026263617E+00 -0.94729622370E+00 -0.26962655682E+00  0.90007783871E+02  0.90000045818E+02 0.  0.
        -12    1    1    2    0    0 -0.65026263617E+00  0.94729622370E+00  0.26962655682E+00  0.11802161292E+01  0.00000000000E+00 0.  1.
         11    1    3    3    0    0  0.34104106963E+02  0.11711105093E+02  0.73944638707E+01  0.36809213391E+02  0.51100000000E-03 0. -1.
        -11    1    3    3    0    0  0.85907294031E+01 -0.84270439065E+00 -0.35446727532E+01  0.93314247334E+01  0.51100000000E-03 0.  1.
        -12    1    3    3    0    0 -0.42044573730E+02 -0.11815696926E+02 -0.41194176743E+01  0.43867145747E+02  0.00000000000E+00 0.  1.
</event>
<event>
 7    1  0.1654239E-015  0.9000776E+02  0.7816164E-02  0.1186339E+00
        -11   -1    0    0    0    0  0.00000000000E+00  0.00000000000E+00  0.45593999997E+02  0.45594000000E+02  0.51100000000E-03 0. -1.
         11   -1    0    0    0    0 -0.00000000000E+00 -0.00000000000E+00 -0.45593999997E+02  0.45594000000E+02  0.51100000000E-03 0.  1.
    9900012    2    1    2    0    0  0.64733654974E+00  0.13889486892E+00  0.97705664918E+00  0.90007755920E+02  0.90000017498E+02 0.  0.
        -12    1    1    2    0    0 -0.64733654974E+00 -0.13889486892E+00 -0.97705664918E+00  0.11802440802E+01  0.00000000000E+00 0.  1.
         11    1    3    3    0    0 -0.23249939854E+02 -0.11450022509E+02  0.23365561441E+02  0.34894300113E+02  0.51100000000E-03 0. -1.
        -11    1    3    3    0    0 -0.99554481907E+01  0.28526480888E+01  0.42148237828E+01  0.11180934200E+02  0.51100000000E-03 0.  1.
        -12    1    3    3    0    0  0.33852724594E+02  0.87362692894E+01 -0.26603328574E+02  0.43932521607E+02  0.00000000000E+00 0.  1.
</event>
<event>
 7    1  0.1654239E-015  0.9000760E+02  0.7816164E-02  0.1186339E+00
        -11   -1    0    0    0    0  0.00000000000E+00  0.00000000000E+00  0.45593999997E+02  0.45594000000E+02  0.51100000000E-03 0.  1.
         11   -1    0    0    0    0 -0.00000000000E+00 -0.00000000000E+00 -0.45593999997E+02  0.45594000000E+02  0.51100000000E-03 0. -1.
    9900012    2    1    2    0    0 -0.10840184407E+01  0.43134966150E+00  0.17941520407E+00  0.90007598236E+02  0.89999857732E+02 0.  0.
        -12    1    1    2    0    0  0.10840184407E+01 -0.43134966150E+00 -0.17941520407E+00  0.11804017645E+01  0.00000000000E+00 0.  1.
         11    1    3    3    0    0  0.24840466115E+01  0.65356863044E+01 -0.54301361646E+01  0.88527996738E+01  0.51100000000E-03 0. -1.
        -11    1    3    3    0    0  0.37909880034E+02  0.37965224720E+01  0.56184127285E+01  0.38511545657E+02  0.51100000000E-03 0.  1.
         12    1    3    3    0    0 -0.41477945086E+02 -0.99008591149E+01 -0.88613598040E-02  0.42643252905E+02  0.00000000000E+00 0. -1.
</event>
<event>
 7    1  0.1654239E-015  0.9000773E+02  0.7816164E-02  0.1186339E+00
        -11   -1    0    0    0    0  0.00000000000E+00  0.00000000000E+00  0.45593999997E+02  0.45594000000E+02  0.51100000000E-03 0. -1.
         11   -1    0    0    0    0 -0.00000000000E+00 -0.00000000000E+00 -0.45593999997E+02  0.45594000000E+02  0.51100000000E-03 0.  1.
    9900012    2    1    2    0    0  0.63867399012E+00  0.66698483348E+00 -0.73502670684E+00  0.90007729907E+02  0.89999991141E+02 0.  0.
        -12    1    1    2    0    0 -0.63867399012E+00 -0.66698483348E+00  0.73502670684E+00  0.11802700935E+01  0.00000000000E+00 0.  1.
         11    1    3    3    0    0 -0.25676657422E+01  0.33085313261E+02  0.22521272971E+02  0.40105343752E+02  0.51100000000E-03 0. -1.
        -11    1    3    3    0    0  0.90350653966E+01  0.18850191023E+01 -0.33708625860E+01  0.98259054835E+01  0.51100000000E-03 0.  1.
        -12    1    3    3    0    0 -0.58287256642E+01 -0.34303347530E+02 -0.19885437092E+02  0.40076480671E+02  0.00000000000E+00 0.  1.
</event>
<event>
 7    1  0.1654239E-015  0.9000773E+02  0.7816164E-02  0.1186339E+00
        -11   -1    0    0    0    0  0.00000000000E+00  0.00000000000E+00  0.45593999997E+02  0.45594000000E+02  0.51100000000E-03 0. -1.
         11   -1    0    0    0    0 -0.00000000000E+00 -0.00000000000E+00 -0.45593999997E+02  0.45594000000E+02  0.51100000000E-03 0.  1.
    9900012    2    1    2    0    0  0.59106439202E+00 -0.18552564540E+00  0.10046220100E+01  0.90007727886E+02  0.89999989094E+02 0.  0.
        -12    1    1    2    0    0 -0.59106439202E+00  0.18552564540E+00 -0.10046220100E+01  0.11802721142E+01  0.00000000000E+00 0.  1.
         11    1    3    3    0    0  0.48475686709E+01  0.19182183338E+01  0.22632225610E+01  0.56833669789E+01  0.51100000000E-03 0. -1.
        -11    1    3    3    0    0  0.19981686157E+00 -0.94415843938E+01 -0.41815578947E+02  0.42868707533E+02  0.51100000000E-03 0.  1.
         12    1    3    3    0    0 -0.44563211404E+01  0.73378404145E+01  0.40556978396E+02  0.41455653374E+02  0.00000000000E+00 0. -1.
</event>
<event>
 7    1  0.1654239E-015  0.9000763E+02  0.7816164E-02  0.1186339E+00
        -11   -1    0    0    0    0  0.00000000000E+00  0.00000000000E+00  0.45593999997E+02  0.45594000000E+02  0.51100000000E-03 0. -1.
         11   -1    0    0    0    0 -0.00000000000E+00 -0.00000000000E+00 -0.45593999997E+02  0.45594000000E+02  0.51100000000E-03 0.  1.
    9900012    2    1    2    0    0  0.79395981863E+00  0.75713894619E+00 -0.43549048517E+00  0.90007625678E+02  0.89999885537E+02 0.  0.
        -12    1    1    2    0    0 -0.79395981863E+00 -0.75713894619E+00  0.43549048517E+00  0.11803743220E+01  0.00000000000E+00 0.  1.
         11    1    3    3    0    0  0.14451750975E+02  0.13789210888E+02  0.34870698033E+02  0.40186577669E+02  0.51100000000E-03 0. -1.
        -11    1    3    3    0    0  0.72006252757E+01  0.72980367748E+00 -0.89375711899E+00  0.72924906457E+01  0.51100000000E-03 0.  1.
        -12    1    3    3    0    0 -0.20858416432E+02 -0.13761875619E+02 -0.34412431399E+02  0.42528557363E+02  0.00000000000E+00 0.  1.
</event>
<event>
 7    1  0.1654239E-015  0.9000778E+02  0.7816164E-02  0.1186339E+00
        -11   -1    0    0    0    0  0.00000000000E+00  0.00000000000E+00  0.45593999997E+02  0.45594000000E+02  0.51100000000E-03 0. -1.
         11   -1    0    0    0    0 -0.00000000000E+00 -0.00000000000E+00 -0.45593999997E+02  0.45594000000E+02  0.51100000000E-03 0.  1.
    9900012    2    1    2    0    0  0.37325937993E+00 -0.84539929324E+00  0.73409773360E+00  0.90007778829E+02  0.90000040710E+02 0.  0.
        -12    1    1    2    0    0 -0.37325937993E+00  0.84539929324E+00 -0.73409773360E+00  0.11802211709E+01  0.00000000000E+00 0.  1.
         11    1    3    3    0    0  0.35951800569E+02  0.61699047676E+01  0.17352258831E+02  0.40394313657E+02  0.51100000000E-03 0. -1.
        -11    1    3    3    0    0 -0.36850303860E+01 -0.75790795644E+01  0.61414662321E+01  0.10427823538E+02  0.51100000000E-03 0.  1.
        -12    1    3    3    0    0 -0.31893510803E+02  0.56377550359E+00 -0.22759627330E+02  0.39185641635E+02  0.00000000000E+00 0.  1.
</event>
<event>
 7    1  0.1654239E-015  0.9000767E+02  0.7816164E-02  0.1186339E+00
        -11   -1    0    0    0    0  0.00000000000E+00  0.00000000000E+00  0.45593999997E+02  0.45594000000E+02  0.51100000000E-03 0.  1.
         11   -1    0    0    0    0 -0.00000000000E+00 -0.00000000000E+00 -0.45593999997E+02  0.45594000000E+02  0.51100000000E-03 0. -1.
    9900012    2    1    2    0    0 -0.73184023650E+00  0.88754993854E+00 -0.26427281457E+00  0.90007671594E+02  0.89999932059E+02 0.  0.
        -12    1    1    2    0    0  0.73184023650E+00 -0.88754993854E+00  0.26427281457E+00  0.11803284059E+01  0.00000000000E+00 0.  1.
         11    1    3    3    0    0  0.22484076324E+01 -0.94352538582E+01 -0.42439213922E+01  0.10587266942E+02  0.51100000000E-03 0. -1.
        -11    1    3    3    0    0 -0.38308760411E+02  0.10809524209E+02  0.14802798948E+02  0.42467985528E+02  0.51100000000E-03 0.  1.
         12    1    3    3    0    0  0.35328512542E+02 -0.48672041252E+00 -0.10823150370E+02  0.36952419124E+02  0.00000000000E+00 0. -1.
</event>
<event>
 7    1  0.1654239E-015  0.9000775E+02  0.7816164E-02  0.1186339E+00
        -11   -1    0    0    0    0  0.00000000000E+00  0.00000000000E+00  0.45593999997E+02  0.45594000000E+02  0.51100000000E-03 0.  1.
         11   -1    0    0    0    0 -0.00000000000E+00 -0.00000000000E+00 -0.45593999997E+02  0.45594000000E+02  0.51100000000E-03 0. -1.
    9900012    2    1    2    0    0  0.86309217870E+00 -0.30220111673E+00 -0.74614870956E+00  0.90007749382E+02  0.90000010874E+02 0.  0.
        -12    1    1    2    0    0 -0.86309217870E+00  0.30220111673E+00  0.74614870956E+00  0.11802506177E+01  0.00000000000E+00 0.  1.
         11    1    3    3    0    0  0.62099563274E+01  0.71562441890E+01 -0.42709330067E-01  0.94750837901E+01  0.51100000000E-03 0. -1.
        -11    1    3    3    0    0  0.12522880702E+02  0.29317609999E+02  0.16823352563E+02  0.36046775013E+02  0.51100000000E-03 0.  1.
         12    1    3    3    0    0 -0.17869744850E+02 -0.36776055305E+02 -0.17526791942E+02  0.44485890579E+02  0.00000000000E+00 0. -1.
</event>
<event>
 7    1  0.1841485E-015  0.9000770E+02  0.7816164E-02  0.1186339E+00
        -11   -1    0    0    0    0  0.00000000000E+00  0.00000000000E+00  0.45593999997E+02  0.45594000000E+02  0.51100000000E-03 0. -1.
         11   -1    0    0    0    0 -0.00000000000E+00 -0.00000000000E+00 -0.45593999997E+02  0.45594000000E+02  0.51100000000E-03 0.  1.
    9900012    2    1    2    0    0 -0.76286664172E+00 -0.59675689103E-01  0.89865107536E+00  0.90007703234E+02  0.89999964117E+02 0.  0.
        -12    1    1    2    0    0  0.76286664172E+00  0.59675689103E-01 -0.89865107536E+00  0.11802967661E+01  0.00000000000E+00 0.  1.
         11    1    3    3    0    0  0.89224159475E+01 -0.55784527316E+00 -0.32652054736E+01  0.95174715516E+01  0.51100000000E-03 0. -1.
        -11    1    3    3    0    0 -0.32725969338E+01  0.38479109504E+02  0.13405495090E+02  0.40878589234E+02  0.51100000000E-03 0.  1.
         12    1    3    3    0    0 -0.64126856555E+01 -0.37980939920E+02 -0.92416385408E+01  0.39611642448E+02  0.00000000000E+00 0. -1.
</event>
<event>
 7    1  0.1654239E-015  0.9000770E+02  0.7816164E-02  0.1186339E+00
        -11   -1    0    0    0    0  0.00000000000E+00  0.00000000000E+00  0.45593999997E+02  0.45594000000E+02  0.51100000000E-03 0.  1.
         11   -1    0    0    0    0 -0.00000000000E+00 -0.00000000000E+00 -0.45593999997E+02  0.45594000000E+02  0.51100000000E-03 0. -1.
    9900012    2    1    2    0    0 -0.11249950516E-01 -0.33743945184E+00 -0.11309823954E+01  0.90007697868E+02  0.89999958679E+02 0.  0.
        -12    1    1    2    0    0  0.11249950516E-01  0.33743945184E+00  0.11309823954E+01  0.11803021324E+01  0.00000000000E+00 0.  1.
         11    1    3    3    0    0  0.82052314837E+01 -0.87711683776E+01 -0.31626384098E+02  0.33830273274E+02  0.51100000000E-03 0. -1.
        -11    1    3    3    0    0  0.17775687828E+01 -0.13413035494E+02 -0.40284178917E+01  0.14117273919E+02  0.51100000000E-03 0.  1.
        -12    1    3    3    0    0 -0.99940502170E+01  0.21846764420E+02  0.34523819594E+02  0.42060150674E+02  0.00000000000E+00 0.  1.
</event>
<event>
 7    1  0.1654239E-015  0.9000774E+02  0.7816164E-02  0.1186339E+00
        -11   -1    0    0    0    0  0.00000000000E+00  0.00000000000E+00  0.45593999997E+02  0.45594000000E+02  0.51100000000E-03 0. -1.
         11   -1    0    0    0    0 -0.00000000000E+00 -0.00000000000E+00 -0.45593999997E+02  0.45594000000E+02  0.51100000000E-03 0.  1.
    9900012    2    1    2    0    0  0.81921262323E-01 -0.82423624379E+00  0.84079434844E+00  0.90007740869E+02  0.90000002249E+02 0.  0.
        -12    1    1    2    0    0 -0.81921262323E-01  0.82423624379E+00 -0.84079434844E+00  0.11802591305E+01  0.00000000000E+00 0.  1.
         11    1    3    3    0    0  0.35065771627E+01  0.10587108550E+02 -0.89917536521E+01  0.14326010779E+02  0.51100000000E-03 0. -1.
        -11    1    3    3    0    0 -0.16184001551E+02  0.57228482497E+00 -0.28927732686E+02  0.33152121120E+02  0.51100000000E-03 0.  1.
         12    1    3    3    0    0  0.12759345651E+02 -0.11983629618E+02  0.38760280687E+02  0.42529608970E+02  0.00000000000E+00 0. -1.
</event>
<event>
 7    1  0.2081869E-015  0.9000773E+02  0.7816164E-02  0.1186339E+00
        -11   -1    0    0    0    0  0.00000000000E+00  0.00000000000E+00  0.45593999997E+02  0.45594000000E+02  0.51100000000E-03 0. -1.
         11   -1    0    0    0    0 -0.00000000000E+00 -0.00000000000E+00 -0.45593999997E+02  0.45594000000E+02  0.51100000000E-03 0.  1.
    9900012    2    1    2    0    0  0.54220452097E+00 -0.45193445733E+00  0.94594645962E+00  0.90007726642E+02  0.89999987833E+02 0.  0.
        -12    1    1    2    0    0 -0.54220452097E+00  0.45193445733E+00 -0.94594645962E+00  0.11802733585E+01  0.00000000000E+00 0.  1.
         11    1    3    3    0    0  0.63911510410E+01 -0.11189375976E+01 -0.72109732565E+01  0.97003591966E+01  0.51100000000E-03 0. -1.
        -11    1    3    3    0    0 -0.30201082021E+02 -0.25487322593E+02 -0.92057854852E+01  0.40576538232E+02  0.51100000000E-03 0.  1.
         12    1    3    3    0    0  0.24352135501E+02  0.26154325734E+02  0.17362705201E+02  0.39730829213E+02  0.00000000000E+00 0. -1.
</event>
<event>
 7    1  0.1654239E-015  0.9000766E+02  0.7816164E-02  0.1186339E+00
        -11   -1    0    0    0    0  0.00000000000E+00  0.00000000000E+00  0.45593999997E+02  0.45594000000E+02  0.51100000000E-03 0.  1.
         11   -1    0    0    0    0 -0.00000000000E+00 -0.00000000000E+00 -0.45593999997E+02  0.45594000000E+02  0.51100000000E-03 0. -1.
    9900012    2    1    2    0    0 -0.37560223735E+00  0.29870813842E+00 -0.10783811572E+01  0.90007657036E+02  0.89999917309E+02 0.  0.
        -12    1    1    2    0    0  0.37560223735E+00 -0.29870813842E+00  0.10783811572E+01  0.11803429641E+01  0.00000000000E+00 0.  1.
         11    1    3    3    0    0  0.19504562074E+02  0.28592548834E+02 -0.84681655219E+01  0.35632451755E+02  0.51100000000E-03 0. -1.
        -11    1    3    3    0    0  0.25018382574E+01  0.94921634218E+01  0.28620178464E+01  0.10225043154E+02  0.51100000000E-03 0.  1.
        -12    1    3    3    0    0 -0.22382002568E+02 -0.37786004118E+02  0.45277665182E+01  0.44150162126E+02  0.00000000000E+00 0.  1.
</event>
<event>
 7    1  0.1654239E-015  0.9000775E+02  0.7816164E-02  0.1186339E+00
        -11   -1    0    0    0    0  0.00000000000E+00  0.00000000000E+00  0.45593999997E+02  0.45594000000E+02  0.51100000000E-03 0.  1.
         11   -1    0    0    0    0 -0.00000000000E+00 -0.00000000000E+00 -0.45593999997E+02  0.45594000000E+02  0.51100000000E-03 0. -1.
    9900012    2    1    2    0    0  0.12325002584E+00  0.10754367680E+01 -0.47035635714E+00  0.90007750063E+02  0.90000011564E+02 0.  0.
        -12    1    1    2    0    0 -0.12325002584E+00 -0.10754367680E+01  0.47035635714E+00  0.11802499369E+01  0.00000000000E+00 0.  1.
         11    1    3    3    0    0  0.31082382888E+02 -0.51406426302E+01 -0.14882987634E+02  0.34843134960E+02  0.51100000000E-03 0. -1.
        -11    1    3    3    0    0  0.10265562518E+02  0.55648044233E+01  0.63663748199E+00  0.11694192132E+02  0.51100000000E-03 0.  1.
        -12    1    3    3    0    0 -0.41224695380E+02  0.65127497480E+00  0.13775993794E+02  0.43470422971E+02  0.00000000000E+00 0.  1.
</event>
<event>
 7    1  0.1654239E-015  0.9000768E+02  0.7816164E-02  0.1186339E+00
        -11   -1    0    0    0    0  0.00000000000E+00  0.00000000000E+00  0.45593999997E+02  0.45594000000E+02  0.51100000000E-03 0. -1.
         11   -1    0    0    0    0 -0.00000000000E+00 -0.00000000000E+00 -0.45593999997E+02  0.45594000000E+02  0.51100000000E-03 0.  1.
    9900012    2    1    2    0    0  0.14068708295E+00 -0.75046525006E+00  0.90008798928E+00  0.90007682528E+02  0.89999943137E+02 0.  0.
        -12    1    1    2    0    0 -0.14068708295E+00  0.75046525006E+00 -0.90008798928E+00  0.11803174723E+01  0.00000000000E+00 0.  1.
         11    1    3    3    0    0 -0.46336797783E-02 -0.44611126633E+01 -0.87716345445E+01  0.98408902295E+01  0.51100000000E-03 0. -1.
        -11    1    3    3    0    0  0.33259543450E+02  0.20603587296E+02 -0.64409325848E+01  0.39650859420E+02  0.51100000000E-03 0.  1.
         12    1    3    3    0    0 -0.33114222687E+02 -0.16892939882E+02  0.16112655119E+02  0.40515932878E+02  0.00000000000E+00 0. -1.
</event>
<event>
 7    1  0.1654239E-015  0.9000755E+02  0.7816164E-02  0.1186339E+00
        -11   -1    0    0    0    0  0.00000000000E+00  0.00000000000E+00  0.45593999997E+02  0.45594000000E+02  0.51100000000E-03 0.  1.
         11   -1    0    0    0    0 -0.00000000000E+00 -0.00000000000E+00 -0.45593999997E+02  0.45594000000E+02  0.51100000000E-03 0. -1.
    9900012    2    1    2    0    0  0.69766742144E+00  0.51574363235E+00 -0.80046188044E+00  0.90007546465E+02  0.89999805279E+02 0.  0.
        -12    1    1    2    0    0 -0.69766742144E+00 -0.51574363235E+00  0.80046188044E+00  0.11804535346E+01  0.00000000000E+00 0.  1.
         11    1    3    3    0    0  0.88958835966E+01  0.33562641915E+02  0.17392085214E+02  0.38833906649E+02  0.51100000000E-03 0. -1.
        -11    1    3    3    0    0  0.72702045619E+01  0.34624535854E+01 -0.45019010386E+01  0.92255933373E+01  0.51100000000E-03 0.  1.
        -12    1    3    3    0    0 -0.15468420737E+02 -0.36509351869E+02 -0.13690646056E+02  0.41948046479E+02  0.00000000000E+00 0.  1.
</event>
<event>
 7    1  0.1654239E-015  0.9000770E+02  0.7816164E-02  0.1186339E+00
        -11   -1    0    0    0    0  0.00000000000E+00  0.00000000000E+00  0.45593999997E+02  0.45594000000E+02  0.51100000000E-03 0. -1.
         11   -1    0    0    0    0 -0.00000000000E+00 -0.00000000000E+00 -0.45593999997E+02  0.45594000000E+02  0.51100000000E-03 0.  1.
    9900012    2    1    2    0    0  0.42716494938E+00  0.46424391464E+00  0.99755481031E+00  0.90007700078E+02  0.89999960919E+02 0.  0.
        -12    1    1    2    0    0 -0.42716494938E+00 -0.46424391464E+00 -0.99755481031E+00  0.11802999220E+01  0.00000000000E+00 0.  1.
         11    1    3    3    0    0  0.64533841112E+01 -0.35704654674E+02  0.16023573627E+02  0.39663880848E+02  0.51100000000E-03 0. -1.
        -11    1    3    3    0    0 -0.40049390497E+01 -0.36782168377E+01 -0.82399776286E+01  0.98724894266E+01  0.51100000000E-03 0.  1.
        -12    1    3    3    0    0 -0.20212801121E+01  0.39847115426E+02 -0.67860411877E+01  0.40471329804E+02  0.00000000000E+00 0.  1.
</event>
<event>
 7    1  0.1654239E-015  0.9000772E+02  0.7816164E-02  0.1186339E+00
        -11   -1    0    0    0    0  0.00000000000E+00  0.00000000000E+00  0.45593999997E+02  0.45594000000E+02  0.51100000000E-03 0.  1.
         11   -1    0    0    0    0 -0.00000000000E+00 -0.00000000000E+00 -0.45593999997E+02  0.45594000000E+02  0.51100000000E-03 0. -1.
    9900012    2    1    2    0    0 -0.61019350634E+00  0.62458537434E+00 -0.79411064818E+00  0.90007722606E+02  0.89999983744E+02 0.  0.
        -12    1    1    2    0    0  0.61019350634E+00 -0.62458537434E+00  0.79411064818E+00  0.11802773939E+01  0.00000000000E+00 0.  1.
         11    1    3    3    0    0 -0.92976110057E+01 -0.33797331085E+02 -0.48482016073E+01  0.35386582457E+02  0.51100000000E-03 0. -1.
        -11    1    3    3    0    0  0.11038285917E+01 -0.91875363911E+01  0.46434213945E+01  0.10353290540E+02  0.51100000000E-03 0.  1.
        -12    1    3    3    0    0  0.75835889076E+01  0.43609452851E+02 -0.58933043536E+00  0.44267849609E+02  0.00000000000E+00 0.  1.
</event>
<event>
 7    1  0.1654239E-015  0.9000780E+02  0.7816164E-02  0.1186339E+00
        -11   -1    0    0    0    0  0.00000000000E+00  0.00000000000E+00  0.45593999997E+02  0.45594000000E+02  0.51100000000E-03 0.  1.
         11   -1    0    0    0    0 -0.00000000000E+00 -0.00000000000E+00 -0.45593999997E+02  0.45594000000E+02  0.51100000000E-03 0. -1.
    9900012    2    1    2    0    0 -0.93086263230E+00 -0.71805289445E+00  0.10379705852E+00  0.90007797039E+02  0.90000059160E+02 0.  0.
        -12    1    1    2    0    0  0.93086263230E+00  0.71805289445E+00 -0.10379705852E+00  0.11802029608E+01  0.00000000000E+00 0.  1.
         11    1    3    3    0    0  0.10793058427E+01  0.45698264418E+01  0.87952059716E+01  0.99701486024E+01  0.51100000000E-03 0. -1.
        -11    1    3    3    0    0  0.28555063058E+02 -0.31885141934E+01  0.22366335464E+02  0.36411690586E+02  0.51100000000E-03 0.  1.
         12    1    3    3    0    0 -0.30565231533E+02 -0.20993651428E+01 -0.31057744377E+02  0.43625957851E+02  0.00000000000E+00 0. -1.
</event>
<event>
 7    1  0.1654239E-015  0.9000722E+02  0.7816164E-02  0.1186340E+00
        -11   -1    0    0    0    0  0.00000000000E+00  0.00000000000E+00  0.45593999997E+02  0.45594000000E+02  0.51100000000E-03 0.  1.
         11   -1    0    0    0    0 -0.00000000000E+00 -0.00000000000E+00 -0.45593999997E+02  0.45594000000E+02  0.51100000000E-03 0. -1.
    9900012    2    1    2    0    0 -0.10492452963E+01 -0.98712873889E-01 -0.53252486948E+00  0.90007219470E+02  0.89999473966E+02 0.  0.
        -12    1    1    2    0    0  0.10492452963E+01  0.98712873889E-01  0.53252486948E+00  0.11807805300E+01  0.00000000000E+00 0.  1.
         11    1    3    3    0    0  0.21665904694E+02  0.15345314105E+02  0.19978962136E+02  0.33227233100E+02  0.51100000000E-03 0. -1.
        -11    1    3    3    0    0 -0.30689463735E+01  0.25284076831E+01  0.13220329634E+02  0.13805375516E+02  0.51100000000E-03 0.  1.
        -12    1    3    3    0    0 -0.19646203617E+02 -0.17972434662E+02 -0.33731816639E+02  0.42974610854E+02  0.00000000000E+00 0.  1.
</event>
<event>
 7    1  0.1654239E-015  0.9000770E+02  0.7816164E-02  0.1186339E+00
        -11   -1    0    0    0    0  0.00000000000E+00  0.00000000000E+00  0.45593999997E+02  0.45594000000E+02  0.51100000000E-03 0.  1.
         11   -1    0    0    0    0 -0.00000000000E+00 -0.00000000000E+00 -0.45593999997E+02  0.45594000000E+02  0.51100000000E-03 0. -1.
    9900012    2    1    2    0    0 -0.69247707808E+00  0.35525833476E+00 -0.88734629377E+00  0.90007696466E+02  0.89999957259E+02 0.  0.
        -12    1    1    2    0    0  0.69247707808E+00 -0.35525833476E+00  0.88734629377E+00  0.11803035343E+01  0.00000000000E+00 0.  1.
         11    1    3    3    0    0 -0.67054059840E+01 -0.33904805930E+01 -0.70719025317E+01  0.10318412365E+02  0.51100000000E-03 0. -1.
        -11    1    3    3    0    0 -0.15463779294E+02  0.34878772482E+02 -0.85483107583E+01  0.39098987928E+02  0.51100000000E-03 0.  1.
         12    1    3    3    0    0  0.21476708200E+02 -0.31133033555E+02  0.14732866996E+02  0.40590296172E+02  0.00000000000E+00 0. -1.
</event>
<event>
 7    1  0.1654239E-015  0.9000766E+02  0.7816164E-02  0.1186339E+00
        -11   -1    0    0    0    0  0.00000000000E+00  0.00000000000E+00  0.45593999997E+02  0.45594000000E+02  0.51100000000E-03 0. -1.
         11   -1    0    0    0    0 -0.00000000000E+00 -0.00000000000E+00 -0.45593999997E+02  0.45594000000E+02  0.51100000000E-03 0.  1.
    9900012    2    1    2    0    0  0.40025919968E+00 -0.11036955035E+01 -0.12191001899E+00  0.90007655455E+02  0.89999915707E+02 0.  0.
        -12    1    1    2    0    0 -0.40025919968E+00  0.11036955035E+01  0.12191001899E+00  0.11803445447E+01  0.00000000000E+00 0.  1.
         11    1    3    3    0    0  0.11404938296E+02 -0.32675743093E+02 -0.89842779203E+01  0.35756035214E+02  0.51100000000E-03 0. -1.
        -11    1    3    3    0    0 -0.33749253461E+01 -0.10335519323E+02  0.82778436235E+00  0.10904050073E+02  0.51100000000E-03 0.  1.
        -12    1    3    3    0    0 -0.76297537505E+01  0.41907566913E+02  0.80345835390E+01  0.43347570168E+02  0.00000000000E+00 0.  1.
</event>
<event>
 7    1  0.1654239E-015  0.9000773E+02  0.7816164E-02  0.1186339E+00
        -11   -1    0    0    0    0  0.00000000000E+00  0.00000000000E+00  0.45593999997E+02  0.45594000000E+02  0.51100000000E-03 0.  1.
         11   -1    0    0    0    0 -0.00000000000E+00 -0.00000000000E+00 -0.45593999997E+02  0.45594000000E+02  0.51100000000E-03 0. -1.
    9900012    2    1    2    0    0 -0.49569825354E+00  0.35623302188E+00 -0.10101550182E+01  0.90007732282E+02  0.89999993549E+02 0.  0.
        -12    1    1    2    0    0  0.49569825354E+00 -0.35623302188E+00  0.10101550182E+01  0.11802677176E+01  0.00000000000E+00 0.  1.
         11    1    3    3    0    0  0.62383137189E+01  0.41509977950E+01 -0.71885717436E+01  0.10383780849E+02  0.51100000000E-03 0. -1.
        -11    1    3    3    0    0 -0.26394557246E+02 -0.12710518578E+02 -0.27132228741E+02  0.39929785517E+02  0.51100000000E-03 0.  1.
         12    1    3    3    0    0  0.19660545274E+02  0.89157538052E+01  0.33310645466E+02  0.39694165916E+02  0.00000000000E+00 0. -1.
</event>
<event>
 7    1  0.1654239E-015  0.9000766E+02  0.7816164E-02  0.1186339E+00
        -11   -1    0    0    0    0  0.00000000000E+00  0.00000000000E+00  0.45593999997E+02  0.45594000000E+02  0.51100000000E-03 0.  1.
         11   -1    0    0    0    0 -0.00000000000E+00 -0.00000000000E+00 -0.45593999997E+02  0.45594000000E+02  0.51100000000E-03 0. -1.
    9900012    2    1    2    0    0  0.99237232982E+00  0.12016451562E-01 -0.63894830882E+00  0.90007660143E+02  0.89999920457E+02 0.  0.
        -12    1    1    2    0    0 -0.99237232982E+00 -0.12016451562E-01  0.63894830882E+00  0.11803398568E+01  0.00000000000E+00 0.  1.
         11    1    3    3    0    0 -0.15072346260E+01 -0.64205211041E+01  0.76362037005E+01  0.10089918468E+02  0.51100000000E-03 0. -1.
        -11    1    3    3    0    0  0.24696779866E+02 -0.77349196702E+01  0.26006832368E+02  0.36689443279E+02  0.51100000000E-03 0.  1.
         12    1    3    3    0    0 -0.22197172910E+02  0.14167457226E+02 -0.34281984377E+02  0.43228298397E+02  0.00000000000E+00 0. -1.
</event>
<event>
 7    1  0.1654239E-015  0.9000777E+02  0.7816164E-02  0.1186339E+00
        -11   -1    0    0    0    0  0.00000000000E+00  0.00000000000E+00  0.45593999997E+02  0.45594000000E+02  0.51100000000E-03 0. -1.
         11   -1    0    0    0    0 -0.00000000000E+00 -0.00000000000E+00 -0.45593999997E+02  0.45594000000E+02  0.51100000000E-03 0.  1.
    9900012    2    1    2    0    0  0.10394116879E+01 -0.54657238776E+00 -0.11762596255E+00  0.90007765320E+02  0.90000027023E+02 0.  0.
        -12    1    1    2    0    0 -0.10394116879E+01  0.54657238776E+00  0.11762596255E+00  0.11802346797E+01  0.00000000000E+00 0.  1.
         11    1    3    3    0    0 -0.24953106293E+02 -0.19663889394E+02 -0.17260570802E+02  0.36155958907E+02  0.51100000000E-03 0. -1.
        -11    1    3    3    0    0 -0.87665014902E+01 -0.35578331926E+01  0.44324496462E+01  0.10447790940E+02  0.51100000000E-03 0.  1.
        -12    1    3    3    0    0  0.34759019471E+02  0.22675150199E+02  0.12710495193E+02  0.43404015473E+02  0.00000000000E+00 0.  1.
</event>
<event>
 7    1  0.1654239E-015  0.9000778E+02  0.7816164E-02  0.1186339E+00
        -11   -1    0    0    0    0  0.00000000000E+00  0.00000000000E+00  0.45593999997E+02  0.45594000000E+02  0.51100000000E-03 0. -1.
         11   -1    0    0    0    0 -0.00000000000E+00 -0.00000000000E+00 -0.45593999997E+02  0.45594000000E+02  0.51100000000E-03 0.  1.
    9900012    2    1    2    0    0  0.10022526709E+01 -0.46303687119E+00 -0.41713762546E+00  0.90007780800E+02  0.90000042707E+02 0.  0.
        -12    1    1    2    0    0 -0.10022526709E+01  0.46303687119E+00  0.41713762546E+00  0.11802191995E+01  0.00000000000E+00 0.  1.
         11    1    3    3    0    0  0.89560028748E+01 -0.41857821541E+01  0.34761740011E+02  0.36140134596E+02  0.51100000000E-03 0. -1.
        -11    1    3    3    0    0 -0.28344452203E+01  0.88075702904E+01  0.66670168801E+01  0.11404231165E+02  0.51100000000E-03 0.  1.
        -12    1    3    3    0    0 -0.51193049837E+01 -0.50848250075E+01 -0.41845894517E+02  0.42463415039E+02  0.00000000000E+00 0.  1.
</event>
<event>
 7    1  0.1654239E-015  0.9000775E+02  0.7816164E-02  0.1186339E+00
        -11   -1    0    0    0    0  0.00000000000E+00  0.00000000000E+00  0.45593999997E+02  0.45594000000E+02  0.51100000000E-03 0.  1.
         11   -1    0    0    0    0 -0.00000000000E+00 -0.00000000000E+00 -0.45593999997E+02  0.45594000000E+02  0.51100000000E-03 0. -1.
    9900012    2    1    2    0    0 -0.18847034408E+00  0.10118076939E+01 -0.57768453603E+00  0.90007747780E+02  0.90000009250E+02 0.  0.
        -12    1    1    2    0    0  0.18847034408E+00 -0.10118076939E+01  0.57768453603E+00  0.11802522202E+01  0.00000000000E+00 0.  1.
         11    1    3    3    0    0 -0.72732492976E+01 -0.51804480641E+01 -0.40772813225E+01  0.98163853191E+01  0.51100000000E-03 0. -1.
        -11    1    3    3    0    0 -0.13565750491E+02  0.14595827863E+02  0.35783287692E+02  0.40957434682E+02  0.51100000000E-03 0.  1.
         12    1    3    3    0    0  0.20650529445E+02 -0.84035721048E+01 -0.32283690906E+02  0.39233927779E+02  0.00000000000E+00 0. -1.
</event>
<event>
 7    1  0.1654239E-015  0.9000774E+02  0.7816164E-02  0.1186339E+00
        -11   -1    0    0    0    0  0.00000000000E+00  0.00000000000E+00  0.45593999997E+02  0.45594000000E+02  0.51100000000E-03 0. -1.
         11   -1    0    0    0    0 -0.00000000000E+00 -0.00000000000E+00 -0.45593999997E+02  0.45594000000E+02  0.51100000000E-03 0.  1.
    9900012    2    1    2    0    0  0.81290732217E+00 -0.11858946554E+00  0.84742844529E+00  0.90007738696E+02  0.90000000047E+02 0.  0.
        -12    1    1    2    0    0 -0.81290732217E+00  0.11858946554E+00 -0.84742844529E+00  0.11802613040E+01  0.00000000000E+00 0.  1.
         11    1    3    3    0    0 -0.68298030698E+01 -0.72866209750E+01  0.14696248592E+01  0.10094595222E+02  0.51100000000E-03 0. -1.
        -11    1    3    3    0    0  0.12258538935E+02 -0.27319397063E+02 -0.23676788496E+02  0.38173440328E+02  0.51100000000E-03 0.  1.
         12    1    3    3    0    0 -0.46158285430E+01  0.34487428573E+02  0.23054592082E+02  0.41739703146E+02  0.00000000000E+00 0. -1.
</event>
<event>
 7    1  0.1654239E-015  0.9000773E+02  0.7816164E-02  0.1186339E+00
        -11   -1    0    0    0    0  0.00000000000E+00  0.00000000000E+00  0.45593999997E+02  0.45594000000E+02  0.51100000000E-03 0.  1.
         11   -1    0    0    0    0 -0.00000000000E+00 -0.00000000000E+00 -0.45593999997E+02  0.45594000000E+02  0.51100000000E-03 0. -1.
    9900012    2    1    2    0    0  0.30803425003E+00 -0.10193452853E+01 -0.50900596134E+00  0.90007730125E+02  0.89999991362E+02 0.  0.
        -12    1    1    2    0    0 -0.30803425003E+00  0.10193452853E+01  0.50900596134E+00  0.11802698753E+01  0.00000000000E+00 0.  1.
         11    1    3    3    0    0 -0.15023621520E+02 -0.20616083721E+02 -0.36700046402E+02  0.44694804147E+02  0.51100000000E-03 0. -1.
        -11    1    3    3    0    0  0.34558970638E+01 -0.12678764554E+00  0.92462931489E+01  0.98718406024E+01  0.51100000000E-03 0.  1.
        -12    1    3    3    0    0  0.11875758707E+02  0.19723526081E+02  0.26944747292E+02  0.35441085375E+02  0.00000000000E+00 0.  1.
</event>
<event>
 7    1  0.1654239E-015  0.9000770E+02  0.7816164E-02  0.1186339E+00
        -11   -1    0    0    0    0  0.00000000000E+00  0.00000000000E+00  0.45593999997E+02  0.45594000000E+02  0.51100000000E-03 0. -1.
         11   -1    0    0    0    0 -0.00000000000E+00 -0.00000000000E+00 -0.45593999997E+02  0.45594000000E+02  0.51100000000E-03 0.  1.
    9900012    2    1    2    0    0  0.16605136052E+00 -0.48106045089E+00  0.10649481907E+01  0.90007700521E+02  0.89999961368E+02 0.  0.
        -12    1    1    2    0    0 -0.16605136052E+00  0.48106045089E+00 -0.10649481907E+01  0.11802994792E+01  0.00000000000E+00 0.  1.
         11    1    3    3    0    0  0.70073772848E+00 -0.11335716192E+02 -0.10996047106E+02  0.15808306272E+02  0.51100000000E-03 0. -1.
        -11    1    3    3    0    0 -0.26763673057E+02 -0.72930307462E+00 -0.18306767421E+02  0.32433991616E+02  0.51100000000E-03 0.  1.
         12    1    3    3    0    0  0.26228986689E+02  0.11583958816E+02  0.30367762718E+02  0.41765402633E+02  0.00000000000E+00 0. -1.
</event>
<event>
 7    1  0.1654239E-015  0.9000767E+02  0.7816164E-02  0.1186339E+00
        -11   -1    0    0    0    0  0.00000000000E+00  0.00000000000E+00  0.45593999997E+02  0.45594000000E+02  0.51100000000E-03 0.  1.
         11   -1    0    0    0    0 -0.00000000000E+00 -0.00000000000E+00 -0.45593999997E+02  0.45594000000E+02  0.51100000000E-03 0. -1.
    9900012    2    1    2    0    0  0.96091090690E+00 -0.15936295950E+00 -0.66665061740E+00  0.90007674041E+02  0.89999934538E+02 0.  0.
        -12    1    1    2    0    0 -0.96091090690E+00  0.15936295950E+00  0.66665061740E+00  0.11803259590E+01  0.00000000000E+00 0.  1.
         11    1    3    3    0    0  0.35071454208E+02 -0.53082636594E+01  0.10191543891E+02  0.36905990442E+02  0.51100000000E-03 0. -1.
        -11    1    3    3    0    0  0.40548186187E+01  0.13978410347E+01  0.89604616236E+01  0.99340518601E+01  0.51100000000E-03 0.  1.
        -12    1    3    3    0    0 -0.38165361920E+02  0.37510596652E+01 -0.19818656132E+02  0.43167631739E+02  0.00000000000E+00 0.  1.
</event>
<event>
 7    1  0.1654239E-015  0.9000770E+02  0.7816164E-02  0.1186339E+00
        -11   -1    0    0    0    0  0.00000000000E+00  0.00000000000E+00  0.45593999997E+02  0.45594000000E+02  0.51100000000E-03 0. -1.
         11   -1    0    0    0    0 -0.00000000000E+00 -0.00000000000E+00 -0.45593999997E+02  0.45594000000E+02  0.51100000000E-03 0.  1.
    9900012    2    1    2    0    0 -0.76219969717E+00 -0.34451870826E-01 -0.90054667987E+00  0.90007695110E+02  0.89999955886E+02 0.  0.
        -12    1    1    2    0    0  0.76219969717E+00  0.34451870826E-01  0.90054667987E+00  0.11803048896E+01  0.00000000000E+00 0.  1.
         11    1    3    3    0    0 -0.48650744198E+01  0.20459348754E+02  0.30948300586E+02  0.37417258184E+02  0.51100000000E-03 0. -1.
        -11    1    3    3    0    0  0.98043356148E+01  0.43762661974E+01  0.12382546651E+01  0.10807866466E+02  0.51100000000E-03 0.  1.
        -12    1    3    3    0    0 -0.57014608921E+01 -0.24870066823E+02 -0.33087101931E+02  0.41782570460E+02  0.00000000000E+00 0.  1.
</event>
<event>
 7    1  0.1654239E-015  0.9000775E+02  0.7816164E-02  0.1186339E+00
        -11   -1    0    0    0    0  0.00000000000E+00  0.00000000000E+00  0.45593999997E+02  0.45594000000E+02  0.51100000000E-03 0.  1.
         11   -1    0    0    0    0 -0.00000000000E+00 -0.00000000000E+00 -0.45593999997E+02  0.45594000000E+02  0.51100000000E-03 0. -1.
    9900012    2    1    2    0    0  0.53320406521E+00  0.88512009756E+00 -0.57031363839E+00  0.90007745024E+02  0.90000006458E+02 0.  0.
        -12    1    1    2    0    0 -0.53320406521E+00 -0.88512009756E+00  0.57031363839E+00  0.11802549760E+01  0.00000000000E+00 0.  1.
         11    1    3    3    0    0  0.90652199133E+01  0.35630177038E+01 -0.21614560193E+01  0.99772340666E+01  0.51100000000E-03 0. -1.
        -11    1    3    3    0    0 -0.30409689716E+01  0.38314226967E+02  0.37413965663E+01  0.38616389382E+02  0.51100000000E-03 0.  1.
         12    1    3    3    0    0 -0.54910468765E+01 -0.40992124573E+02 -0.21502541853E+01  0.41414121576E+02  0.00000000000E+00 0. -1.
</event>
<event>
 7    1  0.1654239E-015  0.9000776E+02  0.7816164E-02  0.1186339E+00
        -11   -1    0    0    0    0  0.00000000000E+00  0.00000000000E+00  0.45593999997E+02  0.45594000000E+02  0.51100000000E-03 0. -1.
         11   -1    0    0    0    0 -0.00000000000E+00 -0.00000000000E+00 -0.45593999997E+02  0.45594000000E+02  0.51100000000E-03 0.  1.
    9900012    2    1    2    0    0  0.58434545843E+00  0.60537387449E+00  0.82767084173E+00  0.90007755888E+02  0.90000017465E+02 0.  0.
        -12    1    1    2    0    0 -0.58434545843E+00 -0.60537387449E+00 -0.82767084173E+00  0.11802441124E+01  0.00000000000E+00 0.  1.
         11    1    3    3    0    0 -0.40796936879E+02  0.60917324944E+01  0.13155574704E+02  0.43296286325E+02  0.51100000000E-03 0. -1.
        -11    1    3    3    0    0  0.81550013169E+01 -0.10664715122E+01  0.43155010281E+01  0.92878930523E+01  0.51100000000E-03 0.  1.
        -12    1    3    3    0    0  0.33226281020E+02 -0.44198871077E+01 -0.16643404891E+02  0.37423576510E+02  0.00000000000E+00 0.  1.
</event>
<event>
 7    1  0.1654239E-015  0.9000779E+02  0.7816164E-02  0.1186339E+00
        -11   -1    0    0    0    0  0.00000000000E+00  0.00000000000E+00  0.45593999997E+02  0.45594000000E+02  0.51100000000E-03 0.  1.
         11   -1    0    0    0    0 -0.00000000000E+00 -0.00000000000E+00 -0.45593999997E+02  0.45594000000E+02  0.51100000000E-03 0. -1.
    9900012    2    1    2    0    0 -0.55523793712E+00 -0.79502438363E+00  0.67270805854E+00  0.90007792785E+02  0.90000054850E+02 0.  0.
        -12    1    1    2    0    0  0.55523793712E+00  0.79502438363E+00 -0.67270805854E+00  0.11802072146E+01  0.00000000000E+00 0.  1.
         11    1    3    3    0    0  0.11018123875E+01 -0.76913720724E+01 -0.41008509706E+02  0.41738100861E+02  0.51100000000E-03 0. -1.
        -11    1    3    3    0    0 -0.58675431712E+00  0.54876971306E+01 -0.95140203623E+00  0.56003809264E+01  0.51100000000E-03 0.  1.
        -12    1    3    3    0    0 -0.10702960075E+01  0.14086505582E+01  0.42632619801E+02  0.42669310998E+02  0.00000000000E+00 0.  1.
</event>
<event>
 7    1  0.1654239E-015  0.9000778E+02  0.7816164E-02  0.1186339E+00
        -11   -1    0    0    0    0  0.00000000000E+00  0.00000000000E+00  0.45593999997E+02  0.45594000000E+02  0.51100000000E-03 0. -1.
         11   -1    0    0    0    0 -0.00000000000E+00 -0.00000000000E+00 -0.45593999997E+02  0.45594000000E+02  0.51100000000E-03 0.  1.
    9900012    2    1    2    0    0 -0.85588042523E+00  0.81073233875E+00 -0.55767211692E-01  0.90007776204E+02  0.90000038050E+02 0.  0.
        -12    1    1    2    0    0  0.85588042523E+00 -0.81073233875E+00  0.55767211692E-01  0.11802237963E+01  0.00000000000E+00 0.  1.
         11    1    3    3    0    0 -0.82109005911E+01  0.38336357005E+01  0.60070779373E+01  0.10872011626E+02  0.51100000000E-03 0. -1.
        -11    1    3    3    0    0  0.30556501806E+02  0.88538264215E+01 -0.30014467931E+02  0.43737379098E+02  0.51100000000E-03 0.  1.
         12    1    3    3    0    0 -0.23201481640E+02 -0.11876729783E+02  0.23951622782E+02  0.35398385479E+02  0.00000000000E+00 0. -1.
</event>
<event>
 7    1  0.1654239E-015  0.9000780E+02  0.7816164E-02  0.1186339E+00
        -11   -1    0    0    0    0  0.00000000000E+00  0.00000000000E+00  0.45593999997E+02  0.45594000000E+02  0.51100000000E-03 0. -1.
         11   -1    0    0    0    0 -0.00000000000E+00 -0.00000000000E+00 -0.45593999997E+02  0.45594000000E+02  0.51100000000E-03 0.  1.
    9900012    2    1    2    0    0  0.87784025616E+00 -0.87865690773E-01  0.78392652783E+00  0.90007803111E+02  0.90000065312E+02 0.  0.
        -12    1    1    2    0    0 -0.87784025616E+00  0.87865690773E-01 -0.78392652783E+00  0.11801968886E+01  0.00000000000E+00 0.  1.
         11    1    3    3    0    0  0.83496154263E+01 -0.64592925935E+01 -0.23214216671E+00  0.10558997529E+02  0.51100000000E-03 0. -1.
        -11    1    3    3    0    0  0.16471801150E+02 -0.26510772230E+02 -0.16334134875E+02  0.35227052669E+02  0.51100000000E-03 0.  1.
         12    1    3    3    0    0 -0.23943576320E+02  0.32882199133E+02  0.17350203570E+02  0.44221752913E+02  0.00000000000E+00 0. -1.
</event>
<event>
 7    1  0.1654239E-015  0.9000786E+02  0.7816164E-02  0.1186339E+00
        -11   -1    0    0    0    0  0.00000000000E+00  0.00000000000E+00  0.45593999997E+02  0.45594000000E+02  0.51100000000E-03 0. -1.
         11   -1    0    0    0    0 -0.00000000000E+00 -0.00000000000E+00 -0.45593999997E+02  0.45594000000E+02  0.51100000000E-03 0.  1.
    9900012    2    1    2    0    0  0.31382751833E+00  0.42888136232E+00  0.10537054869E+01  0.90007863488E+02  0.90000126486E+02 0.  0.
        -12    1    1    2    0    0 -0.31382751833E+00 -0.42888136232E+00 -0.10537054869E+01  0.11801365121E+01  0.00000000000E+00 0.  1.
         11    1    3    3    0    0  0.92008827995E+01 -0.41895572252E+01  0.12892955833E+00  0.10110650678E+02  0.51100000000E-03 0. -1.
        -11    1    3    3    0    0  0.13263931747E+02 -0.19114901663E+02 -0.28008074653E+02  0.36411036747E+02  0.51100000000E-03 0.  1.
         12    1    3    3    0    0 -0.22150987029E+02  0.23733340251E+02  0.28932850581E+02  0.43486176063E+02  0.00000000000E+00 0. -1.
</event>
<event>
 7    1  0.1654239E-015  0.9000822E+02  0.7816164E-02  0.1186338E+00
        -11   -1    0    0    0    0  0.00000000000E+00  0.00000000000E+00  0.45593999997E+02  0.45594000000E+02  0.51100000000E-03 0. -1.
         11   -1    0    0    0    0 -0.00000000000E+00 -0.00000000000E+00 -0.45593999997E+02  0.45594000000E+02  0.51100000000E-03 0.  1.
    9900012    2    1    2    0    0  0.44700922307E+00  0.24874950214E+00  0.10630985606E+01  0.90008223703E+02  0.90000491455E+02 0.  0.
        -12    1    1    2    0    0 -0.44700922307E+00 -0.24874950214E+00 -0.10630985606E+01  0.11797762965E+01  0.00000000000E+00 0.  1.
         11    1    3    3    0    0  0.20918539351E+01  0.41036113749E+01 -0.70039307057E+01  0.83827516242E+01  0.51100000000E-03 0. -1.
        -11    1    3    3    0    0  0.37362618869E+02  0.11802082759E+02  0.45676692525E+01  0.39447662147E+02  0.51100000000E-03 0.  1.
         12    1    3    3    0    0 -0.39007463581E+02 -0.15656944632E+02  0.34993600137E+01  0.42177809933E+02  0.00000000000E+00 0. -1.
</event>
<event>
 7    1  0.1654239E-015  0.9000775E+02  0.7816164E-02  0.1186339E+00
        -11   -1    0    0    0    0  0.00000000000E+00  0.00000000000E+00  0.45593999997E+02  0.45594000000E+02  0.51100000000E-03 0. -1.
         11   -1    0    0    0    0 -0.00000000000E+00 -0.00000000000E+00 -0.45593999997E+02  0.45594000000E+02  0.51100000000E-03 0.  1.
    9900012    2    1    2    0    0  0.35320484816E+00 -0.16638235545E+00  0.11137988002E+01  0.90007752348E+02  0.90000013879E+02 0.  0.
        -12    1    1    2    0    0 -0.35320484816E+00  0.16638235545E+00 -0.11137988002E+01  0.11802476521E+01  0.00000000000E+00 0.  1.
         11    1    3    3    0    0  0.53371407317E+01 -0.93675304991E+01 -0.19534339592E+01  0.10956806256E+02  0.51100000000E-03 0. -1.
        -11    1    3    3    0    0 -0.36871957315E+02 -0.10630935540E+02  0.12452544586E+02  0.40343821009E+02  0.51100000000E-03 0.  1.
         12    1    3    3    0    0  0.31888021432E+02  0.19832083683E+02 -0.93853118263E+01  0.38707125082E+02  0.00000000000E+00 0. -1.
</event>
<event>
 7    1  0.1654239E-015  0.9000781E+02  0.7816164E-02  0.1186339E+00
        -11   -1    0    0    0    0  0.00000000000E+00  0.00000000000E+00  0.45593999997E+02  0.45594000000E+02  0.51100000000E-03 0. -1.
         11   -1    0    0    0    0 -0.00000000000E+00 -0.00000000000E+00 -0.45593999997E+02  0.45594000000E+02  0.51100000000E-03 0.  1.
    9900012    2    1    2    0    0 -0.10226826686E+01  0.53692630952E+00 -0.24223263161E+00  0.90007810884E+02  0.90000073187E+02 0.  0.
        -12    1    1    2    0    0  0.10226826686E+01 -0.53692630952E+00  0.24223263161E+00  0.11801891164E+01  0.00000000000E+00 0.  1.
         11    1    3    3    0    0 -0.11378441136E+02 -0.33017449449E+02  0.10871883791E+02  0.36576204672E+02  0.51100000000E-03 0. -1.
        -11    1    3    3    0    0 -0.70740796174E+01 -0.50071198612E+01 -0.65599796869E+01  0.10869553141E+02  0.51100000000E-03 0.  1.
        -12    1    3    3    0    0  0.17429838085E+02  0.38561495620E+02 -0.45541367353E+01  0.42562053070E+02  0.00000000000E+00 0.  1.
</event>
<event>
 7    1  0.1654239E-015  0.9000772E+02  0.7816164E-02  0.1186339E+00
        -11   -1    0    0    0    0  0.00000000000E+00  0.00000000000E+00  0.45593999997E+02  0.45594000000E+02  0.51100000000E-03 0. -1.
         11   -1    0    0    0    0 -0.00000000000E+00 -0.00000000000E+00 -0.45593999997E+02  0.45594000000E+02  0.51100000000E-03 0.  1.
    9900012    2    1    2    0    0 -0.60469767696E+00 -0.84172738972E+00 -0.56470227697E+00  0.90007723363E+02  0.89999984511E+02 0.  0.
        -12    1    1    2    0    0  0.60469767696E+00  0.84172738972E+00  0.56470227697E+00  0.11802766374E+01  0.00000000000E+00 0.  1.
         11    1    3    3    0    0  0.45751400865E+01  0.10456963256E+02 -0.56888948492E+00  0.11428194208E+02  0.51100000000E-03 0. -1.
        -11    1    3    3    0    0  0.18231046706E+02 -0.31109710700E+01 -0.32680190840E+02  0.37550553639E+02  0.51100000000E-03 0.  1.
         12    1    3    3    0    0 -0.23410884470E+02 -0.81877195759E+01  0.32684378047E+02  0.41028975516E+02  0.00000000000E+00 0. -1.
</event>
<event>
 7    1  0.1654239E-015  0.9000773E+02  0.7816164E-02  0.1186339E+00
        -11   -1    0    0    0    0  0.00000000000E+00  0.00000000000E+00  0.45593999997E+02  0.45594000000E+02  0.51100000000E-03 0.  1.
         11   -1    0    0    0    0 -0.00000000000E+00 -0.00000000000E+00 -0.45593999997E+02  0.45594000000E+02  0.51100000000E-03 0. -1.
    9900012    2    1    2    0    0  0.35543694291E+00 -0.96411632575E+00 -0.58067324452E+00  0.90007730062E+02  0.89999991299E+02 0.  0.
        -12    1    1    2    0    0 -0.35543694291E+00  0.96411632575E+00  0.58067324452E+00  0.11802699381E+01  0.00000000000E+00 0.  1.
         11    1    3    3    0    0  0.30312446838E+00  0.10122229296E+02 -0.21581353404E+02  0.23839174176E+02  0.51100000000E-03 0. -1.
        -11    1    3    3    0    0 -0.19273242897E+01  0.25763452485E+02  0.92039708929E+01  0.27425957473E+02  0.51100000000E-03 0.  1.
        -12    1    3    3    0    0  0.19796367642E+01 -0.36849798107E+02  0.11796709267E+02  0.38742598413E+02  0.00000000000E+00 0.  1.
</event>
<event>
 7    1  0.1654239E-015  0.9000815E+02  0.7816164E-02  0.1186338E+00
        -11   -1    0    0    0    0  0.00000000000E+00  0.00000000000E+00  0.45593999997E+02  0.45594000000E+02  0.51100000000E-03 0. -1.
         11   -1    0    0    0    0 -0.00000000000E+00 -0.00000000000E+00 -0.45593999997E+02  0.45594000000E+02  0.51100000000E-03 0.  1.
    9900012    2    1    2    0    0 -0.29715693876E+00  0.80028967652E+00  0.81441497905E+00  0.90008153582E+02  0.90000420408E+02 0.  0.
        -12    1    1    2    0    0  0.29715693876E+00 -0.80028967652E+00 -0.81441497905E+00  0.11798464183E+01  0.00000000000E+00 0.  1.
         11    1    3    3    0    0 -0.88762552150E+01  0.27592004862E-01 -0.52893476157E+01  0.10332756961E+02  0.51100000000E-03 0. -1.
        -11    1    3    3    0    0 -0.17139938461E+02  0.11319108719E+02 -0.28599849789E+02  0.35211519718E+02  0.51100000000E-03 0.  1.
         12    1    3    3    0    0  0.25719036737E+02 -0.10546411047E+02  0.34703612384E+02  0.44463876902E+02  0.00000000000E+00 0. -1.
</event>
<event>
 7    1  0.1654239E-015  0.9000783E+02  0.7816164E-02  0.1186339E+00
        -11   -1    0    0    0    0  0.00000000000E+00  0.00000000000E+00  0.45593999997E+02  0.45594000000E+02  0.51100000000E-03 0. -1.
         11   -1    0    0    0    0 -0.00000000000E+00 -0.00000000000E+00 -0.45593999997E+02  0.45594000000E+02  0.51100000000E-03 0.  1.
    9900012    2    1    2    0    0 -0.54777477684E+00  0.56638129785E+00  0.87861284654E+00  0.90007828184E+02  0.90000090716E+02 0.  0.
        -12    1    1    2    0    0  0.54777477684E+00 -0.56638129785E+00 -0.87861284654E+00  0.11801718158E+01  0.00000000000E+00 0.  1.
         11    1    3    3    0    0 -0.30022054548E+02  0.17697761376E+02  0.11519684458E+02  0.36704736033E+02  0.51100000000E-03 0. -1.
        -11    1    3    3    0    0 -0.23909893208E+01  0.43871645916E+01  0.88738524097E+01  0.10183776310E+02  0.51100000000E-03 0.  1.
        -12    1    3    3    0    0  0.31865269092E+02 -0.21518544670E+02 -0.19514924021E+02  0.43119315841E+02  0.00000000000E+00 0.  1.
</event>
<event>
 7    1  0.1654239E-015  0.9000765E+02  0.7816164E-02  0.1186339E+00
        -11   -1    0    0    0    0  0.00000000000E+00  0.00000000000E+00  0.45593999997E+02  0.45594000000E+02  0.51100000000E-03 0.  1.
         11   -1    0    0    0    0 -0.00000000000E+00 -0.00000000000E+00 -0.45593999997E+02  0.45594000000E+02  0.51100000000E-03 0. -1.
    9900012    2    1    2    0    0  0.90329769669E+00 -0.51196121977E+00 -0.56139451899E+00  0.90007654786E+02  0.89999915029E+02 0.  0.
        -12    1    1    2    0    0 -0.90329769669E+00  0.51196121977E+00  0.56139451899E+00  0.11803452145E+01  0.00000000000E+00 0.  1.
         11    1    3    3    0    0 -0.20570747459E+01  0.16557497918E+02 -0.30548239537E+02  0.34807718007E+02  0.51100000000E-03 0. -1.
        -11    1    3    3    0    0  0.10072654818E+02 -0.43439786719E+01 -0.86079556105E+01  0.13943651812E+02  0.51100000000E-03 0.  1.
        -12    1    3    3    0    0 -0.71122823757E+01 -0.12725480465E+02  0.38594800629E+02  0.41256284966E+02  0.00000000000E+00 0.  1.
</event>
<event>
 7    1  0.1654239E-015  0.9000777E+02  0.7816164E-02  0.1186339E+00
        -11   -1    0    0    0    0  0.00000000000E+00  0.00000000000E+00  0.45593999997E+02  0.45594000000E+02  0.51100000000E-03 0. -1.
         11   -1    0    0    0    0 -0.00000000000E+00 -0.00000000000E+00 -0.45593999997E+02  0.45594000000E+02  0.51100000000E-03 0.  1.
    9900012    2    1    2    0    0 -0.80206729089E+00  0.64663525711E+00  0.57575958784E+00  0.90007767736E+02  0.90000029470E+02 0.  0.
        -12    1    1    2    0    0  0.80206729089E+00 -0.64663525711E+00 -0.57575958784E+00  0.11802322644E+01  0.00000000000E+00 0.  1.
         11    1    3    3    0    0 -0.10529754756E+02  0.35082217343E+02  0.80893911778E+01  0.37511011168E+02  0.51100000000E-03 0. -1.
        -11    1    3    3    0    0  0.16149933957E+02  0.41690820451E+00 -0.52431372265E+01  0.16984836399E+02  0.51100000000E-03 0.  1.
        -12    1    3    3    0    0 -0.64222464918E+01 -0.34852490290E+02 -0.22704943634E+01  0.35511920169E+02  0.00000000000E+00 0.  1.
</event>
<event>
 7    1  0.1654239E-015  0.9000772E+02  0.7816164E-02  0.1186339E+00
        -11   -1    0    0    0    0  0.00000000000E+00  0.00000000000E+00  0.45593999997E+02  0.45594000000E+02  0.51100000000E-03 0. -1.
         11   -1    0    0    0    0 -0.00000000000E+00 -0.00000000000E+00 -0.45593999997E+02  0.45594000000E+02  0.51100000000E-03 0.  1.
    9900012    2    1    2    0    0  0.64120753830E+00  0.29902223186E+00  0.94472248418E+00  0.90007719536E+02  0.89999980634E+02 0.  0.
        -12    1    1    2    0    0 -0.64120753830E+00 -0.29902223186E+00 -0.94472248418E+00  0.11802804643E+01  0.00000000000E+00 0.  1.
         11    1    3    3    0    0 -0.81455916202E+01 -0.24620416804E+02  0.29323053910E+02  0.39145332765E+02  0.51100000000E-03 0. -1.
        -11    1    3    3    0    0  0.79560474990E+01 -0.98009870323E-01  0.48064119948E+01  0.92956922424E+01  0.51100000000E-03 0.  1.
        -12    1    3    3    0    0  0.83075165948E+00  0.25017448906E+02 -0.33184743421E+02  0.41566694528E+02  0.00000000000E+00 0.  1.
</event>
<event>
 7    1  0.1654239E-015  0.9000774E+02  0.7816164E-02  0.1186339E+00
        -11   -1    0    0    0    0  0.00000000000E+00  0.00000000000E+00  0.45593999997E+02  0.45594000000E+02  0.51100000000E-03 0.  1.
         11   -1    0    0    0    0 -0.00000000000E+00 -0.00000000000E+00 -0.45593999997E+02  0.45594000000E+02  0.51100000000E-03 0. -1.
    9900012    2    1    2    0    0  0.36254405597E+00  0.39863598589E+00 -0.10500748488E+01  0.90007743236E+02  0.90000004646E+02 0.  0.
        -12    1    1    2    0    0 -0.36254405597E+00 -0.39863598589E+00  0.10500748488E+01  0.11802567643E+01  0.00000000000E+00 0.  1.
         11    1    3    3    0    0  0.59069593008E+01 -0.16391773299E+02 -0.34490996719E+02  0.38642091753E+02  0.51100000000E-03 0. -1.
        -11    1    3    3    0    0 -0.11686617497E+01 -0.10098912852E+02  0.31885436589E+01  0.10654605671E+02  0.51100000000E-03 0.  1.
        -12    1    3    3    0    0 -0.43757534952E+01  0.26889322137E+02  0.30252378212E+02  0.40711045812E+02  0.00000000000E+00 0.  1.
</event>
<event>
 7    1  0.1654239E-015  0.9000781E+02  0.7816164E-02  0.1186339E+00
        -11   -1    0    0    0    0  0.00000000000E+00  0.00000000000E+00  0.45593999997E+02  0.45594000000E+02  0.51100000000E-03 0.  1.
         11   -1    0    0    0    0 -0.00000000000E+00 -0.00000000000E+00 -0.45593999997E+02  0.45594000000E+02  0.51100000000E-03 0. -1.
    9900012    2    1    2    0    0  0.62910092106E-01  0.19341037300E+00 -0.11625375481E+01  0.90007805608E+02  0.90000067842E+02 0.  0.
        -12    1    1    2    0    0 -0.62910092106E-01 -0.19341037300E+00  0.11625375481E+01  0.11801943920E+01  0.00000000000E+00 0.  1.
         11    1    3    3    0    0 -0.25261382541E+02 -0.31290010956E+02 -0.17691062389E+02  0.43933767449E+02  0.51100000000E-03 0. -1.
        -11    1    3    3    0    0 -0.41131859308E+00  0.81017389302E+01  0.17842093899E+01  0.83060676668E+01  0.51100000000E-03 0.  1.
        -12    1    3    3    0    0  0.25735611227E+02  0.23381682399E+02  0.14744315451E+02  0.37767970492E+02  0.00000000000E+00 0.  1.
</event>
<event>
 7    1  0.1654239E-015  0.9000775E+02  0.7816164E-02  0.1186339E+00
        -11   -1    0    0    0    0  0.00000000000E+00  0.00000000000E+00  0.45593999997E+02  0.45594000000E+02  0.51100000000E-03 0.  1.
         11   -1    0    0    0    0 -0.00000000000E+00 -0.00000000000E+00 -0.45593999997E+02  0.45594000000E+02  0.51100000000E-03 0. -1.
    9900012    2    1    2    0    0  0.18858328638E+00 -0.11543033758E+01 -0.15818254219E+00  0.90007745089E+02  0.90000006524E+02 0.  0.
        -12    1    1    2    0    0 -0.18858328638E+00  0.11543033758E+01  0.15818254219E+00  0.11802549114E+01  0.00000000000E+00 0.  1.
         11    1    3    3    0    0  0.32727473770E+01  0.79239955572E+01  0.30242525740E+01  0.90910222130E+01  0.51100000000E-03 0. -1.
        -11    1    3    3    0    0 -0.22283997944E+02 -0.66886504583E+01  0.32710654366E+02  0.40141020399E+02  0.51100000000E-03 0.  1.
         12    1    3    3    0    0  0.19199833854E+02 -0.23896484747E+01 -0.35893089483E+02  0.40775702476E+02  0.00000000000E+00 0. -1.
</event>
<event>
 7    1  0.1654239E-015  0.9000781E+02  0.7816164E-02  0.1186339E+00
        -11   -1    0    0    0    0  0.00000000000E+00  0.00000000000E+00  0.45593999997E+02  0.45594000000E+02  0.51100000000E-03 0. -1.
         11   -1    0    0    0    0 -0.00000000000E+00 -0.00000000000E+00 -0.45593999997E+02  0.45594000000E+02  0.51100000000E-03 0.  1.
    9900012    2    1    2    0    0  0.26425714716E+00  0.79839922032E+00  0.82799557530E+00  0.90007809410E+02  0.90000071695E+02 0.  0.
        -12    1    1    2    0    0 -0.26425714716E+00 -0.79839922032E+00 -0.82799557530E+00  0.11801905895E+01  0.00000000000E+00 0.  1.
         11    1    3    3    0    0  0.51126735203E+01 -0.89822871670E+01 -0.81660124404E+01  0.13172117245E+02  0.51100000000E-03 0. -1.
        -11    1    3    3    0    0  0.12441983445E+02 -0.22716851079E+02  0.25631544176E+02  0.36439461194E+02  0.51100000000E-03 0.  1.
         12    1    3    3    0    0 -0.17290399818E+02  0.32497537466E+02 -0.16637536160E+02  0.40396230972E+02  0.00000000000E+00 0. -1.
</event>
<event>
 7    1  0.1654239E-015  0.9000770E+02  0.7816164E-02  0.1186339E+00
        -11   -1    0    0    0    0  0.00000000000E+00  0.00000000000E+00  0.45593999997E+02  0.45594000000E+02  0.51100000000E-03 0.  1.
         11   -1    0    0    0    0 -0.00000000000E+00 -0.00000000000E+00 -0.45593999997E+02  0.45594000000E+02  0.51100000000E-03 0. -1.
    9900012    2    1    2    0    0 -0.96009462120E+00  0.38759814936E-01 -0.68543434589E+00  0.90007701628E+02  0.89999962489E+02 0.  0.
        -12    1    1    2    0    0  0.96009462120E+00 -0.38759814936E-01  0.68543434589E+00  0.11802983722E+01  0.00000000000E+00 0.  1.
         11    1    3    3    0    0 -0.19686397284E+02 -0.26925857736E+02 -0.38322032974E+01  0.33574422337E+02  0.51100000000E-03 0. -1.
        -11    1    3    3    0    0 -0.74819480796E+01 -0.48684770322E+01 -0.97602938473E+01  0.13226675770E+02  0.51100000000E-03 0.  1.
        -12    1    3    3    0    0  0.26208250742E+02  0.31833094584E+02  0.12907062799E+02  0.43206603521E+02  0.00000000000E+00 0.  1.
</event>
<event>
 7    1  0.1654239E-015  0.9000772E+02  0.7816164E-02  0.1186339E+00
        -11   -1    0    0    0    0  0.00000000000E+00  0.00000000000E+00  0.45593999997E+02  0.45594000000E+02  0.51100000000E-03 0.  1.
         11   -1    0    0    0    0 -0.00000000000E+00 -0.00000000000E+00 -0.45593999997E+02  0.45594000000E+02  0.51100000000E-03 0. -1.
    9900012    2    1    2    0    0 -0.99321566640E+00 -0.57970748872E+00 -0.26558156009E+00  0.90007715417E+02  0.89999976460E+02 0.  0.
        -12    1    1    2    0    0  0.99321566640E+00  0.57970748872E+00  0.26558156009E+00  0.11802845833E+01  0.00000000000E+00 0.  1.
         11    1    3    3    0    0  0.20903648990E+02 -0.74138686158E+01 -0.31173973747E+02  0.38258915672E+02  0.51100000000E-03 0. -1.
        -11    1    3    3    0    0 -0.47829537896E+01  0.66856220168E+01 -0.65858671344E+01  0.10533177815E+02  0.51100000000E-03 0.  1.
        -12    1    3    3    0    0 -0.17113910867E+02  0.14853911024E+00  0.37494259321E+02  0.41215621930E+02  0.00000000000E+00 0.  1.
</event>
<event>
 7    1  0.2144423E-015  0.9000822E+02  0.7816164E-02  0.1186338E+00
        -11   -1    0    0    0    0  0.00000000000E+00  0.00000000000E+00  0.45593999997E+02  0.45594000000E+02  0.51100000000E-03 0. -1.
         11   -1    0    0    0    0 -0.00000000000E+00 -0.00000000000E+00 -0.45593999997E+02  0.45594000000E+02  0.51100000000E-03 0.  1.
    9900012    2    1    2    0    0 -0.16870637369E+00  0.11687139753E+00  0.11617922783E+01  0.90008219486E+02  0.90000487182E+02 0.  0.
        -12    1    1    2    0    0  0.16870637369E+00 -0.11687139753E+00 -0.11617922783E+01  0.11797805144E+01  0.00000000000E+00 0.  1.
         11    1    3    3    0    0 -0.45551092541E+01  0.54669866968E+01  0.57430797168E+01  0.91443932961E+01  0.51100000000E-03 0. -1.
        -11    1    3    3    0    0  0.28587058333E+02  0.20698297528E+02 -0.21669594411E+02  0.41415102885E+02  0.51100000000E-03 0.  1.
         12    1    3    3    0    0 -0.24200655453E+02 -0.26048412828E+02  0.17088306973E+02  0.39448723305E+02  0.00000000000E+00 0. -1.
</event>
<event>
 7    1  0.1654239E-015  0.9000780E+02  0.7816164E-02  0.1186339E+00
        -11   -1    0    0    0    0  0.00000000000E+00  0.00000000000E+00  0.45593999997E+02  0.45594000000E+02  0.51100000000E-03 0.  1.
         11   -1    0    0    0    0 -0.00000000000E+00 -0.00000000000E+00 -0.45593999997E+02  0.45594000000E+02  0.51100000000E-03 0. -1.
    9900012    2    1    2    0    0 -0.50651783726E+00  0.76698540228E+00 -0.74030695179E+00  0.90007796073E+02  0.90000058181E+02 0.  0.
        -12    1    1    2    0    0  0.50651783726E+00 -0.76698540228E+00  0.74030695179E+00  0.11802039271E+01  0.00000000000E+00 0.  1.
         11    1    3    3    0    0 -0.76636554510E+01  0.27494352827E+02 -0.26848153753E+02  0.39185385189E+02  0.51100000000E-03 0. -1.
        -11    1    3    3    0    0  0.29785966934E+01  0.80425480192E+01  0.47670189977E+01  0.98121907487E+01  0.51100000000E-03 0.  1.
        -12    1    3    3    0    0  0.41785409203E+01 -0.34769915444E+02  0.21340827804E+02  0.41010220135E+02  0.00000000000E+00 0.  1.
</event>
<event>
 7    1  0.1654239E-015  0.9000798E+02  0.7816164E-02  0.1186339E+00
        -11   -1    0    0    0    0  0.00000000000E+00  0.00000000000E+00  0.45593999997E+02  0.45594000000E+02  0.51100000000E-03 0. -1.
         11   -1    0    0    0    0 -0.00000000000E+00 -0.00000000000E+00 -0.45593999997E+02  0.45594000000E+02  0.51100000000E-03 0.  1.
    9900012    2    1    2    0    0  0.43952229497E+00  0.39951029563E+00  0.10196424180E+01  0.90007975007E+02  0.90000239477E+02 0.  0.
        -12    1    1    2    0    0 -0.43952229497E+00 -0.39951029563E+00 -0.10196424180E+01  0.11800249932E+01  0.00000000000E+00 0.  1.
         11    1    3    3    0    0 -0.20675196056E+02 -0.31280728054E+02  0.10246531935E+02  0.38870800050E+02  0.51100000000E-03 0. -1.
        -11    1    3    3    0    0  0.29727151730E+01 -0.12499608796E+01  0.88507202284E+01  0.94199090507E+01  0.51100000000E-03 0.  1.
        -12    1    3    3    0    0  0.18142003178E+02  0.32930199229E+02 -0.18077609746E+02  0.41717265906E+02  0.00000000000E+00 0.  1.
</event>
<event>
 7    1  0.1654239E-015  0.9000772E+02  0.7816164E-02  0.1186339E+00
        -11   -1    0    0    0    0  0.00000000000E+00  0.00000000000E+00  0.45593999997E+02  0.45594000000E+02  0.51100000000E-03 0. -1.
         11   -1    0    0    0    0 -0.00000000000E+00 -0.00000000000E+00 -0.45593999997E+02  0.45594000000E+02  0.51100000000E-03 0.  1.
    9900012    2    1    2    0    0  0.48241005797E+00  0.83217980485E+00  0.68397344067E+00  0.90007719373E+02  0.89999980468E+02 0.  0.
        -12    1    1    2    0    0 -0.48241005797E+00 -0.83217980485E+00 -0.68397344067E+00  0.11802806273E+01  0.00000000000E+00 0.  1.
         11    1    3    3    0    0  0.64187093442E+00  0.86741372750E+01 -0.34536563072E+01  0.93584399293E+01  0.51100000000E-03 0. -1.
        -11    1    3    3    0    0 -0.24020522782E+02 -0.52925438758E+00 -0.29953955192E+02  0.38399284587E+02  0.51100000000E-03 0.  1.
         12    1    3    3    0    0  0.23861061905E+02 -0.73127030825E+01  0.34091584940E+02  0.42249994856E+02  0.00000000000E+00 0. -1.
</event>
<event>
 7    1  0.2003268E-015  0.9000785E+02  0.7816164E-02  0.1186339E+00
        -11   -1    0    0    0    0  0.00000000000E+00  0.00000000000E+00  0.45593999997E+02  0.45594000000E+02  0.51100000000E-03 0. -1.
         11   -1    0    0    0    0 -0.00000000000E+00 -0.00000000000E+00 -0.45593999997E+02  0.45594000000E+02  0.51100000000E-03 0.  1.
    9900012    2    1    2    0    0  0.21111242098E+00 -0.11610681809E+01  0.97615867846E-02  0.90007854643E+02  0.90000117524E+02 0.  0.
        -12    1    1    2    0    0 -0.21111242098E+00  0.11610681809E+01 -0.97615867846E-02  0.11801453570E+01  0.00000000000E+00 0.  1.
         11    1    3    3    0    0 -0.15174304026E+01  0.27219373609E+01 -0.92820340766E+01  0.97912049761E+01  0.51100000000E-03 0. -1.
        -11    1    3    3    0    0  0.46045210796E+01 -0.11266355844E+02 -0.34048261574E+02  0.36158214902E+02  0.51100000000E-03 0.  1.
         12    1    3    3    0    0 -0.28759782560E+01  0.73833503024E+01  0.43340057238E+02  0.44058434765E+02  0.00000000000E+00 0. -1.
</event>
<event>
 7    1  0.1654239E-015  0.9000777E+02  0.7816164E-02  0.1186339E+00
        -11   -1    0    0    0    0  0.00000000000E+00  0.00000000000E+00  0.45593999997E+02  0.45594000000E+02  0.51100000000E-03 0. -1.
         11   -1    0    0    0    0 -0.00000000000E+00 -0.00000000000E+00 -0.45593999997E+02  0.45594000000E+02  0.51100000000E-03 0.  1.
    9900012    2    1    2    0    0 -0.40281207292E-01 -0.61174958054E-01  0.11779565184E+01  0.90007768451E+02  0.90000030194E+02 0.  0.
        -12    1    1    2    0    0  0.40281207292E-01  0.61174958054E-01 -0.11779565184E+01  0.11802315495E+01  0.00000000000E+00 0.  1.
         11    1    3    3    0    0  0.76984251071E+01 -0.55275162401E+01  0.54991415720E+01  0.10957177702E+02  0.51100000000E-03 0. -1.
        -11    1    3    3    0    0 -0.23516209878E+02 -0.90085815306E+01 -0.34089135648E+02  0.42382022577E+02  0.51100000000E-03 0.  1.
         12    1    3    3    0    0  0.15777503564E+02  0.14474922813E+02  0.29767950594E+02  0.36668568171E+02  0.00000000000E+00 0. -1.
</event>
<event>
 7    1  0.1654239E-015  0.9000776E+02  0.7816164E-02  0.1186339E+00
        -11   -1    0    0    0    0  0.00000000000E+00  0.00000000000E+00  0.45593999997E+02  0.45594000000E+02  0.51100000000E-03 0.  1.
         11   -1    0    0    0    0 -0.00000000000E+00 -0.00000000000E+00 -0.45593999997E+02  0.45594000000E+02  0.51100000000E-03 0. -1.
    9900012    2    1    2    0    0  0.16070471744E+00  0.92389287935E+00 -0.71662968889E+00  0.90007761817E+02  0.90000023473E+02 0.  0.
        -12    1    1    2    0    0 -0.16070471744E+00 -0.92389287935E+00  0.71662968889E+00  0.11802381835E+01  0.00000000000E+00 0.  1.
         11    1    3    3    0    0  0.47479609592E+01 -0.20313936506E+02 -0.29544300083E+02  0.36167178730E+02  0.51100000000E-03 0. -1.
        -11    1    3    3    0    0 -0.46075651060E+01 -0.49206433775E+01 -0.68434766942E+01  0.96060169155E+01  0.51100000000E-03 0.  1.
        -12    1    3    3    0    0  0.20308864277E-01  0.26158472763E+02  0.35671147088E+02  0.44234566171E+02  0.00000000000E+00 0.  1.
</event>
<event>
 7    1  0.1654239E-015  0.9000750E+02  0.7816164E-02  0.1186340E+00
        -11   -1    0    0    0    0  0.00000000000E+00  0.00000000000E+00  0.45593999997E+02  0.45594000000E+02  0.51100000000E-03 0.  1.
         11   -1    0    0    0    0 -0.00000000000E+00 -0.00000000000E+00 -0.45593999997E+02  0.45594000000E+02  0.51100000000E-03 0. -1.
    9900012    2    1    2    0    0 -0.74318728328E+00 -0.34334018305E+00 -0.85051075969E+00  0.90007500796E+02  0.89999759006E+02 0.  0.
        -12    1    1    2    0    0  0.74318728328E+00  0.34334018305E+00  0.85051075969E+00  0.11804992044E+01  0.00000000000E+00 0.  1.
         11    1    3    3    0    0  0.47417978045E+01  0.46866038524E+01 -0.84140288370E+01  0.10735212323E+02  0.51100000000E-03 0. -1.
        -11    1    3    3    0    0  0.32205888248E+02 -0.88674906814E+01  0.20553882512E+02  0.39221342601E+02  0.51100000000E-03 0.  1.
         12    1    3    3    0    0 -0.37690873336E+02  0.38375466460E+01 -0.12990364434E+02  0.40050945872E+02  0.00000000000E+00 0. -1.
</event>
<event>
 7    1  0.1654239E-015  0.9000775E+02  0.7816164E-02  0.1186339E+00
        -11   -1    0    0    0    0  0.00000000000E+00  0.00000000000E+00  0.45593999997E+02  0.45594000000E+02  0.51100000000E-03 0. -1.
         11   -1    0    0    0    0 -0.00000000000E+00 -0.00000000000E+00 -0.45593999997E+02  0.45594000000E+02  0.51100000000E-03 0.  1.
    9900012    2    1    2    0    0  0.23723211498E-01  0.22530675213E+00  0.11582983401E+01  0.90007753853E+02  0.90000015404E+02 0.  0.
        -12    1    1    2    0    0 -0.23723211498E-01 -0.22530675213E+00 -0.11582983401E+01  0.11802461473E+01  0.00000000000E+00 0.  1.
         11    1    3    3    0    0  0.97802852094E+01 -0.38861035544E+01  0.19331306695E+01  0.10700129628E+02  0.51100000000E-03 0. -1.
        -11    1    3    3    0    0  0.22349517465E+02 -0.24605365364E+02 -0.11041092112E+02  0.35026142392E+02  0.51100000000E-03 0.  1.
         12    1    3    3    0    0 -0.32106079463E+02  0.28716775670E+02  0.10266259782E+02  0.44281481832E+02  0.00000000000E+00 0. -1.
</event>
<event>
 7    1  0.1654239E-015  0.9000764E+02  0.7816164E-02  0.1186339E+00
        -11   -1    0    0    0    0  0.00000000000E+00  0.00000000000E+00  0.45593999997E+02  0.45594000000E+02  0.51100000000E-03 0.  1.
         11   -1    0    0    0    0 -0.00000000000E+00 -0.00000000000E+00 -0.45593999997E+02  0.45594000000E+02  0.51100000000E-03 0. -1.
    9900012    2    1    2    0    0  0.82930879013E+00 -0.13809350051E+00 -0.82850567884E+00  0.90007642197E+02  0.89999902274E+02 0.  0.
        -12    1    1    2    0    0 -0.82930879013E+00  0.13809350051E+00  0.82850567884E+00  0.11803578034E+01  0.00000000000E+00 0.  1.
         11    1    3    3    0    0 -0.33559832390E+02 -0.25546624533E+02 -0.12521722763E+01  0.42195501072E+02  0.51100000000E-03 0. -1.
        -11    1    3    3    0    0  0.54223118355E+00  0.10388643286E+02  0.25853771966E+01  0.10719239688E+02  0.51100000000E-03 0.  1.
        -12    1    3    3    0    0  0.33846909997E+02  0.15019887746E+02 -0.21617105991E+01  0.37092901436E+02  0.00000000000E+00 0.  1.
</event>
<event>
 7    1  0.2050323E-015  0.9000770E+02  0.7816164E-02  0.1186339E+00
        -11   -1    0    0    0    0  0.00000000000E+00  0.00000000000E+00  0.45593999997E+02  0.45594000000E+02  0.51100000000E-03 0. -1.
         11   -1    0    0    0    0 -0.00000000000E+00 -0.00000000000E+00 -0.45593999997E+02  0.45594000000E+02  0.51100000000E-03 0.  1.
    9900012    2    1    2    0    0 -0.24610058936E+00  0.82110701223E+00  0.81137098659E+00  0.90007701265E+02  0.89999962122E+02 0.  0.
        -12    1    1    2    0    0  0.24610058936E+00 -0.82110701223E+00 -0.81137098659E+00  0.11802987348E+01  0.00000000000E+00 0.  1.
         11    1    3    3    0    0 -0.37890503702E+01 -0.38156874063E+01 -0.73477684209E+01  0.91052772676E+01  0.51100000000E-03 0. -1.
        -11    1    3    3    0    0 -0.67471122693E+01  0.10860844618E+02 -0.34388142883E+02  0.36688224828E+02  0.51100000000E-03 0.  1.
         12    1    3    3    0    0  0.10290062050E+02 -0.62240501990E+01  0.42547282291E+02  0.44214199170E+02  0.00000000000E+00 0. -1.
</event>
<event>
 7    1  0.1654239E-015  0.9000784E+02  0.7816164E-02  0.1186339E+00
        -11   -1    0    0    0    0  0.00000000000E+00  0.00000000000E+00  0.45593999997E+02  0.45594000000E+02  0.51100000000E-03 0. -1.
         11   -1    0    0    0    0 -0.00000000000E+00 -0.00000000000E+00 -0.45593999997E+02  0.45594000000E+02  0.51100000000E-03 0.  1.
    9900012    2    1    2    0    0  0.10890016008E+01 -0.41213238851E+00 -0.19235610135E+00  0.90007839646E+02  0.90000102329E+02 0.  0.
        -12    1    1    2    0    0 -0.10890016008E+01  0.41213238851E+00  0.19235610135E+00  0.11801603543E+01  0.00000000000E+00 0.  1.
         11    1    3    3    0    0 -0.10469257842E+02 -0.24163703133E+01 -0.33157165536E+01  0.11244473389E+02  0.51100000000E-03 0. -1.
        -11    1    3    3    0    0 -0.28568125558E+02  0.13877034321E+02  0.15199243348E+02  0.35209755439E+02  0.51100000000E-03 0.  1.
         12    1    3    3    0    0  0.40126385002E+02 -0.11872796397E+02 -0.12075882896E+02  0.43553610818E+02  0.00000000000E+00 0. -1.
</event>
<event>
 7    1  0.1654239E-015  0.9000772E+02  0.7816164E-02  0.1186339E+00
        -11   -1    0    0    0    0  0.00000000000E+00  0.00000000000E+00  0.45593999997E+02  0.45594000000E+02  0.51100000000E-03 0.  1.
         11   -1    0    0    0    0 -0.00000000000E+00 -0.00000000000E+00 -0.45593999997E+02  0.45594000000E+02  0.51100000000E-03 0. -1.
    9900012    2    1    2    0    0 -0.11622175723E+01  0.82028160506E-01 -0.18860254927E+00  0.90007724936E+02  0.89999986105E+02 0.  0.
        -12    1    1    2    0    0  0.11622175723E+01 -0.82028160506E-01  0.18860254927E+00  0.11802750638E+01  0.00000000000E+00 0.  1.
         11    1    3    3    0    0  0.64816519966E+01 -0.42534188283E+02 -0.80721057307E+01  0.43775882363E+02  0.51100000000E-03 0. -1.
        -11    1    3    3    0    0 -0.66725654855E+01  0.79458386614E+01 -0.10124510870E+01  0.10425187752E+02  0.51100000000E-03 0.  1.
        -12    1    3    3    0    0 -0.97130408342E+00  0.34670377782E+02  0.88959542684E+01  0.35806654821E+02  0.00000000000E+00 0.  1.
</event>
<event>
 7    1  0.1654239E-015  0.9000780E+02  0.7816164E-02  0.1186339E+00
        -11   -1    0    0    0    0  0.00000000000E+00  0.00000000000E+00  0.45593999997E+02  0.45594000000E+02  0.51100000000E-03 0. -1.
         11   -1    0    0    0    0 -0.00000000000E+00 -0.00000000000E+00 -0.45593999997E+02  0.45594000000E+02  0.51100000000E-03 0.  1.
    9900012    2    1    2    0    0 -0.61955022440E+00 -0.90639883847E+00  0.43299073745E+00  0.90007795648E+02  0.90000057750E+02 0.  0.
        -12    1    1    2    0    0  0.61955022440E+00  0.90639883847E+00 -0.43299073745E+00  0.11802043525E+01  0.00000000000E+00 0.  1.
         11    1    3    3    0    0  0.19211434703E+02  0.45169915124E+01  0.72039549000E+01  0.21009031442E+02  0.51100000000E-03 0. -1.
        -11    1    3    3    0    0 -0.12000536238E+02 -0.35549421273E+02 -0.44949581497E+01  0.37788607699E+02  0.51100000000E-03 0.  1.
         12    1    3    3    0    0 -0.78304486894E+01  0.30126030922E+02 -0.22760060128E+01  0.31210156507E+02  0.00000000000E+00 0. -1.
</event>
<event>
 7    1  0.2633367E-015  0.9000778E+02  0.7816164E-02  0.1186339E+00
        -11   -1    0    0    0    0  0.00000000000E+00  0.00000000000E+00  0.45593999997E+02  0.45594000000E+02  0.51100000000E-03 0. -1.
         11   -1    0    0    0    0 -0.00000000000E+00 -0.00000000000E+00 -0.45593999997E+02  0.45594000000E+02  0.51100000000E-03 0.  1.
    9900012    2    1    2    0    0 -0.62628574699E+00  0.26566975670E+00  0.96442077295E+00  0.90007778968E+02  0.90000040851E+02 0.  0.
        -12    1    1    2    0    0  0.62628574699E+00 -0.26566975670E+00 -0.96442077295E+00  0.11802210318E+01  0.00000000000E+00 0.  1.
         11    1    3    3    0    0 -0.96463882791E+01  0.28281266748E+00  0.63661646792E+00  0.96715081877E+01  0.51100000000E-03 0. -1.
        -11    1    3    3    0    0 -0.95302059117E+01  0.12890547003E+02 -0.34943964669E+02  0.38445697988E+02  0.51100000000E-03 0.  1.
         12    1    3    3    0    0  0.18550308444E+02 -0.12907689913E+02  0.35271768974E+02  0.41890572792E+02  0.00000000000E+00 0. -1.
</event>
<event>
 7    1  0.1654239E-015  0.9000784E+02  0.7816164E-02  0.1186339E+00
        -11   -1    0    0    0    0  0.00000000000E+00  0.00000000000E+00  0.45593999997E+02  0.45594000000E+02  0.51100000000E-03 0. -1.
         11   -1    0    0    0    0 -0.00000000000E+00 -0.00000000000E+00 -0.45593999997E+02  0.45594000000E+02  0.51100000000E-03 0.  1.
    9900012    2    1    2    0    0 -0.35515760646E+00  0.64746065215E+00  0.92056110253E+00  0.90007841127E+02  0.90000103830E+02 0.  0.
        -12    1    1    2    0    0  0.35515760646E+00 -0.64746065215E+00 -0.92056110253E+00  0.11801588728E+01  0.00000000000E+00 0.  1.
         11    1    3    3    0    0  0.69376783820E+01  0.32049828541E+02  0.19443115395E+02  0.38122927843E+02  0.51100000000E-03 0. -1.
        -11    1    3    3    0    0 -0.82804616051E+01 -0.28263488093E+01  0.87477617434E+01  0.12372454395E+02  0.51100000000E-03 0.  1.
        -12    1    3    3    0    0  0.98762561671E+00 -0.28576019079E+02 -0.27270316036E+02  0.39512458889E+02  0.00000000000E+00 0.  1.
</event>
<event>
 7    1  0.1654239E-015  0.9000777E+02  0.7816164E-02  0.1186339E+00
        -11   -1    0    0    0    0  0.00000000000E+00  0.00000000000E+00  0.45593999997E+02  0.45594000000E+02  0.51100000000E-03 0. -1.
         11   -1    0    0    0    0 -0.00000000000E+00 -0.00000000000E+00 -0.45593999997E+02  0.45594000000E+02  0.51100000000E-03 0.  1.
    9900012    2    1    2    0    0 -0.43565507441E+00 -0.61426904207E+00  0.90874422147E+00  0.90007772115E+02  0.90000033907E+02 0.  0.
        -12    1    1    2    0    0  0.43565507441E+00  0.61426904207E+00 -0.90874422147E+00  0.11802278848E+01  0.00000000000E+00 0.  1.
         11    1    3    3    0    0 -0.75981030800E+01 -0.12450241684E+01  0.18923485779E+01  0.79285710563E+01  0.51100000000E-03 0. -1.
        -11    1    3    3    0    0 -0.19294967547E+02 -0.18723595287E+02 -0.28572782364E+02  0.39233565800E+02  0.51100000000E-03 0.  1.
         12    1    3    3    0    0  0.26457415552E+02  0.19354350413E+02  0.27589178008E+02  0.42845635259E+02  0.00000000000E+00 0. -1.
</event>
<event>
 7    1  0.1654239E-015  0.9000739E+02  0.7816164E-02  0.1186340E+00
        -11   -1    0    0    0    0  0.00000000000E+00  0.00000000000E+00  0.45593999997E+02  0.45594000000E+02  0.51100000000E-03 0. -1.
         11   -1    0    0    0    0 -0.00000000000E+00 -0.00000000000E+00 -0.45593999997E+02  0.45594000000E+02  0.51100000000E-03 0.  1.
    9900012    2    1    2    0    0  0.10359360449E+01  0.58836168801E-01  0.56321428083E+00  0.90007391890E+02  0.89999648662E+02 0.  0.
        -12    1    1    2    0    0 -0.10359360449E+01 -0.58836168801E-01 -0.56321428083E+00  0.11806081103E+01  0.00000000000E+00 0.  1.
         11    1    3    3    0    0 -0.64359802583E+01 -0.17130819255E+02 -0.58422634147E+00  0.18309236219E+02  0.51100000000E-03 0. -1.
        -11    1    3    3    0    0 -0.98815889538E+01 -0.24162641928E+02  0.53772022969E+01  0.26653205623E+02  0.51100000000E-03 0.  1.
         12    1    3    3    0    0  0.17353505257E+02  0.41352297352E+02 -0.42297616746E+01  0.45044950048E+02  0.00000000000E+00 0. -1.
</event>
<event>
 7    1  0.1654239E-015  0.9000777E+02  0.7816164E-02  0.1186339E+00
        -11   -1    0    0    0    0  0.00000000000E+00  0.00000000000E+00  0.45593999997E+02  0.45594000000E+02  0.51100000000E-03 0.  1.
         11   -1    0    0    0    0 -0.00000000000E+00 -0.00000000000E+00 -0.45593999997E+02  0.45594000000E+02  0.51100000000E-03 0. -1.
    9900012    2    1    2    0    0  0.20202186909E+00  0.54371585870E+00 -0.10278581283E+01  0.90007774554E+02  0.90000036378E+02 0.  0.
        -12    1    1    2    0    0 -0.20202186909E+00 -0.54371585870E+00  0.10278581283E+01  0.11802254456E+01  0.00000000000E+00 0.  1.
         11    1    3    3    0    0  0.23719806021E+02 -0.22678125476E+02 -0.55231820669E+01  0.33278102608E+02  0.51100000000E-03 0. -1.
        -11    1    3    3    0    0 -0.10560355384E+02 -0.13652611887E+02 -0.84964287618E+00  0.17281111378E+02  0.51100000000E-03 0.  1.
        -12    1    3    3    0    0 -0.12957428768E+02  0.36874453222E+02  0.53449668148E+01  0.39448560569E+02  0.00000000000E+00 0.  1.
</event>
<event>
 7    1  0.1654239E-015  0.9000763E+02  0.7816164E-02  0.1186339E+00
        -11   -1    0    0    0    0  0.00000000000E+00  0.00000000000E+00  0.45593999997E+02  0.45594000000E+02  0.51100000000E-03 0. -1.
         11   -1    0    0    0    0 -0.00000000000E+00 -0.00000000000E+00 -0.45593999997E+02  0.45594000000E+02  0.51100000000E-03 0.  1.
    9900012    2    1    2    0    0 -0.51951938062E+00  0.10196147444E+01  0.28941592799E+00  0.90007628790E+02  0.89999888690E+02 0.  0.
        -12    1    1    2    0    0  0.51951938062E+00 -0.10196147444E+01 -0.28941592799E+00  0.11803712099E+01  0.00000000000E+00 0.  1.
         11    1    3    3    0    0  0.20106309413E+02  0.28854729604E+02 -0.13897333461E+02  0.37815274379E+02  0.51100000000E-03 0. -1.
        -11    1    3    3    0    0 -0.29078672301E+00  0.51999688033E+01 -0.64198361160E+01  0.82667120726E+01  0.51100000000E-03 0.  1.
        -12    1    3    3    0    0 -0.20335042071E+02 -0.33035083663E+02  0.20606585505E+02  0.43925642338E+02  0.00000000000E+00 0.  1.
</event>
<event>
 7    1  0.1654239E-015  0.9000775E+02  0.7816164E-02  0.1186339E+00
        -11   -1    0    0    0    0  0.00000000000E+00  0.00000000000E+00  0.45593999997E+02  0.45594000000E+02  0.51100000000E-03 0. -1.
         11   -1    0    0    0    0 -0.00000000000E+00 -0.00000000000E+00 -0.45593999997E+02  0.45594000000E+02  0.51100000000E-03 0.  1.
    9900012    2    1    2    0    0 -0.19864027208E-01 -0.98233735028E-01  0.11759896613E+01  0.90007747430E+02  0.90000008896E+02 0.  0.
        -12    1    1    2    0    0  0.19864027208E-01  0.98233735028E-01 -0.11759896613E+01  0.11802525703E+01  0.00000000000E+00 0.  1.
         11    1    3    3    0    0  0.15264426188E+00  0.56820686050E+01  0.85054704240E+01  0.10229967317E+02  0.51100000000E-03 0. -1.
        -11    1    3    3    0    0 -0.32767548363E+02 -0.59264202421E+01 -0.25969944597E+02  0.42228813685E+02  0.51100000000E-03 0.  1.
         12    1    3    3    0    0  0.32595040074E+02  0.14611790208E+00  0.18640463834E+02  0.37548966428E+02  0.00000000000E+00 0. -1.
</event>
<event>
 7    1  0.1654239E-015  0.9000772E+02  0.7816164E-02  0.1186339E+00
        -11   -1    0    0    0    0  0.00000000000E+00  0.00000000000E+00  0.45593999997E+02  0.45594000000E+02  0.51100000000E-03 0.  1.
         11   -1    0    0    0    0 -0.00000000000E+00 -0.00000000000E+00 -0.45593999997E+02  0.45594000000E+02  0.51100000000E-03 0. -1.
    9900012    2    1    2    0    0  0.98365905061E+00  0.65224435271E+00 -0.79277608061E-02  0.90007715851E+02  0.89999976900E+02 0.  0.
        -12    1    1    2    0    0 -0.98365905061E+00 -0.65224435271E+00  0.79277608061E-02  0.11802841492E+01  0.00000000000E+00 0.  1.
         11    1    3    3    0    0 -0.32497291472E+01  0.77273522526E+01 -0.13494865477E+01  0.84908083578E+01  0.51100000000E-03 0. -1.
        -11    1    3    3    0    0 -0.17999478081E+02 -0.69797093252E+01  0.35704003559E+02  0.40589080106E+02  0.51100000000E-03 0.  1.
         12    1    3    3    0    0  0.22232866279E+02 -0.95398574729E-01 -0.34362444772E+02  0.40927827387E+02  0.00000000000E+00 0. -1.
</event>
<event>
 7    1  0.1654239E-015  0.9000768E+02  0.7816164E-02  0.1186339E+00
        -11   -1    0    0    0    0  0.00000000000E+00  0.00000000000E+00  0.45593999997E+02  0.45594000000E+02  0.51100000000E-03 0. -1.
         11   -1    0    0    0    0 -0.00000000000E+00 -0.00000000000E+00 -0.45593999997E+02  0.45594000000E+02  0.51100000000E-03 0.  1.
    9900012    2    1    2    0    0 -0.62013935667E+00 -0.66288133097E+00  0.75442664738E+00  0.90007684768E+02  0.89999945407E+02 0.  0.
        -12    1    1    2    0    0  0.62013935667E+00  0.66288133097E+00 -0.75442664738E+00  0.11803152320E+01  0.00000000000E+00 0.  1.
         11    1    3    3    0    0  0.12448139269E+02 -0.17540502712E+02  0.21541830054E+02  0.30441350972E+02  0.51100000000E-03 0. -1.
        -11    1    3    3    0    0  0.16065549519E+02  0.16763534701E+02  0.91581828801E+00  0.23236968400E+02  0.51100000000E-03 0.  1.
        -12    1    3    3    0    0 -0.29133828145E+02  0.11408668029E+00 -0.21703221695E+02  0.36329365396E+02  0.00000000000E+00 0.  1.
</event>
<event>
 7    1  0.1654239E-015  0.9000736E+02  0.7816164E-02  0.1186340E+00
        -11   -1    0    0    0    0  0.00000000000E+00  0.00000000000E+00  0.45593999997E+02  0.45594000000E+02  0.51100000000E-03 0. -1.
         11   -1    0    0    0    0 -0.00000000000E+00 -0.00000000000E+00 -0.45593999997E+02  0.45594000000E+02  0.51100000000E-03 0.  1.
    9900012    2    1    2    0    0 -0.53368898401E+00 -0.60505400344E+00  0.86197045278E+00  0.90007361469E+02  0.89999617840E+02 0.  0.
        -12    1    1    2    0    0  0.53368898401E+00  0.60505400344E+00 -0.86197045278E+00  0.11806385307E+01  0.00000000000E+00 0.  1.
         11    1    3    3    0    0  0.97806543291E+01  0.41090012018E+01 -0.44323452305E+01  0.11497424689E+02  0.51100000000E-03 0. -1.
        -11    1    3    3    0    0  0.25458379658E+02 -0.24595423214E+02 -0.63405253856E+01  0.35962010516E+02  0.51100000000E-03 0.  1.
         12    1    3    3    0    0 -0.35772722972E+02  0.19881368009E+02  0.11634841069E+02  0.42547926264E+02  0.00000000000E+00 0. -1.
</event>
<event>
 7    1  0.1654239E-015  0.9000729E+02  0.7816164E-02  0.1186340E+00
        -11   -1    0    0    0    0  0.00000000000E+00  0.00000000000E+00  0.45593999997E+02  0.45594000000E+02  0.51100000000E-03 0. -1.
         11   -1    0    0    0    0 -0.00000000000E+00 -0.00000000000E+00 -0.45593999997E+02  0.45594000000E+02  0.51100000000E-03 0.  1.
    9900012    2    1    2    0    0 -0.68285287602E+00 -0.83118642691E+00  0.48673028940E+00  0.90007294575E+02  0.89999550062E+02 0.  0.
        -12    1    1    2    0    0  0.68285287602E+00  0.83118642691E+00 -0.48673028940E+00  0.11807054252E+01  0.00000000000E+00 0.  1.
         11    1    3    3    0    0 -0.95095298892E+01 -0.34955430432E+02  0.55934676012E+01  0.36655151827E+02  0.51100000000E-03 0. -1.
        -11    1    3    3    0    0 -0.81333969817E+01 -0.54548541339E+01  0.10701296096E+01  0.98515358054E+01  0.51100000000E-03 0.  1.
        -12    1    3    3    0    0  0.16960073995E+02  0.39579098139E+02 -0.61768669213E+01  0.43500606942E+02  0.00000000000E+00 0.  1.
</event>
<event>
 7    1  0.1654239E-015  0.9000774E+02  0.7816164E-02  0.1186339E+00
        -11   -1    0    0    0    0  0.00000000000E+00  0.00000000000E+00  0.45593999997E+02  0.45594000000E+02  0.51100000000E-03 0. -1.
         11   -1    0    0    0    0 -0.00000000000E+00 -0.00000000000E+00 -0.45593999997E+02  0.45594000000E+02  0.51100000000E-03 0.  1.
    9900012    2    1    2    0    0 -0.95943612234E+00  0.55007460313E+00  0.41220685648E+00  0.90007739760E+02  0.90000001125E+02 0.  0.
        -12    1    1    2    0    0  0.95943612234E+00 -0.55007460313E+00 -0.41220685648E+00  0.11802602401E+01  0.00000000000E+00 0.  1.
         11    1    3    3    0    0 -0.10557187589E+01  0.36473921191E+01  0.83165173904E+01  0.91423450566E+01  0.51100000000E-03 0. -1.
        -11    1    3    3    0    0 -0.13582406314E+02 -0.28556428562E+02  0.22581845296E+02  0.38857317338E+02  0.51100000000E-03 0.  1.
         12    1    3    3    0    0  0.13678688950E+02  0.25459111046E+02 -0.30486155830E+02  0.42008077365E+02  0.00000000000E+00 0. -1.
</event>
<event>
 7    1  0.1654239E-015  0.9000760E+02  0.7816164E-02  0.1186339E+00
        -11   -1    0    0    0    0  0.00000000000E+00  0.00000000000E+00  0.45593999997E+02  0.45594000000E+02  0.51100000000E-03 0. -1.
         11   -1    0    0    0    0 -0.00000000000E+00 -0.00000000000E+00 -0.45593999997E+02  0.45594000000E+02  0.51100000000E-03 0.  1.
    9900012    2    1    2    0    0 -0.90915521111E+00  0.59508384233E+00 -0.46114483917E+00  0.90007600686E+02  0.89999860215E+02 0.  0.
        -12    1    1    2    0    0  0.90915521111E+00 -0.59508384233E+00  0.46114483917E+00  0.11803993138E+01  0.00000000000E+00 0.  1.
         11    1    3    3    0    0 -0.10146127404E+02  0.14165815858E+02  0.32208212503E+02  0.36619437367E+02  0.51100000000E-03 0. -1.
        -11    1    3    3    0    0  0.41880181063E+01  0.50120458881E+01  0.68266397969E+01  0.94479156866E+01  0.51100000000E-03 0.  1.
        -12    1    3    3    0    0  0.50489540868E+01 -0.18582777904E+02 -0.39495997139E+02  0.43940247632E+02  0.00000000000E+00 0.  1.
</event>
<event>
 7    1  0.1654239E-015  0.9000814E+02  0.7816164E-02  0.1186338E+00
        -11   -1    0    0    0    0  0.00000000000E+00  0.00000000000E+00  0.45593999997E+02  0.45594000000E+02  0.51100000000E-03 0.  1.
         11   -1    0    0    0    0 -0.00000000000E+00 -0.00000000000E+00 -0.45593999997E+02  0.45594000000E+02  0.51100000000E-03 0. -1.
    9900012    2    1    2    0    0  0.72831948832E+00  0.91367074619E+00 -0.16381509972E+00  0.90008136069E+02  0.90000402664E+02 0.  0.
        -12    1    1    2    0    0 -0.72831948832E+00 -0.91367074619E+00  0.16381509972E+00  0.11798639313E+01  0.00000000000E+00 0.  1.
         11    1    3    3    0    0  0.24542991707E+02 -0.82809531937E+01 -0.18627096457E+02  0.31904566294E+02  0.51100000000E-03 0. -1.
        -11    1    3    3    0    0  0.13383366074E+02 -0.54014554805E+01  0.91011099830E+01  0.17062251081E+02  0.51100000000E-03 0.  1.
        -12    1    3    3    0    0 -0.37198038293E+02  0.14596079420E+02  0.93621713740E+01  0.41041318694E+02  0.00000000000E+00 0.  1.
</event>
<event>
 7    1  0.1654239E-015  0.9000776E+02  0.7816164E-02  0.1186339E+00
        -11   -1    0    0    0    0  0.00000000000E+00  0.00000000000E+00  0.45593999997E+02  0.45594000000E+02  0.51100000000E-03 0. -1.
         11   -1    0    0    0    0 -0.00000000000E+00 -0.00000000000E+00 -0.45593999997E+02  0.45594000000E+02  0.51100000000E-03 0.  1.
    9900012    2    1    2    0    0 -0.86725202360E+00 -0.78800973866E+00 -0.14101774100E+00  0.90007757896E+02  0.90000019500E+02 0.  0.
        -12    1    1    2    0    0  0.86725202360E+00  0.78800973866E+00  0.14101774100E+00  0.11802421040E+01  0.00000000000E+00 0.  1.
         11    1    3    3    0    0 -0.33451655717E+01 -0.86681112524E+01 -0.13184846839E+01  0.93842787420E+01  0.51100000000E-03 0. -1.
        -11    1    3    3    0    0  0.12152455669E+02  0.86956640197E+01 -0.37699234847E+02  0.40552793490E+02  0.51100000000E-03 0.  1.
         12    1    3    3    0    0 -0.96745421210E+01 -0.81556250600E+00  0.38876701790E+02  0.40070685664E+02  0.00000000000E+00 0. -1.
</event>
<event>
 7    1  0.1654239E-015  0.9000775E+02  0.7816164E-02  0.1186339E+00
        -11   -1    0    0    0    0  0.00000000000E+00  0.00000000000E+00  0.45593999997E+02  0.45594000000E+02  0.51100000000E-03 0.  1.
         11   -1    0    0    0    0 -0.00000000000E+00 -0.00000000000E+00 -0.45593999997E+02  0.45594000000E+02  0.51100000000E-03 0. -1.
    9900012    2    1    2    0    0 -0.53286026775E+00 -0.21237424737E+00 -0.10314782722E+01  0.90007749894E+02  0.90000011393E+02 0.  0.
        -12    1    1    2    0    0  0.53286026775E+00  0.21237424737E+00  0.10314782722E+01  0.11802501057E+01  0.00000000000E+00 0.  1.
         11    1    3    3    0    0  0.11524966422E+02 -0.10252859922E+02  0.11186517838E+02  0.19054767624E+02  0.51100000000E-03 0. -1.
        -11    1    3    3    0    0  0.25923400703E+02 -0.89134497905E+01 -0.37439614914E+01  0.27667481619E+02  0.51100000000E-03 0.  1.
         12    1    3    3    0    0 -0.37981227394E+02  0.18953935465E+02 -0.84740346186E+01  0.43285500652E+02  0.00000000000E+00 0. -1.
</event>
<event>
 7    1  0.1654239E-015  0.9000772E+02  0.7816164E-02  0.1186339E+00
        -11   -1    0    0    0    0  0.00000000000E+00  0.00000000000E+00  0.45593999997E+02  0.45594000000E+02  0.51100000000E-03 0.  1.
         11   -1    0    0    0    0 -0.00000000000E+00 -0.00000000000E+00 -0.45593999997E+02  0.45594000000E+02  0.51100000000E-03 0. -1.
    9900012    2    1    2    0    0 -0.11092902571E+00  0.90576223058E+00  0.74857225723E+00  0.90007715758E+02  0.89999976806E+02 0.  0.
        -12    1    1    2    0    0  0.11092902571E+00 -0.90576223058E+00 -0.74857225723E+00  0.11802842418E+01  0.00000000000E+00 0.  1.
         11    1    3    3    0    0 -0.12074965052E+02 -0.16509735643E+02 -0.72234614335E+01  0.21692269299E+02  0.51100000000E-03 0. -1.
        -11    1    3    3    0    0 -0.12188310535E+02  0.23824131035E+02 -0.18018131240E+02  0.32261388484E+02  0.51100000000E-03 0.  1.
        -12    1    3    3    0    0  0.24152346561E+02 -0.64086331611E+01  0.25990164931E+02  0.36054057976E+02  0.00000000000E+00 0.  1.
</event>
<event>
 7    1  0.1671859E-015  0.9000773E+02  0.7816164E-02  0.1186339E+00
        -11   -1    0    0    0    0  0.00000000000E+00  0.00000000000E+00  0.45593999997E+02  0.45594000000E+02  0.51100000000E-03 0. -1.
         11   -1    0    0    0    0 -0.00000000000E+00 -0.00000000000E+00 -0.45593999997E+02  0.45594000000E+02  0.51100000000E-03 0.  1.
    9900012    2    1    2    0    0 -0.61056273591E+00 -0.17485540573E+00  0.99481889181E+00  0.90007734820E+02  0.89999996120E+02 0.  0.
        -12    1    1    2    0    0  0.61056273591E+00  0.17485540573E+00 -0.99481889181E+00  0.11802651799E+01  0.00000000000E+00 0.  1.
         11    1    3    3    0    0 -0.30087657265E+01 -0.34544701969E+01  0.83145786175E+01  0.94930634352E+01  0.51100000000E-03 0. -1.
        -11    1    3    3    0    0  0.11902309264E+02  0.40238391202E+02 -0.23010845161E+01  0.42024850774E+02  0.51100000000E-03 0.  1.
         12    1    3    3    0    0 -0.95041062735E+01 -0.36958776411E+02 -0.50186752095E+01  0.38489820611E+02  0.00000000000E+00 0. -1.
</event>
<event>
 7    1  0.1654239E-015  0.9000772E+02  0.7816164E-02  0.1186339E+00
        -11   -1    0    0    0    0  0.00000000000E+00  0.00000000000E+00  0.45593999997E+02  0.45594000000E+02  0.51100000000E-03 0. -1.
         11   -1    0    0    0    0 -0.00000000000E+00 -0.00000000000E+00 -0.45593999997E+02  0.45594000000E+02  0.51100000000E-03 0.  1.
    9900012    2    1    2    0    0  0.56450286516E+00  0.10365337417E+01  0.45710083520E-03  0.90007717876E+02  0.89999978952E+02 0.  0.
        -12    1    1    2    0    0 -0.56450286516E+00 -0.10365337417E+01 -0.45710083520E-03  0.11802821236E+01  0.00000000000E+00 0.  1.
         11    1    3    3    0    0 -0.77357017987E+01  0.37521439379E+02 -0.22283896391E+01  0.38375320403E+02  0.51100000000E-03 0. -1.
        -11    1    3    3    0    0 -0.10313246117E+01  0.46462719063E+01 -0.69936067259E+01  0.84594331004E+01  0.51100000000E-03 0.  1.
        -12    1    3    3    0    0  0.93315292756E+01 -0.41131177544E+02  0.92224534658E+01  0.43172964373E+02  0.00000000000E+00 0.  1.
</event>
<event>
 7    1  0.1810671E-015  0.9000778E+02  0.7816164E-02  0.1186339E+00
        -11   -1    0    0    0    0  0.00000000000E+00  0.00000000000E+00  0.45593999997E+02  0.45594000000E+02  0.51100000000E-03 0.  1.
         11   -1    0    0    0    0 -0.00000000000E+00 -0.00000000000E+00 -0.45593999997E+02  0.45594000000E+02  0.51100000000E-03 0. -1.
    9900012    2    1    2    0    0  0.35912058073E+00  0.61166225484E-01 -0.11225865714E+01  0.90007784126E+02  0.90000046077E+02 0.  0.
        -12    1    1    2    0    0 -0.35912058073E+00 -0.61166225484E-01  0.11225865714E+01  0.11802158739E+01  0.00000000000E+00 0.  1.
         11    1    3    3    0    0  0.99978721454E+00  0.94634252941E+01  0.14220767547E+01  0.96217615502E+01  0.51100000000E-03 0. -1.
        -11    1    3    3    0    0  0.16563997791E+02  0.82136102582E+00  0.34501077981E+02  0.38280086714E+02  0.51100000000E-03 0.  1.
         12    1    3    3    0    0 -0.17204664425E+02 -0.10223620094E+02 -0.37045741307E+02  0.42105935862E+02  0.00000000000E+00 0. -1.
</event>
<event>
 7    1  0.1654239E-015  0.9000785E+02  0.7816164E-02  0.1186339E+00
        -11   -1    0    0    0    0  0.00000000000E+00  0.00000000000E+00  0.45593999997E+02  0.45594000000E+02  0.51100000000E-03 0.  1.
         11   -1    0    0    0    0 -0.00000000000E+00 -0.00000000000E+00 -0.45593999997E+02  0.45594000000E+02  0.51100000000E-03 0. -1.
    9900012    2    1    2    0    0  0.74101419245E+00  0.91239401396E+00  0.10576790953E+00  0.90007850975E+02  0.90000113808E+02 0.  0.
        -12    1    1    2    0    0 -0.74101419245E+00 -0.91239401396E+00 -0.10576790953E+00  0.11801490248E+01  0.00000000000E+00 0.  1.
         11    1    3    3    0    0 -0.31585603957E+02 -0.32525581081E+01 -0.60906632045E+01  0.32331496874E+02  0.51100000000E-03 0. -1.
        -11    1    3    3    0    0 -0.95256938763E+01 -0.93788438055E+00 -0.87249892362E+01  0.12951598680E+02  0.51100000000E-03 0.  1.
        -12    1    3    3    0    0  0.41852312025E+02  0.51028365026E+01  0.14921420350E+02  0.44724755422E+02  0.00000000000E+00 0.  1.
</event>
<event>
 7    1  0.1654239E-015  0.9000775E+02  0.7816164E-02  0.1186339E+00
        -11   -1    0    0    0    0  0.00000000000E+00  0.00000000000E+00  0.45593999997E+02  0.45594000000E+02  0.51100000000E-03 0.  1.
         11   -1    0    0    0    0 -0.00000000000E+00 -0.00000000000E+00 -0.45593999997E+02  0.45594000000E+02  0.51100000000E-03 0. -1.
    9900012    2    1    2    0    0  0.63917685644E+00 -0.16435339866E+00 -0.97848104606E+00  0.90007752462E+02  0.90000013994E+02 0.  0.
        -12    1    1    2    0    0 -0.63917685644E+00  0.16435339866E+00  0.97848104606E+00  0.11802475380E+01  0.00000000000E+00 0.  1.
         11    1    3    3    0    0 -0.28502032762E+01 -0.10948630083E+02 -0.15149858226E+01  0.11414523281E+02  0.51100000000E-03 0. -1.
        -11    1    3    3    0    0  0.29035898953E+02 -0.22344393721E+02 -0.19030901026E+01  0.36687560712E+02  0.51100000000E-03 0.  1.
         12    1    3    3    0    0 -0.25546518821E+02  0.33128670406E+02  0.24395948791E+01  0.41905668470E+02  0.00000000000E+00 0. -1.
</event>
<event>
 7    1  0.2069466E-015  0.9000777E+02  0.7816164E-02  0.1186339E+00
        -11   -1    0    0    0    0  0.00000000000E+00  0.00000000000E+00  0.45593999997E+02  0.45594000000E+02  0.51100000000E-03 0.  1.
         11   -1    0    0    0    0 -0.00000000000E+00 -0.00000000000E+00 -0.45593999997E+02  0.45594000000E+02  0.51100000000E-03 0. -1.
    9900012    2    1    2    0    0  0.63527214340E+00  0.37706528302E+00 -0.92043371691E+00  0.90007768179E+02  0.90000029919E+02 0.  0.
        -12    1    1    2    0    0 -0.63527214340E+00 -0.37706528302E+00  0.92043371691E+00  0.11802318209E+01  0.00000000000E+00 0.  1.
         11    1    3    3    0    0 -0.35840882311E+01 -0.86745342205E+01 -0.32859862210E+01  0.99443922940E+01  0.51100000000E-03 0. -1.
        -11    1    3    3    0    0 -0.11737625411E+02 -0.23671158709E+02  0.25669290594E+02  0.36837590648E+02  0.51100000000E-03 0.  1.
         12    1    3    3    0    0  0.15956985785E+02  0.32722758213E+02 -0.23303738089E+02  0.43225785237E+02  0.00000000000E+00 0. -1.
</event>
<event>
 7    1  0.1654239E-015  0.9000773E+02  0.7816164E-02  0.1186339E+00
        -11   -1    0    0    0    0  0.00000000000E+00  0.00000000000E+00  0.45593999997E+02  0.45594000000E+02  0.51100000000E-03 0.  1.
         11   -1    0    0    0    0 -0.00000000000E+00 -0.00000000000E+00 -0.45593999997E+02  0.45594000000E+02  0.51100000000E-03 0. -1.
    9900012    2    1    2    0    0  0.15937884243E+00  0.11440148060E+01  0.24262456835E+00  0.90007729619E+02  0.89999990850E+02 0.  0.
        -12    1    1    2    0    0 -0.15937884243E+00 -0.11440148060E+01 -0.24262456835E+00  0.11802703813E+01  0.00000000000E+00 0.  1.
         11    1    3    3    0    0  0.10255806532E+02 -0.53241725341E+00 -0.97260344359E+01  0.14144284424E+02  0.51100000000E-03 0. -1.
        -11    1    3    3    0    0 -0.28217992100E+02  0.23737867572E+02 -0.13126878224E+02  0.39141491632E+02  0.51100000000E-03 0.  1.
         12    1    3    3    0    0  0.18121564411E+02 -0.22061435513E+02  0.23095537228E+02  0.36721953562E+02  0.00000000000E+00 0. -1.
</event>
<event>
 7    1  0.1654239E-015  0.9000763E+02  0.7816164E-02  0.1186339E+00
        -11   -1    0    0    0    0  0.00000000000E+00  0.00000000000E+00  0.45593999997E+02  0.45594000000E+02  0.51100000000E-03 0. -1.
         11   -1    0    0    0    0 -0.00000000000E+00 -0.00000000000E+00 -0.45593999997E+02  0.45594000000E+02  0.51100000000E-03 0.  1.
    9900012    2    1    2    0    0 -0.64232489739E+00  0.15026846366E-01  0.99018150715E+00  0.90007632897E+02  0.89999892852E+02 0.  0.
        -12    1    1    2    0    0  0.64232489739E+00 -0.15026846366E-01 -0.99018150715E+00  0.11803671026E+01  0.00000000000E+00 0.  1.
         11    1    3    3    0    0  0.22226955265E+02  0.21956377231E+02  0.21381779633E+02  0.37858955903E+02  0.51100000000E-03 0. -1.
        -11    1    3    3    0    0  0.45984865609E+01 -0.10228819071E+01  0.67500482766E+01  0.82313740071E+01  0.51100000000E-03 0.  1.
        -12    1    3    3    0    0 -0.27467766724E+02 -0.20918468478E+02 -0.27141646403E+02  0.43917302988E+02  0.00000000000E+00 0.  1.
</event>
<event>
 7    1  0.1654239E-015  0.9000772E+02  0.7816164E-02  0.1186339E+00
        -11   -1    0    0    0    0  0.00000000000E+00  0.00000000000E+00  0.45593999997E+02  0.45594000000E+02  0.51100000000E-03 0.  1.
         11   -1    0    0    0    0 -0.00000000000E+00 -0.00000000000E+00 -0.45593999997E+02  0.45594000000E+02  0.51100000000E-03 0. -1.
    9900012    2    1    2    0    0 -0.31253653329E+00 -0.85799477542E+00 -0.74780845875E+00  0.90007723926E+02  0.89999985082E+02 0.  0.
        -12    1    1    2    0    0  0.31253653329E+00  0.85799477542E+00  0.74780845875E+00  0.11802760737E+01  0.00000000000E+00 0.  1.
         11    1    3    3    0    0 -0.98185342124E+01 -0.42986080440E+02  0.14871165924E+01  0.44118230265E+02  0.51100000000E-03 0. -1.
        -11    1    3    3    0    0 -0.37759453299E+00  0.84629765941E+01 -0.63163058340E+01  0.10566942326E+02  0.51100000000E-03 0.  1.
        -12    1    3    3    0    0  0.98835922121E+01  0.33665109071E+02  0.40813807828E+01  0.35322551336E+02  0.00000000000E+00 0.  1.
</event>
<event>
 7    1  0.1654239E-015  0.9000777E+02  0.7816164E-02  0.1186339E+00
        -11   -1    0    0    0    0  0.00000000000E+00  0.00000000000E+00  0.45593999997E+02  0.45594000000E+02  0.51100000000E-03 0.  1.
         11   -1    0    0    0    0 -0.00000000000E+00 -0.00000000000E+00 -0.45593999997E+02  0.45594000000E+02  0.51100000000E-03 0. -1.
    9900012    2    1    2    0    0 -0.12673913453E+00  0.11523548899E+01 -0.22126513866E+00  0.90007769996E+02  0.90000031760E+02 0.  0.
        -12    1    1    2    0    0  0.12673913453E+00 -0.11523548899E+01  0.22126513866E+00  0.11802300039E+01  0.00000000000E+00 0.  1.
         11    1    3    3    0    0 -0.14326100292E+02  0.26527176784E+02 -0.28543936203E+02  0.41517280160E+02  0.51100000000E-03 0. -1.
        -11    1    3    3    0    0  0.10579065966E+02 -0.64480068044E+01 -0.20131605668E+01  0.12551742675E+02  0.51100000000E-03 0.  1.
        -12    1    3    3    0    0  0.36202951915E+01 -0.18926815090E+02  0.30335831631E+02  0.35938747161E+02  0.00000000000E+00 0.  1.
</event>
<event>
 7    1  0.1654239E-015  0.9000767E+02  0.7816164E-02  0.1186339E+00
        -11   -1    0    0    0    0  0.00000000000E+00  0.00000000000E+00  0.45593999997E+02  0.45594000000E+02  0.51100000000E-03 0.  1.
         11   -1    0    0    0    0 -0.00000000000E+00 -0.00000000000E+00 -0.45593999997E+02  0.45594000000E+02  0.51100000000E-03 0. -1.
    9900012    2    1    2    0    0  0.77813297752E+00  0.88717288410E+00  0.24720387244E-01  0.90007670489E+02  0.89999930939E+02 0.  0.
        -12    1    1    2    0    0 -0.77813297752E+00 -0.88717288410E+00 -0.24720387244E-01  0.11803295110E+01  0.00000000000E+00 0.  1.
         11    1    3    3    0    0 -0.38874037110E+02  0.75131879961E+01  0.82955911069E+01  0.40453128274E+02  0.51100000000E-03 0. -1.
        -11    1    3    3    0    0  0.37713658968E+01  0.72706151865E+01 -0.74438057390E+01  0.11067759035E+02  0.51100000000E-03 0.  1.
        -12    1    3    3    0    0  0.35880804191E+02 -0.13896630298E+02 -0.82706498070E+00  0.38486783180E+02  0.00000000000E+00 0.  1.
</event>
<event>
 7    1  0.1654239E-015  0.9000777E+02  0.7816164E-02  0.1186339E+00
        -11   -1    0    0    0    0  0.00000000000E+00  0.00000000000E+00  0.45593999997E+02  0.45594000000E+02  0.51100000000E-03 0.  1.
         11   -1    0    0    0    0 -0.00000000000E+00 -0.00000000000E+00 -0.45593999997E+02  0.45594000000E+02  0.51100000000E-03 0. -1.
    9900012    2    1    2    0    0  0.34271167045E+00  0.36478003222E+00 -0.10688471087E+01  0.90007767013E+02  0.90000028738E+02 0.  0.
        -12    1    1    2    0    0 -0.34271167045E+00 -0.36478003222E+00  0.10688471087E+01  0.11802329866E+01  0.00000000000E+00 0.  1.
         11    1    3    3    0    0 -0.84867273114E+01  0.58923550965E+01  0.24723497573E+01  0.10623412946E+02  0.51100000000E-03 0. -1.
        -11    1    3    3    0    0 -0.11362711095E+02 -0.38015144083E+02 -0.91652085189E+01  0.40721780788E+02  0.51100000000E-03 0.  1.
         12    1    3    3    0    0  0.20192150077E+02  0.32487569019E+02  0.56240116529E+01  0.38662573279E+02  0.00000000000E+00 0. -1.
</event>
<event>
 7    1  0.1654239E-015  0.9000772E+02  0.7816164E-02  0.1186339E+00
        -11   -1    0    0    0    0  0.00000000000E+00  0.00000000000E+00  0.45593999997E+02  0.45594000000E+02  0.51100000000E-03 0. -1.
         11   -1    0    0    0    0 -0.00000000000E+00 -0.00000000000E+00 -0.45593999997E+02  0.45594000000E+02  0.51100000000E-03 0.  1.
    9900012    2    1    2    0    0  0.71422215765E+00 -0.43443925992E+00  0.83319437390E+00  0.90007718836E+02  0.89999979925E+02 0.  0.
        -12    1    1    2    0    0 -0.71422215765E+00  0.43443925992E+00 -0.83319437390E+00  0.11802811639E+01  0.00000000000E+00 0.  1.
         11    1    3    3    0    0  0.30422040054E+00 -0.13766189670E+02  0.14160905625E+02  0.19751753757E+02  0.51100000000E-03 0. -1.
        -11    1    3    3    0    0  0.26090291467E+02  0.14817412230E+01 -0.28078810079E+02  0.38357768987E+02  0.51100000000E-03 0.  1.
        -12    1    3    3    0    0 -0.25680289710E+02  0.11850009187E+02  0.14751098828E+02  0.31898196093E+02  0.00000000000E+00 0.  1.
</event>
<event>
 7    1  0.1654239E-015  0.9000898E+02  0.7816164E-02  0.1186337E+00
        -11   -1    0    0    0    0  0.00000000000E+00  0.00000000000E+00  0.45593999997E+02  0.45594000000E+02  0.51100000000E-03 0. -1.
         11   -1    0    0    0    0 -0.00000000000E+00 -0.00000000000E+00 -0.45593999997E+02  0.45594000000E+02  0.51100000000E-03 0.  1.
    9900012    2    1    2    0    0  0.22050994762E+00  0.58660076725E+00  0.99868431166E+00  0.90008976908E+02  0.90001254594E+02 0.  0.
        -12    1    1    2    0    0 -0.22050994762E+00 -0.58660076725E+00 -0.99868431166E+00  0.11790230920E+01  0.00000000000E+00 0.  1.
         11    1    3    3    0    0  0.12903826460E+02  0.33198341699E+02  0.78755319081E+01  0.36478248752E+02  0.51100000000E-03 0. -1.
        -11    1    3    3    0    0 -0.60364124620E+01  0.88741650262E+01  0.10166158804E+01  0.10780658070E+02  0.51100000000E-03 0.  1.
        -12    1    3    3    0    0 -0.66469040508E+01 -0.41485905958E+02 -0.78934634768E+01  0.42750070085E+02  0.00000000000E+00 0.  1.
</event>
<event>
 7    1  0.1664588E-015  0.9000772E+02  0.7816164E-02  0.1186339E+00
        -11   -1    0    0    0    0  0.00000000000E+00  0.00000000000E+00  0.45593999997E+02  0.45594000000E+02  0.51100000000E-03 0. -1.
         11   -1    0    0    0    0 -0.00000000000E+00 -0.00000000000E+00 -0.45593999997E+02  0.45594000000E+02  0.51100000000E-03 0.  1.
    9900012    2    1    2    0    0 -0.73964119452E+00  0.81378761821E+00  0.42865549743E+00  0.90007718288E+02  0.89999979369E+02 0.  0.
        -12    1    1    2    0    0  0.73964119452E+00 -0.81378761821E+00 -0.42865549743E+00  0.11802817120E+01  0.00000000000E+00 0.  1.
         11    1    3    3    0    0  0.15642634139E+02  0.33004070122E+02 -0.41284591893E+01  0.36756017507E+02  0.51100000000E-03 0. -1.
        -11    1    3    3    0    0  0.78376142708E+00  0.82461951734E+01  0.42751208392E+01  0.93215167899E+01  0.51100000000E-03 0.  1.
        -12    1    3    3    0    0 -0.17166036760E+02 -0.40436477677E+02  0.28199384754E+00  0.43930183991E+02  0.00000000000E+00 0.  1.
</event>
<event>
 7    1  0.1654239E-015  0.9000771E+02  0.7816164E-02  0.1186339E+00
        -11   -1    0    0    0    0  0.00000000000E+00  0.00000000000E+00  0.45593999997E+02  0.45594000000E+02  0.51100000000E-03 0.  1.
         11   -1    0    0    0    0 -0.00000000000E+00 -0.00000000000E+00 -0.45593999997E+02  0.45594000000E+02  0.51100000000E-03 0. -1.
    9900012    2    1    2    0    0 -0.85085686901E+00  0.81312157213E+00 -0.89165516587E-01  0.90007714191E+02  0.89999975218E+02 0.  0.
        -12    1    1    2    0    0  0.85085686901E+00 -0.81312157213E+00  0.89165516587E-01  0.11802858094E+01  0.00000000000E+00 0.  1.
         11    1    3    3    0    0 -0.12555297899E+02 -0.20001417092E+02  0.18737060706E+01  0.23689722787E+02  0.51100000000E-03 0. -1.
        -11    1    3    3    0    0 -0.94082491113E+01 -0.17528245690E+02 -0.92592896345E+01  0.21942857451E+02  0.51100000000E-03 0.  1.
        -12    1    3    3    0    0  0.21112690141E+02  0.38342784354E+02  0.72964180473E+01  0.44375133953E+02  0.00000000000E+00 0.  1.
</event>
<event>
 7    1  0.1654239E-015  0.9000770E+02  0.7816164E-02  0.1186339E+00
        -11   -1    0    0    0    0  0.00000000000E+00  0.00000000000E+00  0.45593999997E+02  0.45594000000E+02  0.51100000000E-03 0.  1.
         11   -1    0    0    0    0 -0.00000000000E+00 -0.00000000000E+00 -0.45593999997E+02  0.45594000000E+02  0.51100000000E-03 0. -1.
    9900012    2    1    2    0    0 -0.37877141271E-01 -0.14746546399E+00 -0.11704388949E+01  0.90007700060E+02  0.89999960901E+02 0.  0.
        -12    1    1    2    0    0  0.37877141271E-01  0.14746546399E+00  0.11704388949E+01  0.11802999397E+01  0.00000000000E+00 0.  1.
         11    1    3    3    0    0  0.79099568681E+01  0.82027847885E+01 -0.39497105012E+02  0.41108081937E+02  0.51100000000E-03 0. -1.
        -11    1    3    3    0    0 -0.63554144989E+01  0.59444507258E+01  0.83316199483E+00  0.87419647136E+01  0.51100000000E-03 0.  1.
        -12    1    3    3    0    0 -0.15924195105E+01 -0.14294700978E+02  0.37493504123E+02  0.40157653409E+02  0.00000000000E+00 0.  1.
</event>
<event>
 7    1  0.1654239E-015  0.9000766E+02  0.7816164E-02  0.1186339E+00
        -11   -1    0    0    0    0  0.00000000000E+00  0.00000000000E+00  0.45593999997E+02  0.45594000000E+02  0.51100000000E-03 0.  1.
         11   -1    0    0    0    0 -0.00000000000E+00 -0.00000000000E+00 -0.45593999997E+02  0.45594000000E+02  0.51100000000E-03 0. -1.
    9900012    2    1    2    0    0 -0.31120249019E+00  0.24153999657E+00 -0.11126621700E+01  0.90007658666E+02  0.89999918961E+02 0.  0.
        -12    1    1    2    0    0  0.31120249019E+00 -0.24153999657E+00  0.11126621700E+01  0.11803413338E+01  0.00000000000E+00 0.  1.
         11    1    3    3    0    0  0.10412808137E+02 -0.17639835464E+02  0.77025899820E+01  0.21884246873E+02  0.51100000000E-03 0. -1.
        -11    1    3    3    0    0 -0.27029433053E+02  0.22484144644E+02  0.15552181103E+02  0.38444731094E+02  0.51100000000E-03 0.  1.
         12    1    3    3    0    0  0.16305422426E+02 -0.46027691843E+01 -0.24367433255E+02  0.29678680700E+02  0.00000000000E+00 0. -1.
</event>
<event>
 7    1  0.1654239E-015  0.9000765E+02  0.7816164E-02  0.1186339E+00
        -11   -1    0    0    0    0  0.00000000000E+00  0.00000000000E+00  0.45593999997E+02  0.45594000000E+02  0.51100000000E-03 0.  1.
         11   -1    0    0    0    0 -0.00000000000E+00 -0.00000000000E+00 -0.45593999997E+02  0.45594000000E+02  0.51100000000E-03 0. -1.
    9900012    2    1    2    0    0 -0.69587434868E+00  0.76666258057E+00 -0.56674690859E+00  0.90007654847E+02  0.89999915091E+02 0.  0.
        -12    1    1    2    0    0  0.69587434868E+00 -0.76666258057E+00  0.56674690859E+00  0.11803451529E+01  0.00000000000E+00 0.  1.
         11    1    3    3    0    0 -0.76441565536E+01  0.11221153047E+01  0.22834178152E+01  0.80564427232E+01  0.51100000000E-03 0. -1.
        -11    1    3    3    0    0  0.32625102639E+02 -0.25276296997E+02 -0.15373161921E+02  0.44041146895E+02  0.51100000000E-03 0.  1.
         12    1    3    3    0    0 -0.25676820434E+02  0.24920844273E+02  0.12522997197E+02  0.37910065229E+02  0.00000000000E+00 0. -1.
</event>
<event>
 7    1  0.1654239E-015  0.9000752E+02  0.7816164E-02  0.1186339E+00
        -11   -1    0    0    0    0  0.00000000000E+00  0.00000000000E+00  0.45593999997E+02  0.45594000000E+02  0.51100000000E-03 0. -1.
         11   -1    0    0    0    0 -0.00000000000E+00 -0.00000000000E+00 -0.45593999997E+02  0.45594000000E+02  0.51100000000E-03 0.  1.
    9900012    2    1    2    0    0  0.81309508455E+00  0.77795301236E+00  0.35663871423E+00  0.90007523114E+02  0.89999781619E+02 0.  0.
        -12    1    1    2    0    0 -0.81309508455E+00 -0.77795301236E+00 -0.35663871423E+00  0.11804768860E+01  0.00000000000E+00 0.  1.
         11    1    3    3    0    0  0.10769330525E+02 -0.34478813231E+02  0.24326813839E+01  0.36203383553E+02  0.51100000000E-03 0. -1.
        -11    1    3    3    0    0  0.11663137453E+02 -0.82176364984E+00  0.14318307633E-01  0.11692060384E+02  0.51100000000E-03 0.  1.
        -12    1    3    3    0    0 -0.21619372894E+02  0.36078529893E+02 -0.20903609773E+01  0.42112079176E+02  0.00000000000E+00 0.  1.
</event>
<event>
 7    1  0.1654239E-015  0.9000799E+02  0.7816164E-02  0.1186339E+00
        -11   -1    0    0    0    0  0.00000000000E+00  0.00000000000E+00  0.45593999997E+02  0.45594000000E+02  0.51100000000E-03 0. -1.
         11   -1    0    0    0    0 -0.00000000000E+00 -0.00000000000E+00 -0.45593999997E+02  0.45594000000E+02  0.51100000000E-03 0.  1.
    9900012    2    1    2    0    0  0.23513356726E+00 -0.87324721886E+00  0.75801416866E+00  0.90007985602E+02  0.90000250212E+02 0.  0.
        -12    1    1    2    0    0 -0.23513356726E+00  0.87324721886E+00 -0.75801416866E+00  0.11800143980E+01  0.00000000000E+00 0.  1.
         11    1    3    3    0    0 -0.28475724555E+02  0.12709158326E+02  0.10341331493E+02  0.32853199716E+02  0.51100000000E-03 0. -1.
        -11    1    3    3    0    0 -0.24308847270E+00  0.12914952184E+02  0.68309608648E+01  0.14612224626E+02  0.51100000000E-03 0.  1.
        -12    1    3    3    0    0  0.28953946595E+02 -0.26497357729E+02 -0.16414278190E+02  0.42542561260E+02  0.00000000000E+00 0.  1.
</event>
<event>
 7    1  0.1654239E-015  0.9000779E+02  0.7816164E-02  0.1186339E+00
        -11   -1    0    0    0    0  0.00000000000E+00  0.00000000000E+00  0.45593999997E+02  0.45594000000E+02  0.51100000000E-03 0. -1.
         11   -1    0    0    0    0 -0.00000000000E+00 -0.00000000000E+00 -0.45593999997E+02  0.45594000000E+02  0.51100000000E-03 0.  1.
    9900012    2    1    2    0    0 -0.48480632018E+00 -0.82433433678E+00  0.69161643355E+00  0.90007789189E+02  0.90000051206E+02 0.  0.
        -12    1    1    2    0    0  0.48480632018E+00  0.82433433678E+00 -0.69161643355E+00  0.11802108109E+01  0.00000000000E+00 0.  1.
         11    1    3    3    0    0 -0.30607572269E+01 -0.63768270140E+01  0.41542043999E+02  0.42139928541E+02  0.51100000000E-03 0. -1.
        -11    1    3    3    0    0 -0.76642546086E+01  0.15894159647E+01 -0.28778845380E+01  0.83396199847E+01  0.51100000000E-03 0.  1.
        -12    1    3    3    0    0  0.10240205515E+02  0.39630767125E+01 -0.37972543027E+02  0.39528240664E+02  0.00000000000E+00 0.  1.
</event>
<event>
 7    1  0.1654239E-015  0.9000770E+02  0.7816164E-02  0.1186339E+00
        -11   -1    0    0    0    0  0.00000000000E+00  0.00000000000E+00  0.45593999997E+02  0.45594000000E+02  0.51100000000E-03 0.  1.
         11   -1    0    0    0    0 -0.00000000000E+00 -0.00000000000E+00 -0.45593999997E+02  0.45594000000E+02  0.51100000000E-03 0. -1.
    9900012    2    1    2    0    0  0.69113533024E+00 -0.46812120286E+00 -0.83445015358E+00  0.90007698105E+02  0.89999958920E+02 0.  0.
        -12    1    1    2    0    0 -0.69113533024E+00  0.46812120286E+00  0.83445015358E+00  0.11803018953E+01  0.00000000000E+00 0.  1.
         11    1    3    3    0    0 -0.29443942033E+01 -0.54084069476E+01 -0.39737149380E+02  0.40211458119E+02  0.51100000000E-03 0. -1.
        -11    1    3    3    0    0  0.10598237268E+02 -0.14272163061E+01  0.10042717566E+01  0.10740956271E+02  0.51100000000E-03 0.  1.
        -12    1    3    3    0    0 -0.69627077349E+01  0.63675020508E+01  0.37898427470E+02  0.39055283715E+02  0.00000000000E+00 0.  1.
</event>
<event>
 7    1  0.1654239E-015  0.9000774E+02  0.7816164E-02  0.1186339E+00
        -11   -1    0    0    0    0  0.00000000000E+00  0.00000000000E+00  0.45593999997E+02  0.45594000000E+02  0.51100000000E-03 0.  1.
         11   -1    0    0    0    0 -0.00000000000E+00 -0.00000000000E+00 -0.45593999997E+02  0.45594000000E+02  0.51100000000E-03 0. -1.
    9900012    2    1    2    0    0  0.16264120676E-02  0.11306503821E+01 -0.33857516264E+00  0.90007743218E+02  0.90000004628E+02 0.  0.
        -12    1    1    2    0    0 -0.16264120676E-02 -0.11306503821E+01  0.33857516264E+00  0.11802567824E+01  0.00000000000E+00 0.  1.
         11    1    3    3    0    0 -0.14692089272E+00 -0.13690808943E+02 -0.35025569575E+02  0.37606520174E+02  0.51100000000E-03 0. -1.
        -11    1    3    3    0    0 -0.27164805672E+01  0.10152996505E+02 -0.54865344720E+01  0.11855997026E+02  0.51100000000E-03 0.  1.
        -12    1    3    3    0    0  0.28650278720E+01  0.46684628197E+01  0.40173528884E+02  0.40545226018E+02  0.00000000000E+00 0.  1.
</event>
<event>
 7    1  0.1654239E-015  0.9000777E+02  0.7816164E-02  0.1186339E+00
        -11   -1    0    0    0    0  0.00000000000E+00  0.00000000000E+00  0.45593999997E+02  0.45594000000E+02  0.51100000000E-03 0. -1.
         11   -1    0    0    0    0 -0.00000000000E+00 -0.00000000000E+00 -0.45593999997E+02  0.45594000000E+02  0.51100000000E-03 0.  1.
    9900012    2    1    2    0    0 -0.95105721183E-01  0.95523890558E+00  0.68660303418E+00  0.90007766891E+02  0.90000028614E+02 0.  0.
        -12    1    1    2    0    0  0.95105721183E-01 -0.95523890558E+00 -0.68660303418E+00  0.11802331090E+01  0.00000000000E+00 0.  1.
         11    1    3    3    0    0  0.23257872464E+02 -0.27452729559E+02  0.19503601000E+02  0.40926414991E+02  0.51100000000E-03 0. -1.
        -11    1    3    3    0    0  0.10864735166E+01  0.35612298244E+01  0.54592397506E+01  0.66080315890E+01  0.51100000000E-03 0.  1.
        -12    1    3    3    0    0 -0.24439451702E+02  0.24846738641E+02 -0.24276237717E+02  0.42473320311E+02  0.00000000000E+00 0.  1.
</event>
<event>
 7    1  0.1654239E-015  0.9000779E+02  0.7816164E-02  0.1186339E+00
        -11   -1    0    0    0    0  0.00000000000E+00  0.00000000000E+00  0.45593999997E+02  0.45594000000E+02  0.51100000000E-03 0.  1.
         11   -1    0    0    0    0 -0.00000000000E+00 -0.00000000000E+00 -0.45593999997E+02  0.45594000000E+02  0.51100000000E-03 0. -1.
    9900012    2    1    2    0    0  0.11028614092E+00 -0.11343848670E+01  0.30645546172E+00  0.90007785185E+02  0.90000047150E+02 0.  0.
        -12    1    1    2    0    0 -0.11028614092E+00  0.11343848670E+01 -0.30645546172E+00  0.11802148149E+01  0.00000000000E+00 0.  1.
         11    1    3    3    0    0  0.34481572653E+01 -0.45653830298E+01  0.53885766724E+01  0.78593428192E+01  0.51100000000E-03 0. -1.
        -11    1    3    3    0    0  0.34205958445E+01  0.87356032109E+01  0.37526941627E+02  0.38681812103E+02  0.51100000000E-03 0.  1.
         12    1    3    3    0    0 -0.67584669689E+01 -0.53046050481E+01 -0.42609062838E+02  0.43466630263E+02  0.00000000000E+00 0. -1.
</event>
<event>
 7    1  0.1654239E-015  0.9000774E+02  0.7816164E-02  0.1186339E+00
        -11   -1    0    0    0    0  0.00000000000E+00  0.00000000000E+00  0.45593999997E+02  0.45594000000E+02  0.51100000000E-03 0.  1.
         11   -1    0    0    0    0 -0.00000000000E+00 -0.00000000000E+00 -0.45593999997E+02  0.45594000000E+02  0.51100000000E-03 0. -1.
    9900012    2    1    2    0    0 -0.30135562974E+00  0.88542223301E+00 -0.71987924094E+00  0.90007739915E+02  0.90000001282E+02 0.  0.
        -12    1    1    2    0    0  0.30135562974E+00 -0.88542223301E+00  0.71987924094E+00  0.11802600848E+01  0.00000000000E+00 0.  1.
         11    1    3    3    0    0  0.25372849794E+02 -0.23836465005E-02  0.25155829138E+02  0.35729501147E+02  0.51100000000E-03 0. -1.
        -11    1    3    3    0    0  0.75191835250E+01  0.58909258614E+01  0.29864238997E+01  0.10007989626E+02  0.51100000000E-03 0.  1.
        -12    1    3    3    0    0 -0.33193388948E+02 -0.50031199818E+01 -0.28862132279E+02  0.44270249142E+02  0.00000000000E+00 0.  1.
</event>
<event>
 7    1  0.1654239E-015  0.9000774E+02  0.7816164E-02  0.1186339E+00
        -11   -1    0    0    0    0  0.00000000000E+00  0.00000000000E+00  0.45593999997E+02  0.45594000000E+02  0.51100000000E-03 0.  1.
         11   -1    0    0    0    0 -0.00000000000E+00 -0.00000000000E+00 -0.45593999997E+02  0.45594000000E+02  0.51100000000E-03 0. -1.
    9900012    2    1    2    0    0 -0.18662780894E+00  0.11235400875E+01  0.30959944828E+00  0.90007735587E+02  0.89999996896E+02 0.  0.
        -12    1    1    2    0    0  0.18662780894E+00 -0.11235400875E+01 -0.30959944828E+00  0.11802644134E+01  0.00000000000E+00 0.  1.
         11    1    3    3    0    0  0.10815108948E+02  0.28027229699E+02  0.27584066768E+02  0.40784469175E+02  0.51100000000E-03 0. -1.
        -11    1    3    3    0    0 -0.42157777987E+01  0.59997135301E+01 -0.39985643344E+01  0.83521172100E+01  0.51100000000E-03 0.  1.
        -12    1    3    3    0    0 -0.67859589586E+01 -0.32903403142E+02 -0.23275902985E+02  0.40871149202E+02  0.00000000000E+00 0.  1.
</event>
<event>
 7    1  0.1654239E-015  0.9000783E+02  0.7816164E-02  0.1186339E+00
        -11   -1    0    0    0    0  0.00000000000E+00  0.00000000000E+00  0.45593999997E+02  0.45594000000E+02  0.51100000000E-03 0. -1.
         11   -1    0    0    0    0 -0.00000000000E+00 -0.00000000000E+00 -0.45593999997E+02  0.45594000000E+02  0.51100000000E-03 0.  1.
    9900012    2    1    2    0    0 -0.94400588372E+00  0.42130045907E+00  0.56934933545E+00  0.90007830584E+02  0.90000093147E+02 0.  0.
        -12    1    1    2    0    0  0.94400588372E+00 -0.42130045907E+00 -0.56934933545E+00  0.11801694163E+01  0.00000000000E+00 0.  1.
         11    1    3    3    0    0  0.31983208533E+01  0.17244205474E+02  0.36062956767E+02  0.40101480393E+02  0.51100000000E-03 0. -1.
        -11    1    3    3    0    0 -0.59273120532E+01  0.77968139174E+01 -0.61664444833E+01  0.11573606753E+02  0.51100000000E-03 0.  1.
        -12    1    3    3    0    0  0.17849853162E+01 -0.24619718932E+02 -0.29327162948E+02  0.38332743438E+02  0.00000000000E+00 0.  1.
</event>
<event>
 7    1  0.1654239E-015  0.9000775E+02  0.7816164E-02  0.1186339E+00
        -11   -1    0    0    0    0  0.00000000000E+00  0.00000000000E+00  0.45593999997E+02  0.45594000000E+02  0.51100000000E-03 0. -1.
         11   -1    0    0    0    0 -0.00000000000E+00 -0.00000000000E+00 -0.45593999997E+02  0.45594000000E+02  0.51100000000E-03 0.  1.
    9900012    2    1    2    0    0 -0.68015471986E+00 -0.70685657885E+00  0.65629841787E+00  0.90007752450E+02  0.90000013982E+02 0.  0.
        -12    1    1    2    0    0  0.68015471986E+00  0.70685657885E+00 -0.65629841787E+00  0.11802475500E+01  0.00000000000E+00 0.  1.
         11    1    3    3    0    0  0.33328711170E+02  0.81219791045E+01  0.37939217785E+01  0.34513234788E+02  0.51100000000E-03 0. -1.
        -11    1    3    3    0    0  0.75511169537E+01  0.50180870696E+01  0.58311901913E+01  0.10779765507E+02  0.51100000000E-03 0.  1.
        -12    1    3    3    0    0 -0.41559982844E+02 -0.13846922753E+02 -0.89688135520E+01  0.44714752154E+02  0.00000000000E+00 0.  1.
</event>
<event>
 7    1  0.1654239E-015  0.9000774E+02  0.7816164E-02  0.1186339E+00
        -11   -1    0    0    0    0  0.00000000000E+00  0.00000000000E+00  0.45593999997E+02  0.45594000000E+02  0.51100000000E-03 0. -1.
         11   -1    0    0    0    0 -0.00000000000E+00 -0.00000000000E+00 -0.45593999997E+02  0.45594000000E+02  0.51100000000E-03 0.  1.
    9900012    2    1    2    0    0 -0.72353642216E+00  0.15007702710E+00  0.92032229734E+00  0.90007736809E+02  0.89999998135E+02 0.  0.
        -12    1    1    2    0    0  0.72353642216E+00 -0.15007702710E+00 -0.92032229734E+00  0.11802631907E+01  0.00000000000E+00 0.  1.
         11    1    3    3    0    0 -0.60089363565E+01 -0.61783514379E+01 -0.55504549079E+00  0.86364007772E+01  0.51100000000E-03 0. -1.
        -11    1    3    3    0    0 -0.57564424966E+01  0.13532915695E+02 -0.37471140938E+02  0.40253730770E+02  0.51100000000E-03 0.  1.
         12    1    3    3    0    0  0.11041842431E+02 -0.72044872297E+01  0.38946508726E+02  0.41117605262E+02  0.00000000000E+00 0. -1.
</event>
<event>
 7    1  0.1654239E-015  0.9000769E+02  0.7816164E-02  0.1186339E+00
        -11   -1    0    0    0    0  0.00000000000E+00  0.00000000000E+00  0.45593999997E+02  0.45594000000E+02  0.51100000000E-03 0.  1.
         11   -1    0    0    0    0 -0.00000000000E+00 -0.00000000000E+00 -0.45593999997E+02  0.45594000000E+02  0.51100000000E-03 0. -1.
    9900012    2    1    2    0    0 -0.93321879918E+00  0.60753482246E+00  0.39132122521E+00  0.90007691486E+02  0.89999952213E+02 0.  0.
        -12    1    1    2    0    0  0.93321879918E+00 -0.60753482246E+00 -0.39132122521E+00  0.11803085143E+01  0.00000000000E+00 0.  1.
         11    1    3    3    0    0 -0.19753795442E+02 -0.10468316260E+02 -0.30069963671E+02  0.37469998600E+02  0.51100000000E-03 0. -1.
        -11    1    3    3    0    0 -0.49893688622E+01  0.57304712044E+01 -0.52855722856E+01  0.92557753060E+01  0.51100000000E-03 0.  1.
        -12    1    3    3    0    0  0.23809945505E+02  0.53453798779E+01  0.35746857182E+02  0.43281917579E+02  0.00000000000E+00 0.  1.
</event>
<event>
 7    1  0.1654239E-015  0.9000776E+02  0.7816164E-02  0.1186339E+00
        -11   -1    0    0    0    0  0.00000000000E+00  0.00000000000E+00  0.45593999997E+02  0.45594000000E+02  0.51100000000E-03 0.  1.
         11   -1    0    0    0    0 -0.00000000000E+00 -0.00000000000E+00 -0.45593999997E+02  0.45594000000E+02  0.51100000000E-03 0. -1.
    9900012    2    1    2    0    0 -0.62247680598E+00 -0.92558762160E-02 -0.10027022923E+01  0.90007756410E+02  0.90000017994E+02 0.  0.
        -12    1    1    2    0    0  0.62247680598E+00  0.92558762160E-02  0.10027022923E+01  0.11802435902E+01  0.00000000000E+00 0.  1.
         11    1    3    3    0    0  0.79244416029E+01 -0.16461052595E+01 -0.32829682217E+00  0.81002602617E+01  0.51100000000E-03 0. -1.
        -11    1    3    3    0    0  0.33123881591E+02  0.14530672890E+02 -0.95131961100E+01  0.37400974410E+02  0.51100000000E-03 0.  1.
         12    1    3    3    0    0 -0.41670800000E+02 -0.12893823507E+02  0.88387906399E+01  0.44506521738E+02  0.00000000000E+00 0. -1.
</event>
<event>
 7    1  0.1654239E-015  0.9000776E+02  0.7816164E-02  0.1186339E+00
        -11   -1    0    0    0    0  0.00000000000E+00  0.00000000000E+00  0.45593999997E+02  0.45594000000E+02  0.51100000000E-03 0.  1.
         11   -1    0    0    0    0 -0.00000000000E+00 -0.00000000000E+00 -0.45593999997E+02  0.45594000000E+02  0.51100000000E-03 0. -1.
    9900012    2    1    2    0    0  0.73791802106E-02  0.49475371908E+00 -0.10715040219E+01  0.90007764191E+02  0.90000025879E+02 0.  0.
        -12    1    1    2    0    0 -0.73791802106E-02 -0.49475371908E+00  0.10715040219E+01  0.11802358086E+01  0.00000000000E+00 0.  1.
         11    1    3    3    0    0  0.88319128527E+01 -0.45384675752E+00 -0.83673306040E+00  0.88830616339E+01  0.51100000000E-03 0. -1.
        -11    1    3    3    0    0 -0.20942269782E+02 -0.34735256096E+02 -0.10824980039E+02  0.41979719780E+02  0.51100000000E-03 0.  1.
         12    1    3    3    0    0  0.12117736110E+02  0.35683856573E+02  0.10590209078E+02  0.39144982777E+02  0.00000000000E+00 0. -1.
</event>
<event>
 7    1  0.1654239E-015  0.9000773E+02  0.7816164E-02  0.1186339E+00
        -11   -1    0    0    0    0  0.00000000000E+00  0.00000000000E+00  0.45593999997E+02  0.45594000000E+02  0.51100000000E-03 0. -1.
         11   -1    0    0    0    0 -0.00000000000E+00 -0.00000000000E+00 -0.45593999997E+02  0.45594000000E+02  0.51100000000E-03 0.  1.
    9900012    2    1    2    0    0 -0.67979511907E+00 -0.82896908636E+00  0.49368492785E+00  0.90007730557E+02  0.89999991800E+02 0.  0.
        -12    1    1    2    0    0  0.67979511907E+00  0.82896908636E+00 -0.49368492785E+00  0.11802694430E+01  0.00000000000E+00 0.  1.
         11    1    3    3    0    0  0.12426299142E+02 -0.82114819966E+00  0.39061246886E+02  0.40998392692E+02  0.51100000000E-03 0. -1.
        -11    1    3    3    0    0  0.37738105196E+01  0.76262395115E+01 -0.32135874104E+01  0.90955109384E+01  0.51100000000E-03 0.  1.
        -12    1    3    3    0    0 -0.16879904781E+02 -0.76340603981E+01 -0.35353974548E+02  0.39913826927E+02  0.00000000000E+00 0.  1.
</event>
<event>
 7    1  0.1654239E-015  0.9000784E+02  0.7816164E-02  0.1186339E+00
        -11   -1    0    0    0    0  0.00000000000E+00  0.00000000000E+00  0.45593999997E+02  0.45594000000E+02  0.51100000000E-03 0. -1.
         11   -1    0    0    0    0 -0.00000000000E+00 -0.00000000000E+00 -0.45593999997E+02  0.45594000000E+02  0.51100000000E-03 0.  1.
    9900012    2    1    2    0    0 -0.83842685195E-01 -0.10336488290E+01 -0.56331636455E+00  0.90007836950E+02  0.90000099598E+02 0.  0.
        -12    1    1    2    0    0  0.83842685195E-01  0.10336488290E+01  0.56331636455E+00  0.11801630498E+01  0.00000000000E+00 0.  1.
         11    1    3    3    0    0 -0.23181101515E+01 -0.90679263223E+01  0.23727158541E+01  0.96556047583E+01  0.51100000000E-03 0. -1.
        -11    1    3    3    0    0 -0.31460642000E+02 -0.18560771358E+02 -0.71463667654E+01  0.37220220132E+02  0.51100000000E-03 0.  1.
         12    1    3    3    0    0  0.33694909467E+02  0.26595048851E+02  0.42103345467E+01  0.43132012060E+02  0.00000000000E+00 0. -1.
</event>
<event>
 7    1  0.1654239E-015  0.9000769E+02  0.7816164E-02  0.1186339E+00
        -11   -1    0    0    0    0  0.00000000000E+00  0.00000000000E+00  0.45593999997E+02  0.45594000000E+02  0.51100000000E-03 0.  1.
         11   -1    0    0    0    0 -0.00000000000E+00 -0.00000000000E+00 -0.45593999997E+02  0.45594000000E+02  0.51100000000E-03 0. -1.
    9900012    2    1    2    0    0  0.47959058089E+00  0.54686790818E+00 -0.92954889371E+00  0.90007689541E+02  0.89999950243E+02 0.  0.
        -12    1    1    2    0    0 -0.47959058089E+00 -0.54686790818E+00  0.92954889371E+00  0.11803104592E+01  0.00000000000E+00 0.  1.
         11    1    3    3    0    0 -0.65963814523E+01  0.42835804875E+01  0.13171595866E+01  0.79747238006E+01  0.51100000000E-03 0. -1.
        -11    1    3    3    0    0 -0.25641911227E+01  0.25859663218E+02  0.28300064144E+02  0.38421229662E+02  0.51100000000E-03 0.  1.
         12    1    3    3    0    0  0.96401631559E+01 -0.29596375797E+02 -0.30546772625E+02  0.43611736079E+02  0.00000000000E+00 0. -1.
</event>
<event>
 7    1  0.1654239E-015  0.9000783E+02  0.7816164E-02  0.1186339E+00
        -11   -1    0    0    0    0  0.00000000000E+00  0.00000000000E+00  0.45593999997E+02  0.45594000000E+02  0.51100000000E-03 0. -1.
         11   -1    0    0    0    0 -0.00000000000E+00 -0.00000000000E+00 -0.45593999997E+02  0.45594000000E+02  0.51100000000E-03 0.  1.
    9900012    2    1    2    0    0 -0.77946550694E+00  0.39406268980E-01  0.88526009450E+00  0.90007828502E+02  0.90000091038E+02 0.  0.
        -12    1    1    2    0    0  0.77946550694E+00 -0.39406268980E-01 -0.88526009450E+00  0.11801714983E+01  0.00000000000E+00 0.  1.
         11    1    3    3    0    0  0.80061660529E+01 -0.37925170215E+01 -0.11107219061E+01  0.89283583955E+01  0.51100000000E-03 0. -1.
        -11    1    3    3    0    0 -0.17387577570E+01 -0.29603824936E+02 -0.23995801943E+02  0.38147191778E+02  0.51100000000E-03 0.  1.
         12    1    3    3    0    0 -0.70468738029E+01  0.33435748227E+02  0.25991783944E+02  0.42932278328E+02  0.00000000000E+00 0. -1.
</event>
<event>
 7    1  0.1654239E-015  0.9000789E+02  0.7816164E-02  0.1186339E+00
        -11   -1    0    0    0    0  0.00000000000E+00  0.00000000000E+00  0.45593999997E+02  0.45594000000E+02  0.51100000000E-03 0.  1.
         11   -1    0    0    0    0 -0.00000000000E+00 -0.00000000000E+00 -0.45593999997E+02  0.45594000000E+02  0.51100000000E-03 0. -1.
    9900012    2    1    2    0    0  0.67452574063E+00  0.50738663927E-01  0.96700617858E+00  0.90007889693E+02  0.90000153037E+02 0.  0.
        -12    1    1    2    0    0 -0.67452574063E+00 -0.50738663927E-01 -0.96700617858E+00  0.11801103068E+01  0.00000000000E+00 0.  1.
         11    1    3    3    0    0  0.24990961496E+01 -0.16321295520E+01  0.92102382784E+01  0.96818292613E+01  0.51100000000E-03 0. -1.
        -11    1    3    3    0    0 -0.40177074254E+02  0.71772814570E+01 -0.50208284815E+00  0.40816206980E+02  0.51100000000E-03 0.  1.
         12    1    3    3    0    0  0.38352503845E+02 -0.54944132411E+01 -0.77411492517E+01  0.39509853452E+02  0.00000000000E+00 0. -1.
</event>
<event>
 7    1  0.1654239E-015  0.9000779E+02  0.7816164E-02  0.1186339E+00
        -11   -1    0    0    0    0  0.00000000000E+00  0.00000000000E+00  0.45593999997E+02  0.45594000000E+02  0.51100000000E-03 0.  1.
         11   -1    0    0    0    0 -0.00000000000E+00 -0.00000000000E+00 -0.45593999997E+02  0.45594000000E+02  0.51100000000E-03 0. -1.
    9900012    2    1    2    0    0 -0.87940160238E+00 -0.42043899433E+00  0.66541326041E+00  0.90007791996E+02  0.90000054050E+02 0.  0.
        -12    1    1    2    0    0  0.87940160238E+00  0.42043899433E+00 -0.66541326041E+00  0.11802080043E+01  0.00000000000E+00 0.  1.
         11    1    3    3    0    0  0.59964780237E+01  0.62141235205E+01  0.66932903964E+01  0.10925805069E+02  0.51100000000E-03 0. -1.
        -11    1    3    3    0    0 -0.26770055556E+02  0.73685441246E+01  0.26554052126E+02  0.38419383149E+02  0.51100000000E-03 0.  1.
         12    1    3    3    0    0  0.19894175930E+02 -0.14003106639E+02 -0.32581929262E+02  0.40662603777E+02  0.00000000000E+00 0. -1.
</event>
<event>
 7    1  0.1654239E-015  0.9000783E+02  0.7816164E-02  0.1186339E+00
        -11   -1    0    0    0    0  0.00000000000E+00  0.00000000000E+00  0.45593999997E+02  0.45594000000E+02  0.51100000000E-03 0.  1.
         11   -1    0    0    0    0 -0.00000000000E+00 -0.00000000000E+00 -0.45593999997E+02  0.45594000000E+02  0.51100000000E-03 0. -1.
    9900012    2    1    2    0    0 -0.80127041143E+00  0.40764097326E+00  0.76459534210E+00  0.90007825660E+02  0.90000088159E+02 0.  0.
        -12    1    1    2    0    0  0.80127041143E+00 -0.40764097326E+00 -0.76459534210E+00  0.11801743399E+01  0.00000000000E+00 0.  1.
         11    1    3    3    0    0  0.21926021732E+02 -0.10083929915E+02 -0.27955950120E+02  0.36931980977E+02  0.51100000000E-03 0. -1.
        -11    1    3    3    0    0  0.87570074030E+01  0.21150518150E+01 -0.88747809450E+00  0.90524162777E+01  0.51100000000E-03 0.  1.
        -12    1    3    3    0    0 -0.31484299546E+02  0.83765190731E+01  0.29608023556E+02  0.44023428406E+02  0.00000000000E+00 0.  1.
</event>
<event>
 7    1  0.1654239E-015  0.9000771E+02  0.7816164E-02  0.1186339E+00
        -11   -1    0    0    0    0  0.00000000000E+00  0.00000000000E+00  0.45593999997E+02  0.45594000000E+02  0.51100000000E-03 0.  1.
         11   -1    0    0    0    0 -0.00000000000E+00 -0.00000000000E+00 -0.45593999997E+02  0.45594000000E+02  0.51100000000E-03 0. -1.
    9900012    2    1    2    0    0  0.56982618593E+00  0.10327166216E+01  0.43455832051E-01  0.90007706006E+02  0.89999966925E+02 0.  0.
        -12    1    1    2    0    0 -0.56982618593E+00 -0.10327166216E+01 -0.43455832051E-01  0.11802939939E+01  0.00000000000E+00 0.  1.
         11    1    3    3    0    0 -0.46710504408E+01 -0.16224305028E+01  0.61400944722E+01  0.78836383318E+01  0.51100000000E-03 0. -1.
        -11    1    3    3    0    0 -0.20290674319E+01  0.23257051592E+02  0.31159490966E+02  0.38934835827E+02  0.51100000000E-03 0.  1.
         12    1    3    3    0    0  0.72699440587E+01 -0.20601904467E+02 -0.37256129606E+02  0.43189231847E+02  0.00000000000E+00 0. -1.
</event>
<event>
 7    1  0.1654239E-015  0.9000744E+02  0.7816164E-02  0.1186340E+00
        -11   -1    0    0    0    0  0.00000000000E+00  0.00000000000E+00  0.45593999997E+02  0.45594000000E+02  0.51100000000E-03 0. -1.
         11   -1    0    0    0    0 -0.00000000000E+00 -0.00000000000E+00 -0.45593999997E+02  0.45594000000E+02  0.51100000000E-03 0.  1.
    9900012    2    1    2    0    0 -0.93273541864E+00 -0.56803023184E+00 -0.44840447213E+00  0.90007440694E+02  0.89999698110E+02 0.  0.
        -12    1    1    2    0    0  0.93273541864E+00  0.56803023184E+00  0.44840447213E+00  0.11805593065E+01  0.00000000000E+00 0.  1.
         11    1    3    3    0    0  0.36427250197E+01 -0.17220166783E+02  0.33130272745E+02  0.37515577591E+02  0.51100000000E-03 0. -1.
        -11    1    3    3    0    0  0.81673662398E+01 -0.82128961819E+00  0.40024955619E+01  0.91323796962E+01  0.51100000000E-03 0.  1.
        -12    1    3    3    0    0 -0.12742826678E+02  0.17473426169E+02 -0.37581172779E+02  0.43359483406E+02  0.00000000000E+00 0.  1.
</event>
<event>
 7    1  0.1654239E-015  0.9000776E+02  0.7816164E-02  0.1186339E+00
        -11   -1    0    0    0    0  0.00000000000E+00  0.00000000000E+00  0.45593999997E+02  0.45594000000E+02  0.51100000000E-03 0.  1.
         11   -1    0    0    0    0 -0.00000000000E+00 -0.00000000000E+00 -0.45593999997E+02  0.45594000000E+02  0.51100000000E-03 0. -1.
    9900012    2    1    2    0    0 -0.95871249688E+00  0.63880525656E+00 -0.25645524120E+00  0.90007758034E+02  0.90000019640E+02 0.  0.
        -12    1    1    2    0    0  0.95871249688E+00 -0.63880525656E+00  0.25645524120E+00  0.11802419660E+01  0.00000000000E+00 0.  1.
         11    1    3    3    0    0  0.47848406109E+01 -0.11413571050E+02  0.10000502061E+02  0.15911453282E+02  0.51100000000E-03 0. -1.
        -11    1    3    3    0    0 -0.11101582607E+02  0.61295160594E+01  0.30254668652E+02  0.32804894131E+02  0.51100000000E-03 0.  1.
         12    1    3    3    0    0  0.53580294987E+01  0.59228602475E+01 -0.40511625954E+02  0.41291410621E+02  0.00000000000E+00 0. -1.
</event>
<event>
 7    1  0.1654239E-015  0.9000784E+02  0.7816164E-02  0.1186339E+00
        -11   -1    0    0    0    0  0.00000000000E+00  0.00000000000E+00  0.45593999997E+02  0.45594000000E+02  0.51100000000E-03 0. -1.
         11   -1    0    0    0    0 -0.00000000000E+00 -0.00000000000E+00 -0.45593999997E+02  0.45594000000E+02  0.51100000000E-03 0.  1.
    9900012    2    1    2    0    0  0.94287315421E+00 -0.51789700876E+00  0.48534212842E+00  0.90007837266E+02  0.90000099918E+02 0.  0.
        -12    1    1    2    0    0 -0.94287315421E+00  0.51789700876E+00 -0.48534212842E+00  0.11801627338E+01  0.00000000000E+00 0.  1.
         11    1    3    3    0    0 -0.14016377704E+02 -0.34696122418E+01  0.51442351131E+01  0.15328411796E+02  0.51100000000E-03 0. -1.
        -11    1    3    3    0    0 -0.17151706703E+02  0.12994887032E+01  0.25391748343E+02  0.30669375570E+02  0.51100000000E-03 0.  1.
        -12    1    3    3    0    0  0.32110957560E+02  0.16522265298E+01 -0.30050641328E+02  0.44010049900E+02  0.00000000000E+00 0.  1.
</event>
<event>
 7    1  0.1654239E-015  0.9000776E+02  0.7816164E-02  0.1186339E+00
        -11   -1    0    0    0    0  0.00000000000E+00  0.00000000000E+00  0.45593999997E+02  0.45594000000E+02  0.51100000000E-03 0. -1.
         11   -1    0    0    0    0 -0.00000000000E+00 -0.00000000000E+00 -0.45593999997E+02  0.45594000000E+02  0.51100000000E-03 0.  1.
    9900012    2    1    2    0    0 -0.96905298228E+00  0.62186064332E+00  0.25921577043E+00  0.90007759703E+02  0.90000021331E+02 0.  0.
        -12    1    1    2    0    0  0.96905298228E+00 -0.62186064332E+00 -0.25921577043E+00  0.11802402966E+01  0.00000000000E+00 0.  1.
         11    1    3    3    0    0 -0.11281348961E+02  0.16952119574E+00 -0.12233232583E+02  0.16641801331E+02  0.51100000000E-03 0. -1.
        -11    1    3    3    0    0 -0.13492849220E+02 -0.14788947170E+02 -0.21352818403E+02  0.29269656515E+02  0.51100000000E-03 0.  1.
         12    1    3    3    0    0  0.23805145199E+02  0.15241286618E+02  0.33845266757E+02  0.44096301858E+02  0.00000000000E+00 0. -1.
</event>
<event>
 7    1  0.1654239E-015  0.9000786E+02  0.7816164E-02  0.1186339E+00
        -11   -1    0    0    0    0  0.00000000000E+00  0.00000000000E+00  0.45593999997E+02  0.45594000000E+02  0.51100000000E-03 0. -1.
         11   -1    0    0    0    0 -0.00000000000E+00 -0.00000000000E+00 -0.45593999997E+02  0.45594000000E+02  0.51100000000E-03 0.  1.
    9900012    2    1    2    0    0  0.66098456095E+00  0.85776030714E+00  0.46913093644E+00  0.90007857140E+02  0.90000120054E+02 0.  0.
        -12    1    1    2    0    0 -0.66098456095E+00 -0.85776030714E+00 -0.46913093644E+00  0.11801428599E+01  0.00000000000E+00 0.  1.
         11    1    3    3    0    0 -0.25688136354E+01 -0.23903335178E+01 -0.74100027763E+01  0.81988193800E+01  0.51100000000E-03 0. -1.
        -11    1    3    3    0    0 -0.11913631642E+02  0.33430097075E+02 -0.17497616031E+02  0.39568580672E+02  0.51100000000E-03 0.  1.
         12    1    3    3    0    0  0.15143429839E+02 -0.30182003250E+02  0.25376749744E+02  0.42240457088E+02  0.00000000000E+00 0. -1.
</event>
<event>
 7    1  0.1654239E-015  0.9000775E+02  0.7816164E-02  0.1186339E+00
        -11   -1    0    0    0    0  0.00000000000E+00  0.00000000000E+00  0.45593999997E+02  0.45594000000E+02  0.51100000000E-03 0.  1.
         11   -1    0    0    0    0 -0.00000000000E+00 -0.00000000000E+00 -0.45593999997E+02  0.45594000000E+02  0.51100000000E-03 0. -1.
    9900012    2    1    2    0    0 -0.60713408561E+00 -0.61200985947E+00  0.80610934795E+00  0.90007754201E+02  0.90000015756E+02 0.  0.
        -12    1    1    2    0    0  0.60713408561E+00  0.61200985947E+00 -0.80610934795E+00  0.11802457993E+01  0.00000000000E+00 0.  1.
         11    1    3    3    0    0 -0.68735758084E+01 -0.47248335023E+01  0.80202229322E+00  0.83793398330E+01  0.51100000000E-03 0. -1.
        -11    1    3    3    0    0  0.28157467501E+02 -0.10090733183E+02  0.29661864755E+02  0.42124720690E+02  0.51100000000E-03 0.  1.
         12    1    3    3    0    0 -0.21891025778E+02  0.14203556826E+02 -0.29657777700E+02  0.39503693678E+02  0.00000000000E+00 0. -1.
</event>
<event>
 7    1  0.1654239E-015  0.9000773E+02  0.7816164E-02  0.1186339E+00
        -11   -1    0    0    0    0  0.00000000000E+00  0.00000000000E+00  0.45593999997E+02  0.45594000000E+02  0.51100000000E-03 0.  1.
         11   -1    0    0    0    0 -0.00000000000E+00 -0.00000000000E+00 -0.45593999997E+02  0.45594000000E+02  0.51100000000E-03 0. -1.
    9900012    2    1    2    0    0  0.24068111735E+00 -0.60132821491E+00 -0.98667090679E+00  0.90007727785E+02  0.89999988992E+02 0.  0.
        -12    1    1    2    0    0 -0.24068111735E+00  0.60132821491E+00  0.98667090679E+00  0.11802722146E+01  0.00000000000E+00 0.  1.
         11    1    3    3    0    0  0.27098591027E+00 -0.33476537401E+02  0.17533816390E+02  0.37791357572E+02  0.51100000000E-03 0. -1.
        -11    1    3    3    0    0  0.18070617930E+01 -0.85380375603E+00  0.86425509948E+01  0.88706336378E+01  0.51100000000E-03 0.  1.
        -12    1    3    3    0    0 -0.18373665859E+01  0.33729012942E+02 -0.27163038292E+02  0.43345736575E+02  0.00000000000E+00 0.  1.
</event>
<event>
 7    1  0.1654239E-015  0.9000793E+02  0.7816164E-02  0.1186339E+00
        -11   -1    0    0    0    0  0.00000000000E+00  0.00000000000E+00  0.45593999997E+02  0.45594000000E+02  0.51100000000E-03 0.  1.
         11   -1    0    0    0    0 -0.00000000000E+00 -0.00000000000E+00 -0.45593999997E+02  0.45594000000E+02  0.51100000000E-03 0. -1.
    9900012    2    1    2    0    0 -0.37234832288E+00  0.99157543700E+00 -0.52029467320E+00  0.90007927262E+02  0.90000191101E+02 0.  0.
        -12    1    1    2    0    0  0.37234832288E+00 -0.99157543700E+00  0.52029467320E+00  0.11800727383E+01  0.00000000000E+00 0.  1.
         11    1    3    3    0    0  0.63356069675E+01  0.94972820376E+01 -0.50700412694E+01  0.12491741291E+02  0.51100000000E-03 0. -1.
        -11    1    3    3    0    0  0.11139368010E+02  0.24750823695E+02  0.22934097502E+02  0.35533950269E+02  0.51100000000E-03 0.  1.
         12    1    3    3    0    0 -0.17847323301E+02 -0.33256530296E+02 -0.18384350905E+02  0.41982235702E+02  0.00000000000E+00 0. -1.
</event>
<event>
 7    1  0.1654239E-015  0.9000770E+02  0.7816164E-02  0.1186339E+00
        -11   -1    0    0    0    0  0.00000000000E+00  0.00000000000E+00  0.45593999997E+02  0.45594000000E+02  0.51100000000E-03 0.  1.
         11   -1    0    0    0    0 -0.00000000000E+00 -0.00000000000E+00 -0.45593999997E+02  0.45594000000E+02  0.51100000000E-03 0. -1.
    9900012    2    1    2    0    0  0.20184032765E+00  0.80925848028E+00 -0.83514873154E+00  0.90007698255E+02  0.89999959072E+02 0.  0.
        -12    1    1    2    0    0 -0.20184032765E+00 -0.80925848028E+00  0.83514873154E+00  0.11803017451E+01  0.00000000000E+00 0.  1.
         11    1    3    3    0    0 -0.20454696892E+01 -0.24284377568E+02 -0.34548787276E+02  0.42279234178E+02  0.51100000000E-03 0. -1.
        -11    1    3    3    0    0  0.81472751164E+01  0.33356009939E+01  0.23654663385E+01  0.91159068157E+01  0.51100000000E-03 0.  1.
        -12    1    3    3    0    0 -0.58999650995E+01  0.21758035054E+02  0.31348172206E+02  0.38612557262E+02  0.00000000000E+00 0.  1.
</event>
<event>
 7    1  0.1654239E-015  0.9000772E+02  0.7816164E-02  0.1186339E+00
        -11   -1    0    0    0    0  0.00000000000E+00  0.00000000000E+00  0.45593999997E+02  0.45594000000E+02  0.51100000000E-03 0.  1.
         11   -1    0    0    0    0 -0.00000000000E+00 -0.00000000000E+00 -0.45593999997E+02  0.45594000000E+02  0.51100000000E-03 0. -1.
    9900012    2    1    2    0    0  0.10827985219E-01 -0.11221080930E+01  0.36579729907E+00  0.90007723981E+02  0.89999985137E+02 0.  0.
        -12    1    1    2    0    0 -0.10827985219E-01  0.11221080930E+01 -0.36579729907E+00  0.11802760193E+01  0.00000000000E+00 0.  1.
         11    1    3    3    0    0 -0.34287478653E+01  0.16763159116E+02 -0.36982677002E+02  0.40748965803E+02  0.51100000000E-03 0. -1.
        -11    1    3    3    0    0  0.65444398884E+01  0.49142868936E+01  0.51011401134E+01  0.96437305978E+01  0.51100000000E-03 0.  1.
        -12    1    3    3    0    0 -0.31048640378E+01 -0.22799554103E+02  0.32247334188E+02  0.39615027580E+02  0.00000000000E+00 0.  1.
</event>
<event>
 7    1  0.1654239E-015  0.9000774E+02  0.7816164E-02  0.1186339E+00
        -11   -1    0    0    0    0  0.00000000000E+00  0.00000000000E+00  0.45593999997E+02  0.45594000000E+02  0.51100000000E-03 0. -1.
         11   -1    0    0    0    0 -0.00000000000E+00 -0.00000000000E+00 -0.45593999997E+02  0.45594000000E+02  0.51100000000E-03 0.  1.
    9900012    2    1    2    0    0  0.10699400854E+01 -0.49367449332E+00 -0.67242364070E-01  0.90007742474E+02  0.90000003875E+02 0.  0.
        -12    1    1    2    0    0 -0.10699400854E+01  0.49367449332E+00  0.67242364070E-01  0.11802575258E+01  0.00000000000E+00 0.  1.
         11    1    3    3    0    0  0.65627628364E+01  0.40004019391E+02 -0.10500459642E+01  0.40552361463E+02  0.51100000000E-03 0. -1.
        -11    1    3    3    0    0  0.53307005400E+01 -0.55011549848E+01 -0.86736074040E+01  0.11571972177E+02  0.51100000000E-03 0.  1.
        -12    1    3    3    0    0 -0.10823523291E+02 -0.34996538899E+02  0.96564110041E+01  0.37883408834E+02  0.00000000000E+00 0.  1.
</event>
<event>
 7    1  0.1654239E-015  0.9000778E+02  0.7816164E-02  0.1186339E+00
        -11   -1    0    0    0    0  0.00000000000E+00  0.00000000000E+00  0.45593999997E+02  0.45594000000E+02  0.51100000000E-03 0.  1.
         11   -1    0    0    0    0 -0.00000000000E+00 -0.00000000000E+00 -0.45593999997E+02  0.45594000000E+02  0.51100000000E-03 0. -1.
    9900012    2    1    2    0    0  0.51076621643E+00 -0.10635857471E+01  0.28487763164E-01  0.90007784629E+02  0.90000046586E+02 0.  0.
        -12    1    1    2    0    0 -0.51076621643E+00  0.10635857471E+01 -0.28487763164E-01  0.11802153710E+01  0.00000000000E+00 0.  1.
         11    1    3    3    0    0  0.81264794415E+00 -0.26208083726E+01  0.63378419668E+01  0.69063213264E+01  0.51100000000E-03 0. -1.
        -11    1    3    3    0    0  0.96179743116E+01 -0.28472845653E+02  0.24631224588E+02  0.38857503708E+02  0.51100000000E-03 0.  1.
         12    1    3    3    0    0 -0.99198560393E+01  0.30030068278E+02 -0.30940578792E+02  0.44243959595E+02  0.00000000000E+00 0. -1.
</event>
<event>
 7    1  0.1654239E-015  0.9000778E+02  0.7816164E-02  0.1186339E+00
        -11   -1    0    0    0    0  0.00000000000E+00  0.00000000000E+00  0.45593999997E+02  0.45594000000E+02  0.51100000000E-03 0.  1.
         11   -1    0    0    0    0 -0.00000000000E+00 -0.00000000000E+00 -0.45593999997E+02  0.45594000000E+02  0.51100000000E-03 0. -1.
    9900012    2    1    2    0    0 -0.61770530053E+00  0.71824814770E+00 -0.70390769888E+00  0.90007777017E+02  0.90000038874E+02 0.  0.
        -12    1    1    2    0    0  0.61770530053E+00 -0.71824814770E+00  0.70390769888E+00  0.11802229825E+01  0.00000000000E+00 0.  1.
         11    1    3    3    0    0 -0.40917040623E+01 -0.58778635596E+01  0.42937189869E+01  0.83502901242E+01  0.51100000000E-03 0. -1.
        -11    1    3    3    0    0 -0.62568334231E+01 -0.10917429508E+02  0.34852388783E+02  0.37054382139E+02  0.51100000000E-03 0.  1.
         12    1    3    3    0    0  0.97308321849E+01  0.17513541215E+02 -0.39850015469E+02  0.44603104755E+02  0.00000000000E+00 0. -1.
</event>
<event>
 7    1  0.1654239E-015  0.9000775E+02  0.7816164E-02  0.1186339E+00
        -11   -1    0    0    0    0  0.00000000000E+00  0.00000000000E+00  0.45593999997E+02  0.45594000000E+02  0.51100000000E-03 0.  1.
         11   -1    0    0    0    0 -0.00000000000E+00 -0.00000000000E+00 -0.45593999997E+02  0.45594000000E+02  0.51100000000E-03 0. -1.
    9900012    2    1    2    0    0  0.10156131008E+01  0.38393328667E+00 -0.46273350491E+00  0.90007747046E+02  0.90000008507E+02 0.  0.
        -12    1    1    2    0    0 -0.10156131008E+01 -0.38393328667E+00  0.46273350491E+00  0.11802529541E+01  0.00000000000E+00 0.  1.
         11    1    3    3    0    0 -0.23794083015E+02 -0.23589505350E+01 -0.34745414449E+02  0.42177800554E+02  0.51100000000E-03 0. -1.
        -11    1    3    3    0    0  0.13670238021E+01 -0.75385624860E+01  0.64440600712E+01  0.10011223147E+02  0.51100000000E-03 0.  1.
        -12    1    3    3    0    0  0.23442672313E+02  0.10281446308E+02  0.27838620872E+02  0.37818723345E+02  0.00000000000E+00 0.  1.
</event>
<event>
 7    1  0.1654239E-015  0.9000783E+02  0.7816164E-02  0.1186339E+00
        -11   -1    0    0    0    0  0.00000000000E+00  0.00000000000E+00  0.45593999997E+02  0.45594000000E+02  0.51100000000E-03 0.  1.
         11   -1    0    0    0    0 -0.00000000000E+00 -0.00000000000E+00 -0.45593999997E+02  0.45594000000E+02  0.51100000000E-03 0. -1.
    9900012    2    1    2    0    0  0.11696238423E+01 -0.15024619517E+00  0.47077381158E-01  0.90007826228E+02  0.90000088734E+02 0.  0.
        -12    1    1    2    0    0 -0.11696238423E+01  0.15024619517E+00 -0.47077381158E-01  0.11801737718E+01  0.00000000000E+00 0.  1.
         11    1    3    3    0    0 -0.24807665893E+02 -0.81231896887E+01 -0.27428378389E+02  0.37864527451E+02  0.51100000000E-03 0. -1.
        -11    1    3    3    0    0 -0.84528473836E+00  0.84512841361E+01 -0.51281855548E+01  0.99215420769E+01  0.51100000000E-03 0.  1.
        -12    1    3    3    0    0  0.26822574474E+02 -0.47834064260E+00  0.32603641325E+02  0.42221756700E+02  0.00000000000E+00 0.  1.
</event>
<event>
 7    1  0.1654239E-015  0.9000776E+02  0.7816164E-02  0.1186339E+00
        -11   -1    0    0    0    0  0.00000000000E+00  0.00000000000E+00  0.45593999997E+02  0.45594000000E+02  0.51100000000E-03 0.  1.
         11   -1    0    0    0    0 -0.00000000000E+00 -0.00000000000E+00 -0.45593999997E+02  0.45594000000E+02  0.51100000000E-03 0. -1.
    9900012    2    1    2    0    0  0.14455405548E-01 -0.17543079594E+00 -0.11670428900E+01  0.90007756792E+02  0.90000018382E+02 0.  0.
        -12    1    1    2    0    0 -0.14455405548E-01  0.17543079594E+00  0.11670428900E+01  0.11802432080E+01  0.00000000000E+00 0.  1.
         11    1    3    3    0    0 -0.24278834534E+02  0.13395722779E+02 -0.32000611819E+02  0.42343197236E+02  0.51100000000E-03 0. -1.
        -11    1    3    3    0    0 -0.50224837234E+00 -0.89119362924E+01  0.16326921297E+01  0.90741691498E+01  0.51100000000E-03 0.  1.
        -12    1    3    3    0    0  0.24795538312E+02 -0.46592172827E+01  0.29200876799E+02  0.38590390406E+02  0.00000000000E+00 0.  1.
</event>
<event>
 7    1  0.1654239E-015  0.9000775E+02  0.7816164E-02  0.1186339E+00
        -11   -1    0    0    0    0  0.00000000000E+00  0.00000000000E+00  0.45593999997E+02  0.45594000000E+02  0.51100000000E-03 0.  1.
         11   -1    0    0    0    0 -0.00000000000E+00 -0.00000000000E+00 -0.45593999997E+02  0.45594000000E+02  0.51100000000E-03 0. -1.
    9900012    2    1    2    0    0  0.94574685999E+00 -0.29651318830E+00 -0.64080541633E+00  0.90007750545E+02  0.90000012052E+02 0.  0.
        -12    1    1    2    0    0 -0.94574685999E+00  0.29651318830E+00  0.64080541633E+00  0.11802494548E+01  0.00000000000E+00 0.  1.
         11    1    3    3    0    0 -0.23751769646E+01 -0.56780418442E+01  0.67657386949E+01  0.91464115994E+01  0.51100000000E-03 0. -1.
        -11    1    3    3    0    0 -0.35686748955E+02 -0.11262752154E+02  0.17930243771E+01  0.37464764429E+02  0.51100000000E-03 0.  1.
         12    1    3    3    0    0  0.39007672780E+02  0.16644280809E+02 -0.91995684884E+01  0.43396574516E+02  0.00000000000E+00 0. -1.
</event>
<event>
 7    1  0.1654239E-015  0.9000803E+02  0.7816164E-02  0.1186338E+00
        -11   -1    0    0    0    0  0.00000000000E+00  0.00000000000E+00  0.45593999997E+02  0.45594000000E+02  0.51100000000E-03 0.  1.
         11   -1    0    0    0    0 -0.00000000000E+00 -0.00000000000E+00 -0.45593999997E+02  0.45594000000E+02  0.51100000000E-03 0. -1.
    9900012    2    1    2    0    0  0.70841411335E-01 -0.89793406666E+00 -0.76225405146E+00  0.90008027402E+02  0.90000292563E+02 0.  0.
        -12    1    1    2    0    0 -0.70841411335E-01  0.89793406666E+00  0.76225405146E+00  0.11799725982E+01  0.00000000000E+00 0.  1.
         11    1    3    3    0    0  0.45245924471E+01  0.13466916519E+02 -0.31300905550E+02  0.34374066763E+02  0.51100000000E-03 0. -1.
        -11    1    3    3    0    0  0.38853642347E+01  0.89010003424E+01 -0.60777675138E+01  0.11457011851E+02  0.51100000000E-03 0.  1.
        -12    1    3    3    0    0 -0.83391152704E+01 -0.23265850928E+02  0.36616419012E+02  0.44176948788E+02  0.00000000000E+00 0.  1.
</event>
<event>
 7    1  0.1654239E-015  0.9000770E+02  0.7816164E-02  0.1186339E+00
        -11   -1    0    0    0    0  0.00000000000E+00  0.00000000000E+00  0.45593999997E+02  0.45594000000E+02  0.51100000000E-03 0.  1.
         11   -1    0    0    0    0 -0.00000000000E+00 -0.00000000000E+00 -0.45593999997E+02  0.45594000000E+02  0.51100000000E-03 0. -1.
    9900012    2    1    2    0    0  0.70440278125E+00  0.47446838699E+00 -0.81963091904E+00  0.90007704117E+02  0.89999965011E+02 0.  0.
        -12    1    1    2    0    0 -0.70440278125E+00 -0.47446838699E+00  0.81963091904E+00  0.11802958832E+01  0.00000000000E+00 0.  1.
         11    1    3    3    0    0  0.10881611567E+02  0.80179022040E+01 -0.80028375833E+00  0.13540187606E+02  0.51100000000E-03 0. -1.
        -11    1    3    3    0    0  0.27978879324E+02  0.10703075528E+02  0.12348939013E+02  0.32401694539E+02  0.51100000000E-03 0.  1.
        -12    1    3    3    0    0 -0.38156088110E+02 -0.18246509345E+02 -0.12368286174E+02  0.44065821972E+02  0.00000000000E+00 0.  1.
</event>
<event>
 7    1  0.1654239E-015  0.9000771E+02  0.7816164E-02  0.1186339E+00
        -11   -1    0    0    0    0  0.00000000000E+00  0.00000000000E+00  0.45593999997E+02  0.45594000000E+02  0.51100000000E-03 0. -1.
         11   -1    0    0    0    0 -0.00000000000E+00 -0.00000000000E+00 -0.45593999997E+02  0.45594000000E+02  0.51100000000E-03 0.  1.
    9900012    2    1    2    0    0  0.33612086816E+00  0.10096813698E+01  0.51053121888E+00  0.90007713665E+02  0.89999974686E+02 0.  0.
        -12    1    1    2    0    0 -0.33612086816E+00 -0.10096813698E+01 -0.51053121888E+00  0.11802863347E+01  0.00000000000E+00 0.  1.
         11    1    3    3    0    0 -0.43143950385E+00  0.90518763280E+01  0.45338782212E+01  0.10133047769E+02  0.51100000000E-03 0. -1.
        -11    1    3    3    0    0  0.38674302792E+02  0.34898116750E+01  0.52421080598E+01  0.39183672354E+02  0.51100000000E-03 0.  1.
         12    1    3    3    0    0 -0.37906742420E+02 -0.11532006633E+02 -0.92654550621E+01  0.40690993542E+02  0.00000000000E+00 0. -1.
</event>
<event>
 7    1  0.1654239E-015  0.9000771E+02  0.7816164E-02  0.1186339E+00
        -11   -1    0    0    0    0  0.00000000000E+00  0.00000000000E+00  0.45593999997E+02  0.45594000000E+02  0.51100000000E-03 0. -1.
         11   -1    0    0    0    0 -0.00000000000E+00 -0.00000000000E+00 -0.45593999997E+02  0.45594000000E+02  0.51100000000E-03 0.  1.
    9900012    2    1    2    0    0  0.93100936229E+00 -0.72129675375E+00  0.77693874092E-01  0.90007710299E+02  0.89999971275E+02 0.  0.
        -12    1    1    2    0    0 -0.93100936229E+00  0.72129675375E+00 -0.77693874092E-01  0.11802897008E+01  0.00000000000E+00 0.  1.
         11    1    3    3    0    0 -0.15645073666E+02  0.28285453017E+02  0.80121327842E+01  0.33302093844E+02  0.51100000000E-03 0. -1.
        -11    1    3    3    0    0  0.21343046698E+02 -0.49667257364E+01 -0.19748091530E+02  0.29498832624E+02  0.51100000000E-03 0.  1.
         12    1    3    3    0    0 -0.47669636693E+01 -0.24040024034E+02  0.11813652619E+02  0.27206783831E+02  0.00000000000E+00 0. -1.
</event>
<event>
 7    1  0.1654239E-015  0.9000774E+02  0.7816164E-02  0.1186339E+00
        -11   -1    0    0    0    0  0.00000000000E+00  0.00000000000E+00  0.45593999997E+02  0.45594000000E+02  0.51100000000E-03 0. -1.
         11   -1    0    0    0    0 -0.00000000000E+00 -0.00000000000E+00 -0.45593999997E+02  0.45594000000E+02  0.51100000000E-03 0.  1.
    9900012    2    1    2    0    0 -0.22558767241E+00  0.66454905779E+00  0.94894001372E+00  0.90007744774E+02  0.90000006205E+02 0.  0.
        -12    1    1    2    0    0  0.22558767241E+00 -0.66454905779E+00 -0.94894001372E+00  0.11802552257E+01  0.00000000000E+00 0.  1.
         11    1    3    3    0    0 -0.93927040677E+00 -0.76398871661E+01  0.36739863306E+01  0.85292602625E+01  0.51100000000E-03 0. -1.
        -11    1    3    3    0    0 -0.21150165453E+02  0.15104293246E+02 -0.33951376891E+02  0.42757048146E+02  0.51100000000E-03 0.  1.
         12    1    3    3    0    0  0.21863848188E+02 -0.67998570225E+01  0.31226330574E+02  0.38721436365E+02  0.00000000000E+00 0. -1.
</event>
<event>
 7    1  0.1654239E-015  0.9000800E+02  0.7816164E-02  0.1186339E+00
        -11   -1    0    0    0    0  0.00000000000E+00  0.00000000000E+00  0.45593999997E+02  0.45594000000E+02  0.51100000000E-03 0.  1.
         11   -1    0    0    0    0 -0.00000000000E+00 -0.00000000000E+00 -0.45593999997E+02  0.45594000000E+02  0.51100000000E-03 0. -1.
    9900012    2    1    2    0    0  0.91960215230E+00  0.27869899943E+00 -0.68487959295E+00  0.90007999446E+02  0.90000264238E+02 0.  0.
        -12    1    1    2    0    0 -0.91960215230E+00 -0.27869899943E+00  0.68487959295E+00  0.11800005541E+01  0.00000000000E+00 0.  1.
         11    1    3    3    0    0 -0.24487459397E+02  0.13600769105E+02 -0.24509421754E+00  0.28012080598E+02  0.51100000000E-03 0. -1.
        -11    1    3    3    0    0 -0.12173039269E+02  0.40773121431E+01 -0.13444610269E+02  0.18589376130E+02  0.51100000000E-03 0.  1.
        -12    1    3    3    0    0  0.37580100819E+02 -0.17399382249E+02  0.13004824894E+02  0.43406542718E+02  0.00000000000E+00 0.  1.
</event>
<event>
 7    1  0.1654239E-015  0.9000782E+02  0.7816164E-02  0.1186339E+00
        -11   -1    0    0    0    0  0.00000000000E+00  0.00000000000E+00  0.45593999997E+02  0.45594000000E+02  0.51100000000E-03 0.  1.
         11   -1    0    0    0    0 -0.00000000000E+00 -0.00000000000E+00 -0.45593999997E+02  0.45594000000E+02  0.51100000000E-03 0. -1.
    9900012    2    1    2    0    0 -0.16899009071E+00  0.11043776580E+01  0.38029671715E+00  0.90007816432E+02  0.90000078808E+02 0.  0.
        -12    1    1    2    0    0  0.16899009071E+00 -0.11043776580E+01 -0.38029671715E+00  0.11801835685E+01  0.00000000000E+00 0.  1.
         11    1    3    3    0    0 -0.13562633034E+02  0.36916409178E+02  0.93155590544E+00  0.39339980657E+02  0.51100000000E-03 0. -1.
        -11    1    3    3    0    0 -0.78597473694E+01 -0.37652817524E+00 -0.46574994909E+01  0.91438342038E+01  0.51100000000E-03 0.  1.
        -12    1    3    3    0    0  0.21253390313E+02 -0.35435503344E+02  0.41062403026E+01  0.41524001571E+02  0.00000000000E+00 0.  1.
</event>
<event>
 7    1  0.1654239E-015  0.9000642E+02  0.7816164E-02  0.1186342E+00
        -11   -1    0    0    0    0  0.00000000000E+00  0.00000000000E+00  0.45593999997E+02  0.45594000000E+02  0.51100000000E-03 0. -1.
         11   -1    0    0    0    0 -0.00000000000E+00 -0.00000000000E+00 -0.45593999997E+02  0.45594000000E+02  0.51100000000E-03 0.  1.
    9900012    2    1    2    0    0  0.85726807508E+00 -0.40822081094E+00 -0.70325580587E+00  0.90006424141E+02  0.89998668129E+02 0.  0.
        -12    1    1    2    0    0 -0.85726807508E+00  0.40822081094E+00  0.70325580587E+00  0.11815758594E+01  0.00000000000E+00 0.  1.
         11    1    3    3    0    0 -0.21369511971E+02 -0.30640874496E+02  0.55998119087E+00  0.37360845961E+02  0.51100000000E-03 0. -1.
        -11    1    3    3    0    0 -0.68966310829E+01  0.32485758520E+01 -0.94151338876E+01  0.12114516571E+02  0.51100000000E-03 0.  1.
        -12    1    3    3    0    0  0.29123411129E+02  0.26984077833E+02  0.81518968909E+01  0.40531061609E+02  0.00000000000E+00 0.  1.
</event>
<event>
 7    1  0.1654239E-015  0.9000766E+02  0.7816164E-02  0.1186339E+00
        -11   -1    0    0    0    0  0.00000000000E+00  0.00000000000E+00  0.45593999997E+02  0.45594000000E+02  0.51100000000E-03 0.  1.
         11   -1    0    0    0    0 -0.00000000000E+00 -0.00000000000E+00 -0.45593999997E+02  0.45594000000E+02  0.51100000000E-03 0. -1.
    9900012    2    1    2    0    0 -0.12314291974E+00 -0.11580543579E+01  0.19221766553E+00  0.90007660343E+02  0.89999920660E+02 0.  0.
        -12    1    1    2    0    0  0.12314291974E+00  0.11580543579E+01 -0.19221766553E+00  0.11803396568E+01  0.00000000000E+00 0.  1.
         11    1    3    3    0    0  0.15399289565E+02  0.22696258096E+02  0.22401739928E+02  0.35413220734E+02  0.51100000000E-03 0. -1.
        -11    1    3    3    0    0  0.92009681650E+01  0.45394034669E+01  0.10922236931E+01  0.10317797820E+02  0.51100000000E-03 0.  1.
        -12    1    3    3    0    0 -0.24723400650E+02 -0.28393715921E+02 -0.23301745955E+02  0.44276641789E+02  0.00000000000E+00 0.  1.
</event>
<event>
 7    1  0.1654239E-015  0.9000771E+02  0.7816164E-02  0.1186339E+00
        -11   -1    0    0    0    0  0.00000000000E+00  0.00000000000E+00  0.45593999997E+02  0.45594000000E+02  0.51100000000E-03 0. -1.
         11   -1    0    0    0    0 -0.00000000000E+00 -0.00000000000E+00 -0.45593999997E+02  0.45594000000E+02  0.51100000000E-03 0.  1.
    9900012    2    1    2    0    0  0.68207531019E+00 -0.85660510372E+00  0.44055982398E+00  0.90007706820E+02  0.89999967750E+02 0.  0.
        -12    1    1    2    0    0 -0.68207531019E+00  0.85660510372E+00 -0.44055982398E+00  0.11802931801E+01  0.00000000000E+00 0.  1.
         11    1    3    3    0    0 -0.67981465278E+01  0.27345631525E+01 -0.47710936734E+01  0.87439102780E+01  0.51100000000E-03 0. -1.
        -11    1    3    3    0    0  0.35443309355E+02  0.14044974726E+02 -0.16678763407E+02  0.41613346923E+02  0.51100000000E-03 0.  1.
         12    1    3    3    0    0 -0.27963087517E+02 -0.17636142983E+02  0.21890416904E+02  0.39650449619E+02  0.00000000000E+00 0. -1.
</event>
<event>
 7    1  0.1654239E-015  0.9000767E+02  0.7816164E-02  0.1186339E+00
        -11   -1    0    0    0    0  0.00000000000E+00  0.00000000000E+00  0.45593999997E+02  0.45594000000E+02  0.51100000000E-03 0. -1.
         11   -1    0    0    0    0 -0.00000000000E+00 -0.00000000000E+00 -0.45593999997E+02  0.45594000000E+02  0.51100000000E-03 0.  1.
    9900012    2    1    2    0    0  0.66426274539E-01  0.29280199026E+00  0.11415033812E+01  0.90007671476E+02  0.89999931939E+02 0.  0.
        -12    1    1    2    0    0 -0.66426274539E-01 -0.29280199026E+00 -0.11415033812E+01  0.11803285241E+01  0.00000000000E+00 0.  1.
         11    1    3    3    0    0 -0.15296994969E+02  0.18613380799E+02  0.28939681143E+02  0.37655824845E+02  0.51100000000E-03 0. -1.
        -11    1    3    3    0    0 -0.51419265013E+01 -0.19298797791E+01  0.69147248600E+01  0.88304736145E+01  0.51100000000E-03 0.  1.
        -12    1    3    3    0    0  0.20505347745E+02 -0.16390699030E+02 -0.34712902621E+02  0.43521373016E+02  0.00000000000E+00 0.  1.
</event>
<event>
 7    1  0.1654239E-015  0.9000771E+02  0.7816164E-02  0.1186339E+00
        -11   -1    0    0    0    0  0.00000000000E+00  0.00000000000E+00  0.45593999997E+02  0.45594000000E+02  0.51100000000E-03 0.  1.
         11   -1    0    0    0    0 -0.00000000000E+00 -0.00000000000E+00 -0.45593999997E+02  0.45594000000E+02  0.51100000000E-03 0. -1.
    9900012    2    1    2    0    0  0.59735091802E+00 -0.10175425457E+01  0.29512203960E-01  0.90007706849E+02  0.89999967780E+02 0.  0.
        -12    1    1    2    0    0 -0.59735091802E+00  0.10175425457E+01 -0.29512203960E-01  0.11802931508E+01  0.00000000000E+00 0.  1.
         11    1    3    3    0    0  0.82596667959E+01 -0.19578489042E+02 -0.30990278015E+02  0.37575745640E+02  0.51100000000E-03 0. -1.
        -11    1    3    3    0    0  0.75522196585E+01  0.47857482978E+00 -0.52020656674E+01  0.91829484975E+01  0.51100000000E-03 0.  1.
        -12    1    3    3    0    0 -0.15214535536E+02  0.18082371667E+02  0.36221855886E+02  0.43249012711E+02  0.00000000000E+00 0.  1.
</event>
<event>
 7    1  0.1654239E-015  0.9000778E+02  0.7816164E-02  0.1186339E+00
        -11   -1    0    0    0    0  0.00000000000E+00  0.00000000000E+00  0.45593999997E+02  0.45594000000E+02  0.51100000000E-03 0.  1.
         11   -1    0    0    0    0 -0.00000000000E+00 -0.00000000000E+00 -0.45593999997E+02  0.45594000000E+02  0.51100000000E-03 0. -1.
    9900012    2    1    2    0    0 -0.60729315059E+00 -0.10088737236E+01 -0.79252361733E-01  0.90007783029E+02  0.90000044965E+02 0.  0.
        -12    1    1    2    0    0  0.60729315059E+00  0.10088737236E+01  0.79252361733E-01  0.11802169706E+01  0.00000000000E+00 0.  1.
         11    1    3    3    0    0  0.45615933386E+01 -0.17156808355E+01 -0.86787225221E+01  0.99534878004E+01  0.51100000000E-03 0. -1.
        -11    1    3    3    0    0 -0.10474529638E+02  0.37348194495E+02  0.16573883560E+02  0.42181714281E+02  0.51100000000E-03 0.  1.
         12    1    3    3    0    0  0.53056431483E+01 -0.36641387383E+02 -0.79744133997E+01  0.37872580948E+02  0.00000000000E+00 0. -1.
</event>
<event>
 7    1  0.1654239E-015  0.9000764E+02  0.7816164E-02  0.1186339E+00
        -11   -1    0    0    0    0  0.00000000000E+00  0.00000000000E+00  0.45593999997E+02  0.45594000000E+02  0.51100000000E-03 0. -1.
         11   -1    0    0    0    0 -0.00000000000E+00 -0.00000000000E+00 -0.45593999997E+02  0.45594000000E+02  0.51100000000E-03 0.  1.
    9900012    2    1    2    0    0 -0.78725619065E+00 -0.50414171245E+00 -0.72063772741E+00  0.90007639924E+02  0.89999899970E+02 0.  0.
        -12    1    1    2    0    0  0.78725619065E+00  0.50414171245E+00  0.72063772741E+00  0.11803600765E+01  0.00000000000E+00 0.  1.
         11    1    3    3    0    0 -0.97261975356E+01  0.22667659106E+02 -0.29152694386E+02  0.38187711087E+02  0.51100000000E-03 0. -1.
        -11    1    3    3    0    0  0.24219554136E+01  0.10587931894E+01 -0.75237687175E+01  0.79745850688E+01  0.51100000000E-03 0.  1.
        -12    1    3    3    0    0  0.65169859313E+01 -0.24230594008E+02  0.35955825376E+02  0.43845343768E+02  0.00000000000E+00 0.  1.
</event>
<event>
 7    1  0.1654239E-015  0.9000773E+02  0.7816164E-02  0.1186339E+00
        -11   -1    0    0    0    0  0.00000000000E+00  0.00000000000E+00  0.45593999997E+02  0.45594000000E+02  0.51100000000E-03 0.  1.
         11   -1    0    0    0    0 -0.00000000000E+00 -0.00000000000E+00 -0.45593999997E+02  0.45594000000E+02  0.51100000000E-03 0. -1.
    9900012    2    1    2    0    0  0.98432279413E+00  0.20762662608E+00 -0.61727458547E+00  0.90007733889E+02  0.89999995176E+02 0.  0.
        -12    1    1    2    0    0 -0.98432279413E+00 -0.20762662608E+00  0.61727458547E+00  0.11802661110E+01  0.00000000000E+00 0.  1.
         11    1    3    3    0    0  0.37095175773E+02 -0.37447787927E+01 -0.20050808883E+02  0.42333324591E+02  0.51100000000E-03 0. -1.
        -11    1    3    3    0    0 -0.20719385005E+01 -0.69420293356E+01  0.62905470185E+01  0.95945652585E+01  0.51100000000E-03 0.  1.
        -12    1    3    3    0    0 -0.34038914478E+02  0.10894434754E+02  0.13142987279E+02  0.38079844039E+02  0.00000000000E+00 0.  1.
</event>
<event>
 7    1  0.1654239E-015  0.9000790E+02  0.7816164E-02  0.1186339E+00
        -11   -1    0    0    0    0  0.00000000000E+00  0.00000000000E+00  0.45593999997E+02  0.45594000000E+02  0.51100000000E-03 0. -1.
         11   -1    0    0    0    0 -0.00000000000E+00 -0.00000000000E+00 -0.45593999997E+02  0.45594000000E+02  0.51100000000E-03 0.  1.
    9900012    2    1    2    0    0  0.11268289113E+01 -0.34122003328E+00  0.80398211459E-01  0.90007898996E+02  0.90000162463E+02 0.  0.
        -12    1    1    2    0    0 -0.11268289113E+01  0.34122003328E+00 -0.80398211459E-01  0.11801010036E+01  0.00000000000E+00 0.  1.
         11    1    3    3    0    0  0.61701605066E+01 -0.14792397272E+01  0.44362237146E+01  0.77420353884E+01  0.51100000000E-03 0. -1.
        -11    1    3    3    0    0  0.36111875361E+02 -0.13376043256E+02 -0.18046344093E+01  0.38551819424E+02  0.51100000000E-03 0.  1.
         12    1    3    3    0    0 -0.41155206956E+02  0.14514062950E+02 -0.25511910938E+01  0.43714044184E+02  0.00000000000E+00 0. -1.
</event>
<event>
 7    1  0.1654239E-015  0.9000772E+02  0.7816164E-02  0.1186339E+00
        -11   -1    0    0    0    0  0.00000000000E+00  0.00000000000E+00  0.45593999997E+02  0.45594000000E+02  0.51100000000E-03 0. -1.
         11   -1    0    0    0    0 -0.00000000000E+00 -0.00000000000E+00 -0.45593999997E+02  0.45594000000E+02  0.51100000000E-03 0.  1.
    9900012    2    1    2    0    0 -0.34805504697E+00 -0.11099042143E+01  0.20005820212E+00  0.90007723352E+02  0.89999984501E+02 0.  0.
        -12    1    1    2    0    0  0.34805504697E+00  0.11099042143E+01 -0.20005820212E+00  0.11802766476E+01  0.00000000000E+00 0.  1.
         11    1    3    3    0    0  0.86831942421E+01 -0.36693114400E+02  0.16031737298E+02  0.40973151058E+02  0.51100000000E-03 0. -1.
        -11    1    3    3    0    0 -0.96716742952E+01 -0.21722974121E+00  0.48428238899E+00  0.96862274455E+01  0.51100000000E-03 0.  1.
        -12    1    3    3    0    0  0.64042500614E+00  0.35800439927E+02 -0.16315961485E+02  0.39348344848E+02  0.00000000000E+00 0.  1.
</event>
<event>
 7    1  0.1654239E-015  0.9000747E+02  0.7816164E-02  0.1186340E+00
        -11   -1    0    0    0    0  0.00000000000E+00  0.00000000000E+00  0.45593999997E+02  0.45594000000E+02  0.51100000000E-03 0.  1.
         11   -1    0    0    0    0 -0.00000000000E+00 -0.00000000000E+00 -0.45593999997E+02  0.45594000000E+02  0.51100000000E-03 0. -1.
    9900012    2    1    2    0    0  0.94611289903E+00 -0.64975235334E+00 -0.27629122190E+00  0.90007472754E+02  0.89999730594E+02 0.  0.
        -12    1    1    2    0    0 -0.94611289903E+00  0.64975235334E+00  0.27629122190E+00  0.11805272456E+01  0.00000000000E+00 0.  1.
         11    1    3    3    0    0 -0.19810407981E+01  0.43132933080E+01 -0.85002009576E+01  0.97356272723E+01  0.51100000000E-03 0. -1.
        -11    1    3    3    0    0  0.26027838040E+02 -0.11196082082E+02 -0.26038911875E+02  0.38481496059E+02  0.51100000000E-03 0.  1.
         12    1    3    3    0    0 -0.23100684343E+02  0.62330364203E+01  0.34262821611E+02  0.41790349423E+02  0.00000000000E+00 0. -1.
</event>
<event>
 7    1  0.1654239E-015  0.9000773E+02  0.7816164E-02  0.1186339E+00
        -11   -1    0    0    0    0  0.00000000000E+00  0.00000000000E+00  0.45593999997E+02  0.45594000000E+02  0.51100000000E-03 0.  1.
         11   -1    0    0    0    0 -0.00000000000E+00 -0.00000000000E+00 -0.45593999997E+02  0.45594000000E+02  0.51100000000E-03 0. -1.
    9900012    2    1    2    0    0 -0.65057672855E+00  0.15343382252E+00 -0.97275429274E+00  0.90007727603E+02  0.89999988807E+02 0.  0.
        -12    1    1    2    0    0  0.65057672855E+00 -0.15343382252E+00  0.97275429274E+00  0.11802723972E+01  0.00000000000E+00 0.  1.
         11    1    3    3    0    0 -0.16677717858E+02  0.21400818429E+00 -0.31907152931E+02  0.36003589834E+02  0.51100000000E-03 0. -1.
        -11    1    3    3    0    0 -0.45645872972E+01 -0.14454749877E+01 -0.83517717686E+01  0.96268866759E+01  0.51100000000E-03 0.  1.
        -12    1    3    3    0    0  0.20591728427E+02  0.13849006259E+01  0.39286170407E+02  0.44377251093E+02  0.00000000000E+00 0.  1.
</event>
<event>
 7    1  0.1782213E-015  0.9000777E+02  0.7816164E-02  0.1186339E+00
        -11   -1    0    0    0    0  0.00000000000E+00  0.00000000000E+00  0.45593999997E+02  0.45594000000E+02  0.51100000000E-03 0.  1.
         11   -1    0    0    0    0 -0.00000000000E+00 -0.00000000000E+00 -0.45593999997E+02  0.45594000000E+02  0.51100000000E-03 0. -1.
    9900012    2    1    2    0    0 -0.70700237606E+00 -0.94346433184E+00  0.54562239975E-01  0.90007765132E+02  0.90000026832E+02 0.  0.
        -12    1    1    2    0    0  0.70700237606E+00  0.94346433184E+00 -0.54562239975E-01  0.11802348678E+01  0.00000000000E+00 0.  1.
         11    1    3    3    0    0 -0.25211504640E+01 -0.93838673480E+01  0.16371470865E+01  0.98535991856E+01  0.51100000000E-03 0. -1.
        -11    1    3    3    0    0  0.11705505460E+02 -0.10493484720E+02  0.34674688591E+02  0.38071854549E+02  0.51100000000E-03 0.  1.
         12    1    3    3    0    0 -0.98913573724E+01  0.18933887737E+02 -0.36257273437E+02  0.42082311398E+02  0.00000000000E+00 0. -1.
</event>
<event>
 7    1  0.1654239E-015  0.9000769E+02  0.7816164E-02  0.1186339E+00
        -11   -1    0    0    0    0  0.00000000000E+00  0.00000000000E+00  0.45593999997E+02  0.45594000000E+02  0.51100000000E-03 0.  1.
         11   -1    0    0    0    0 -0.00000000000E+00 -0.00000000000E+00 -0.45593999997E+02  0.45594000000E+02  0.51100000000E-03 0. -1.
    9900012    2    1    2    0    0  0.10445828300E+01 -0.54111456369E+00  0.95799519949E-01  0.90007688258E+02  0.89999948943E+02 0.  0.
        -12    1    1    2    0    0 -0.10445828300E+01  0.54111456369E+00 -0.95799519949E-01  0.11803117418E+01  0.00000000000E+00 0.  1.
         11    1    3    3    0    0  0.71399390426E+01  0.25291769574E+02 -0.28626598211E+02  0.38860448571E+02  0.51100000000E-03 0. -1.
        -11    1    3    3    0    0 -0.30151372438E+01  0.78044914662E+01  0.39098764195E+01  0.92351650512E+01  0.51100000000E-03 0.  1.
        -12    1    3    3    0    0 -0.30802189688E+01 -0.33637375604E+02  0.24812521312E+02  0.41912074636E+02  0.00000000000E+00 0.  1.
</event>
<event>
 7    1  0.1654239E-015  0.9000768E+02  0.7816164E-02  0.1186339E+00
        -11   -1    0    0    0    0  0.00000000000E+00  0.00000000000E+00  0.45593999997E+02  0.45594000000E+02  0.51100000000E-03 0.  1.
         11   -1    0    0    0    0 -0.00000000000E+00 -0.00000000000E+00 -0.45593999997E+02  0.45594000000E+02  0.51100000000E-03 0. -1.
    9900012    2    1    2    0    0 -0.33710188472E+00  0.10532156206E+01 -0.41263009171E+00  0.90007676139E+02  0.89999936664E+02 0.  0.
        -12    1    1    2    0    0  0.33710188472E+00 -0.10532156206E+01  0.41263009171E+00  0.11803238609E+01  0.00000000000E+00 0.  1.
         11    1    3    3    0    0  0.37249233221E+01  0.15786903624E+02  0.25857758448E+01  0.16425212838E+02  0.51100000000E-03 0. -1.
        -11    1    3    3    0    0  0.19129291594E+02 -0.49502852626E+01  0.27611086590E+02  0.33953014947E+02  0.51100000000E-03 0.  1.
         12    1    3    3    0    0 -0.23191316801E+02 -0.97834027404E+01 -0.30609492527E+02  0.39629448354E+02  0.00000000000E+00 0. -1.
</event>
<event>
 7    1  0.1654239E-015  0.9000777E+02  0.7816164E-02  0.1186339E+00
        -11   -1    0    0    0    0  0.00000000000E+00  0.00000000000E+00  0.45593999997E+02  0.45594000000E+02  0.51100000000E-03 0.  1.
         11   -1    0    0    0    0 -0.00000000000E+00 -0.00000000000E+00 -0.45593999997E+02  0.45594000000E+02  0.51100000000E-03 0. -1.
    9900012    2    1    2    0    0 -0.90824764601E+00 -0.35387958631E+00 -0.66543471004E+00  0.90007767861E+02  0.90000029597E+02 0.  0.
        -12    1    1    2    0    0  0.90824764601E+00  0.35387958631E+00  0.66543471004E+00  0.11802321388E+01  0.00000000000E+00 0.  1.
         11    1    3    3    0    0 -0.28573782581E+02 -0.48486494361E+01 -0.23116823753E+02  0.37072334605E+02  0.51100000000E-03 0. -1.
        -11    1    3    3    0    0 -0.47417031937E+01  0.30843764094E+01 -0.70842239257E+01  0.90655036210E+01  0.51100000000E-03 0.  1.
        -12    1    3    3    0    0  0.32407238129E+02  0.14103934403E+01  0.29535612969E+02  0.43869929636E+02  0.00000000000E+00 0.  1.
</event>
<event>
 7    1  0.1654239E-015  0.9000773E+02  0.7816164E-02  0.1186339E+00
        -11   -1    0    0    0    0  0.00000000000E+00  0.00000000000E+00  0.45593999997E+02  0.45594000000E+02  0.51100000000E-03 0.  1.
         11   -1    0    0    0    0 -0.00000000000E+00 -0.00000000000E+00 -0.45593999997E+02  0.45594000000E+02  0.51100000000E-03 0. -1.
    9900012    2    1    2    0    0 -0.40263837485E+00 -0.60105313086E+00 -0.93254874598E+00  0.90007733212E+02  0.89999994490E+02 0.  0.
        -12    1    1    2    0    0  0.40263837485E+00  0.60105313086E+00  0.93254874598E+00  0.11802667879E+01  0.00000000000E+00 0.  1.
         11    1    3    3    0    0  0.10200173961E+02  0.29880294262E+02  0.21003382528E+02  0.37921202669E+02  0.51100000000E-03 0. -1.
        -11    1    3    3    0    0  0.38080709762E-01  0.73318369403E+01 -0.67674631578E+01  0.99777673311E+01  0.51100000000E-03 0.  1.
        -12    1    3    3    0    0 -0.10640893046E+02 -0.37813184333E+02 -0.15168468116E+02  0.42108763212E+02  0.00000000000E+00 0.  1.
</event>
<event>
 7    1  0.1654239E-015  0.9000774E+02  0.7816164E-02  0.1186339E+00
        -11   -1    0    0    0    0  0.00000000000E+00  0.00000000000E+00  0.45593999997E+02  0.45594000000E+02  0.51100000000E-03 0. -1.
         11   -1    0    0    0    0 -0.00000000000E+00 -0.00000000000E+00 -0.45593999997E+02  0.45594000000E+02  0.51100000000E-03 0.  1.
    9900012    2    1    2    0    0  0.64294848686E-01 -0.11675559258E+01  0.16026395086E+00  0.90007743587E+02  0.90000005002E+02 0.  0.
        -12    1    1    2    0    0 -0.64294848686E-01  0.11675559258E+01 -0.16026395086E+00  0.11802564134E+01  0.00000000000E+00 0.  1.
         11    1    3    3    0    0  0.25811384809E+02  0.28802482726E+02  0.63110964027E+01  0.39187249648E+02  0.51100000000E-03 0. -1.
        -11    1    3    3    0    0 -0.19819076602E+02 -0.15028706713E+01 -0.85644548820E+01  0.21642650145E+02  0.51100000000E-03 0.  1.
        -12    1    3    3    0    0 -0.59280133579E+01 -0.28467167980E+02  0.24136224301E+01  0.29177843793E+02  0.00000000000E+00 0.  1.
</event>
<event>
 7    1  0.1654239E-015  0.9000777E+02  0.7816164E-02  0.1186339E+00
        -11   -1    0    0    0    0  0.00000000000E+00  0.00000000000E+00  0.45593999997E+02  0.45594000000E+02  0.51100000000E-03 0.  1.
         11   -1    0    0    0    0 -0.00000000000E+00 -0.00000000000E+00 -0.45593999997E+02  0.45594000000E+02  0.51100000000E-03 0. -1.
    9900012    2    1    2    0    0  0.17701122303E+00 -0.10293272036E+01 -0.54963964867E+00  0.90007766460E+02  0.90000028177E+02 0.  0.
        -12    1    1    2    0    0 -0.17701122303E+00  0.10293272036E+01  0.54963964867E+00  0.11802335398E+01  0.00000000000E+00 0.  1.
         11    1    3    3    0    0 -0.72724122337E+01 -0.24276974646E+02  0.18818681659E+02  0.31565840038E+02  0.51100000000E-03 0. -1.
        -11    1    3    3    0    0 -0.99006699750E+01 -0.76179437671E+01 -0.19352407539E+02  0.23034148801E+02  0.51100000000E-03 0.  1.
        -12    1    3    3    0    0  0.17350093432E+02  0.30865591210E+02 -0.15913769106E-01  0.35407777621E+02  0.00000000000E+00 0.  1.
</event>
<event>
 7    1  0.1654239E-015  0.9000769E+02  0.7816164E-02  0.1186339E+00
        -11   -1    0    0    0    0  0.00000000000E+00  0.00000000000E+00  0.45593999997E+02  0.45594000000E+02  0.51100000000E-03 0. -1.
         11   -1    0    0    0    0 -0.00000000000E+00 -0.00000000000E+00 -0.45593999997E+02  0.45594000000E+02  0.51100000000E-03 0.  1.
    9900012    2    1    2    0    0 -0.93195751004E+00 -0.71736100272E+00  0.99907185883E-01  0.90007689425E+02  0.89999950125E+02 0.  0.
        -12    1    1    2    0    0  0.93195751004E+00  0.71736100272E+00 -0.99907185883E-01  0.11803105755E+01  0.00000000000E+00 0.  1.
         11    1    3    3    0    0 -0.14457495605E+02 -0.32296842766E+02 -0.12123561290E+02  0.37404357640E+02  0.51100000000E-03 0. -1.
        -11    1    3    3    0    0 -0.75242910601E+01 -0.19628750063E+01  0.10367345470E+02  0.12959540370E+02  0.51100000000E-03 0.  1.
        -12    1    3    3    0    0  0.21049829155E+02  0.33542356770E+02  0.18561230064E+01  0.39643791415E+02  0.00000000000E+00 0.  1.
</event>
<event>
 7    1  0.1654239E-015  0.9000776E+02  0.7816164E-02  0.1186339E+00
        -11   -1    0    0    0    0  0.00000000000E+00  0.00000000000E+00  0.45593999997E+02  0.45594000000E+02  0.51100000000E-03 0. -1.
         11   -1    0    0    0    0 -0.00000000000E+00 -0.00000000000E+00 -0.45593999997E+02  0.45594000000E+02  0.51100000000E-03 0.  1.
    9900012    2    1    2    0    0  0.10334963177E+01 -0.41801884081E+00 -0.38745768318E+00  0.90007755175E+02  0.90000016744E+02 0.  0.
        -12    1    1    2    0    0 -0.10334963177E+01  0.41801884081E+00  0.38745768318E+00  0.11802448247E+01  0.00000000000E+00 0.  1.
         11    1    3    3    0    0 -0.29828782761E+00 -0.56041656573E+01  0.17142460743E+01  0.58680736368E+01  0.51100000000E-03 0. -1.
        -11    1    3    3    0    0 -0.21744282291E+02  0.31076360757E+02  0.20135136294E+02  0.42941561733E+02  0.51100000000E-03 0.  1.
         12    1    3    3    0    0  0.23076066436E+02 -0.25890213940E+02 -0.22236840052E+02  0.41198119806E+02  0.00000000000E+00 0. -1.
</event>
<event>
 7    1  0.1654239E-015  0.9000780E+02  0.7816164E-02  0.1186339E+00
        -11   -1    0    0    0    0  0.00000000000E+00  0.00000000000E+00  0.45593999997E+02  0.45594000000E+02  0.51100000000E-03 0.  1.
         11   -1    0    0    0    0 -0.00000000000E+00 -0.00000000000E+00 -0.45593999997E+02  0.45594000000E+02  0.51100000000E-03 0. -1.
    9900012    2    1    2    0    0 -0.78038369982E+00 -0.62506466016E+00 -0.62703534582E+00  0.90007797529E+02  0.90000059656E+02 0.  0.
        -12    1    1    2    0    0  0.78038369982E+00  0.62506466016E+00  0.62703534582E+00  0.11802024713E+01  0.00000000000E+00 0.  1.
         11    1    3    3    0    0  0.30414608501E+01 -0.29755485100E+02  0.24691217173E+02  0.38785249559E+02  0.51100000000E-03 0. -1.
        -11    1    3    3    0    0  0.96515541829E+01  0.20622929846E+01  0.24513808883E+01  0.10169307696E+02  0.51100000000E-03 0.  1.
        -12    1    3    3    0    0 -0.13473398733E+02  0.27068127455E+02 -0.27769633407E+02  0.41053240273E+02  0.00000000000E+00 0.  1.
</event>
<event>
 7    1  0.1654239E-015  0.9000774E+02  0.7816164E-02  0.1186339E+00
        -11   -1    0    0    0    0  0.00000000000E+00  0.00000000000E+00  0.45593999997E+02  0.45594000000E+02  0.51100000000E-03 0.  1.
         11   -1    0    0    0    0 -0.00000000000E+00 -0.00000000000E+00 -0.45593999997E+02  0.45594000000E+02  0.51100000000E-03 0. -1.
    9900012    2    1    2    0    0 -0.75915802071E+00  0.53753857351E+00 -0.72645750168E+00  0.90007741926E+02  0.90000003320E+02 0.  0.
        -12    1    1    2    0    0  0.75915802071E+00 -0.53753857351E+00  0.72645750168E+00  0.11802580735E+01  0.00000000000E+00 0.  1.
         11    1    3    3    0    0  0.76373690620E+01 -0.17793092794E+02  0.34759143498E+01  0.19672456333E+02  0.51100000000E-03 0. -1.
        -11    1    3    3    0    0  0.16313070157E+02  0.24151330782E+01 -0.28014756712E+02  0.32508086988E+02  0.51100000000E-03 0.  1.
        -12    1    3    3    0    0 -0.24709597240E+02  0.15915498289E+02  0.23812384861E+02  0.37827198605E+02  0.00000000000E+00 0.  1.
</event>
<event>
 7    1  0.1654239E-015  0.9000776E+02  0.7816164E-02  0.1186339E+00
        -11   -1    0    0    0    0  0.00000000000E+00  0.00000000000E+00  0.45593999997E+02  0.45594000000E+02  0.51100000000E-03 0. -1.
         11   -1    0    0    0    0 -0.00000000000E+00 -0.00000000000E+00 -0.45593999997E+02  0.45594000000E+02  0.51100000000E-03 0.  1.
    9900012    2    1    2    0    0  0.92795287414E+00 -0.69548524530E+00 -0.21946940976E+00  0.90007761429E+02  0.90000023080E+02 0.  0.
        -12    1    1    2    0    0 -0.92795287414E+00  0.69548524530E+00  0.21946940976E+00  0.11802385712E+01  0.00000000000E+00 0.  1.
         11    1    3    3    0    0  0.88764945629E+01  0.17158092771E+02 -0.31077908988E+02  0.36592741501E+02  0.51100000000E-03 0. -1.
        -11    1    3    3    0    0 -0.58632204264E+01 -0.27839311250E+01 -0.88023228571E+01  0.10936567753E+02  0.51100000000E-03 0.  1.
        -12    1    3    3    0    0 -0.20853212623E+01 -0.15069646891E+02  0.39660762435E+02  0.42478452174E+02  0.00000000000E+00 0.  1.
</event>
<event>
 7    1  0.1654239E-015  0.9000770E+02  0.7816164E-02  0.1186339E+00
        -11   -1    0    0    0    0  0.00000000000E+00  0.00000000000E+00  0.45593999997E+02  0.45594000000E+02  0.51100000000E-03 0.  1.
         11   -1    0    0    0    0 -0.00000000000E+00 -0.00000000000E+00 -0.45593999997E+02  0.45594000000E+02  0.51100000000E-03 0. -1.
    9900012    2    1    2    0    0 -0.51464935780E+00 -0.93214599477E+00 -0.50926513467E+00  0.90007698727E+02  0.89999959550E+02 0.  0.
        -12    1    1    2    0    0  0.51464935780E+00  0.93214599477E+00  0.50926513467E+00  0.11803012727E+01  0.00000000000E+00 0.  1.
         11    1    3    3    0    0 -0.62637054849E+01  0.12212081905E+02 -0.10818348354E+02  0.17475857982E+02  0.51100000000E-03 0. -1.
        -11    1    3    3    0    0  0.11559757143E+02 -0.17068736087E+02 -0.27336847321E+02  0.34238471907E+02  0.51100000000E-03 0.  1.
         12    1    3    3    0    0 -0.58107010156E+01  0.39245081876E+01  0.37645930540E+02  0.38293368838E+02  0.00000000000E+00 0. -1.
</event>
<event>
 7    1  0.1654239E-015  0.9000785E+02  0.7816164E-02  0.1186339E+00
        -11   -1    0    0    0    0  0.00000000000E+00  0.00000000000E+00  0.45593999997E+02  0.45594000000E+02  0.51100000000E-03 0. -1.
         11   -1    0    0    0    0 -0.00000000000E+00 -0.00000000000E+00 -0.45593999997E+02  0.45594000000E+02  0.51100000000E-03 0.  1.
    9900012    2    1    2    0    0  0.93086884202E+00  0.10259751821E+00  0.71812391956E+00  0.90007853816E+02  0.90000116686E+02 0.  0.
        -12    1    1    2    0    0 -0.93086884202E+00 -0.10259751821E+00 -0.71812391956E+00  0.11801461840E+01  0.00000000000E+00 0.  1.
         11    1    3    3    0    0 -0.46769221498E+01  0.47574392306E+01 -0.60877980486E+01  0.90315067497E+01  0.51100000000E-03 0. -1.
        -11    1    3    3    0    0 -0.18940306875E+02 -0.70622593524E+01 -0.30297748539E+02  0.36422030400E+02  0.51100000000E-03 0.  1.
         12    1    3    3    0    0  0.24548097867E+02  0.24074176400E+01  0.37103670507E+02  0.44554316667E+02  0.00000000000E+00 0. -1.
</event>
<event>
 7    1  0.1654239E-015  0.9000812E+02  0.7816164E-02  0.1186338E+00
        -11   -1    0    0    0    0  0.00000000000E+00  0.00000000000E+00  0.45593999997E+02  0.45594000000E+02  0.51100000000E-03 0.  1.
         11   -1    0    0    0    0 -0.00000000000E+00 -0.00000000000E+00 -0.45593999997E+02  0.45594000000E+02  0.51100000000E-03 0. -1.
    9900012    2    1    2    0    0 -0.67809671317E+00  0.76723110143E+00 -0.58622689808E+00  0.90008118357E+02  0.90000384719E+02 0.  0.
        -12    1    1    2    0    0  0.67809671317E+00 -0.76723110143E+00  0.58622689808E+00  0.11798816430E+01  0.00000000000E+00 0.  1.
         11    1    3    3    0    0  0.35079441356E+02 -0.17607363097E+02 -0.75545142186E+01  0.39970703351E+02  0.51100000000E-03 0. -1.
        -11    1    3    3    0    0  0.31914198816E+01  0.56948172455E+01  0.62981698545E+01  0.90710003912E+01  0.51100000000E-03 0.  1.
        -12    1    3    3    0    0 -0.38948957950E+02  0.12679776952E+02  0.67011746601E+00  0.40966414615E+02  0.00000000000E+00 0.  1.
</event>
<event>
 7    1  0.1654239E-015  0.9000780E+02  0.7816164E-02  0.1186339E+00
        -11   -1    0    0    0    0  0.00000000000E+00  0.00000000000E+00  0.45593999997E+02  0.45594000000E+02  0.51100000000E-03 0.  1.
         11   -1    0    0    0    0 -0.00000000000E+00 -0.00000000000E+00 -0.45593999997E+02  0.45594000000E+02  0.51100000000E-03 0. -1.
    9900012    2    1    2    0    0 -0.92688758088E+00  0.38625248880E+00 -0.62012002026E+00  0.90007804926E+02  0.90000067151E+02 0.  0.
        -12    1    1    2    0    0  0.92688758088E+00 -0.38625248880E+00  0.62012002026E+00  0.11801950738E+01  0.00000000000E+00 0.  1.
         11    1    3    3    0    0 -0.22758223563E+01  0.13097227503E+02 -0.38697109911E+02  0.40916782026E+02  0.51100000000E-03 0. -1.
        -11    1    3    3    0    0  0.32876010310E+01 -0.13943180484E+02  0.39135889633E+01  0.14850480847E+02  0.51100000000E-03 0.  1.
        -12    1    3    3    0    0 -0.19386662555E+01  0.12322054695E+01  0.34163400927E+02  0.34240542053E+02  0.00000000000E+00 0.  1.
</event>
<event>
 7    1  0.1654239E-015  0.9000773E+02  0.7816164E-02  0.1186339E+00
        -11   -1    0    0    0    0  0.00000000000E+00  0.00000000000E+00  0.45593999997E+02  0.45594000000E+02  0.51100000000E-03 0. -1.
         11   -1    0    0    0    0 -0.00000000000E+00 -0.00000000000E+00 -0.45593999997E+02  0.45594000000E+02  0.51100000000E-03 0.  1.
    9900012    2    1    2    0    0  0.69721568324E+00  0.17279415749E+00  0.93651509153E+00  0.90007733909E+02  0.89999995196E+02 0.  0.
        -12    1    1    2    0    0 -0.69721568324E+00 -0.17279415749E+00 -0.93651509153E+00  0.11802660914E+01  0.00000000000E+00 0.  1.
         11    1    3    3    0    0 -0.26241383852E+02  0.18603062597E+02  0.23907296362E+02  0.40077961326E+02  0.51100000000E-03 0. -1.
        -11    1    3    3    0    0  0.20037763688E+01  0.66494621863E+01  0.12616213471E+01  0.70584811247E+01  0.51100000000E-03 0.  1.
        -12    1    3    3    0    0  0.24934823167E+02 -0.25079730626E+02 -0.24232402618E+02  0.42871291458E+02  0.00000000000E+00 0.  1.
</event>
<event>
 7    1  0.1654239E-015  0.9000764E+02  0.7816164E-02  0.1186339E+00
        -11   -1    0    0    0    0  0.00000000000E+00  0.00000000000E+00  0.45593999997E+02  0.45594000000E+02  0.51100000000E-03 0. -1.
         11   -1    0    0    0    0 -0.00000000000E+00 -0.00000000000E+00 -0.45593999997E+02  0.45594000000E+02  0.51100000000E-03 0.  1.
    9900012    2    1    2    0    0 -0.60446258132E+00  0.96393094100E+00 -0.31420271621E+00  0.90007635133E+02  0.89999895117E+02 0.  0.
        -12    1    1    2    0    0  0.60446258132E+00 -0.96393094100E+00  0.31420271621E+00  0.11803648665E+01  0.00000000000E+00 0.  1.
         11    1    3    3    0    0 -0.56702926045E+01  0.60044895024E+01 -0.18482070123E+00  0.82607669957E+01  0.51100000000E-03 0. -1.
        -11    1    3    3    0    0  0.16624450295E+02  0.11242840880E+02 -0.35700034143E+02  0.40954441233E+02  0.51100000000E-03 0.  1.
         12    1    3    3    0    0 -0.11558620272E+02 -0.16283399441E+02  0.35570652128E+02  0.40792426904E+02  0.00000000000E+00 0. -1.
</event>
<event>
 7    1  0.1654239E-015  0.9000785E+02  0.7816164E-02  0.1186339E+00
        -11   -1    0    0    0    0  0.00000000000E+00  0.00000000000E+00  0.45593999997E+02  0.45594000000E+02  0.51100000000E-03 0. -1.
         11   -1    0    0    0    0 -0.00000000000E+00 -0.00000000000E+00 -0.45593999997E+02  0.45594000000E+02  0.51100000000E-03 0.  1.
    9900012    2    1    2    0    0  0.16007249863E+00  0.99289605746E+00  0.61747692301E+00  0.90007854443E+02  0.90000117321E+02 0.  0.
        -12    1    1    2    0    0 -0.16007249863E+00 -0.99289605746E+00 -0.61747692301E+00  0.11801455572E+01  0.00000000000E+00 0.  1.
         11    1    3    3    0    0 -0.18581980606E+01 -0.12371293810E+01 -0.11275164871E+02  0.11494030288E+02  0.51100000000E-03 0. -1.
        -11    1    3    3    0    0 -0.28317263483E+01  0.47138841753E+01 -0.32917464091E+02  0.33373624624E+02  0.51100000000E-03 0.  1.
         12    1    3    3    0    0  0.48499969076E+01 -0.24838587368E+01  0.44810105885E+02  0.45140199530E+02  0.00000000000E+00 0. -1.
</event>
<event>
 7    1  0.1654239E-015  0.9000771E+02  0.7816164E-02  0.1186339E+00
        -11   -1    0    0    0    0  0.00000000000E+00  0.00000000000E+00  0.45593999997E+02  0.45594000000E+02  0.51100000000E-03 0.  1.
         11   -1    0    0    0    0 -0.00000000000E+00 -0.00000000000E+00 -0.45593999997E+02  0.45594000000E+02  0.51100000000E-03 0. -1.
    9900012    2    1    2    0    0  0.20218815472E+00 -0.10688932293E+01 -0.45789899466E+00  0.90007710089E+02  0.89999971062E+02 0.  0.
        -12    1    1    2    0    0 -0.20218815472E+00  0.10688932293E+01  0.45789899466E+00  0.11802899113E+01  0.00000000000E+00 0.  1.
         11    1    3    3    0    0  0.10910361831E+02 -0.29859219477E+02 -0.16889694546E+02  0.35998205027E+02  0.51100000000E-03 0. -1.
        -11    1    3    3    0    0 -0.27415149618E+00 -0.10235011202E+02 -0.40124365554E+00  0.10246541372E+02  0.51100000000E-03 0.  1.
        -12    1    3    3    0    0 -0.10434022180E+02  0.39025337450E+02  0.16833039207E+02  0.43762963689E+02  0.00000000000E+00 0.  1.
</event>
<event>
 7    1  0.1654239E-015  0.9000776E+02  0.7816164E-02  0.1186339E+00
        -11   -1    0    0    0    0  0.00000000000E+00  0.00000000000E+00  0.45593999997E+02  0.45594000000E+02  0.51100000000E-03 0.  1.
         11   -1    0    0    0    0 -0.00000000000E+00 -0.00000000000E+00 -0.45593999997E+02  0.45594000000E+02  0.51100000000E-03 0. -1.
    9900012    2    1    2    0    0  0.64295967455E+00 -0.56232283463E+00 -0.81447453185E+00  0.90007757281E+02  0.90000018877E+02 0.  0.
        -12    1    1    2    0    0 -0.64295967455E+00  0.56232283463E+00  0.81447453185E+00  0.11802427193E+01  0.00000000000E+00 0.  1.
         11    1    3    3    0    0  0.33757177594E+02 -0.16722363321E+02 -0.93221429505E+01  0.38808334460E+02  0.51100000000E-03 0. -1.
        -11    1    3    3    0    0  0.70703708402E+01  0.22194729538E+01  0.40163636690E+01  0.84289608727E+01  0.51100000000E-03 0.  1.
        -12    1    3    3    0    0 -0.40184588759E+02  0.13940567532E+02  0.44913047497E+01  0.42770461948E+02  0.00000000000E+00 0.  1.
</event>
<event>
 7    1  0.1654239E-015  0.9000769E+02  0.7816164E-02  0.1186339E+00
        -11   -1    0    0    0    0  0.00000000000E+00  0.00000000000E+00  0.45593999997E+02  0.45594000000E+02  0.51100000000E-03 0. -1.
         11   -1    0    0    0    0 -0.00000000000E+00 -0.00000000000E+00 -0.45593999997E+02  0.45594000000E+02  0.51100000000E-03 0.  1.
    9900012    2    1    2    0    0  0.16094298277E-01 -0.69141156063E-01  0.11781717761E+01  0.90007691456E+02  0.89999952183E+02 0.  0.
        -12    1    1    2    0    0 -0.16094298277E-01  0.69141156063E-01 -0.11781717761E+01  0.11803085444E+01  0.00000000000E+00 0.  1.
         11    1    3    3    0    0 -0.37629131844E+00  0.69474268771E+01 -0.57177972431E+01  0.90056393967E+01  0.51100000000E-03 0. -1.
        -11    1    3    3    0    0  0.32989570036E+02  0.19508388711E+02  0.70881451125E+01  0.38976028051E+02  0.51100000000E-03 0.  1.
         12    1    3    3    0    0 -0.32597184419E+02 -0.26524956744E+02 -0.19217609328E+00  0.42026024008E+02  0.00000000000E+00 0. -1.
</event>
<event>
 7    1  0.1654239E-015  0.9000777E+02  0.7816164E-02  0.1186339E+00
        -11   -1    0    0    0    0  0.00000000000E+00  0.00000000000E+00  0.45593999997E+02  0.45594000000E+02  0.51100000000E-03 0.  1.
         11   -1    0    0    0    0 -0.00000000000E+00 -0.00000000000E+00 -0.45593999997E+02  0.45594000000E+02  0.51100000000E-03 0. -1.
    9900012    2    1    2    0    0 -0.13078830314E+00 -0.11729253578E+01  0.90835115362E-02  0.90007770368E+02  0.90000032136E+02 0.  0.
        -12    1    1    2    0    0  0.13078830314E+00  0.11729253578E+01 -0.90835115362E-02  0.11802296325E+01  0.00000000000E+00 0.  1.
         11    1    3    3    0    0  0.27902186828E+01  0.91083125622E+00 -0.71486859041E+01  0.77277839186E+01  0.51100000000E-03 0. -1.
        -11    1    3    3    0    0 -0.31312113024E+02 -0.23220035541E+02 -0.13552956309E+02  0.41271068529E+02  0.51100000000E-03 0.  1.
         12    1    3    3    0    0  0.28391106038E+02  0.21136278926E+02  0.20710725724E+02  0.41008917920E+02  0.00000000000E+00 0. -1.
</event>
<event>
 7    1  0.1654239E-015  0.9000782E+02  0.7816164E-02  0.1186339E+00
        -11   -1    0    0    0    0  0.00000000000E+00  0.00000000000E+00  0.45593999997E+02  0.45594000000E+02  0.51100000000E-03 0.  1.
         11   -1    0    0    0    0 -0.00000000000E+00 -0.00000000000E+00 -0.45593999997E+02  0.45594000000E+02  0.51100000000E-03 0. -1.
    9900012    2    1    2    0    0  0.62871459349E+00 -0.30045158725E+00 -0.95251354434E+00  0.90007815587E+02  0.90000077953E+02 0.  0.
        -12    1    1    2    0    0 -0.62871459349E+00  0.30045158725E+00  0.95251354434E+00  0.11801844129E+01  0.00000000000E+00 0.  1.
         11    1    3    3    0    0  0.42883897607E+01  0.77162988203E+01 -0.17488386733E+01  0.89994439378E+01  0.51100000000E-03 0. -1.
        -11    1    3    3    0    0 -0.14143829599E+02  0.99715432538E+01 -0.35313612311E+02  0.39325955873E+02  0.51100000000E-03 0.  1.
         12    1    3    3    0    0  0.10484154432E+02 -0.17988293661E+02  0.36109937440E+02  0.41682415776E+02  0.00000000000E+00 0. -1.
</event>
<event>
 7    1  0.1654239E-015  0.9000773E+02  0.7816164E-02  0.1186339E+00
        -11   -1    0    0    0    0  0.00000000000E+00  0.00000000000E+00  0.45593999997E+02  0.45594000000E+02  0.51100000000E-03 0.  1.
         11   -1    0    0    0    0 -0.00000000000E+00 -0.00000000000E+00 -0.45593999997E+02  0.45594000000E+02  0.51100000000E-03 0. -1.
    9900012    2    1    2    0    0 -0.73939876120E+00 -0.59076407330E+00 -0.70520494632E+00  0.90007734464E+02  0.89999995759E+02 0.  0.
        -12    1    1    2    0    0  0.73939876120E+00  0.59076407330E+00  0.70520494632E+00  0.11802655357E+01  0.00000000000E+00 0.  1.
         11    1    3    3    0    0 -0.41468042827E+02 -0.11885117464E+02 -0.33029039971E-01  0.43137636516E+02  0.51100000000E-03 0. -1.
        -11    1    3    3    0    0  0.49915519503E+01  0.18260182043E+00 -0.73177271932E+01  0.88599134212E+01  0.51100000000E-03 0.  1.
        -12    1    3    3    0    0  0.35737092116E+02  0.11111751571E+02  0.66455512868E+01  0.38010184527E+02  0.00000000000E+00 0.  1.
</event>
<event>
 7    1  0.1654239E-015  0.9000759E+02  0.7816164E-02  0.1186339E+00
        -11   -1    0    0    0    0  0.00000000000E+00  0.00000000000E+00  0.45593999997E+02  0.45594000000E+02  0.51100000000E-03 0.  1.
         11   -1    0    0    0    0 -0.00000000000E+00 -0.00000000000E+00 -0.45593999997E+02  0.45594000000E+02  0.51100000000E-03 0. -1.
    9900012    2    1    2    0    0 -0.41854234306E+00 -0.10610346720E+01  0.30396592876E+00  0.90007590091E+02  0.89999849480E+02 0.  0.
        -12    1    1    2    0    0  0.41854234306E+00  0.10610346720E+01 -0.30396592876E+00  0.11804099093E+01  0.00000000000E+00 0.  1.
         11    1    3    3    0    0 -0.12354169004E+02 -0.39901117877E+01 -0.15249465054E+02  0.20027298085E+02  0.51100000000E-03 0. -1.
        -11    1    3    3    0    0 -0.10260923147E+02 -0.15640171127E+02 -0.17800455017E+02  0.25821651686E+02  0.51100000000E-03 0.  1.
        -12    1    3    3    0    0  0.22196549808E+02  0.18569248243E+02  0.33353886000E+02  0.44158640321E+02  0.00000000000E+00 0.  1.
</event>
<event>
 7    1  0.1654239E-015  0.9000773E+02  0.7816164E-02  0.1186339E+00
        -11   -1    0    0    0    0  0.00000000000E+00  0.00000000000E+00  0.45593999997E+02  0.45594000000E+02  0.51100000000E-03 0. -1.
         11   -1    0    0    0    0 -0.00000000000E+00 -0.00000000000E+00 -0.45593999997E+02  0.45594000000E+02  0.51100000000E-03 0.  1.
    9900012    2    1    2    0    0  0.33250756648E+00 -0.52660605850E+00  0.10025775517E+01  0.90007730128E+02  0.89999991366E+02 0.  0.
        -12    1    1    2    0    0 -0.33250756648E+00  0.52660605850E+00 -0.10025775517E+01  0.11802698716E+01  0.00000000000E+00 0.  1.
         11    1    3    3    0    0  0.40386383215E+01  0.48184376166E+01  0.74749205510E+01  0.97674140929E+01  0.51100000000E-03 0. -1.
        -11    1    3    3    0    0  0.25491599273E+02 -0.13279179805E+02  0.23890915881E+02  0.37375581757E+02  0.51100000000E-03 0.  1.
         12    1    3    3    0    0 -0.29197730028E+02  0.79341361298E+01 -0.30363258881E+02  0.42864734278E+02  0.00000000000E+00 0. -1.
</event>
<event>
 7    1  0.1654239E-015  0.9000764E+02  0.7816164E-02  0.1186339E+00
        -11   -1    0    0    0    0  0.00000000000E+00  0.00000000000E+00  0.45593999997E+02  0.45594000000E+02  0.51100000000E-03 0.  1.
         11   -1    0    0    0    0 -0.00000000000E+00 -0.00000000000E+00 -0.45593999997E+02  0.45594000000E+02  0.51100000000E-03 0. -1.
    9900012    2    1    2    0    0  0.56959103172E+00 -0.49356680704E+00 -0.90841274913E+00  0.90007637404E+02  0.89999897417E+02 0.  0.
        -12    1    1    2    0    0 -0.56959103172E+00  0.49356680704E+00  0.90841274913E+00  0.11803625965E+01  0.00000000000E+00 0.  1.
         11    1    3    3    0    0  0.24367336007E+02  0.18276220415E+02 -0.21079630777E+02  0.37042382897E+02  0.51100000000E-03 0. -1.
        -11    1    3    3    0    0 -0.25508152021E+01  0.68058787950E+01 -0.69506278918E+01  0.10056732706E+02  0.51100000000E-03 0.  1.
        -12    1    3    3    0    0 -0.21246929773E+02 -0.25575666017E+02  0.27121845920E+02  0.42908521800E+02  0.00000000000E+00 0.  1.
</event>
<event>
 7    1  0.1654239E-015  0.9000778E+02  0.7816164E-02  0.1186339E+00
        -11   -1    0    0    0    0  0.00000000000E+00  0.00000000000E+00  0.45593999997E+02  0.45594000000E+02  0.51100000000E-03 0. -1.
         11   -1    0    0    0    0 -0.00000000000E+00 -0.00000000000E+00 -0.45593999997E+02  0.45594000000E+02  0.51100000000E-03 0.  1.
    9900012    2    1    2    0    0  0.88179713543E-01  0.11769196370E+01 -0.18987176028E-03  0.90007781575E+02  0.90000043492E+02 0.  0.
        -12    1    1    2    0    0 -0.88179713543E-01 -0.11769196370E+01  0.18987176028E-03  0.11802184247E+01  0.00000000000E+00 0.  1.
         11    1    3    3    0    0 -0.67703530507E+01  0.23747184248E+01 -0.10599398377E+02  0.12799383354E+02  0.51100000000E-03 0. -1.
        -11    1    3    3    0    0  0.37092748258E+02 -0.18108994267E+02  0.11195630216E+01  0.41292385113E+02  0.51100000000E-03 0.  1.
         12    1    3    3    0    0 -0.30234215494E+02  0.16911195479E+02  0.94796454835E+01  0.35916013108E+02  0.00000000000E+00 0. -1.
</event>
<event>
 7    1  0.1654239E-015  0.9000772E+02  0.7816164E-02  0.1186339E+00
        -11   -1    0    0    0    0  0.00000000000E+00  0.00000000000E+00  0.45593999997E+02  0.45594000000E+02  0.51100000000E-03 0. -1.
         11   -1    0    0    0    0 -0.00000000000E+00 -0.00000000000E+00 -0.45593999997E+02  0.45594000000E+02  0.51100000000E-03 0.  1.
    9900012    2    1    2    0    0  0.36753152514E-01  0.35306438660E-02  0.11797047325E+01  0.90007717612E+02  0.89999978684E+02 0.  0.
        -12    1    1    2    0    0 -0.36753152514E-01 -0.35306438660E-02 -0.11797047325E+01  0.11802823880E+01  0.00000000000E+00 0.  1.
         11    1    3    3    0    0  0.39772316816E+02  0.23763430440E+01 -0.10749804415E+02  0.41267935330E+02  0.51100000000E-03 0. -1.
        -11    1    3    3    0    0 -0.82659308502E+00  0.42419467216E+01  0.79803869041E+01  0.90754583089E+01  0.51100000000E-03 0.  1.
        -12    1    3    3    0    0 -0.38908970579E+02 -0.66147591217E+01  0.39491222437E+01  0.39664323973E+02  0.00000000000E+00 0.  1.
</event>
<event>
 7    1  0.1654239E-015  0.9000788E+02  0.7816164E-02  0.1186339E+00
        -11   -1    0    0    0    0  0.00000000000E+00  0.00000000000E+00  0.45593999997E+02  0.45594000000E+02  0.51100000000E-03 0.  1.
         11   -1    0    0    0    0 -0.00000000000E+00 -0.00000000000E+00 -0.45593999997E+02  0.45594000000E+02  0.51100000000E-03 0. -1.
    9900012    2    1    2    0    0  0.76836025740E-02 -0.97079077688E-01 -0.11760941317E+01  0.90007881026E+02  0.90000144256E+02 0.  0.
        -12    1    1    2    0    0 -0.76836025740E-02  0.97079077688E-01  0.11760941317E+01  0.11801189735E+01  0.00000000000E+00 0.  1.
         11    1    3    3    0    0 -0.48778925396E+00 -0.32567126309E+01  0.86383242693E+01  0.92447153531E+01  0.51100000000E-03 0. -1.
        -11    1    3    3    0    0 -0.16631855370E+02 -0.32205787749E+02  0.87742305235E+01  0.37293679077E+02  0.51100000000E-03 0.  1.
         12    1    3    3    0    0  0.17127328226E+02  0.35365421303E+02 -0.18588648925E+02  0.43469486596E+02  0.00000000000E+00 0. -1.
</event>
<event>
 7    1  0.1654239E-015  0.9000789E+02  0.7816164E-02  0.1186339E+00
        -11   -1    0    0    0    0  0.00000000000E+00  0.00000000000E+00  0.45593999997E+02  0.45594000000E+02  0.51100000000E-03 0.  1.
         11   -1    0    0    0    0 -0.00000000000E+00 -0.00000000000E+00 -0.45593999997E+02  0.45594000000E+02  0.51100000000E-03 0. -1.
    9900012    2    1    2    0    0 -0.43296983897E+00  0.28027766251E-02 -0.10978138625E+01  0.90007887288E+02  0.90000150600E+02 0.  0.
        -12    1    1    2    0    0  0.43296983897E+00 -0.28027766251E-02  0.10978138625E+01  0.11801127123E+01  0.00000000000E+00 0.  1.
         11    1    3    3    0    0 -0.87441989622E+01  0.22746943980E+00  0.33716808755E+01  0.93744861205E+01  0.51100000000E-03 0. -1.
        -11    1    3    3    0    0 -0.20114154388E+02  0.99268005468E+01  0.28280355549E+02  0.36095693456E+02  0.51100000000E-03 0.  1.
         12    1    3    3    0    0  0.28425383511E+02 -0.10151467210E+02 -0.32749850287E+02  0.44537707711E+02  0.00000000000E+00 0. -1.
</event>
<event>
 7    1  0.1654239E-015  0.9000771E+02  0.7816164E-02  0.1186339E+00
        -11   -1    0    0    0    0  0.00000000000E+00  0.00000000000E+00  0.45593999997E+02  0.45594000000E+02  0.51100000000E-03 0. -1.
         11   -1    0    0    0    0 -0.00000000000E+00 -0.00000000000E+00 -0.45593999997E+02  0.45594000000E+02  0.51100000000E-03 0.  1.
    9900012    2    1    2    0    0  0.11770489981E+01 -0.67361406575E-01 -0.55727340241E-01  0.90007708748E+02  0.89999969703E+02 0.  0.
        -12    1    1    2    0    0 -0.11770489981E+01  0.67361406575E-01  0.55727340241E-01  0.11802912520E+01  0.00000000000E+00 0.  1.
         11    1    3    3    0    0  0.30080033572E+02 -0.27430354396E+01  0.31960580501E+02  0.43975122164E+02  0.51100000000E-03 0. -1.
        -11    1    3    3    0    0 -0.54889626275E+01 -0.59754060128E+01 -0.78223829190E+01  0.11270486349E+02  0.51100000000E-03 0.  1.
        -12    1    3    3    0    0 -0.23414021946E+02  0.86510800458E+01 -0.24193924922E+02  0.34762100236E+02  0.00000000000E+00 0.  1.
</event>
<event>
 7    1  0.1654239E-015  0.9000778E+02  0.7816164E-02  0.1186339E+00
        -11   -1    0    0    0    0  0.00000000000E+00  0.00000000000E+00  0.45593999997E+02  0.45594000000E+02  0.51100000000E-03 0.  1.
         11   -1    0    0    0    0 -0.00000000000E+00 -0.00000000000E+00 -0.45593999997E+02  0.45594000000E+02  0.51100000000E-03 0. -1.
    9900012    2    1    2    0    0 -0.17546779849E+00  0.92188070115E+00 -0.71572772247E+00  0.90007780042E+02  0.90000041939E+02 0.  0.
        -12    1    1    2    0    0  0.17546779849E+00 -0.92188070115E+00  0.71572772247E+00  0.11802199575E+01  0.00000000000E+00 0.  1.
         11    1    3    3    0    0 -0.91042444801E+01 -0.66653095345E+01 -0.10528391373E+02  0.15432454241E+02  0.51100000000E-03 0. -1.
        -11    1    3    3    0    0 -0.25420310628E+01  0.38865210712E+02 -0.25712192526E+01  0.39033033373E+02  0.51100000000E-03 0.  1.
        -12    1    3    3    0    0  0.11470807744E+02 -0.31278020476E+02  0.12383882903E+02  0.35542292428E+02  0.00000000000E+00 0.  1.
</event>
<event>
 7    1  0.1654239E-015  0.9000770E+02  0.7816164E-02  0.1186339E+00
        -11   -1    0    0    0    0  0.00000000000E+00  0.00000000000E+00  0.45593999997E+02  0.45594000000E+02  0.51100000000E-03 0. -1.
         11   -1    0    0    0    0 -0.00000000000E+00 -0.00000000000E+00 -0.45593999997E+02  0.45594000000E+02  0.51100000000E-03 0.  1.
    9900012    2    1    2    0    0  0.11363504404E+01  0.73196508718E-01  0.31058024590E+00  0.90007699131E+02  0.89999959960E+02 0.  0.
        -12    1    1    2    0    0 -0.11363504404E+01 -0.73196508718E-01 -0.31058024590E+00  0.11803008690E+01  0.00000000000E+00 0.  1.
         11    1    3    3    0    0 -0.61123035882E+01  0.39819655006E+01  0.66038611668E+01  0.98400857199E+01  0.51100000000E-03 0. -1.
        -11    1    3    3    0    0 -0.45045025980E+01  0.18741145632E+02 -0.36103929367E+02  0.40926944661E+02  0.51100000000E-03 0.  1.
         12    1    3    3    0    0  0.11753156627E+02 -0.22649914624E+02  0.29810648446E+02  0.39240668750E+02  0.00000000000E+00 0. -1.
</event>
<event>
 7    1  0.1654239E-015  0.9000778E+02  0.7816164E-02  0.1186339E+00
        -11   -1    0    0    0    0  0.00000000000E+00  0.00000000000E+00  0.45593999997E+02  0.45594000000E+02  0.51100000000E-03 0.  1.
         11   -1    0    0    0    0 -0.00000000000E+00 -0.00000000000E+00 -0.45593999997E+02  0.45594000000E+02  0.51100000000E-03 0. -1.
    9900012    2    1    2    0    0  0.44184557047E-01 -0.74525832293E+00 -0.91408984582E+00  0.90007778627E+02  0.90000040505E+02 0.  0.
        -12    1    1    2    0    0 -0.44184557047E-01  0.74525832293E+00  0.91408984582E+00  0.11802213730E+01  0.00000000000E+00 0.  1.
         11    1    3    3    0    0 -0.28893123059E+02  0.61603569836E+01 -0.23570206501E+02  0.37793083931E+02  0.51100000000E-03 0. -1.
        -11    1    3    3    0    0 -0.17332305655E+01  0.44023289104E+01 -0.67518230675E+01  0.82444953166E+01  0.51100000000E-03 0.  1.
        -12    1    3    3    0    0  0.30670538181E+02 -0.11307944217E+02  0.29407939722E+02  0.43970199379E+02  0.00000000000E+00 0.  1.
</event>
<event>
 7    1  0.1654239E-015  0.9000777E+02  0.7816164E-02  0.1186339E+00
        -11   -1    0    0    0    0  0.00000000000E+00  0.00000000000E+00  0.45593999997E+02  0.45594000000E+02  0.51100000000E-03 0.  1.
         11   -1    0    0    0    0 -0.00000000000E+00 -0.00000000000E+00 -0.45593999997E+02  0.45594000000E+02  0.51100000000E-03 0. -1.
    9900012    2    1    2    0    0  0.49768107354E+00 -0.73612462606E+00 -0.77676912747E+00  0.90007772821E+02  0.90000034622E+02 0.  0.
        -12    1    1    2    0    0 -0.49768107354E+00  0.73612462606E+00  0.77676912747E+00  0.11802271787E+01  0.00000000000E+00 0.  1.
         11    1    3    3    0    0  0.36148174152E+01  0.91088845233E+01  0.17309759829E+01  0.99516310381E+01  0.51100000000E-03 0. -1.
        -11    1    3    3    0    0  0.25085623970E+02  0.22089192241E+02  0.11278044599E+02  0.35276270127E+02  0.51100000000E-03 0.  1.
         12    1    3    3    0    0 -0.28202760311E+02 -0.31934201391E+02 -0.13785789709E+02  0.44779871656E+02  0.00000000000E+00 0. -1.
</event>
<event>
 7    1  0.1654239E-015  0.9000782E+02  0.7816164E-02  0.1186339E+00
        -11   -1    0    0    0    0  0.00000000000E+00  0.00000000000E+00  0.45593999997E+02  0.45594000000E+02  0.51100000000E-03 0.  1.
         11   -1    0    0    0    0 -0.00000000000E+00 -0.00000000000E+00 -0.45593999997E+02  0.45594000000E+02  0.51100000000E-03 0. -1.
    9900012    2    1    2    0    0  0.85873814731E+00  0.80428875696E+00 -0.92210613355E-01  0.90007824417E+02  0.90000086899E+02 0.  0.
        -12    1    1    2    0    0 -0.85873814731E+00 -0.80428875696E+00  0.92210613355E-01  0.11801755833E+01  0.00000000000E+00 0.  1.
         11    1    3    3    0    0 -0.40886294753E+02 -0.34427804974E+01  0.78755643756E+01  0.41779975474E+02  0.51100000000E-03 0. -1.
        -11    1    3    3    0    0  0.69708658448E+01 -0.48520765678E+01  0.51864254706E+01  0.99516142946E+01  0.51100000000E-03 0.  1.
        -12    1    3    3    0    0  0.34774167055E+02  0.90991458222E+01 -0.13154200460E+02  0.38276234648E+02  0.00000000000E+00 0.  1.
</event>
<event>
 7    1  0.1654239E-015  0.9000766E+02  0.7816164E-02  0.1186339E+00
        -11   -1    0    0    0    0  0.00000000000E+00  0.00000000000E+00  0.45593999997E+02  0.45594000000E+02  0.51100000000E-03 0. -1.
         11   -1    0    0    0    0 -0.00000000000E+00 -0.00000000000E+00 -0.45593999997E+02  0.45594000000E+02  0.51100000000E-03 0.  1.
    9900012    2    1    2    0    0  0.42748965784E-01 -0.32478682302E+00  0.11339676322E+01  0.90007662529E+02  0.89999922874E+02 0.  0.
        -12    1    1    2    0    0 -0.42748965784E-01  0.32478682302E+00 -0.11339676322E+01  0.11803374710E+01  0.00000000000E+00 0.  1.
         11    1    3    3    0    0  0.98389126433E+01 -0.22381474999E+01  0.11473648816E+01  0.10155291855E+02  0.51100000000E-03 0. -1.
        -11    1    3    3    0    0  0.20855852404E+02  0.15642850550E+02  0.26415873777E+02  0.37114198637E+02  0.51100000000E-03 0.  1.
         12    1    3    3    0    0 -0.30652016082E+02 -0.13729489873E+02 -0.26429271026E+02  0.42738172036E+02  0.00000000000E+00 0. -1.
</event>
<event>
 7    1  0.1654239E-015  0.9000764E+02  0.7816164E-02  0.1186339E+00
        -11   -1    0    0    0    0  0.00000000000E+00  0.00000000000E+00  0.45593999997E+02  0.45594000000E+02  0.51100000000E-03 0. -1.
         11   -1    0    0    0    0 -0.00000000000E+00 -0.00000000000E+00 -0.45593999997E+02  0.45594000000E+02  0.51100000000E-03 0.  1.
    9900012    2    1    2    0    0 -0.50950577221E+00  0.65143515137E+00  0.84219745077E+00  0.90007635465E+02  0.89999895454E+02 0.  0.
        -12    1    1    2    0    0  0.50950577221E+00 -0.65143515137E+00 -0.84219745077E+00  0.11803645346E+01  0.00000000000E+00 0.  1.
         11    1    3    3    0    0 -0.16307964592E+01  0.35300891243E+02 -0.64028990680E+01  0.35913918421E+02  0.51100000000E-03 0. -1.
        -11    1    3    3    0    0 -0.14909116525E+02 -0.57251706512E+01 -0.77872587406E+01  0.17767969313E+02  0.51100000000E-03 0.  1.
        -12    1    3    3    0    0  0.16030407212E+02 -0.28924285440E+02  0.15032355259E+02  0.36325747732E+02  0.00000000000E+00 0.  1.
</event>
<event>
 7    1  0.1654239E-015  0.9000832E+02  0.7816164E-02  0.1186338E+00
        -11   -1    0    0    0    0  0.00000000000E+00  0.00000000000E+00  0.45593999997E+02  0.45594000000E+02  0.51100000000E-03 0.  1.
         11   -1    0    0    0    0 -0.00000000000E+00 -0.00000000000E+00 -0.45593999997E+02  0.45594000000E+02  0.51100000000E-03 0. -1.
    9900012    2    1    2    0    0 -0.71624657291E+00 -0.81659512389E+00 -0.46022867192E+00  0.90008319035E+02  0.90000588044E+02 0.  0.
        -12    1    1    2    0    0  0.71624657291E+00  0.81659512389E+00  0.46022867192E+00  0.11796809654E+01  0.00000000000E+00 0.  1.
         11    1    3    3    0    0  0.28131399273E+01 -0.50234938575E+01  0.49952878491E+01  0.76224764837E+01  0.51100000000E-03 0. -1.
        -11    1    3    3    0    0  0.15478883229E+02 -0.19594213986E+01  0.34415597826E+02  0.37787147712E+02  0.51100000000E-03 0.  1.
         12    1    3    3    0    0 -0.19008269729E+02  0.61663201322E+01 -0.39871114347E+02  0.44598694839E+02  0.00000000000E+00 0. -1.
</event>
<event>
 7    1  0.1654239E-015  0.9000781E+02  0.7816164E-02  0.1186339E+00
        -11   -1    0    0    0    0  0.00000000000E+00  0.00000000000E+00  0.45593999997E+02  0.45594000000E+02  0.51100000000E-03 0.  1.
         11   -1    0    0    0    0 -0.00000000000E+00 -0.00000000000E+00 -0.45593999997E+02  0.45594000000E+02  0.51100000000E-03 0. -1.
    9900012    2    1    2    0    0 -0.38133375176E+00  0.87859778564E+00 -0.68956518415E+00  0.90007809489E+02  0.90000071774E+02 0.  0.
        -12    1    1    2    0    0  0.38133375176E+00 -0.87859778564E+00  0.68956518415E+00  0.11801905110E+01  0.00000000000E+00 0.  1.
         11    1    3    3    0    0  0.34272839670E+01 -0.57016445864E+01  0.52676995354E+01  0.84854985143E+01  0.51100000000E-03 0. -1.
        -11    1    3    3    0    0 -0.23494918004E+02 -0.26755416288E+02  0.13640069833E+02  0.38130237058E+02  0.51100000000E-03 0.  1.
         12    1    3    3    0    0  0.19686300285E+02  0.33335658660E+02 -0.19597334553E+02  0.43392073917E+02  0.00000000000E+00 0. -1.
</event>
<event>
 7    1  0.1654239E-015  0.9000782E+02  0.7816164E-02  0.1186339E+00
        -11   -1    0    0    0    0  0.00000000000E+00  0.00000000000E+00  0.45593999997E+02  0.45594000000E+02  0.51100000000E-03 0.  1.
         11   -1    0    0    0    0 -0.00000000000E+00 -0.00000000000E+00 -0.45593999997E+02  0.45594000000E+02  0.51100000000E-03 0. -1.
    9900012    2    1    2    0    0  0.28749091057E-01  0.11737056950E+01  0.12008182000E+00  0.90007817297E+02  0.90000079685E+02 0.  0.
        -12    1    1    2    0    0 -0.28749091057E-01 -0.11737056950E+01 -0.12008182000E+00  0.11801827029E+01  0.00000000000E+00 0.  1.
         11    1    3    3    0    0 -0.93294350466E+01 -0.21435806163E+00  0.17737886256E+01  0.94989806830E+01  0.51100000000E-03 0. -1.
        -11    1    3    3    0    0 -0.22835820295E+02 -0.25216287885E+02 -0.14254262363E+02  0.36885225484E+02  0.51100000000E-03 0.  1.
         12    1    3    3    0    0  0.32194004433E+02  0.26604351641E+02  0.12600555558E+02  0.43623611130E+02  0.00000000000E+00 0. -1.
</event>
<event>
 7    1  0.1654239E-015  0.9000775E+02  0.7816164E-02  0.1186339E+00
        -11   -1    0    0    0    0  0.00000000000E+00  0.00000000000E+00  0.45593999997E+02  0.45594000000E+02  0.51100000000E-03 0.  1.
         11   -1    0    0    0    0 -0.00000000000E+00 -0.00000000000E+00 -0.45593999997E+02  0.45594000000E+02  0.51100000000E-03 0. -1.
    9900012    2    1    2    0    0 -0.66648696964E+00  0.58917576866E+00 -0.77566969889E+00  0.90007747294E+02  0.90000008759E+02 0.  0.
        -12    1    1    2    0    0  0.66648696964E+00 -0.58917576866E+00  0.77566969889E+00  0.11802527055E+01  0.00000000000E+00 0.  1.
         11    1    3    3    0    0  0.18278570767E+02  0.15597354565E+02 -0.30506246823E+02  0.38833165132E+02  0.51100000000E-03 0. -1.
        -11    1    3    3    0    0  0.51062238247E+00 -0.28134552103E+01 -0.71666856422E+01  0.77160643331E+01  0.51100000000E-03 0.  1.
        -12    1    3    3    0    0 -0.19455680119E+02 -0.12194723586E+02  0.36897262766E+02  0.43458517829E+02  0.00000000000E+00 0.  1.
</event>
<event>
 7    1  0.1654239E-015  0.9000770E+02  0.7816164E-02  0.1186339E+00
        -11   -1    0    0    0    0  0.00000000000E+00  0.00000000000E+00  0.45593999997E+02  0.45594000000E+02  0.51100000000E-03 0. -1.
         11   -1    0    0    0    0 -0.00000000000E+00 -0.00000000000E+00 -0.45593999997E+02  0.45594000000E+02  0.51100000000E-03 0.  1.
    9900012    2    1    2    0    0 -0.59209703142E-01  0.10027792914E+01 -0.61971212750E+00  0.90007696981E+02  0.89999957781E+02 0.  0.
        -12    1    1    2    0    0  0.59209703142E-01 -0.10027792914E+01  0.61971212750E+00  0.11803030192E+01  0.00000000000E+00 0.  1.
         11    1    3    3    0    0  0.91697695473E+01 -0.16867983648E+01 -0.15027898977E+00  0.93248349213E+01  0.51100000000E-03 0. -1.
        -11    1    3    3    0    0  0.25949855093E+02 -0.22486137712E+02  0.10771831477E+02  0.35986854853E+02  0.51100000000E-03 0.  1.
         12    1    3    3    0    0 -0.35178834343E+02  0.25175715369E+02 -0.11241264615E+02  0.44696007207E+02  0.00000000000E+00 0. -1.
</event>
<event>
 7    1  0.2329981E-015  0.9000778E+02  0.7816164E-02  0.1186339E+00
        -11   -1    0    0    0    0  0.00000000000E+00  0.00000000000E+00  0.45593999997E+02  0.45594000000E+02  0.51100000000E-03 0.  1.
         11   -1    0    0    0    0 -0.00000000000E+00 -0.00000000000E+00 -0.45593999997E+02  0.45594000000E+02  0.51100000000E-03 0. -1.
    9900012    2    1    2    0    0 -0.11332281382E+01 -0.84766220199E-01 -0.31861974659E+00  0.90007783974E+02  0.90000045922E+02 0.  0.
        -12    1    1    2    0    0  0.11332281382E+01  0.84766220199E-01  0.31861974659E+00  0.11802160261E+01  0.00000000000E+00 0.  1.
         11    1    3    3    0    0  0.68624420132E+01  0.24140462829E+01 -0.49401114164E+01  0.87934879831E+01  0.51100000000E-03 0. -1.
        -11    1    3    3    0    0  0.17398827180E+02  0.18884129889E+02  0.29955093901E+02  0.39454241848E+02  0.51100000000E-03 0.  1.
         12    1    3    3    0    0 -0.25394497332E+02 -0.21382942392E+02 -0.25333602231E+02  0.41760054143E+02  0.00000000000E+00 0. -1.
</event>
<event>
 7    1  0.1654239E-015  0.9000771E+02  0.7816164E-02  0.1186339E+00
        -11   -1    0    0    0    0  0.00000000000E+00  0.00000000000E+00  0.45593999997E+02  0.45594000000E+02  0.51100000000E-03 0. -1.
         11   -1    0    0    0    0 -0.00000000000E+00 -0.00000000000E+00 -0.45593999997E+02  0.45594000000E+02  0.51100000000E-03 0.  1.
    9900012    2    1    2    0    0 -0.23709326301E+00 -0.11187088465E+01  0.29215468732E+00  0.90007713145E+02  0.89999974159E+02 0.  0.
        -12    1    1    2    0    0  0.23709326301E+00  0.11187088465E+01 -0.29215468732E+00  0.11802868550E+01  0.00000000000E+00 0.  1.
         11    1    3    3    0    0  0.97524824337E+01  0.24986807488E+01  0.30536422373E+01  0.10520411127E+02  0.51100000000E-03 0. -1.
        -11    1    3    3    0    0  0.28210759798E+02 -0.10256334196E+02 -0.21005061439E+02  0.36636757032E+02  0.51100000000E-03 0.  1.
         12    1    3    3    0    0 -0.38200335495E+02  0.66389446003E+01  0.18243573889E+02  0.42850544986E+02  0.00000000000E+00 0. -1.
</event>
<event>
 7    1  0.1654239E-015  0.9000775E+02  0.7816164E-02  0.1186339E+00
        -11   -1    0    0    0    0  0.00000000000E+00  0.00000000000E+00  0.45593999997E+02  0.45594000000E+02  0.51100000000E-03 0.  1.
         11   -1    0    0    0    0 -0.00000000000E+00 -0.00000000000E+00 -0.45593999997E+02  0.45594000000E+02  0.51100000000E-03 0. -1.
    9900012    2    1    2    0    0 -0.76779433464E+00  0.60982183446E+00 -0.65696946602E+00  0.90007745922E+02  0.90000007368E+02 0.  0.
        -12    1    1    2    0    0  0.76779433464E+00 -0.60982183446E+00  0.65696946602E+00  0.11802540783E+01  0.00000000000E+00 0.  1.
         11    1    3    3    0    0 -0.12097779396E+02  0.49750758439E+01  0.10050919415E+01  0.13119369498E+02  0.51100000000E-03 0. -1.
        -11    1    3    3    0    0 -0.15581583516E+02  0.29407652206E+02  0.31887357013E+01  0.33432974572E+02  0.51100000000E-03 0.  1.
         12    1    3    3    0    0  0.26911568577E+02 -0.33772906215E+02 -0.48507971088E+01  0.43455401851E+02  0.00000000000E+00 0. -1.
</event>
<event>
 7    1  0.1654239E-015  0.9000775E+02  0.7816164E-02  0.1186339E+00
        -11   -1    0    0    0    0  0.00000000000E+00  0.00000000000E+00  0.45593999997E+02  0.45594000000E+02  0.51100000000E-03 0. -1.
         11   -1    0    0    0    0 -0.00000000000E+00 -0.00000000000E+00 -0.45593999997E+02  0.45594000000E+02  0.51100000000E-03 0.  1.
    9900012    2    1    2    0    0  0.25046251960E+00 -0.11409823938E+01 -0.16858360273E+00  0.90007748871E+02  0.90000010356E+02 0.  0.
        -12    1    1    2    0    0 -0.25046251960E+00  0.11409823938E+01  0.16858360273E+00  0.11802511291E+01  0.00000000000E+00 0.  1.
         11    1    3    3    0    0 -0.85581629840E+00  0.92883794082E+01  0.10501938733E+01  0.93866565400E+01  0.51100000000E-03 0. -1.
        -11    1    3    3    0    0 -0.26267657120E+01  0.23474258816E+02 -0.28448548315E+02  0.36976487482E+02  0.51100000000E-03 0.  1.
         12    1    3    3    0    0  0.37330445300E+01 -0.33903620618E+02  0.27229770839E+02  0.43644604849E+02  0.00000000000E+00 0. -1.
</event>
<event>
 7    1  0.1654239E-015  0.9000777E+02  0.7816164E-02  0.1186339E+00
        -11   -1    0    0    0    0  0.00000000000E+00  0.00000000000E+00  0.45593999997E+02  0.45594000000E+02  0.51100000000E-03 0.  1.
         11   -1    0    0    0    0 -0.00000000000E+00 -0.00000000000E+00 -0.45593999997E+02  0.45594000000E+02  0.51100000000E-03 0. -1.
    9900012    2    1    2    0    0  0.41402950715E+00  0.29712282562E+00 -0.10645337726E+01  0.90007773514E+02  0.90000035324E+02 0.  0.
        -12    1    1    2    0    0 -0.41402950715E+00 -0.29712282562E+00  0.10645337726E+01  0.11802264865E+01  0.00000000000E+00 0.  1.
         11    1    3    3    0    0  0.15551155208E+02 -0.24049130116E+02 -0.34121617049E+02  0.44547545813E+02  0.51100000000E-03 0. -1.
        -11    1    3    3    0    0 -0.40503092231E+01  0.41388993651E+01  0.84661788003E+00  0.58525425973E+01  0.51100000000E-03 0.  1.
        -12    1    3    3    0    0 -0.11086816478E+02  0.20207353577E+02  0.32210465396E+02  0.39607685103E+02  0.00000000000E+00 0.  1.
</event>
<event>
 7    1  0.1654239E-015  0.9000775E+02  0.7816164E-02  0.1186339E+00
        -11   -1    0    0    0    0  0.00000000000E+00  0.00000000000E+00  0.45593999997E+02  0.45594000000E+02  0.51100000000E-03 0.  1.
         11   -1    0    0    0    0 -0.00000000000E+00 -0.00000000000E+00 -0.45593999997E+02  0.45594000000E+02  0.51100000000E-03 0. -1.
    9900012    2    1    2    0    0  0.19868541493E+00 -0.94149934193E+00  0.68344508001E+00  0.90007748297E+02  0.90000009775E+02 0.  0.
        -12    1    1    2    0    0 -0.19868541493E+00  0.94149934193E+00 -0.68344508001E+00  0.11802517030E+01  0.00000000000E+00 0.  1.
         11    1    3    3    0    0 -0.19866840948E+02 -0.25423748695E+02  0.15499572662E+02  0.35795182915E+02  0.51100000000E-03 0. -1.
        -11    1    3    3    0    0 -0.35398503283E+01  0.25656676734E+00  0.11066306915E+02  0.11621510910E+02  0.51100000000E-03 0.  1.
        -12    1    3    3    0    0  0.23605376691E+02  0.24225682586E+02 -0.25882434497E+02  0.42591054471E+02  0.00000000000E+00 0.  1.
</event>
<event>
 7    1  0.1654239E-015  0.9000784E+02  0.7816164E-02  0.1186339E+00
        -11   -1    0    0    0    0  0.00000000000E+00  0.00000000000E+00  0.45593999997E+02  0.45594000000E+02  0.51100000000E-03 0.  1.
         11   -1    0    0    0    0 -0.00000000000E+00 -0.00000000000E+00 -0.45593999997E+02  0.45594000000E+02  0.51100000000E-03 0. -1.
    9900012    2    1    2    0    0  0.66564558919E+00  0.95993889574E+00 -0.16794320151E+00  0.90007842530E+02  0.90000105252E+02 0.  0.
        -12    1    1    2    0    0 -0.66564558919E+00 -0.95993889574E+00  0.16794320151E+00  0.11801574695E+01  0.00000000000E+00 0.  1.
         11    1    3    3    0    0 -0.90505674103E+01 -0.45257809500E+01  0.38946699107E+01  0.10842689594E+02  0.51100000000E-03 0. -1.
        -11    1    3    3    0    0 -0.22525968055E+02  0.30735533147E+02 -0.22369795631E+01  0.38171930951E+02  0.51100000000E-03 0.  1.
         12    1    3    3    0    0  0.32242181055E+02 -0.25249813302E+02 -0.18256335491E+01  0.40993221986E+02  0.00000000000E+00 0. -1.
</event>
<event>
 7    1  0.1654239E-015  0.9000771E+02  0.7816164E-02  0.1186339E+00
        -11   -1    0    0    0    0  0.00000000000E+00  0.00000000000E+00  0.45593999997E+02  0.45594000000E+02  0.51100000000E-03 0.  1.
         11   -1    0    0    0    0 -0.00000000000E+00 -0.00000000000E+00 -0.45593999997E+02  0.45594000000E+02  0.51100000000E-03 0. -1.
    9900012    2    1    2    0    0  0.50110567485E+00 -0.10574491789E+01 -0.15423936997E+00  0.90007705356E+02  0.89999966267E+02 0.  0.
        -12    1    1    2    0    0 -0.50110567485E+00  0.10574491789E+01  0.15423936997E+00  0.11802946439E+01  0.00000000000E+00 0.  1.
         11    1    3    3    0    0  0.21766610478E+01  0.13483120363E+01  0.74129576730E+01  0.78426870642E+01  0.51100000000E-03 0. -1.
        -11    1    3    3    0    0 -0.30387355419E+02  0.25994173360E+02  0.39148290572E+01  0.40179774823E+02  0.51100000000E-03 0.  1.
         12    1    3    3    0    0  0.28711800046E+02 -0.28399934575E+02 -0.11482026100E+02  0.41985243469E+02  0.00000000000E+00 0. -1.
</event>
<event>
 7    1  0.1654239E-015  0.9000787E+02  0.7816164E-02  0.1186339E+00
        -11   -1    0    0    0    0  0.00000000000E+00  0.00000000000E+00  0.45593999997E+02  0.45594000000E+02  0.51100000000E-03 0. -1.
         11   -1    0    0    0    0 -0.00000000000E+00 -0.00000000000E+00 -0.45593999997E+02  0.45594000000E+02  0.51100000000E-03 0.  1.
    9900012    2    1    2    0    0  0.47659853414E+00  0.18079443538E+00  0.10643658240E+01  0.90007869754E+02  0.90000132835E+02 0.  0.
        -12    1    1    2    0    0 -0.47659853414E+00 -0.18079443538E+00 -0.10643658240E+01  0.11801302461E+01  0.00000000000E+00 0.  1.
         11    1    3    3    0    0 -0.16567484209E+02 -0.22424009547E+02  0.27544235279E+02  0.39191869496E+02  0.51100000000E-03 0. -1.
        -11    1    3    3    0    0 -0.70786726997E+01  0.51803901481E+01  0.26606597607E+01  0.91664147789E+01  0.51100000000E-03 0.  1.
        -12    1    3    3    0    0  0.24122755443E+02  0.17424413834E+02 -0.29140529216E+02  0.41649585479E+02  0.00000000000E+00 0.  1.
</event>
<event>
 7    1  0.1654239E-015  0.9000765E+02  0.7816164E-02  0.1186339E+00
        -11   -1    0    0    0    0  0.00000000000E+00  0.00000000000E+00  0.45593999997E+02  0.45594000000E+02  0.51100000000E-03 0.  1.
         11   -1    0    0    0    0 -0.00000000000E+00 -0.00000000000E+00 -0.45593999997E+02  0.45594000000E+02  0.51100000000E-03 0. -1.
    9900012    2    1    2    0    0  0.31433102704E+00  0.24572683678E+00 -0.11108738988E+01  0.90007649844E+02  0.89999910021E+02 0.  0.
        -12    1    1    2    0    0 -0.31433102704E+00 -0.24572683678E+00  0.11108738988E+01  0.11803501565E+01  0.00000000000E+00 0.  1.
         11    1    3    3    0    0  0.18604424355E+02  0.18419953265E+02 -0.19724997789E+02  0.32779487823E+02  0.51100000000E-03 0. -1.
        -11    1    3    3    0    0 -0.58789325175E+01  0.57687046521E+01 -0.13176821141E+02  0.15539254054E+02  0.51100000000E-03 0.  1.
        -12    1    3    3    0    0 -0.12411160811E+02 -0.23942931081E+02  0.31790945032E+02  0.41688907966E+02  0.00000000000E+00 0.  1.
</event>
<event>
 7    1  0.1654239E-015  0.9000775E+02  0.7816164E-02  0.1186339E+00
        -11   -1    0    0    0    0  0.00000000000E+00  0.00000000000E+00  0.45593999997E+02  0.45594000000E+02  0.51100000000E-03 0.  1.
         11   -1    0    0    0    0 -0.00000000000E+00 -0.00000000000E+00 -0.45593999997E+02  0.45594000000E+02  0.51100000000E-03 0. -1.
    9900012    2    1    2    0    0 -0.65889449047E+00  0.62743872834E+00 -0.75177350704E+00  0.90007752266E+02  0.90000013796E+02 0.  0.
        -12    1    1    2    0    0  0.65889449047E+00 -0.62743872834E+00  0.75177350704E+00  0.11802477339E+01  0.00000000000E+00 0.  1.
         11    1    3    3    0    0  0.25681377639E+02  0.22890188673E+02  0.22325559088E+02  0.41011272643E+02  0.51100000000E-03 0. -1.
        -11    1    3    3    0    0  0.48927844981E-01  0.24804541980E+01 -0.10357602843E+02  0.10650586082E+02  0.51100000000E-03 0.  1.
        -12    1    3    3    0    0 -0.26389199975E+02 -0.24743204143E+02 -0.12719729752E+02  0.38345893542E+02  0.00000000000E+00 0.  1.
</event>
<event>
 7    1  0.1654239E-015  0.9000753E+02  0.7816164E-02  0.1186339E+00
        -11   -1    0    0    0    0  0.00000000000E+00  0.00000000000E+00  0.45593999997E+02  0.45594000000E+02  0.51100000000E-03 0.  1.
         11   -1    0    0    0    0 -0.00000000000E+00 -0.00000000000E+00 -0.45593999997E+02  0.45594000000E+02  0.51100000000E-03 0. -1.
    9900012    2    1    2    0    0  0.21023179488E+00  0.84833730459E+00 -0.79349550815E+00  0.90007530301E+02  0.89999788900E+02 0.  0.
        -12    1    1    2    0    0 -0.21023179488E+00 -0.84833730459E+00  0.79349550815E+00  0.11804696995E+01  0.00000000000E+00 0.  1.
         11    1    3    3    0    0  0.85885324322E+01 -0.28566827152E+01  0.41381674072E+01  0.99522839200E+01  0.51100000000E-03 0. -1.
        -11    1    3    3    0    0  0.84408217280E+01 -0.16512894091E+02  0.30641269386E+02  0.35816344488E+02  0.51100000000E-03 0.  1.
         12    1    3    3    0    0 -0.16819122365E+02  0.20217914111E+02 -0.35572932301E+02  0.44238901892E+02  0.00000000000E+00 0. -1.
</event>
<event>
 7    1  0.1654239E-015  0.9000778E+02  0.7816164E-02  0.1186339E+00
        -11   -1    0    0    0    0  0.00000000000E+00  0.00000000000E+00  0.45593999997E+02  0.45594000000E+02  0.51100000000E-03 0. -1.
         11   -1    0    0    0    0 -0.00000000000E+00 -0.00000000000E+00 -0.45593999997E+02  0.45594000000E+02  0.51100000000E-03 0.  1.
    9900012    2    1    2    0    0 -0.24018585491E+00 -0.11554830437E+01  0.94474960316E-02  0.90007779866E+02  0.90000041760E+02 0.  0.
        -12    1    1    2    0    0  0.24018585491E+00  0.11554830437E+01 -0.94474960316E-02  0.11802201339E+01  0.00000000000E+00 0.  1.
         11    1    3    3    0    0 -0.37361903232E+00 -0.60258271100E+01  0.73654095970E+01  0.95236254827E+01  0.51100000000E-03 0. -1.
        -11    1    3    3    0    0  0.49680779302E+01  0.42155786350E+02 -0.18724505796E+01  0.42488800789E+02  0.51100000000E-03 0.  1.
         12    1    3    3    0    0 -0.48346447528E+01 -0.37285442283E+02 -0.54835115215E+01  0.37995353594E+02  0.00000000000E+00 0. -1.
</event>
<event>
 7    1  0.1654239E-015  0.9000825E+02  0.7816164E-02  0.1186338E+00
        -11   -1    0    0    0    0  0.00000000000E+00  0.00000000000E+00  0.45593999997E+02  0.45594000000E+02  0.51100000000E-03 0. -1.
         11   -1    0    0    0    0 -0.00000000000E+00 -0.00000000000E+00 -0.45593999997E+02  0.45594000000E+02  0.51100000000E-03 0.  1.
    9900012    2    1    2    0    0 -0.81464435890E-01 -0.53677449086E+00  0.10473968821E+01  0.90008252766E+02  0.90000520901E+02 0.  0.
        -12    1    1    2    0    0  0.81464435890E-01  0.53677449086E+00 -0.10473968821E+01  0.11797472344E+01  0.00000000000E+00 0.  1.
         11    1    3    3    0    0  0.12695907163E+02 -0.16424351724E+02  0.35495415507E+02  0.41120188600E+02  0.51100000000E-03 0. -1.
        -11    1    3    3    0    0  0.80836671925E+01  0.46850299609E+01 -0.36294582592E+01  0.10023380095E+02  0.51100000000E-03 0.  1.
        -12    1    3    3    0    0 -0.20861038792E+02  0.11202547272E+02 -0.30818560366E+02  0.38864684070E+02  0.00000000000E+00 0.  1.
</event>
<event>
 7    1  0.1654239E-015  0.9000783E+02  0.7816164E-02  0.1186339E+00
        -11   -1    0    0    0    0  0.00000000000E+00  0.00000000000E+00  0.45593999997E+02  0.45594000000E+02  0.51100000000E-03 0. -1.
         11   -1    0    0    0    0 -0.00000000000E+00 -0.00000000000E+00 -0.45593999997E+02  0.45594000000E+02  0.51100000000E-03 0.  1.
    9900012    2    1    2    0    0 -0.11526997417E+01  0.23389813044E+00  0.96789236036E-01  0.90007833407E+02  0.90000096008E+02 0.  0.
        -12    1    1    2    0    0  0.11526997417E+01 -0.23389813044E+00 -0.96789236036E-01  0.11801665925E+01  0.00000000000E+00 0.  1.
         11    1    3    3    0    0 -0.34638327327E+02  0.11906486329E+01  0.13067304528E+02  0.37040326835E+02  0.51100000000E-03 0. -1.
        -11    1    3    3    0    0 -0.37227216437E+01  0.90046507616E+00  0.89550453234E+01  0.97397295032E+01  0.51100000000E-03 0.  1.
        -12    1    3    3    0    0  0.37208349229E+02 -0.18572155786E+01 -0.21925560615E+02  0.43227777069E+02  0.00000000000E+00 0.  1.
</event>
<event>
 7    1  0.1654239E-015  0.9000766E+02  0.7816164E-02  0.1186339E+00
        -11   -1    0    0    0    0  0.00000000000E+00  0.00000000000E+00  0.45593999997E+02  0.45594000000E+02  0.51100000000E-03 0.  1.
         11   -1    0    0    0    0 -0.00000000000E+00 -0.00000000000E+00 -0.45593999997E+02  0.45594000000E+02  0.51100000000E-03 0. -1.
    9900012    2    1    2    0    0  0.41895676642E+00  0.10468603917E+01  0.34893750468E+00  0.90007661560E+02  0.89999921892E+02 0.  0.
        -12    1    1    2    0    0 -0.41895676642E+00 -0.10468603917E+01 -0.34893750468E+00  0.11803384404E+01  0.00000000000E+00 0.  1.
         11    1    3    3    0    0  0.17706867552E+02  0.27945497738E+02 -0.11296389136E+02  0.34958438325E+02  0.51100000000E-03 0. -1.
        -11    1    3    3    0    0  0.12063763194E+02 -0.65154052451E+01 -0.62681306977E+01  0.15075621069E+02  0.51100000000E-03 0.  1.
        -12    1    3    3    0    0 -0.29351673980E+02 -0.20383232101E+02  0.17913457339E+02  0.39973602166E+02  0.00000000000E+00 0.  1.
</event>
<event>
 7    1  0.1654239E-015  0.9000774E+02  0.7816164E-02  0.1186339E+00
        -11   -1    0    0    0    0  0.00000000000E+00  0.00000000000E+00  0.45593999997E+02  0.45594000000E+02  0.51100000000E-03 0. -1.
         11   -1    0    0    0    0 -0.00000000000E+00 -0.00000000000E+00 -0.45593999997E+02  0.45594000000E+02  0.51100000000E-03 0.  1.
    9900012    2    1    2    0    0 -0.47951000537E+00  0.65995724216E+00  0.85295997535E+00  0.90007739806E+02  0.90000001171E+02 0.  0.
        -12    1    1    2    0    0  0.47951000537E+00 -0.65995724216E+00 -0.85295997535E+00  0.11802601943E+01  0.00000000000E+00 0.  1.
         11    1    3    3    0    0 -0.35980354758E+01 -0.15907209350E+02 -0.10974472653E+01  0.16345934031E+02  0.51100000000E-03 0. -1.
        -11    1    3    3    0    0 -0.16443403273E+02  0.39700008594E+02 -0.24910761545E+01  0.43042788644E+02  0.51100000000E-03 0.  1.
         12    1    3    3    0    0  0.19561928744E+02 -0.23132842002E+02  0.44414833952E+01  0.30619017130E+02  0.00000000000E+00 0. -1.
</event>
<event>
 7    1  0.1654239E-015  0.9000774E+02  0.7816164E-02  0.1186339E+00
        -11   -1    0    0    0    0  0.00000000000E+00  0.00000000000E+00  0.45593999997E+02  0.45594000000E+02  0.51100000000E-03 0.  1.
         11   -1    0    0    0    0 -0.00000000000E+00 -0.00000000000E+00 -0.45593999997E+02  0.45594000000E+02  0.51100000000E-03 0. -1.
    9900012    2    1    2    0    0 -0.99107670244E+00 -0.74108056663E-01 -0.63661850546E+00  0.90007742335E+02  0.90000003734E+02 0.  0.
        -12    1    1    2    0    0  0.99107670244E+00  0.74108056663E-01  0.63661850546E+00  0.11802576650E+01  0.00000000000E+00 0.  1.
         11    1    3    3    0    0 -0.30566200923E+02  0.30006253110E-01 -0.18157782122E+02  0.35552757855E+02  0.51100000000E-03 0. -1.
        -11    1    3    3    0    0 -0.75967200494E+01  0.22648129919E+01 -0.63996889438E+01  0.10188010220E+02  0.51100000000E-03 0.  1.
        -12    1    3    3    0    0  0.37171844270E+02 -0.23689273016E+01  0.23920852561E+02  0.44266974261E+02  0.00000000000E+00 0.  1.
</event>
<event>
 7    1  0.1654239E-015  0.9000779E+02  0.7816164E-02  0.1186339E+00
        -11   -1    0    0    0    0  0.00000000000E+00  0.00000000000E+00  0.45593999997E+02  0.45594000000E+02  0.51100000000E-03 0.  1.
         11   -1    0    0    0    0 -0.00000000000E+00 -0.00000000000E+00 -0.45593999997E+02  0.45594000000E+02  0.51100000000E-03 0. -1.
    9900012    2    1    2    0    0  0.28453898783E+00  0.10631561531E+01 -0.42619390273E+00  0.90007786170E+02  0.90000048148E+02 0.  0.
        -12    1    1    2    0    0 -0.28453898783E+00 -0.10631561531E+01  0.42619390273E+00  0.11802138298E+01  0.00000000000E+00 0.  1.
         11    1    3    3    0    0 -0.60390708852E+01 -0.15724381518E+01 -0.79213213406E+01  0.10084159407E+02  0.51100000000E-03 0. -1.
        -11    1    3    3    0    0  0.34369750791E+02 -0.17044410041E+02 -0.12382698472E+02  0.40312813159E+02  0.51100000000E-03 0.  1.
         12    1    3    3    0    0 -0.28046140918E+02  0.19680004346E+02  0.19877825910E+02  0.39610813604E+02  0.00000000000E+00 0. -1.
</event>
<event>
 7    1  0.1715040E-015  0.9000773E+02  0.7816164E-02  0.1186339E+00
        -11   -1    0    0    0    0  0.00000000000E+00  0.00000000000E+00  0.45593999997E+02  0.45594000000E+02  0.51100000000E-03 0. -1.
         11   -1    0    0    0    0 -0.00000000000E+00 -0.00000000000E+00 -0.45593999997E+02  0.45594000000E+02  0.51100000000E-03 0.  1.
    9900012    2    1    2    0    0 -0.39215407203E+00 -0.59732031121E+00  0.93939405756E+00  0.90007729876E+02  0.89999991110E+02 0.  0.
        -12    1    1    2    0    0  0.39215407203E+00  0.59732031121E+00 -0.93939405756E+00  0.11802701241E+01  0.00000000000E+00 0.  1.
         11    1    3    3    0    0  0.47352366036E-01  0.64269607601E+01  0.74055462664E+01  0.98056199510E+01  0.51100000000E-03 0. -1.
        -11    1    3    3    0    0  0.10474656227E+01  0.34427252997E+02 -0.15470127687E+02  0.37757883734E+02  0.51100000000E-03 0.  1.
         12    1    3    3    0    0 -0.14869720607E+01 -0.41451534068E+02  0.90039754784E+01  0.42444226191E+02  0.00000000000E+00 0. -1.
</event>
<event>
 7    1  0.1654239E-015  0.9000770E+02  0.7816164E-02  0.1186339E+00
        -11   -1    0    0    0    0  0.00000000000E+00  0.00000000000E+00  0.45593999997E+02  0.45594000000E+02  0.51100000000E-03 0.  1.
         11   -1    0    0    0    0 -0.00000000000E+00 -0.00000000000E+00 -0.45593999997E+02  0.45594000000E+02  0.51100000000E-03 0. -1.
    9900012    2    1    2    0    0  0.92258528237E+00 -0.65732715208E+00 -0.33146243256E+00  0.90007699220E+02  0.89999960049E+02 0.  0.
        -12    1    1    2    0    0 -0.92258528237E+00  0.65732715208E+00  0.33146243256E+00  0.11803007804E+01  0.00000000000E+00 0.  1.
         11    1    3    3    0    0 -0.33236980421E+02  0.10608944602E+02 -0.18712834572E+02  0.39590614432E+02  0.51100000000E-03 0. -1.
        -11    1    3    3    0    0  0.34904187987E+01  0.91959497152E+01  0.18354590186E+01  0.10005869509E+02  0.51100000000E-03 0.  1.
        -12    1    3    3    0    0  0.30669146905E+02 -0.20462221469E+02  0.16545913121E+02  0.40411215279E+02  0.00000000000E+00 0.  1.
</event>
<event>
 7    1  0.1654239E-015  0.9000775E+02  0.7816164E-02  0.1186339E+00
        -11   -1    0    0    0    0  0.00000000000E+00  0.00000000000E+00  0.45593999997E+02  0.45594000000E+02  0.51100000000E-03 0.  1.
         11   -1    0    0    0    0 -0.00000000000E+00 -0.00000000000E+00 -0.45593999997E+02  0.45594000000E+02  0.51100000000E-03 0. -1.
    9900012    2    1    2    0    0 -0.52852295676E+00 -0.10010395860E+01 -0.33401849878E+00  0.90007752091E+02  0.90000013619E+02 0.  0.
        -12    1    1    2    0    0  0.52852295676E+00  0.10010395860E+01  0.33401849878E+00  0.11802479087E+01  0.00000000000E+00 0.  1.
         11    1    3    3    0    0  0.91613077420E+01  0.36252803654E+02 -0.10391256311E+02  0.38809451687E+02  0.51100000000E-03 0. -1.
        -11    1    3    3    0    0  0.65755461784E+01 -0.46477752414E+01 -0.72716397442E+01  0.10849717373E+02  0.51100000000E-03 0.  1.
        -12    1    3    3    0    0 -0.16265376877E+02 -0.32606067998E+02  0.17328877557E+02  0.40348583031E+02  0.00000000000E+00 0.  1.
</event>
<event>
 7    1  0.1654239E-015  0.9000776E+02  0.7816164E-02  0.1186339E+00
        -11   -1    0    0    0    0  0.00000000000E+00  0.00000000000E+00  0.45593999997E+02  0.45594000000E+02  0.51100000000E-03 0. -1.
         11   -1    0    0    0    0 -0.00000000000E+00 -0.00000000000E+00 -0.45593999997E+02  0.45594000000E+02  0.51100000000E-03 0.  1.
    9900012    2    1    2    0    0  0.93013270139E+00  0.66591399517E+00  0.29049493728E+00  0.90007756127E+02  0.90000017708E+02 0.  0.
        -12    1    1    2    0    0 -0.93013270139E+00 -0.66591399517E+00 -0.29049493728E+00  0.11802438730E+01  0.00000000000E+00 0.  1.
         11    1    3    3    0    0 -0.35856663099E+02  0.19780187816E+02  0.87470025657E+01  0.41874409522E+02  0.51100000000E-03 0. -1.
        -11    1    3    3    0    0  0.16947235615E+01 -0.47540322550E+01 -0.88803265221E+01  0.10214358033E+02  0.51100000000E-03 0.  1.
        -12    1    3    3    0    0  0.35092072239E+02 -0.14360241566E+02  0.42381889377E+00  0.37918988572E+02  0.00000000000E+00 0.  1.
</event>
<event>
 7    1  0.1654239E-015  0.9000769E+02  0.7816164E-02  0.1186339E+00
        -11   -1    0    0    0    0  0.00000000000E+00  0.00000000000E+00  0.45593999997E+02  0.45594000000E+02  0.51100000000E-03 0.  1.
         11   -1    0    0    0    0 -0.00000000000E+00 -0.00000000000E+00 -0.45593999997E+02  0.45594000000E+02  0.51100000000E-03 0. -1.
    9900012    2    1    2    0    0 -0.25840374847E+00 -0.41008652120E-01 -0.11509448561E+01  0.90007691452E+02  0.89999952179E+02 0.  0.
        -12    1    1    2    0    0  0.25840374847E+00  0.41008652120E-01  0.11509448561E+01  0.11803085480E+01  0.00000000000E+00 0.  1.
         11    1    3    3    0    0  0.30549483603E+02 -0.28805820950E+02 -0.63696890722E+01  0.42469038230E+02  0.51100000000E-03 0. -1.
        -11    1    3    3    0    0 -0.59586795020E+01  0.38961041450E+00 -0.57175822010E+01  0.82673093670E+01  0.51100000000E-03 0.  1.
        -12    1    3    3    0    0 -0.24849207850E+02  0.28375201883E+02  0.10936326417E+02  0.39271343855E+02  0.00000000000E+00 0.  1.
</event>
<event>
 7    1  0.1654239E-015  0.9000771E+02  0.7816164E-02  0.1186339E+00
        -11   -1    0    0    0    0  0.00000000000E+00  0.00000000000E+00  0.45593999997E+02  0.45594000000E+02  0.51100000000E-03 0. -1.
         11   -1    0    0    0    0 -0.00000000000E+00 -0.00000000000E+00 -0.45593999997E+02  0.45594000000E+02  0.51100000000E-03 0.  1.
    9900012    2    1    2    0    0 -0.96502446369E+00 -0.63074905360E+00  0.25293109996E+00  0.90007707356E+02  0.89999968293E+02 0.  0.
        -12    1    1    2    0    0  0.96502446369E+00  0.63074905360E+00 -0.25293109996E+00  0.11802926440E+01  0.00000000000E+00 0.  1.
         11    1    3    3    0    0 -0.37145338409E+01  0.40756479162E+02  0.87240942917E+01  0.41844930120E+02  0.51100000000E-03 0. -1.
        -11    1    3    3    0    0  0.48611525707E+01 -0.32457526090E+01  0.49645772562E+01  0.76689465971E+01  0.51100000000E-03 0.  1.
        -12    1    3    3    0    0 -0.21116431935E+01 -0.38141475606E+02 -0.13435740448E+02  0.40493830639E+02  0.00000000000E+00 0.  1.
</event>
<event>
 7    1  0.1654239E-015  0.9000706E+02  0.7816164E-02  0.1186340E+00
        -11   -1    0    0    0    0  0.00000000000E+00  0.00000000000E+00  0.45593999997E+02  0.45594000000E+02  0.51100000000E-03 0. -1.
         11   -1    0    0    0    0 -0.00000000000E+00 -0.00000000000E+00 -0.45593999997E+02  0.45594000000E+02  0.51100000000E-03 0.  1.
    9900012    2    1    2    0    0 -0.60874293116E+00 -0.90532151667E-01  0.10078935375E+01  0.90007062487E+02  0.89999314909E+02 0.  0.
        -12    1    1    2    0    0  0.60874293116E+00  0.90532151667E-01 -0.10078935375E+01  0.11809375130E+01  0.00000000000E+00 0.  1.
         11    1    3    3    0    0  0.42477858801E+01  0.81129560865E+01 -0.19007901505E-01  0.91577345946E+01  0.51100000000E-03 0. -1.
        -11    1    3    3    0    0  0.37620483431E+02 -0.57986147661E+01  0.35474872817E+01  0.38229692296E+02  0.51100000000E-03 0.  1.
         12    1    3    3    0    0 -0.42477012242E+02 -0.24048734720E+01 -0.25205858428E+01  0.42619635597E+02  0.00000000000E+00 0. -1.
</event>
<event>
 7    1  0.1654239E-015  0.9000775E+02  0.7816164E-02  0.1186339E+00
        -11   -1    0    0    0    0  0.00000000000E+00  0.00000000000E+00  0.45593999997E+02  0.45594000000E+02  0.51100000000E-03 0. -1.
         11   -1    0    0    0    0 -0.00000000000E+00 -0.00000000000E+00 -0.45593999997E+02  0.45594000000E+02  0.51100000000E-03 0.  1.
    9900012    2    1    2    0    0  0.81988546063E+00  0.75760627115E+00  0.38316657698E+00  0.90007747461E+02  0.90000008927E+02 0.  0.
        -12    1    1    2    0    0 -0.81988546063E+00 -0.75760627115E+00 -0.38316657698E+00  0.11802525392E+01  0.00000000000E+00 0.  1.
         11    1    3    3    0    0  0.86124927155E+01  0.36147834499E+00  0.56872322460E+01  0.10327163611E+02  0.51100000000E-03 0. -1.
        -11    1    3    3    0    0  0.18716916803E+01  0.25104190865E+02  0.27637318846E+02  0.37383753450E+02  0.51100000000E-03 0.  1.
         12    1    3    3    0    0 -0.96642989351E+01 -0.24708062939E+02 -0.32941384515E+02  0.42296830400E+02  0.00000000000E+00 0. -1.
</event>
<event>
 7    1  0.1654239E-015  0.9000780E+02  0.7816164E-02  0.1186339E+00
        -11   -1    0    0    0    0  0.00000000000E+00  0.00000000000E+00  0.45593999997E+02  0.45594000000E+02  0.51100000000E-03 0.  1.
         11   -1    0    0    0    0 -0.00000000000E+00 -0.00000000000E+00 -0.45593999997E+02  0.45594000000E+02  0.51100000000E-03 0. -1.
    9900012    2    1    2    0    0 -0.25733883021E+00 -0.74183910483E+00 -0.88109771765E+00  0.90007795899E+02  0.90000058005E+02 0.  0.
        -12    1    1    2    0    0  0.25733883021E+00  0.74183910483E+00  0.88109771765E+00  0.11802041006E+01  0.00000000000E+00 0.  1.
         11    1    3    3    0    0 -0.18943006645E+02 -0.27271967403E+02 -0.54929297491E+01  0.33656648441E+02  0.51100000000E-03 0. -1.
        -11    1    3    3    0    0 -0.76689215048E+01 -0.57716959874E+01 -0.83202585996E+01  0.12702422408E+02  0.51100000000E-03 0.  1.
        -12    1    3    3    0    0  0.26354589320E+02  0.32301824286E+02  0.12932090631E+02  0.43648725050E+02  0.00000000000E+00 0.  1.
</event>
<event>
 7    1  0.1654239E-015  0.9000766E+02  0.7816164E-02  0.1186339E+00
        -11   -1    0    0    0    0  0.00000000000E+00  0.00000000000E+00  0.45593999997E+02  0.45594000000E+02  0.51100000000E-03 0. -1.
         11   -1    0    0    0    0 -0.00000000000E+00 -0.00000000000E+00 -0.45593999997E+02  0.45594000000E+02  0.51100000000E-03 0.  1.
    9900012    2    1    2    0    0  0.24016996028E+00 -0.65143028009E+00  0.95454984567E+00  0.90007657496E+02  0.89999917775E+02 0.  0.
        -12    1    1    2    0    0 -0.24016996028E+00  0.65143028009E+00 -0.95454984567E+00  0.11803425043E+01  0.00000000000E+00 0.  1.
         11    1    3    3    0    0 -0.31662521191E+02  0.58043847896E+01 -0.16466673777E+02  0.36157398641E+02  0.51100000000E-03 0. -1.
        -11    1    3    3    0    0 -0.81075514680E+01  0.20014433642E+01 -0.19870596275E+01  0.85840883366E+01  0.51100000000E-03 0.  1.
        -12    1    3    3    0    0  0.40010242619E+02 -0.84572584339E+01  0.19408283250E+02  0.45266170518E+02  0.00000000000E+00 0.  1.
</event>
<event>
 7    1  0.1654239E-015  0.9000775E+02  0.7816164E-02  0.1186339E+00
        -11   -1    0    0    0    0  0.00000000000E+00  0.00000000000E+00  0.45593999997E+02  0.45594000000E+02  0.51100000000E-03 0.  1.
         11   -1    0    0    0    0 -0.00000000000E+00 -0.00000000000E+00 -0.45593999997E+02  0.45594000000E+02  0.51100000000E-03 0. -1.
    9900012    2    1    2    0    0  0.23833659078E+00  0.71725587469E+00 -0.90649610227E+00  0.90007747695E+02  0.90000009164E+02 0.  0.
        -12    1    1    2    0    0 -0.23833659078E+00 -0.71725587469E+00  0.90649610227E+00  0.11802523051E+01  0.00000000000E+00 0.  1.
         11    1    3    3    0    0  0.33198706861E+01 -0.35154682753E+02  0.67264993987E+01  0.35946057576E+02  0.51100000000E-03 0. -1.
        -11    1    3    3    0    0  0.92198518730E+01 -0.33774343053E+01  0.50196444289E+01  0.11027672533E+02  0.51100000000E-03 0.  1.
        -12    1    3    3    0    0 -0.12301385968E+02  0.39249372933E+02 -0.12652639930E+02  0.43034017586E+02  0.00000000000E+00 0.  1.
</event>
<event>
 7    1  0.1654239E-015  0.9000771E+02  0.7816164E-02  0.1186339E+00
        -11   -1    0    0    0    0  0.00000000000E+00  0.00000000000E+00  0.45593999997E+02  0.45594000000E+02  0.51100000000E-03 0. -1.
         11   -1    0    0    0    0 -0.00000000000E+00 -0.00000000000E+00 -0.45593999997E+02  0.45594000000E+02  0.51100000000E-03 0.  1.
    9900012    2    1    2    0    0  0.37964323392E+00  0.92752728110E+00  0.62341754135E+00  0.90007709666E+02  0.89999970633E+02 0.  0.
        -12    1    1    2    0    0 -0.37964323392E+00 -0.92752728110E+00 -0.62341754135E+00  0.11802903342E+01  0.00000000000E+00 0.  1.
         11    1    3    3    0    0  0.88596817780E+01 -0.24142579020E+00 -0.29418526026E+01  0.93384551515E+01  0.51100000000E-03 0. -1.
        -11    1    3    3    0    0  0.33377137588E+02  0.14352896584E+02  0.54790912414E+01  0.36743154397E+02  0.51100000000E-03 0.  1.
         12    1    3    3    0    0 -0.41857176132E+02 -0.13183943513E+02 -0.19138210975E+01  0.43926100117E+02  0.00000000000E+00 0. -1.
</event>
<event>
 7    1  0.1654239E-015  0.9000794E+02  0.7816164E-02  0.1186339E+00
        -11   -1    0    0    0    0  0.00000000000E+00  0.00000000000E+00  0.45593999997E+02  0.45594000000E+02  0.51100000000E-03 0.  1.
         11   -1    0    0    0    0 -0.00000000000E+00 -0.00000000000E+00 -0.45593999997E+02  0.45594000000E+02  0.51100000000E-03 0. -1.
    9900012    2    1    2    0    0  0.31565787846E+00 -0.92696810369E+00  0.65851441680E+00  0.90007936019E+02  0.90000199975E+02 0.  0.
        -12    1    1    2    0    0 -0.31565787846E+00  0.92696810369E+00 -0.65851441680E+00  0.11800639807E+01  0.00000000000E+00 0.  1.
         11    1    3    3    0    0 -0.77010208665E+01 -0.64795071980E+01  0.13637142536E+01  0.10156251904E+02  0.51100000000E-03 0. -1.
        -11    1    3    3    0    0 -0.94698843638E+01 -0.32908014757E+02  0.11076785739E+02  0.35990433836E+02  0.51100000000E-03 0.  1.
         12    1    3    3    0    0  0.17486563109E+02  0.38460553852E+02 -0.11781985576E+02  0.43861250279E+02  0.00000000000E+00 0. -1.
</event>
<event>
 7    1  0.1654239E-015  0.9000774E+02  0.7816164E-02  0.1186339E+00
        -11   -1    0    0    0    0  0.00000000000E+00  0.00000000000E+00  0.45593999997E+02  0.45594000000E+02  0.51100000000E-03 0.  1.
         11   -1    0    0    0    0 -0.00000000000E+00 -0.00000000000E+00 -0.45593999997E+02  0.45594000000E+02  0.51100000000E-03 0. -1.
    9900012    2    1    2    0    0 -0.69854539291E+00 -0.62647122268E+00 -0.71594375384E+00  0.90007742690E+02  0.90000004094E+02 0.  0.
        -12    1    1    2    0    0  0.69854539291E+00  0.62647122268E+00  0.71594375384E+00  0.11802573099E+01  0.00000000000E+00 0.  1.
         11    1    3    3    0    0 -0.41510072064E+01 -0.18289034723E+01 -0.25290693353E+02  0.25694258488E+02  0.51100000000E-03 0. -1.
        -11    1    3    3    0    0 -0.46471833670E+01  0.18350938314E+02 -0.12489409587E+02  0.22679034422E+02  0.51100000000E-03 0.  1.
        -12    1    3    3    0    0  0.80996451806E+01 -0.17148506064E+02  0.37064159186E+02  0.41634449779E+02  0.00000000000E+00 0.  1.
</event>
<event>
 7    1  0.1654239E-015  0.9000774E+02  0.7816164E-02  0.1186339E+00
        -11   -1    0    0    0    0  0.00000000000E+00  0.00000000000E+00  0.45593999997E+02  0.45594000000E+02  0.51100000000E-03 0.  1.
         11   -1    0    0    0    0 -0.00000000000E+00 -0.00000000000E+00 -0.45593999997E+02  0.45594000000E+02  0.51100000000E-03 0. -1.
    9900012    2    1    2    0    0  0.69667512926E+00 -0.79466685273E+00 -0.52550769506E+00  0.90007741562E+02  0.90000002951E+02 0.  0.
        -12    1    1    2    0    0 -0.69667512926E+00  0.79466685273E+00  0.52550769506E+00  0.11802584379E+01  0.00000000000E+00 0.  1.
         11    1    3    3    0    0 -0.10737083062E+01 -0.72527728332E+01  0.10320489860E+02  0.12659702781E+02  0.51100000000E-03 0. -1.
        -11    1    3    3    0    0  0.61849369403E+01  0.24229924467E+02  0.26079406213E+02  0.36131400655E+02  0.51100000000E-03 0.  1.
         12    1    3    3    0    0 -0.44145535049E+01 -0.17771818486E+02 -0.36925403768E+02  0.41216638126E+02  0.00000000000E+00 0. -1.
</event>
<event>
 7    1  0.1654239E-015  0.9000781E+02  0.7816164E-02  0.1186339E+00
        -11   -1    0    0    0    0  0.00000000000E+00  0.00000000000E+00  0.45593999997E+02  0.45594000000E+02  0.51100000000E-03 0.  1.
         11   -1    0    0    0    0 -0.00000000000E+00 -0.00000000000E+00 -0.45593999997E+02  0.45594000000E+02  0.51100000000E-03 0. -1.
    9900012    2    1    2    0    0  0.63183527345E+00  0.33280103056E+00 -0.93961661392E+00  0.90007808609E+02  0.90000070882E+02 0.  0.
        -12    1    1    2    0    0 -0.63183527345E+00 -0.33280103056E+00  0.93961661392E+00  0.11801913912E+01  0.00000000000E+00 0.  1.
         11    1    3    3    0    0 -0.27767925148E+02 -0.82290172630E+01 -0.17672410265E+02  0.33927694837E+02  0.51100000000E-03 0. -1.
        -11    1    3    3    0    0 -0.11140274518E+02  0.27130238644E+01 -0.24815517032E+01  0.11731338966E+02  0.51100000000E-03 0.  1.
        -12    1    3    3    0    0  0.39540034940E+02  0.58487944291E+01  0.19214345354E+02  0.44348774805E+02  0.00000000000E+00 0.  1.
</event>
<event>
 7    1  0.1654239E-015  0.9000768E+02  0.7816164E-02  0.1186339E+00
        -11   -1    0    0    0    0  0.00000000000E+00  0.00000000000E+00  0.45593999997E+02  0.45594000000E+02  0.51100000000E-03 0. -1.
         11   -1    0    0    0    0 -0.00000000000E+00 -0.00000000000E+00 -0.45593999997E+02  0.45594000000E+02  0.51100000000E-03 0.  1.
    9900012    2    1    2    0    0  0.28170119273E+00  0.11141545979E+01  0.26916491190E+00  0.90007684034E+02  0.89999944663E+02 0.  0.
        -12    1    1    2    0    0 -0.28170119273E+00 -0.11141545979E+01 -0.26916491190E+00  0.11803159661E+01  0.00000000000E+00 0.  1.
         11    1    3    3    0    0  0.28637283493E+02  0.22549045307E+02  0.20069859649E+01  0.36504540033E+02  0.51100000000E-03 0. -1.
        -11    1    3    3    0    0  0.98680864231E+01 -0.49181461753E+00  0.69613315318E-01  0.98805798184E+01  0.51100000000E-03 0.  1.
        -12    1    3    3    0    0 -0.38223668723E+02 -0.20943076091E+02 -0.18074343683E+01  0.43622564182E+02  0.00000000000E+00 0.  1.
</event>
<event>
 7    1  0.1654239E-015  0.9000798E+02  0.7816164E-02  0.1186339E+00
        -11   -1    0    0    0    0  0.00000000000E+00  0.00000000000E+00  0.45593999997E+02  0.45594000000E+02  0.51100000000E-03 0. -1.
         11   -1    0    0    0    0 -0.00000000000E+00 -0.00000000000E+00 -0.45593999997E+02  0.45594000000E+02  0.51100000000E-03 0.  1.
    9900012    2    1    2    0    0 -0.33538919558E+00  0.80071437883E+00  0.79925365368E+00  0.90007984817E+02  0.90000249416E+02 0.  0.
        -12    1    1    2    0    0  0.33538919558E+00 -0.80071437883E+00 -0.79925365368E+00  0.11800151829E+01  0.00000000000E+00 0.  1.
         11    1    3    3    0    0  0.53003314808E+01 -0.62795315789E+01  0.82703554024E+01  0.11658679574E+02  0.51100000000E-03 0. -1.
        -11    1    3    3    0    0 -0.12620783041E+02 -0.29099556013E+02 -0.22148023420E+02  0.38685956966E+02  0.51100000000E-03 0.  1.
         12    1    3    3    0    0  0.69850623643E+01  0.36179801970E+02  0.14676921671E+02  0.39663348278E+02  0.00000000000E+00 0. -1.
</event>
<event>
 7    1  0.1654239E-015  0.9000793E+02  0.7816164E-02  0.1186339E+00
        -11   -1    0    0    0    0  0.00000000000E+00  0.00000000000E+00  0.45593999997E+02  0.45594000000E+02  0.51100000000E-03 0.  1.
         11   -1    0    0    0    0 -0.00000000000E+00 -0.00000000000E+00 -0.45593999997E+02  0.45594000000E+02  0.51100000000E-03 0. -1.
    9900012    2    1    2    0    0 -0.69535687024E+00 -0.67748404455E+00 -0.67085851848E+00  0.90007933494E+02  0.90000197416E+02 0.  0.
        -12    1    1    2    0    0  0.69535687024E+00  0.67748404455E+00  0.67085851848E+00  0.11800665064E+01  0.00000000000E+00 0.  1.
         11    1    3    3    0    0 -0.14191001791E+02  0.32457942005E+02  0.39980942128E+01  0.35649506149E+02  0.51100000000E-03 0. -1.
        -11    1    3    3    0    0  0.95293835862E+00  0.75721541944E+01  0.68254063980E+01  0.10238739347E+02  0.51100000000E-03 0.  1.
        -12    1    3    3    0    0  0.12542706562E+02 -0.40707580244E+02 -0.11494359129E+02  0.44119687998E+02  0.00000000000E+00 0.  1.
</event>
<event>
 7    1  0.1654239E-015  0.9000779E+02  0.7816164E-02  0.1186339E+00
        -11   -1    0    0    0    0  0.00000000000E+00  0.00000000000E+00  0.45593999997E+02  0.45594000000E+02  0.51100000000E-03 0.  1.
         11   -1    0    0    0    0 -0.00000000000E+00 -0.00000000000E+00 -0.45593999997E+02  0.45594000000E+02  0.51100000000E-03 0. -1.
    9900012    2    1    2    0    0 -0.63006088878E+00  0.49834281814E+00 -0.86462749875E+00  0.90007786884E+02  0.90000048871E+02 0.  0.
        -12    1    1    2    0    0  0.63006088878E+00 -0.49834281814E+00  0.86462749875E+00  0.11802131162E+01  0.00000000000E+00 0.  1.
         11    1    3    3    0    0 -0.35250760026E+02 -0.57915649107E+01 -0.25997819954E+02  0.44181952754E+02  0.51100000000E-03 0. -1.
        -11    1    3    3    0    0  0.44408965049E+01  0.65143454092E+01  0.31604852084E+01  0.84939345942E+01  0.51100000000E-03 0.  1.
        -12    1    3    3    0    0  0.30179802632E+02 -0.22443768041E+00  0.21972707247E+02  0.37331899536E+02  0.00000000000E+00 0.  1.
</event>
<event>
 7    1  0.1654239E-015  0.9000777E+02  0.7816164E-02  0.1186339E+00
        -11   -1    0    0    0    0  0.00000000000E+00  0.00000000000E+00  0.45593999997E+02  0.45594000000E+02  0.51100000000E-03 0.  1.
         11   -1    0    0    0    0 -0.00000000000E+00 -0.00000000000E+00 -0.45593999997E+02  0.45594000000E+02  0.51100000000E-03 0. -1.
    9900012    2    1    2    0    0  0.88158814037E+00  0.19895182533E+00 -0.75905379094E+00  0.90007770304E+02  0.90000032072E+02 0.  0.
        -12    1    1    2    0    0 -0.88158814037E+00 -0.19895182533E+00  0.75905379094E+00  0.11802296961E+01  0.00000000000E+00 0.  1.
         11    1    3    3    0    0  0.13433618122E+02 -0.13711661878E+02 -0.34107461510E+02  0.39138097785E+02  0.51100000000E-03 0. -1.
        -11    1    3    3    0    0 -0.17200243519E+02  0.95618160870E+01  0.30554036634E+01  0.19915124800E+02  0.51100000000E-03 0.  1.
        -12    1    3    3    0    0  0.46482135378E+01  0.43487976161E+01  0.30293004055E+02  0.30954547719E+02  0.00000000000E+00 0.  1.
</event>
<event>
 7    1  0.1853305E-015  0.9000769E+02  0.7816164E-02  0.1186339E+00
        -11   -1    0    0    0    0  0.00000000000E+00  0.00000000000E+00  0.45593999997E+02  0.45594000000E+02  0.51100000000E-03 0. -1.
         11   -1    0    0    0    0 -0.00000000000E+00 -0.00000000000E+00 -0.45593999997E+02  0.45594000000E+02  0.51100000000E-03 0.  1.
    9900012    2    1    2    0    0 -0.83879101794E+00  0.78400615241E+00  0.27367303336E+00  0.90007689470E+02  0.89999950171E+02 0.  0.
        -12    1    1    2    0    0  0.83879101794E+00 -0.78400615241E+00 -0.27367303336E+00  0.11803105303E+01  0.00000000000E+00 0.  1.
         11    1    3    3    0    0  0.87940404523E+00  0.91190499512E+01 -0.41237519144E-01  0.91614477176E+01  0.51100000000E-03 0. -1.
        -11    1    3    3    0    0  0.27368665995E+02  0.40717119628E+01 -0.27294831547E+02  0.38866830924E+02  0.51100000000E-03 0.  1.
         12    1    3    3    0    0 -0.29086861058E+02 -0.12406755762E+02  0.27609742099E+02  0.41979410828E+02  0.00000000000E+00 0. -1.
</event>
<event>
 7    1  0.1654239E-015  0.9000770E+02  0.7816164E-02  0.1186339E+00
        -11   -1    0    0    0    0  0.00000000000E+00  0.00000000000E+00  0.45593999997E+02  0.45594000000E+02  0.51100000000E-03 0. -1.
         11   -1    0    0    0    0 -0.00000000000E+00 -0.00000000000E+00 -0.45593999997E+02  0.45594000000E+02  0.51100000000E-03 0.  1.
    9900012    2    1    2    0    0  0.89886609746E+00 -0.76094554372E+00  0.78218241876E-01  0.90007696448E+02  0.89999957241E+02 0.  0.
        -12    1    1    2    0    0 -0.89886609746E+00  0.76094554372E+00 -0.78218241876E-01  0.11803035521E+01  0.00000000000E+00 0.  1.
         11    1    3    3    0    0  0.11906781878E+01  0.37815960999E+01 -0.80627642158E+01  0.89847843976E+01  0.51100000000E-03 0. -1.
        -11    1    3    3    0    0 -0.21457064576E+02 -0.10741904716E+02 -0.29114679239E+02  0.37728751431E+02  0.51100000000E-03 0.  1.
         12    1    3    3    0    0  0.21165252485E+02  0.61993630728E+01  0.37255661696E+02  0.43294160619E+02  0.00000000000E+00 0. -1.
</event>
<event>
 7    1  0.1654239E-015  0.9000775E+02  0.7816164E-02  0.1186339E+00
        -11   -1    0    0    0    0  0.00000000000E+00  0.00000000000E+00  0.45593999997E+02  0.45594000000E+02  0.51100000000E-03 0.  1.
         11   -1    0    0    0    0 -0.00000000000E+00 -0.00000000000E+00 -0.45593999997E+02  0.45594000000E+02  0.51100000000E-03 0. -1.
    9900012    2    1    2    0    0  0.10584628177E+01  0.14907256540E+00 -0.50042385262E+00  0.90007749942E+02  0.90000011442E+02 0.  0.
        -12    1    1    2    0    0 -0.10584628177E+01 -0.14907256540E+00  0.50042385262E+00  0.11802500576E+01  0.00000000000E+00 0.  1.
         11    1    3    3    0    0  0.11966897265E+01  0.97448052866E+01  0.27257624621E+01  0.10189361002E+02  0.51100000000E-03 0. -1.
        -11    1    3    3    0    0 -0.36416841154E+02  0.45123870880E+01 -0.14245477676E+02  0.39363455023E+02  0.51100000000E-03 0.  1.
         12    1    3    3    0    0  0.36278614245E+02 -0.14108119809E+02  0.11019291361E+02  0.40454933917E+02  0.00000000000E+00 0. -1.
</event>
<event>
 7    1  0.1654239E-015  0.9000805E+02  0.7816164E-02  0.1186338E+00
        -11   -1    0    0    0    0  0.00000000000E+00  0.00000000000E+00  0.45593999997E+02  0.45594000000E+02  0.51100000000E-03 0.  1.
         11   -1    0    0    0    0 -0.00000000000E+00 -0.00000000000E+00 -0.45593999997E+02  0.45594000000E+02  0.51100000000E-03 0. -1.
    9900012    2    1    2    0    0  0.10106032225E+01  0.21434303266E+00  0.57009900515E+00  0.90008053101E+02  0.90000318601E+02 0.  0.
        -12    1    1    2    0    0 -0.10106032225E+01 -0.21434303266E+00 -0.57009900515E+00  0.11799468991E+01  0.00000000000E+00 0.  1.
         11    1    3    3    0    0 -0.28029144949E+02 -0.49696162371E+01 -0.20261499024E+02  0.34940784122E+02  0.51100000000E-03 0. -1.
        -11    1    3    3    0    0  0.96490323934E+01  0.22801482856E+02  0.94085707428E+01  0.26486461641E+02  0.51100000000E-03 0.  1.
        -12    1    3    3    0    0  0.19390715778E+02 -0.17617523586E+02  0.11423027286E+02  0.28580807338E+02  0.00000000000E+00 0.  1.
</event>
<event>
 7    1  0.1654239E-015  0.9000774E+02  0.7816164E-02  0.1186339E+00
        -11   -1    0    0    0    0  0.00000000000E+00  0.00000000000E+00  0.45593999997E+02  0.45594000000E+02  0.51100000000E-03 0. -1.
         11   -1    0    0    0    0 -0.00000000000E+00 -0.00000000000E+00 -0.45593999997E+02  0.45594000000E+02  0.51100000000E-03 0.  1.
    9900012    2    1    2    0    0 -0.90230094123E+00 -0.75725708005E+00 -0.73744647094E-01  0.90007735815E+02  0.89999997128E+02 0.  0.
        -12    1    1    2    0    0  0.90230094123E+00  0.75725708005E+00  0.73744647094E-01  0.11802641852E+01  0.00000000000E+00 0.  1.
         11    1    3    3    0    0 -0.37158085757E+02  0.51120820876E+01 -0.15680700384E+02  0.40653918448E+02  0.51100000000E-03 0. -1.
        -11    1    3    3    0    0 -0.36377545766E+01 -0.56391839570E+01  0.39697744046E+01  0.77969714085E+01  0.51100000000E-03 0.  1.
        -12    1    3    3    0    0  0.39893539392E+02 -0.23015521064E+00  0.11637181332E+02  0.41556845958E+02  0.00000000000E+00 0.  1.
</event>
<event>
 7    1  0.1654239E-015  0.9000776E+02  0.7816164E-02  0.1186339E+00
        -11   -1    0    0    0    0  0.00000000000E+00  0.00000000000E+00  0.45593999997E+02  0.45594000000E+02  0.51100000000E-03 0. -1.
         11   -1    0    0    0    0 -0.00000000000E+00 -0.00000000000E+00 -0.45593999997E+02  0.45594000000E+02  0.51100000000E-03 0.  1.
    9900012    2    1    2    0    0  0.71848434562E+00  0.69265813299E+00  0.63006306522E+00  0.90007756589E+02  0.90000018176E+02 0.  0.
        -12    1    1    2    0    0 -0.71848434562E+00 -0.69265813299E+00 -0.63006306522E+00  0.11802434114E+01  0.00000000000E+00 0.  1.
         11    1    3    3    0    0  0.42405425306E+01 -0.53864389738E+00  0.20724093938E+02  0.21160349903E+02  0.51100000000E-03 0. -1.
        -11    1    3    3    0    0  0.12917113039E+02 -0.10058524310E+02  0.18927309688E+02  0.25025362592E+02  0.51100000000E-03 0.  1.
        -12    1    3    3    0    0 -0.16439171224E+02  0.11289826340E+02 -0.39021340561E+02  0.43822044093E+02  0.00000000000E+00 0.  1.
</event>
<event>
 7    1  0.1654239E-015  0.9000773E+02  0.7816164E-02  0.1186339E+00
        -11   -1    0    0    0    0  0.00000000000E+00  0.00000000000E+00  0.45593999997E+02  0.45594000000E+02  0.51100000000E-03 0. -1.
         11   -1    0    0    0    0 -0.00000000000E+00 -0.00000000000E+00 -0.45593999997E+02  0.45594000000E+02  0.51100000000E-03 0.  1.
    9900012    2    1    2    0    0 -0.23141728261E+00 -0.75033643731E+00  0.88117654755E+00  0.90007732727E+02  0.89999993999E+02 0.  0.
        -12    1    1    2    0    0  0.23141728261E+00  0.75033643731E+00 -0.88117654755E+00  0.11802672730E+01  0.00000000000E+00 0.  1.
         11    1    3    3    0    0  0.42108888315E+00  0.12631093323E+02  0.74631309949E+01  0.14677198605E+02  0.51100000000E-03 0. -1.
        -11    1    3    3    0    0  0.24546391125E+02 -0.32017375982E+02  0.73910193686E+01  0.41015422094E+02  0.51100000000E-03 0.  1.
         12    1    3    3    0    0 -0.25198897291E+02  0.18635946222E+02 -0.13972973816E+02  0.34315112028E+02  0.00000000000E+00 0. -1.
</event>
<event>
 7    1  0.1654239E-015  0.9000774E+02  0.7816164E-02  0.1186339E+00
        -11   -1    0    0    0    0  0.00000000000E+00  0.00000000000E+00  0.45593999997E+02  0.45594000000E+02  0.51100000000E-03 0. -1.
         11   -1    0    0    0    0 -0.00000000000E+00 -0.00000000000E+00 -0.45593999997E+02  0.45594000000E+02  0.51100000000E-03 0.  1.
    9900012    2    1    2    0    0 -0.38170544787E+00 -0.84630703154E+00  0.72875400894E+00  0.90007738569E+02  0.89999999918E+02 0.  0.
        -12    1    1    2    0    0  0.38170544787E+00  0.84630703154E+00 -0.72875400894E+00  0.11802614313E+01  0.00000000000E+00 0.  1.
         11    1    3    3    0    0 -0.43921122896E+02 -0.68169436734E+01  0.30964607191E+01  0.44554728444E+02  0.51100000000E-03 0. -1.
        -11    1    3    3    0    0  0.87484633704E+01 -0.10727874181E+01 -0.44921695058E+01  0.98927282040E+01  0.51100000000E-03 0.  1.
        -12    1    3    3    0    0  0.34790954078E+02  0.70434240600E+01  0.21244627957E+01  0.35560281921E+02  0.00000000000E+00 0.  1.
</event>
<event>
 7    1  0.1654239E-015  0.9000765E+02  0.7816164E-02  0.1186339E+00
        -11   -1    0    0    0    0  0.00000000000E+00  0.00000000000E+00  0.45593999997E+02  0.45594000000E+02  0.51100000000E-03 0.  1.
         11   -1    0    0    0    0 -0.00000000000E+00 -0.00000000000E+00 -0.45593999997E+02  0.45594000000E+02  0.51100000000E-03 0. -1.
    9900012    2    1    2    0    0 -0.11170481861E+00 -0.10644050461E+01 -0.49779586536E+00  0.90007645480E+02  0.89999905601E+02 0.  0.
        -12    1    1    2    0    0  0.11170481861E+00  0.10644050461E+01  0.49779586536E+00  0.11803545197E+01  0.00000000000E+00 0.  1.
         11    1    3    3    0    0 -0.39449250882E+01  0.57814641275E+01  0.44679534794E+01  0.83036359484E+01  0.51100000000E-03 0. -1.
        -11    1    3    3    0    0 -0.28691883713E+02 -0.21742160155E+02  0.16908449220E+02  0.39772369486E+02  0.51100000000E-03 0.  1.
         12    1    3    3    0    0  0.32525103983E+02  0.14896290981E+02 -0.21874198565E+02  0.41931640046E+02  0.00000000000E+00 0. -1.
</event>
